 Entering Gaussian System, Link 0=g16
 Initial command:
 /usr/local/g16/l1.exe "/dados_01/scratch/Gau-3590536.inp" -scrdir="/dados_01/scratch/"
 Entering Link 1 = /usr/local/g16/l1.exe PID=   3590537.
  
 Copyright (c) 1988-2017, Gaussian, Inc.  All Rights Reserved.
  
 This is part of the Gaussian(R) 16 program.  It is based on
 the Gaussian(R) 09 system (copyright 2009, Gaussian, Inc.),
 the Gaussian(R) 03 system (copyright 2003, Gaussian, Inc.),
 the Gaussian(R) 98 system (copyright 1998, Gaussian, Inc.),
 the Gaussian(R) 94 system (copyright 1995, Gaussian, Inc.),
 the Gaussian 92(TM) system (copyright 1992, Gaussian, Inc.),
 the Gaussian 90(TM) system (copyright 1990, Gaussian, Inc.),
 the Gaussian 88(TM) system (copyright 1988, Gaussian, Inc.),
 the Gaussian 86(TM) system (copyright 1986, Carnegie Mellon
 University), and the Gaussian 82(TM) system (copyright 1983,
 Carnegie Mellon University). Gaussian is a federally registered
 trademark of Gaussian, Inc.
  
 This software contains proprietary and confidential information,
 including trade secrets, belonging to Gaussian, Inc.
  
 This software is provided under written license and may be
 used, copied, transmitted, or stored only in accord with that
 written license.
  
 The following legend is applicable only to US Government
 contracts under FAR:
  
                    RESTRICTED RIGHTS LEGEND
  
 Use, reproduction and disclosure by the US Government is
 subject to restrictions as set forth in subparagraphs (a)
 and (c) of the Commercial Computer Software - Restricted
 Rights clause in FAR 52.227-19.
  
 Gaussian, Inc.
 340 Quinnipiac St., Bldg. 40, Wallingford CT 06492
  
  
 ---------------------------------------------------------------
 Warning -- This program may not be used in any manner that
 competes with the business of Gaussian, Inc. or will provide
 assistance to any competitor of Gaussian, Inc.  The licensee
 of this program is prohibited from giving any competitor of
 Gaussian, Inc. access to this program.  By using this program,
 the user acknowledges that Gaussian, Inc. is engaged in the
 business of creating and licensing software in the field of
 computational chemistry and represents and warrants to the
 licensee that it is not a competitor of Gaussian, Inc. and that
 it will not use this program in any manner prohibited above.
 ---------------------------------------------------------------
  

 Cite this work as:
 Gaussian 16, Revision B.01,
 M. J. Frisch, G. W. Trucks, H. B. Schlegel, G. E. Scuseria, 
 M. A. Robb, J. R. Cheeseman, G. Scalmani, V. Barone, 
 G. A. Petersson, H. Nakatsuji, X. Li, M. Caricato, A. V. Marenich, 
 J. Bloino, B. G. Janesko, R. Gomperts, B. Mennucci, H. P. Hratchian, 
 J. V. Ortiz, A. F. Izmaylov, J. L. Sonnenberg, D. Williams-Young, 
 F. Ding, F. Lipparini, F. Egidi, J. Goings, B. Peng, A. Petrone, 
 T. Henderson, D. Ranasinghe, V. G. Zakrzewski, J. Gao, N. Rega, 
 G. Zheng, W. Liang, M. Hada, M. Ehara, K. Toyota, R. Fukuda, 
 J. Hasegawa, M. Ishida, T. Nakajima, Y. Honda, O. Kitao, H. Nakai, 
 T. Vreven, K. Throssell, J. A. Montgomery, Jr., J. E. Peralta, 
 F. Ogliaro, M. J. Bearpark, J. J. Heyd, E. N. Brothers, K. N. Kudin, 
 V. N. Staroverov, T. A. Keith, R. Kobayashi, J. Normand, 
 K. Raghavachari, A. P. Rendell, J. C. Burant, S. S. Iyengar, 
 J. Tomasi, M. Cossi, J. M. Millam, M. Klene, C. Adamo, R. Cammi, 
 J. W. Ochterski, R. L. Martin, K. Morokuma, O. Farkas, 
 J. B. Foresman, and D. J. Fox, Gaussian, Inc., Wallingford CT, 2016.
 
 ******************************************
 Gaussian 16:  ES64L-G16RevB.01 20-Dec-2017
                22-Nov-2025 
 ******************************************
 %nprocs=16
 Will use up to   16 processors via shared memory.
 %mem=40GB
 %chk=AAQE0080.chk
 ----------------------------------------------------------------------
 # freq=noraman M08HX/6-311++G** scf=xqc Empiricaldispersion=pfd Int(Gr
 id=ultraFine) Geom=AllCheck Guess=Read
 ----------------------------------------------------------------------
 1/10=4,29=7,30=1,38=1/1,3;
 2/12=2,40=1/2;
 3/5=4,6=6,7=1111,11=2,14=-4,25=1,30=1,71=2,74=-74,75=-5,116=-2,124=11,140=1/1,2,3;
 4/5=1/1;
 5/5=2,8=3,13=1,38=6,98=1/2,8;
 8/6=4,10=90,11=11/1;
 11/6=1,8=1,9=11,15=111,16=1/1,2,10;
 10/6=1/2;
 6/7=2,8=2,9=2,10=2,28=1/1;
 7/8=1,10=1,25=1/1,2,3,16;
 1/10=4,30=1/3;
 99//99;
 Structure from the checkpoint file:  "AAQE0080.chk"
 --------
 AAQE0080
 --------
 Charge =  0 Multiplicity = 1
 Redundant internal coordinates found in file.  (old form).
 O,0,0.0000051138,-2.6846411831,-0.0001625327
 O,0,0.000002996,2.6846250928,0.0005260294
 C,0,-1.2761440058,0.699956858,0.0002703277
 C,0,-1.2761426402,-0.6999769156,0.0001149153
 C,0,1.2761508994,0.6999600787,0.0002609392
 C,0,1.2761524042,-0.6999736463,0.0001063426
 C,0,0.0000055196,-1.4755605465,0.0000638494
 C,0,0.0000028574,1.475544247,0.000333358
 C,0,-2.4841581619,1.3967078585,0.0003515491
 C,0,-2.484154451,-1.3967316932,0.0000242578
 C,0,2.4841627842,1.3967149097,0.0003334022
 C,0,2.4841665155,-1.3967246503,0.0000082066
 C,0,-3.6851804428,-0.6986536132,0.0001015163
 C,0,3.6851904551,-0.6986426608,0.0000754347
 C,0,3.6851888859,0.6986369062,0.0002410334
 C,0,-3.6851822786,0.6986259855,0.0002684678
 H,0,-2.4547272774,2.4847035306,0.0004747508
 H,0,-2.454720652,-2.484727553,-0.0000971321
 H,0,2.4547289065,2.484710592,0.0004556728
 H,0,2.4547357972,-2.4847204075,-0.000112683
 H,0,-4.6286640682,-1.2416441326,0.0000349099
 H,0,4.6286757973,-1.2416303845,0.0000020775
 H,0,4.6286723921,1.2416274854,0.0002949941
 H,0,-4.6286673464,1.2416138421,0.000330313
 Recover connectivity data from disk.

 GradGradGradGradGradGradGradGradGradGradGradGradGradGradGradGradGradGrad
 Berny optimization.
 Initialization pass.
                           ----------------------------
                           !    Initial Parameters    !
                           ! (Angstroms and Degrees)  !
 --------------------------                            --------------------------
 ! Name  Definition              Value          Derivative Info.                !
 --------------------------------------------------------------------------------
 ! R1    R(1,7)                  1.2091         calculate D2E/DX2 analytically  !
 ! R2    R(2,8)                  1.2091         calculate D2E/DX2 analytically  !
 ! R3    R(3,4)                  1.3999         calculate D2E/DX2 analytically  !
 ! R4    R(3,8)                  1.4933         calculate D2E/DX2 analytically  !
 ! R5    R(3,9)                  1.3945         calculate D2E/DX2 analytically  !
 ! R6    R(4,7)                  1.4933         calculate D2E/DX2 analytically  !
 ! R7    R(4,10)                 1.3945         calculate D2E/DX2 analytically  !
 ! R8    R(5,6)                  1.3999         calculate D2E/DX2 analytically  !
 ! R9    R(5,8)                  1.4933         calculate D2E/DX2 analytically  !
 ! R10   R(5,11)                 1.3945         calculate D2E/DX2 analytically  !
 ! R11   R(6,7)                  1.4933         calculate D2E/DX2 analytically  !
 ! R12   R(6,12)                 1.3945         calculate D2E/DX2 analytically  !
 ! R13   R(9,16)                 1.3892         calculate D2E/DX2 analytically  !
 ! R14   R(9,17)                 1.0884         calculate D2E/DX2 analytically  !
 ! R15   R(10,13)                1.3892         calculate D2E/DX2 analytically  !
 ! R16   R(10,18)                1.0884         calculate D2E/DX2 analytically  !
 ! R17   R(11,15)                1.3892         calculate D2E/DX2 analytically  !
 ! R18   R(11,19)                1.0884         calculate D2E/DX2 analytically  !
 ! R19   R(12,14)                1.3892         calculate D2E/DX2 analytically  !
 ! R20   R(12,20)                1.0884         calculate D2E/DX2 analytically  !
 ! R21   R(13,16)                1.3973         calculate D2E/DX2 analytically  !
 ! R22   R(13,21)                1.0886         calculate D2E/DX2 analytically  !
 ! R23   R(14,15)                1.3973         calculate D2E/DX2 analytically  !
 ! R24   R(14,22)                1.0886         calculate D2E/DX2 analytically  !
 ! R25   R(15,23)                1.0886         calculate D2E/DX2 analytically  !
 ! R26   R(16,24)                1.0886         calculate D2E/DX2 analytically  !
 ! A1    A(4,3,8)              121.2894         calculate D2E/DX2 analytically  !
 ! A2    A(4,3,9)              119.9753         calculate D2E/DX2 analytically  !
 ! A3    A(8,3,9)              118.7353         calculate D2E/DX2 analytically  !
 ! A4    A(3,4,7)              121.2893         calculate D2E/DX2 analytically  !
 ! A5    A(3,4,10)             119.9754         calculate D2E/DX2 analytically  !
 ! A6    A(7,4,10)             118.7353         calculate D2E/DX2 analytically  !
 ! A7    A(6,5,8)              121.2894         calculate D2E/DX2 analytically  !
 ! A8    A(6,5,11)             119.9753         calculate D2E/DX2 analytically  !
 ! A9    A(8,5,11)             118.7353         calculate D2E/DX2 analytically  !
 ! A10   A(5,6,7)              121.2894         calculate D2E/DX2 analytically  !
 ! A11   A(5,6,12)             119.9753         calculate D2E/DX2 analytically  !
 ! A12   A(7,6,12)             118.7353         calculate D2E/DX2 analytically  !
 ! A13   A(1,7,4)              121.2893         calculate D2E/DX2 analytically  !
 ! A14   A(1,7,6)              121.2894         calculate D2E/DX2 analytically  !
 ! A15   A(4,7,6)              117.4213         calculate D2E/DX2 analytically  !
 ! A16   A(2,8,3)              121.2894         calculate D2E/DX2 analytically  !
 ! A17   A(2,8,5)              121.2893         calculate D2E/DX2 analytically  !
 ! A18   A(3,8,5)              117.4212         calculate D2E/DX2 analytically  !
 ! A19   A(3,9,16)             119.858          calculate D2E/DX2 analytically  !
 ! A20   A(3,9,17)             118.4257         calculate D2E/DX2 analytically  !
 ! A21   A(16,9,17)            121.7163         calculate D2E/DX2 analytically  !
 ! A22   A(4,10,13)            119.8579         calculate D2E/DX2 analytically  !
 ! A23   A(4,10,18)            118.4257         calculate D2E/DX2 analytically  !
 ! A24   A(13,10,18)           121.7163         calculate D2E/DX2 analytically  !
 ! A25   A(5,11,15)            119.858          calculate D2E/DX2 analytically  !
 ! A26   A(5,11,19)            118.4257         calculate D2E/DX2 analytically  !
 ! A27   A(15,11,19)           121.7163         calculate D2E/DX2 analytically  !
 ! A28   A(6,12,14)            119.8579         calculate D2E/DX2 analytically  !
 ! A29   A(6,12,20)            118.4257         calculate D2E/DX2 analytically  !
 ! A30   A(14,12,20)           121.7163         calculate D2E/DX2 analytically  !
 ! A31   A(10,13,16)           120.1667         calculate D2E/DX2 analytically  !
 ! A32   A(10,13,21)           119.9122         calculate D2E/DX2 analytically  !
 ! A33   A(16,13,21)           119.9211         calculate D2E/DX2 analytically  !
 ! A34   A(12,14,15)           120.1668         calculate D2E/DX2 analytically  !
 ! A35   A(12,14,22)           119.9122         calculate D2E/DX2 analytically  !
 ! A36   A(15,14,22)           119.921          calculate D2E/DX2 analytically  !
 ! A37   A(11,15,14)           120.1667         calculate D2E/DX2 analytically  !
 ! A38   A(11,15,23)           119.9122         calculate D2E/DX2 analytically  !
 ! A39   A(14,15,23)           119.9211         calculate D2E/DX2 analytically  !
 ! A40   A(9,16,13)            120.1667         calculate D2E/DX2 analytically  !
 ! A41   A(9,16,24)            119.9122         calculate D2E/DX2 analytically  !
 ! A42   A(13,16,24)           119.9211         calculate D2E/DX2 analytically  !
 ! D1    D(8,3,4,7)              0.0026         calculate D2E/DX2 analytically  !
 ! D2    D(8,3,4,10)          -179.9983         calculate D2E/DX2 analytically  !
 ! D3    D(9,3,4,7)           -179.9982         calculate D2E/DX2 analytically  !
 ! D4    D(9,3,4,10)             0.0008         calculate D2E/DX2 analytically  !
 ! D5    D(4,3,8,2)           -179.9968         calculate D2E/DX2 analytically  !
 ! D6    D(4,3,8,5)             -0.0016         calculate D2E/DX2 analytically  !
 ! D7    D(9,3,8,2)              0.0041         calculate D2E/DX2 analytically  !
 ! D8    D(9,3,8,5)            179.9993         calculate D2E/DX2 analytically  !
 ! D9    D(4,3,9,16)            -0.0004         calculate D2E/DX2 analytically  !
 ! D10   D(4,3,9,17)           179.9998         calculate D2E/DX2 analytically  !
 ! D11   D(8,3,9,16)           179.9987         calculate D2E/DX2 analytically  !
 ! D12   D(8,3,9,17)            -0.001          calculate D2E/DX2 analytically  !
 ! D13   D(3,4,7,1)           -179.9949         calculate D2E/DX2 analytically  !
 ! D14   D(3,4,7,6)             -0.0034         calculate D2E/DX2 analytically  !
 ! D15   D(10,4,7,1)             0.006          calculate D2E/DX2 analytically  !
 ! D16   D(10,4,7,6)           179.9975         calculate D2E/DX2 analytically  !
 ! D17   D(3,4,10,13)           -0.0006         calculate D2E/DX2 analytically  !
 ! D18   D(3,4,10,18)          179.9999         calculate D2E/DX2 analytically  !
 ! D19   D(7,4,10,13)          179.9985         calculate D2E/DX2 analytically  !
 ! D20   D(7,4,10,18)           -0.001          calculate D2E/DX2 analytically  !
 ! D21   D(8,5,6,7)             -0.0025         calculate D2E/DX2 analytically  !
 ! D22   D(8,5,6,12)           179.9984         calculate D2E/DX2 analytically  !
 ! D23   D(11,5,6,7)           179.9983         calculate D2E/DX2 analytically  !
 ! D24   D(11,5,6,12)           -0.0008         calculate D2E/DX2 analytically  !
 ! D25   D(6,5,8,2)            179.9967         calculate D2E/DX2 analytically  !
 ! D26   D(6,5,8,3)              0.0015         calculate D2E/DX2 analytically  !
 ! D27   D(11,5,8,2)            -0.0041         calculate D2E/DX2 analytically  !
 ! D28   D(11,5,8,3)          -179.9992         calculate D2E/DX2 analytically  !
 ! D29   D(6,5,11,15)            0.0005         calculate D2E/DX2 analytically  !
 ! D30   D(6,5,11,19)         -179.9999         calculate D2E/DX2 analytically  !
 ! D31   D(8,5,11,15)         -179.9987         calculate D2E/DX2 analytically  !
 ! D32   D(8,5,11,19)            0.0009         calculate D2E/DX2 analytically  !
 ! D33   D(5,6,7,1)            179.9949         calculate D2E/DX2 analytically  !
 ! D34   D(5,6,7,4)              0.0034         calculate D2E/DX2 analytically  !
 ! D35   D(12,6,7,1)            -0.0061         calculate D2E/DX2 analytically  !
 ! D36   D(12,6,7,4)          -179.9976         calculate D2E/DX2 analytically  !
 ! D37   D(5,6,12,14)            0.0005         calculate D2E/DX2 analytically  !
 ! D38   D(5,6,12,20)         -179.9999         calculate D2E/DX2 analytically  !
 ! D39   D(7,6,12,14)         -179.9986         calculate D2E/DX2 analytically  !
 ! D40   D(7,6,12,20)            0.001          calculate D2E/DX2 analytically  !
 ! D41   D(3,9,16,13)           -0.0001         calculate D2E/DX2 analytically  !
 ! D42   D(3,9,16,24)         -179.9999         calculate D2E/DX2 analytically  !
 ! D43   D(17,9,16,13)         179.9996         calculate D2E/DX2 analytically  !
 ! D44   D(17,9,16,24)          -0.0002         calculate D2E/DX2 analytically  !
 ! D45   D(4,10,13,16)           0.0001         calculate D2E/DX2 analytically  !
 ! D46   D(4,10,13,21)        -179.9998         calculate D2E/DX2 analytically  !
 ! D47   D(18,10,13,16)        179.9995         calculate D2E/DX2 analytically  !
 ! D48   D(18,10,13,21)         -0.0003         calculate D2E/DX2 analytically  !
 ! D49   D(5,11,15,14)           0.0            calculate D2E/DX2 analytically  !
 ! D50   D(5,11,15,23)         179.9998         calculate D2E/DX2 analytically  !
 ! D51   D(19,11,15,14)       -179.9996         calculate D2E/DX2 analytically  !
 ! D52   D(19,11,15,23)          0.0003         calculate D2E/DX2 analytically  !
 ! D53   D(6,12,14,15)           0.0            calculate D2E/DX2 analytically  !
 ! D54   D(6,12,14,22)         179.9998         calculate D2E/DX2 analytically  !
 ! D55   D(20,12,14,15)       -179.9995         calculate D2E/DX2 analytically  !
 ! D56   D(20,12,14,22)          0.0003         calculate D2E/DX2 analytically  !
 ! D57   D(10,13,16,9)           0.0003         calculate D2E/DX2 analytically  !
 ! D58   D(10,13,16,24)       -179.9999         calculate D2E/DX2 analytically  !
 ! D59   D(21,13,16,9)        -179.9999         calculate D2E/DX2 analytically  !
 ! D60   D(21,13,16,24)         -0.0001         calculate D2E/DX2 analytically  !
 ! D61   D(12,14,15,11)         -0.0003         calculate D2E/DX2 analytically  !
 ! D62   D(12,14,15,23)        179.9999         calculate D2E/DX2 analytically  !
 ! D63   D(22,14,15,11)        179.9999         calculate D2E/DX2 analytically  !
 ! D64   D(22,14,15,23)          0.0001         calculate D2E/DX2 analytically  !
 --------------------------------------------------------------------------------
 Trust Radius=3.00D-01 FncErr=1.00D-07 GrdErr=1.00D-07 EigMax=2.50D+02 EigMin=1.00D-04
 Number of steps in this run=      2 maximum allowed number of steps=      2.
 GradGradGradGradGradGradGradGradGradGradGradGradGradGradGradGradGradGrad

                          Input orientation:                          
 ---------------------------------------------------------------------
 Center     Atomic      Atomic             Coordinates (Angstroms)
 Number     Number       Type             X           Y           Z
 ---------------------------------------------------------------------
      1          8           0        0.000005   -2.684641   -0.000163
      2          8           0        0.000003    2.684625    0.000526
      3          6           0       -1.276144    0.699957    0.000270
      4          6           0       -1.276143   -0.699977    0.000115
      5          6           0        1.276151    0.699960    0.000261
      6          6           0        1.276152   -0.699974    0.000106
      7          6           0        0.000006   -1.475561    0.000064
      8          6           0        0.000003    1.475544    0.000333
      9          6           0       -2.484158    1.396708    0.000352
     10          6           0       -2.484154   -1.396732    0.000024
     11          6           0        2.484163    1.396715    0.000333
     12          6           0        2.484167   -1.396725    0.000008
     13          6           0       -3.685180   -0.698654    0.000102
     14          6           0        3.685190   -0.698643    0.000075
     15          6           0        3.685189    0.698637    0.000241
     16          6           0       -3.685182    0.698626    0.000268
     17          1           0       -2.454727    2.484704    0.000475
     18          1           0       -2.454721   -2.484728   -0.000097
     19          1           0        2.454729    2.484711    0.000456
     20          1           0        2.454736   -2.484720   -0.000113
     21          1           0       -4.628664   -1.241644    0.000035
     22          1           0        4.628676   -1.241630    0.000002
     23          1           0        4.628672    1.241627    0.000295
     24          1           0       -4.628667    1.241614    0.000330
 ---------------------------------------------------------------------
                    Distance matrix (angstroms):
                    1          2          3          4          5
     1  O    0.000000
     2  O    5.369266   0.000000
     3  C    3.617190   2.359546   0.000000
     4  C    2.359543   3.617192   1.399934   0.000000
     5  C    3.617191   2.359544   2.552295   2.911018   0.000000
     6  C    2.359546   3.617190   2.911017   2.552295   1.399934
     7  C    1.209081   4.160186   2.522188   1.493347   2.522189
     8  C    4.160185   1.209081   1.493347   2.522189   1.493347
     9  C    4.777916   2.798176   1.394547   2.419791   3.824315
    10  C    2.798171   4.777919   2.419792   1.394546   4.305347
    11  C    4.777919   2.798171   3.824314   4.305347   1.394547
    12  C    2.798176   4.777916   4.305347   3.824315   2.419791
    13  C    4.186256   5.002714   2.785600   2.409038   5.154700
    14  C    4.186261   5.002710   5.154699   4.961333   2.785599
    15  C    5.002714   4.186257   4.961333   5.154700   2.409038
    16  C    5.002710   4.186261   2.409039   2.785599   4.961333
    17  H    5.722573   2.462858   2.138780   3.395770   4.135790
    18  H    2.462853   5.722576   3.395771   2.138780   4.905266
    19  H    5.722575   2.462853   4.135790   4.905266   2.138780
    20  H    2.462858   5.722573   4.905266   4.135791   3.395770
    21  H    4.848383   6.069609   3.874172   3.395998   6.215840
    22  H    4.848389   6.069604   6.215839   5.929610   3.874170
    23  H    6.069608   4.848383   5.929609   6.215840   3.395998
    24  H    6.069604   4.848388   3.395998   3.874170   5.929609
                    6          7          8          9         10
     6  C    0.000000
     7  C    1.493347   0.000000
     8  C    2.522189   2.951105   0.000000
     9  C    4.305347   3.797499   2.485412   0.000000
    10  C    3.824314   2.485410   3.797500   2.793440   0.000000
    11  C    2.419792   3.797500   2.485410   4.968321   5.699782
    12  C    1.394547   2.485412   3.797499   5.699782   4.968321
    13  C    4.961333   3.766189   4.278751   2.415159   1.389164
    14  C    2.409038   3.766190   4.278749   6.515471   6.208715
    15  C    2.785600   4.278751   3.766189   6.208715   6.515471
    16  C    5.154699   4.278749   3.766191   1.389164   2.415159
    17  H    4.905266   4.659335   2.654073   1.088394   3.881547
    18  H    4.135790   2.654072   4.659337   3.881547   1.088394
    19  H    3.395770   4.659336   2.654072   5.057307   6.281573
    20  H    2.138780   2.654073   4.659336   6.281573   5.057307
    21  H    5.929609   4.634576   5.367278   3.399972   2.150110
    22  H    3.395998   4.634578   5.367276   7.586385   7.114521
    23  H    3.874172   5.367278   4.634576   7.114521   7.586385
    24  H    6.215839   5.367276   4.634578   2.150110   3.399971
                   11         12         13         14         15
    11  C    0.000000
    12  C    2.793440   0.000000
    13  C    6.515471   6.208715   0.000000
    14  C    2.415159   1.389164   7.370371   0.000000
    15  C    1.389164   2.415159   7.501651   1.397280   0.000000
    16  C    6.208715   6.515471   1.397280   7.501650   7.370371
    17  H    5.057307   6.281573   3.412884   6.916089   6.394420
    18  H    6.281573   5.057307   2.168892   6.394420   6.916090
    19  H    1.088394   3.881547   6.916090   3.412883   2.168892
    20  H    3.881547   1.088394   6.394420   2.168892   3.412884
    21  H    7.586385   7.114521   1.088577   8.331568   8.537262
    22  H    3.399971   2.150110   8.331568   1.088577   2.157500
    23  H    2.150110   3.399972   8.537262   2.157500   1.088577
    24  H    7.114521   7.586385   2.157500   8.537261   8.331568
                   16         17         18         19         20
    16  C    0.000000
    17  H    2.168892   0.000000
    18  H    3.412884   4.969431   0.000000
    19  H    6.394420   4.909456   6.985557   0.000000
    20  H    6.916089   6.985557   4.909456   4.969431   0.000000
    21  H    2.157500   4.314124   2.504254   8.003760   7.191647
    22  H    8.537261   8.003759   7.191648   4.314124   2.504254
    23  H    8.331568   7.191647   8.003760   2.504254   4.314124
    24  H    1.088577   2.504254   4.314124   7.191647   8.003760
                   21         22         23         24
    21  H    0.000000
    22  H    9.257340   0.000000
    23  H    9.584619   2.483258   0.000000
    24  H    2.483258   9.584618   9.257340   0.000000
 Stoichiometry    C14H8O2
 Framework group  C1[X(C14H8O2)]
 Deg. of freedom    66
 Full point group                 C1      NOp   1
 Largest Abelian subgroup         C1      NOp   1
 Largest concise Abelian subgroup C1      NOp   1
                         Standard orientation:                         
 ---------------------------------------------------------------------
 Center     Atomic      Atomic             Coordinates (Angstroms)
 Number     Number       Type             X           Y           Z
 ---------------------------------------------------------------------
      1          8           0       -0.000004   -2.684633   -0.000344
      2          8           0        0.000004    2.684633    0.000344
      3          6           0       -1.276147    0.699968    0.000089
      4          6           0       -1.276148   -0.699966   -0.000067
      5          6           0        1.276148    0.699966    0.000079
      6          6           0        1.276147   -0.699968   -0.000075
      7          6           0       -0.000001   -1.475552   -0.000118
      8          6           0        0.000001    1.475553    0.000152
      9          6           0       -2.484160    1.396721    0.000170
     10          6           0       -2.484161   -1.396719   -0.000157
     11          6           0        2.484161    1.396719    0.000152
     12          6           0        2.484160   -1.396721   -0.000173
     13          6           0       -3.685186   -0.698638   -0.000080
     14          6           0        3.685185   -0.698641   -0.000106
     15          6           0        3.685186    0.698638    0.000059
     16          6           0       -3.685185    0.698641    0.000087
     17          1           0       -2.454727    2.484716    0.000293
     18          1           0       -2.454729   -2.484715   -0.000279
     19          1           0        2.454729    2.484714    0.000274
     20          1           0        2.454727   -2.484717   -0.000294
     21          1           0       -4.628671   -1.241627   -0.000147
     22          1           0        4.628669   -1.241631   -0.000180
     23          1           0        4.628671    1.241627    0.000113
     24          1           0       -4.628669    1.241631    0.000149
 ---------------------------------------------------------------------
 Rotational constants (GHZ):           1.1119391           0.4445199           0.3175664
 Standard basis: 6-311++G(d,p) (5D, 7F)
 There are   424 symmetry adapted cartesian basis functions of A   symmetry.
 There are   408 symmetry adapted basis functions of A   symmetry.
   408 basis functions,   648 primitive gaussians,   424 cartesian basis functions
    54 alpha electrons       54 beta electrons
       nuclear repulsion energy       979.2465471288 Hartrees.
 NAtoms=   24 NActive=   24 NUniq=   24 SFac= 1.00D+00 NAtFMM=   60 NAOKFM=F Big=F
 Integral buffers will be    131072 words long.
 Raffenetti 2 integral format.
 Two-electron integral symmetry is turned on.
 R6APFD:  NTU= -4 IXU= 1 FactS= 1.050
 Nuclear repulsion after empirical dispersion term =      979.2286400015 Hartrees.
 One-electron integrals computed using PRISM.
 NBasis=   408 RedAO= T EigKep=  1.86D-06  NBF=   408
 NBsUse=   401 1.00D-06 EigRej=  9.47D-07 NBFU=   401
 Initial guess from the checkpoint file:  "AAQE0080.chk"
 B after Tr=     0.000000    0.000000    0.000000
         Rot=    1.000000   -0.000000   -0.000000    0.000000 Ang=   0.00 deg.
 Requested convergence on RMS density matrix=1.00D-08 within  32 cycles.
 Requested convergence on MAX density matrix=1.00D-06.
 Requested convergence on             energy=1.00D-06.
 No special actions if energy rises.
 SCF Done:  E(RM08HX) =  -688.756719388     A.U. after    1 cycles
            NFock=  1  Conv=0.30D-08     -V/T= 2.0045
 QCSCF skips out because SCF is already converged.
 DoSCS=F DFT=T ScalE2(SS,OS)=  1.000000  1.000000
 Range of M.O.s used for correlation:     1   401
 NBasis=   408 NAE=    54 NBE=    54 NFC=     0 NFV=     0
 NROrb=    401 NOA=    54 NOB=    54 NVA=   347 NVB=   347

 **** Warning!!: The largest alpha MO coefficient is  0.17601718D+03

 R6APFD:  NTU= -4 IXU= 1 FactS= 1.050
 Symmetrizing basis deriv contribution to polar:
 IMax=3 JMax=2 DiffMx= 0.00D+00
 G2DrvN: will do    25 centers at a time, making    1 passes.
 Calling FoFCou, ICntrl=  3107 FMM=F I1Cent=   0 AccDes= 0.00D+00.
 End of G2Drv F.D. properties file   721 does not exist.
 End of G2Drv F.D. properties file   722 does not exist.
 End of G2Drv F.D. properties file   788 does not exist.
          IDoAtm=111111111111111111111111
          Differentiating once with respect to electric field.
                with respect to dipole field.
          Differentiating once with respect to nuclear coordinates.
 Keep R1 ints in memory in canonical form, NReq=3519220361.
          There are    75 degrees of freedom in the 1st order CPHF.  IDoFFX=6 NUNeed=     3.
     72 vectors produced by pass  0 Test12= 2.50D-14 1.33D-09 XBig12= 1.70D+02 8.13D+00.
 AX will form    72 AO Fock derivatives at one time.
     72 vectors produced by pass  1 Test12= 2.50D-14 1.33D-09 XBig12= 2.67D+01 9.51D-01.
     72 vectors produced by pass  2 Test12= 2.50D-14 1.33D-09 XBig12= 9.04D-01 2.15D-01.
     72 vectors produced by pass  3 Test12= 2.50D-14 1.33D-09 XBig12= 1.67D-02 2.27D-02.
     72 vectors produced by pass  4 Test12= 2.50D-14 1.33D-09 XBig12= 1.61D-04 2.12D-03.
     72 vectors produced by pass  5 Test12= 2.50D-14 1.33D-09 XBig12= 8.25D-07 1.12D-04.
     71 vectors produced by pass  6 Test12= 2.50D-14 1.33D-09 XBig12= 3.04D-09 6.75D-06.
     36 vectors produced by pass  7 Test12= 2.50D-14 1.33D-09 XBig12= 1.20D-11 4.16D-07.
      3 vectors produced by pass  8 Test12= 2.50D-14 1.33D-09 XBig12= 4.23D-14 2.90D-08.
      1 vectors produced by pass  9 Test12= 2.50D-14 1.33D-09 XBig12= 1.89D-16 1.60D-09.
 InvSVY:  IOpt=1 It=  1 EMax= 7.11D-15
 Solved reduced A of dimension   543 with    75 vectors.
 Isotropic polarizability for W=    0.000000      161.68 Bohr**3.
 End of Minotr F.D. properties file   721 does not exist.
 End of Minotr F.D. properties file   722 does not exist.
 End of Minotr F.D. properties file   788 does not exist.

 **********************************************************************

            Population analysis using the SCF Density.

 **********************************************************************

 Orbital symmetries:
       Occupied  (A) (A) (A) (A) (A) (A) (A) (A) (A) (A) (A) (A)
                 (A) (A) (A) (A) (A) (A) (A) (A) (A) (A) (A) (A)
                 (A) (A) (A) (A) (A) (A) (A) (A) (A) (A) (A) (A)
                 (A) (A) (A) (A) (A) (A) (A) (A) (A) (A) (A) (A)
                 (A) (A) (A) (A) (A) (A)
       Virtual   (A) (A) (A) (A) (A) (A) (A) (A) (A) (A) (A) (A)
                 (A) (A) (A) (A) (A) (A) (A) (A) (A) (A) (A) (A)
                 (A) (A) (A) (A) (A) (A) (A) (A) (A) (A) (A) (A)
                 (A) (A) (A) (A) (A) (A) (A) (A) (A) (A) (A) (A)
                 (A) (A) (A) (A) (A) (A) (A) (A) (A) (A) (A) (A)
                 (A) (A) (A) (A) (A) (A) (A) (A) (A) (A) (A) (A)
                 (A) (A) (A) (A) (A) (A) (A) (A) (A) (A) (A) (A)
                 (A) (A) (A) (A) (A) (A) (A) (A) (A) (A) (A) (A)
                 (A) (A) (A) (A) (A) (A) (A) (A) (A) (A) (A) (A)
                 (A) (A) (A) (A) (A) (A) (A) (A) (A) (A) (A) (A)
                 (A) (A) (A) (A) (A) (A) (A) (A) (A) (A) (A) (A)
                 (A) (A) (A) (A) (A) (A) (A) (A) (A) (A) (A) (A)
                 (A) (A) (A) (A) (A) (A) (A) (A) (A) (A) (A) (A)
                 (A) (A) (A) (A) (A) (A) (A) (A) (A) (A) (A) (A)
                 (A) (A) (A) (A) (A) (A) (A) (A) (A) (A) (A) (A)
                 (A) (A) (A) (A) (A) (A) (A) (A) (A) (A) (A) (A)
                 (A) (A) (A) (A) (A) (A) (A) (A) (A) (A) (A) (A)
                 (A) (A) (A) (A) (A) (A) (A) (A) (A) (A) (A) (A)
                 (A) (A) (A) (A) (A) (A) (A) (A) (A) (A) (A) (A)
                 (A) (A) (A) (A) (A) (A) (A) (A) (A) (A) (A) (A)
                 (A) (A) (A) (A) (A) (A) (A) (A) (A) (A) (A) (A)
                 (A) (A) (A) (A) (A) (A) (A) (A) (A) (A) (A) (A)
                 (A) (A) (A) (A) (A) (A) (A) (A) (A) (A) (A) (A)
                 (A) (A) (A) (A) (A) (A) (A) (A) (A) (A) (A) (A)
                 (A) (A) (A) (A) (A) (A) (A) (A) (A) (A) (A) (A)
                 (A) (A) (A) (A) (A) (A) (A) (A) (A) (A) (A) (A)
                 (A) (A) (A) (A) (A) (A) (A) (A) (A) (A) (A) (A)
                 (A) (A) (A) (A) (A) (A) (A) (A) (A) (A) (A) (A)
                 (A) (A) (A) (A) (A) (A) (A) (A) (A) (A) (A)
 The electronic state is 1-A.
 Alpha  occ. eigenvalues --  -19.61903 -19.61902 -10.64319 -10.64318 -10.57035
 Alpha  occ. eigenvalues --  -10.57033 -10.56958 -10.56958 -10.56251 -10.56251
 Alpha  occ. eigenvalues --  -10.56176 -10.56176 -10.55929 -10.55929 -10.55929
 Alpha  occ. eigenvalues --  -10.55929  -1.19349  -1.19136  -1.00891  -0.99635
 Alpha  occ. eigenvalues --   -0.91912  -0.88380  -0.88160  -0.87444  -0.78368
 Alpha  occ. eigenvalues --   -0.76168  -0.73387  -0.70493  -0.67161  -0.64426
 Alpha  occ. eigenvalues --   -0.64320  -0.58735  -0.56705  -0.56040  -0.56021
 Alpha  occ. eigenvalues --   -0.53930  -0.53334  -0.52471  -0.51840  -0.51476
 Alpha  occ. eigenvalues --   -0.51337  -0.49297  -0.46672  -0.46236  -0.44442
 Alpha  occ. eigenvalues --   -0.43990  -0.43869  -0.42778  -0.36132  -0.34377
 Alpha  occ. eigenvalues --   -0.34236  -0.33637  -0.33224  -0.33220
 Alpha virt. eigenvalues --   -0.08777  -0.04868  -0.02740  -0.02323  -0.01218
 Alpha virt. eigenvalues --   -0.00963  -0.00314  -0.00294  -0.00285   0.01505
 Alpha virt. eigenvalues --    0.01803   0.02250   0.02583   0.03551   0.03744
 Alpha virt. eigenvalues --    0.04420   0.05168   0.05936   0.05960   0.06057
 Alpha virt. eigenvalues --    0.06752   0.07356   0.08493   0.09062   0.09200
 Alpha virt. eigenvalues --    0.09691   0.10348   0.10489   0.10655   0.10710
 Alpha virt. eigenvalues --    0.11402   0.11408   0.11859   0.11958   0.12194
 Alpha virt. eigenvalues --    0.12395   0.13656   0.14232   0.14388   0.14463
 Alpha virt. eigenvalues --    0.14560   0.14912   0.15506   0.16268   0.16376
 Alpha virt. eigenvalues --    0.16399   0.17418   0.18365   0.18390   0.18813
 Alpha virt. eigenvalues --    0.19219   0.20448   0.20606   0.21057   0.21307
 Alpha virt. eigenvalues --    0.22185   0.23357   0.23722   0.24366   0.25098
 Alpha virt. eigenvalues --    0.25650   0.25680   0.25784   0.26011   0.26285
 Alpha virt. eigenvalues --    0.28432   0.28522   0.29023   0.29305   0.29601
 Alpha virt. eigenvalues --    0.29866   0.30197   0.31096   0.31675   0.32233
 Alpha virt. eigenvalues --    0.32471   0.33001   0.33533   0.33782   0.34348
 Alpha virt. eigenvalues --    0.34465   0.35148   0.35937   0.36228   0.36720
 Alpha virt. eigenvalues --    0.40019   0.41195   0.41449   0.41665   0.42395
 Alpha virt. eigenvalues --    0.43938   0.46674   0.50804   0.51084   0.51338
 Alpha virt. eigenvalues --    0.52656   0.53029   0.55611   0.55659   0.55859
 Alpha virt. eigenvalues --    0.55966   0.56904   0.57246   0.57347   0.58946
 Alpha virt. eigenvalues --    0.59874   0.61093   0.62051   0.62240   0.62690
 Alpha virt. eigenvalues --    0.64411   0.65072   0.65688   0.66054   0.66828
 Alpha virt. eigenvalues --    0.66899   0.67076   0.68332   0.68620   0.69646
 Alpha virt. eigenvalues --    0.70319   0.70758   0.73713   0.74397   0.74493
 Alpha virt. eigenvalues --    0.75181   0.75704   0.76704   0.77903   0.78628
 Alpha virt. eigenvalues --    0.79767   0.81650   0.81690   0.82172   0.83055
 Alpha virt. eigenvalues --    0.85668   0.85902   0.87444   0.88524   0.88551
 Alpha virt. eigenvalues --    0.90546   0.90736   0.92811   0.93400   0.94306
 Alpha virt. eigenvalues --    0.94484   0.95295   0.95369   0.95884   0.98185
 Alpha virt. eigenvalues --    1.00005   1.00641   1.00901   1.01291   1.02040
 Alpha virt. eigenvalues --    1.04256   1.04918   1.05209   1.06197   1.08137
 Alpha virt. eigenvalues --    1.09954   1.12355   1.12450   1.14619   1.14713
 Alpha virt. eigenvalues --    1.15564   1.15975   1.16994   1.17617   1.17776
 Alpha virt. eigenvalues --    1.19749   1.24016   1.25216   1.25943   1.27714
 Alpha virt. eigenvalues --    1.28444   1.32658   1.34016   1.34589   1.34695
 Alpha virt. eigenvalues --    1.35902   1.41587   1.47361   1.49305   1.50724
 Alpha virt. eigenvalues --    1.52158   1.52232   1.53848   1.54308   1.54542
 Alpha virt. eigenvalues --    1.54807   1.58047   1.58066   1.58714   1.58865
 Alpha virt. eigenvalues --    1.62228   1.64266   1.64618   1.66900   1.67702
 Alpha virt. eigenvalues --    1.68689   1.70126   1.72406   1.74412   1.75394
 Alpha virt. eigenvalues --    1.75416   1.76612   1.78189   1.78943   1.80307
 Alpha virt. eigenvalues --    1.81445   1.81913   1.85903   1.88466   1.89332
 Alpha virt. eigenvalues --    1.91112   1.92835   1.93860   1.95185   1.96220
 Alpha virt. eigenvalues --    1.96462   1.96937   1.97280   1.97590   1.98556
 Alpha virt. eigenvalues --    1.99405   2.00316   2.01946   2.02984   2.06160
 Alpha virt. eigenvalues --    2.07622   2.09442   2.10187   2.12927   2.14147
 Alpha virt. eigenvalues --    2.16633   2.17838   2.19103   2.28357   2.30367
 Alpha virt. eigenvalues --    2.32003   2.32880   2.37414   2.38752   2.40108
 Alpha virt. eigenvalues --    2.42470   2.42806   2.46165   2.47598   2.47618
 Alpha virt. eigenvalues --    2.47975   2.56979   2.60652   2.61892   2.65746
 Alpha virt. eigenvalues --    2.67515   2.68092   2.69235   2.69474   2.70148
 Alpha virt. eigenvalues --    2.71317   2.72610   2.72680   2.73491   2.74630
 Alpha virt. eigenvalues --    2.75028   2.76269   2.76589   2.82062   2.82882
 Alpha virt. eigenvalues --    2.84137   2.85255   2.86367   2.87867   2.90115
 Alpha virt. eigenvalues --    2.90743   2.92210   2.92660   2.94121   2.95387
 Alpha virt. eigenvalues --    2.95730   2.97553   2.99496   3.02473   3.04816
 Alpha virt. eigenvalues --    3.08717   3.14840   3.16471   3.17260   3.22663
 Alpha virt. eigenvalues --    3.24259   3.28141   3.30851   3.31084   3.36457
 Alpha virt. eigenvalues --    3.41460   3.42340   3.43191   3.44790   3.46553
 Alpha virt. eigenvalues --    3.48748   3.55417   3.58336   3.59070   3.59113
 Alpha virt. eigenvalues --    3.61031   3.61168   3.63258   3.67854   3.75586
 Alpha virt. eigenvalues --    3.85663   3.89320   3.89524   4.05683   4.06393
 Alpha virt. eigenvalues --    4.08386   4.12347   4.22420   4.24921   4.30449
 Alpha virt. eigenvalues --    4.34204   4.50428   4.82765   4.90325   4.92101
 Alpha virt. eigenvalues --    5.14702   5.16215   5.37972   5.40704   5.84171
 Alpha virt. eigenvalues --    5.92208  23.57573  23.69975  23.93278  23.98959
 Alpha virt. eigenvalues --   23.99223  23.99431  24.00434  24.01454  24.09825
 Alpha virt. eigenvalues --   24.13225  24.13775  24.13840  24.22436  24.22597
 Alpha virt. eigenvalues --   50.05588  50.10416
          Condensed to atoms (all electrons):
               1          2          3          4          5          6
     1  O    8.057061  -0.000029  -0.537449  -0.094224  -0.537449  -0.094222
     2  O   -0.000029   8.057060  -0.094222  -0.537449  -0.094223  -0.537448
     3  C   -0.537449  -0.094222  21.955990  -7.655463   6.605885  -9.965937
     4  C   -0.094224  -0.537449  -7.655463  21.956038  -9.965997   6.605873
     5  C   -0.537449  -0.094223   6.605885  -9.965997  21.956048  -7.655459
     6  C   -0.094222  -0.537448  -9.965937   6.605873  -7.655459  21.955967
     7  C    0.599248  -0.001765   2.672755  -1.759632   2.672744  -1.759622
     8  C   -0.001764   0.599247  -1.759632   2.672753  -1.759643   2.672764
     9  C   -0.048000   0.336310   2.719201  -3.960997   1.065890  -3.471921
    10  C    0.336310  -0.047999  -3.961005   2.719223  -3.471929   1.065886
    11  C   -0.047999   0.336310   1.065887  -3.471926   2.719223  -3.960995
    12  C    0.336310  -0.048000  -3.471925   1.065889  -3.961004   2.719200
    13  C    0.087871   0.003462   0.088199  -1.826421  -0.416873   0.268765
    14  C    0.087870   0.003462  -0.416874   0.268761   0.088201  -1.826417
    15  C    0.003462   0.087871   0.268764  -0.416873  -1.826420   0.088199
    16  C    0.003462   0.087870  -1.826419   0.088202   0.268760  -0.416873
    17  H    0.000310  -0.018893   0.066524   0.122576  -0.096852   0.030513
    18  H   -0.018893   0.000310   0.122576   0.066524   0.030513  -0.096851
    19  H    0.000310  -0.018893  -0.096852   0.030513   0.066524   0.122576
    20  H   -0.018893   0.000310   0.030513  -0.096852   0.122576   0.066524
    21  H    0.001808  -0.000199  -0.016942  -0.014834  -0.015180   0.013605
    22  H    0.001808  -0.000199  -0.015180   0.013605  -0.016943  -0.014833
    23  H   -0.000199   0.001808   0.013605  -0.015180  -0.014833  -0.016942
    24  H   -0.000199   0.001808  -0.014833  -0.016943   0.013605  -0.015180
               7          8          9         10         11         12
     1  O    0.599248  -0.001764  -0.048000   0.336310  -0.047999   0.336310
     2  O   -0.001765   0.599247   0.336310  -0.047999   0.336310  -0.048000
     3  C    2.672755  -1.759632   2.719201  -3.961005   1.065887  -3.471925
     4  C   -1.759632   2.672753  -3.960997   2.719223  -3.471926   1.065889
     5  C    2.672744  -1.759643   1.065890  -3.471929   2.719223  -3.961004
     6  C   -1.759622   2.672764  -3.471921   1.065886  -3.960995   2.719200
     7  C   10.765135   1.442834  -1.088593  -2.858429  -1.088593  -2.858415
     8  C    1.442834  10.765144  -2.858420  -1.088591  -2.858433  -1.088590
     9  C   -1.088593  -2.858420  11.354887   1.658175   0.496899  -0.526271
    10  C   -2.858429  -1.088591   1.658175  11.354890  -0.526269   0.496901
    11  C   -1.088593  -2.858433   0.496899  -0.526269  11.354886   1.658175
    12  C   -2.858415  -1.088590  -0.526271   0.496901   1.658175  11.354889
    13  C    0.425666  -0.353767  -0.708242   0.576778  -0.114289   0.015391
    14  C    0.425661  -0.353771  -0.114289   0.015390  -0.708233   0.576791
    15  C   -0.353768   0.425665   0.015391  -0.114289   0.576780  -0.708240
    16  C   -0.353772   0.425659   0.576792  -0.708231   0.015390  -0.114289
    17  H   -0.011857  -0.006309   0.344838   0.069844  -0.029471   0.002383
    18  H   -0.006308  -0.011857   0.069844   0.344837   0.002383  -0.029471
    19  H   -0.011857  -0.006308  -0.029471   0.002383   0.344837   0.069844
    20  H   -0.006309  -0.011857   0.002383  -0.029471   0.069844   0.344838
    21  H    0.025560  -0.015384  -0.004259  -0.033156  -0.001843   0.003475
    22  H    0.025560  -0.015384  -0.001843   0.003475  -0.004259  -0.033155
    23  H   -0.015384   0.025560   0.003475  -0.001843  -0.033156  -0.004259
    24  H   -0.015384   0.025560  -0.033155  -0.004259   0.003475  -0.001843
              13         14         15         16         17         18
     1  O    0.087871   0.087870   0.003462   0.003462   0.000310  -0.018893
     2  O    0.003462   0.003462   0.087871   0.087870  -0.018893   0.000310
     3  C    0.088199  -0.416874   0.268764  -1.826419   0.066524   0.122576
     4  C   -1.826421   0.268761  -0.416873   0.088202   0.122576   0.066524
     5  C   -0.416873   0.088201  -1.826420   0.268760  -0.096852   0.030513
     6  C    0.268765  -1.826417   0.088199  -0.416873   0.030513  -0.096851
     7  C    0.425666   0.425661  -0.353768  -0.353772  -0.011857  -0.006308
     8  C   -0.353767  -0.353771   0.425665   0.425659  -0.006309  -0.011857
     9  C   -0.708242  -0.114289   0.015391   0.576792   0.344838   0.069844
    10  C    0.576778   0.015390  -0.114289  -0.708231   0.069844   0.344837
    11  C   -0.114289  -0.708233   0.576780   0.015390  -0.029471   0.002383
    12  C    0.015391   0.576791  -0.708240  -0.114289   0.002383  -0.029471
    13  C    8.537903   0.006256  -0.018508  -0.270421   0.004341  -0.157956
    14  C    0.006256   8.537891  -0.270420  -0.018508   0.000121  -0.001697
    15  C   -0.018508  -0.270420   8.537901   0.006256  -0.001697   0.000121
    16  C   -0.270421  -0.018508   0.006256   8.537890  -0.157955   0.004341
    17  H    0.004341   0.000121  -0.001697  -0.157955   0.400753   0.002176
    18  H   -0.157956  -0.001697   0.000121   0.004341   0.002176   0.400752
    19  H    0.000121   0.004341  -0.157956  -0.001697  -0.000438  -0.000200
    20  H   -0.001697  -0.157955   0.004341   0.000121  -0.000200  -0.000438
    21  H    0.428966  -0.000062  -0.000144  -0.059131   0.001655  -0.008790
    22  H   -0.000062   0.428966  -0.059132  -0.000144   0.000001  -0.000019
    23  H   -0.000144  -0.059131   0.428966  -0.000062  -0.000019   0.000001
    24  H   -0.059132  -0.000144  -0.000062   0.428966  -0.008790   0.001655
              19         20         21         22         23         24
     1  O    0.000310  -0.018893   0.001808   0.001808  -0.000199  -0.000199
     2  O   -0.018893   0.000310  -0.000199  -0.000199   0.001808   0.001808
     3  C   -0.096852   0.030513  -0.016942  -0.015180   0.013605  -0.014833
     4  C    0.030513  -0.096852  -0.014834   0.013605  -0.015180  -0.016943
     5  C    0.066524   0.122576  -0.015180  -0.016943  -0.014833   0.013605
     6  C    0.122576   0.066524   0.013605  -0.014833  -0.016942  -0.015180
     7  C   -0.011857  -0.006309   0.025560   0.025560  -0.015384  -0.015384
     8  C   -0.006308  -0.011857  -0.015384  -0.015384   0.025560   0.025560
     9  C   -0.029471   0.002383  -0.004259  -0.001843   0.003475  -0.033155
    10  C    0.002383  -0.029471  -0.033156   0.003475  -0.001843  -0.004259
    11  C    0.344837   0.069844  -0.001843  -0.004259  -0.033156   0.003475
    12  C    0.069844   0.344838   0.003475  -0.033155  -0.004259  -0.001843
    13  C    0.000121  -0.001697   0.428966  -0.000062  -0.000144  -0.059132
    14  C    0.004341  -0.157955  -0.000062   0.428966  -0.059131  -0.000144
    15  C   -0.157956   0.004341  -0.000144  -0.059132   0.428966  -0.000062
    16  C   -0.001697   0.000121  -0.059131  -0.000144  -0.000062   0.428966
    17  H   -0.000438  -0.000200   0.001655   0.000001  -0.000019  -0.008790
    18  H   -0.000200  -0.000438  -0.008790  -0.000019   0.000001   0.001655
    19  H    0.400753   0.002176   0.000001   0.001655  -0.008790  -0.000019
    20  H    0.002176   0.400753  -0.000019  -0.008790   0.001655   0.000001
    21  H    0.000001  -0.000019   0.405899  -0.000012  -0.000001  -0.007558
    22  H    0.001655  -0.008790  -0.000012   0.405899  -0.007558  -0.000001
    23  H   -0.008790   0.001655  -0.000001  -0.007558   0.405899  -0.000012
    24  H   -0.000019   0.000001  -0.007558  -0.000001  -0.000012   0.405899
 Mulliken charges:
               1
     1  O   -0.116510
     2  O   -0.116510
     3  C    0.222834
     4  C    0.222833
     5  C    0.222836
     6  C    0.222832
     7  C   -0.865475
     8  C   -0.865476
     9  C    0.201375
    10  C    0.201376
    11  C    0.201377
    12  C    0.201374
    13  C   -0.516208
    14  C   -0.516208
    15  C   -0.516208
    16  C   -0.516208
    17  H    0.286447
    18  H    0.286447
    19  H    0.286447
    20  H    0.286447
    21  H    0.296545
    22  H    0.296545
    23  H    0.296545
    24  H    0.296545
 Sum of Mulliken charges =   0.00000
 Mulliken charges with hydrogens summed into heavy atoms:
               1
     1  O   -0.116510
     2  O   -0.116510
     3  C    0.222834
     4  C    0.222833
     5  C    0.222836
     6  C    0.222832
     7  C   -0.865475
     8  C   -0.865476
     9  C    0.487822
    10  C    0.487823
    11  C    0.487823
    12  C    0.487821
    13  C   -0.219663
    14  C   -0.219663
    15  C   -0.219663
    16  C   -0.219663
 APT charges:
               1
     1  O   -0.787336
     2  O   -0.787336
     3  C   -0.218210
     4  C   -0.218210
     5  C   -0.218210
     6  C   -0.218210
     7  C    1.121427
     8  C    1.121427
     9  C   -0.067444
    10  C   -0.067444
    11  C   -0.067444
    12  C   -0.067444
    13  C   -0.015478
    14  C   -0.015479
    15  C   -0.015478
    16  C   -0.015479
    17  H    0.088194
    18  H    0.088195
    19  H    0.088194
    20  H    0.088194
    21  H    0.045893
    22  H    0.045892
    23  H    0.045893
    24  H    0.045892
 Sum of APT charges =  -0.00000
 APT charges with hydrogens summed into heavy atoms:
               1
     1  O   -0.787336
     2  O   -0.787336
     3  C   -0.218210
     4  C   -0.218210
     5  C   -0.218210
     6  C   -0.218210
     7  C    1.121427
     8  C    1.121427
     9  C    0.020750
    10  C    0.020750
    11  C    0.020751
    12  C    0.020750
    13  C    0.030414
    14  C    0.030414
    15  C    0.030414
    16  C    0.030414
 Electronic spatial extent (au):  <R**2>=           3286.6766
 Charge=             -0.0000 electrons
 Dipole moment (field-independent basis, Debye):
    X=              0.0000    Y=             -0.0000    Z=              0.0000  Tot=              0.0000
 Quadrupole moment (field-independent basis, Debye-Ang):
   XX=            -66.7862   YY=           -101.1469   ZZ=            -95.4714
   XY=             -0.0000   XZ=             -0.0001   YZ=             -0.0011
 Traceless Quadrupole moment (field-independent basis, Debye-Ang):
   XX=             21.0153   YY=            -13.3454   ZZ=             -7.6699
   XY=             -0.0000   XZ=             -0.0001   YZ=             -0.0011
 Octapole moment (field-independent basis, Debye-Ang**2):
  XXX=              0.0000  YYY=             -0.0000  ZZZ=              0.0001  XYY=              0.0000
  XXY=              0.0000  XXZ=             -0.0007  XZZ=              0.0000  YZZ=             -0.0000
  YYZ=              0.0000  XYZ=             -0.0000
 Hexadecapole moment (field-independent basis, Debye-Ang**3):
 XXXX=          -2685.3463 YYYY=          -1346.8849 ZZZZ=           -106.4201 XXXY=              0.0002
 XXXZ=              0.0028 YYYX=             -0.0002 YYYZ=             -0.0814 ZZZX=              0.0063
 ZZZY=             -0.0677 XXYY=           -639.1521 XXZZ=           -618.9288 YYZZ=           -226.4343
 XXYZ=             -0.0025 YYXZ=              0.0015 ZZXY=              0.0001
 N-N= 9.792286400015D+02 E-N=-3.561395631947D+03  KE= 6.856970227840D+02
  Exact polarizability: 227.883   0.000 177.859  -0.001   0.012  79.309
 Approx polarizability: 259.007   0.000 269.538  -0.001   0.020 111.977
 R6APFD:  NTU= -4 IXU= 1 FactS= 1.050
 Calling FoFJK, ICntrl=    100127 FMM=F ISym2X=0 I1Cent= 0 IOpClX= 0 NMat=1 NMatS=1 NMatT=0.
 Full mass-weighted force constant matrix:
 Low frequencies ---    0.0003    0.0006    0.0008   11.1781   11.6289   12.0608
 Low frequencies ---   46.4569  111.2671  124.7740
 Diagonal vibrational polarizability:
       18.6176444       5.1268942      88.6974357
 Harmonic frequencies (cm**-1), IR intensities (KM/Mole), Raman scattering
 activities (A**4/AMU), depolarization ratios for plane and unpolarized
 incident light, reduced masses (AMU), force constants (mDyne/A),
 and normal coordinates:
                      1                      2                      3
                      A                      A                      A
 Frequencies --     46.4569               111.2671               124.7698
 Red. masses --      7.4407                 3.9404                 5.5872
 Frc consts  --      0.0095                 0.0287                 0.0512
 IR Inten    --      6.3993                 0.0000                 0.0000
  Atom  AN      X      Y      Z        X      Y      Z        X      Y      Z
     1   8     0.00  -0.00   0.33    -0.00  -0.00  -0.00     0.00  -0.00   0.26
     2   8     0.00  -0.00   0.33    -0.00  -0.00  -0.00    -0.00   0.00  -0.26
     3   6    -0.00  -0.00   0.04     0.00   0.00  -0.07     0.00  -0.00   0.07
     4   6     0.00  -0.00   0.04     0.00  -0.00   0.07     0.00   0.00  -0.07
     5   6     0.00  -0.00   0.04     0.00  -0.00   0.07    -0.00  -0.00   0.07
     6   6    -0.00  -0.00   0.04    -0.00   0.00  -0.07    -0.00   0.00  -0.07
     7   6     0.00  -0.00   0.17     0.00  -0.00   0.00     0.00  -0.00   0.03
     8   6     0.00  -0.00   0.17     0.00  -0.00   0.00    -0.00   0.00  -0.03
     9   6     0.00   0.00  -0.08     0.00   0.00  -0.21     0.00  -0.00   0.19
    10   6     0.00   0.00  -0.08    -0.00  -0.00   0.21     0.00   0.00  -0.19
    11   6    -0.00   0.00  -0.08     0.00  -0.00   0.21    -0.00  -0.00   0.19
    12   6    -0.00   0.00  -0.08    -0.00   0.00  -0.21    -0.00   0.00  -0.19
    13   6     0.00   0.00  -0.23    -0.00  -0.00   0.13     0.00   0.00  -0.12
    14   6    -0.00   0.00  -0.23    -0.00   0.00  -0.13    -0.00   0.00  -0.12
    15   6    -0.00   0.00  -0.23     0.00  -0.00   0.13    -0.00  -0.00   0.12
    16   6     0.00   0.00  -0.23     0.00   0.00  -0.13     0.00  -0.00   0.12
    17   1     0.00   0.00  -0.07     0.00   0.00  -0.36     0.00  -0.00   0.32
    18   1     0.00   0.00  -0.07    -0.00  -0.00   0.36     0.00   0.00  -0.32
    19   1    -0.00   0.00  -0.07     0.00  -0.00   0.36     0.00  -0.00   0.32
    20   1    -0.00   0.00  -0.07    -0.00   0.00  -0.36    -0.00   0.00  -0.32
    21   1     0.00   0.00  -0.34    -0.00  -0.00   0.24     0.00   0.00  -0.23
    22   1    -0.00   0.00  -0.34    -0.00   0.00  -0.24    -0.00   0.00  -0.23
    23   1    -0.00   0.00  -0.34     0.00  -0.00   0.24     0.00  -0.00   0.23
    24   1     0.00   0.00  -0.34     0.00   0.00  -0.24     0.00  -0.00   0.23
                      4                      5                      6
                      A                      A                      A
 Frequencies --    158.0130               224.5097               233.7056
 Red. masses --      7.1992                 5.1315                 4.8921
 Frc consts  --      0.1059                 0.1524                 0.1574
 IR Inten    --      0.7775                 0.0000                 1.1304
  Atom  AN      X      Y      Z        X      Y      Z        X      Y      Z
     1   8     0.00  -0.00   0.27    -0.00  -0.00   0.00    -0.00  -0.13  -0.00
     2   8     0.00  -0.00   0.27    -0.00  -0.00  -0.00    -0.00  -0.13  -0.00
     3   6    -0.00   0.00  -0.24     0.00  -0.00   0.24     0.03  -0.10  -0.00
     4   6     0.00   0.00  -0.24    -0.00  -0.00   0.24    -0.03  -0.10  -0.00
     5   6     0.00   0.00  -0.24     0.00   0.00  -0.24    -0.03  -0.10  -0.00
     6   6    -0.00   0.00  -0.24    -0.00   0.00  -0.24     0.03  -0.10  -0.00
     7   6    -0.00   0.00  -0.10     0.00  -0.00   0.00    -0.00  -0.14  -0.00
     8   6    -0.00   0.00  -0.10    -0.00  -0.00  -0.00    -0.00  -0.14  -0.00
     9   6    -0.00   0.00  -0.07     0.00  -0.00   0.14     0.12   0.04   0.00
    10   6     0.00   0.00  -0.07    -0.00  -0.00   0.14    -0.12   0.04   0.00
    11   6     0.00   0.00  -0.07     0.00   0.00  -0.14    -0.12   0.04   0.00
    12   6    -0.00   0.00  -0.07    -0.00   0.00  -0.14     0.12   0.04   0.00
    13   6    -0.00  -0.00   0.15     0.00   0.00  -0.14    -0.05   0.19   0.00
    14   6     0.00  -0.00   0.15     0.00  -0.00   0.14     0.05   0.19   0.00
    15   6     0.00  -0.00   0.15     0.00  -0.00   0.14    -0.05   0.19   0.00
    16   6    -0.00  -0.00   0.15     0.00   0.00  -0.14     0.05   0.19   0.00
    17   1    -0.00   0.00  -0.02     0.00  -0.00   0.13     0.28   0.04   0.00
    18   1     0.00   0.00  -0.02    -0.00  -0.00   0.13    -0.28   0.04   0.00
    19   1     0.00   0.00  -0.02     0.00   0.00  -0.13    -0.28   0.04   0.00
    20   1    -0.00   0.00  -0.02    -0.00   0.00  -0.13     0.28   0.04   0.00
    21   1    -0.00  -0.00   0.35    -0.00   0.00  -0.37    -0.10   0.28   0.00
    22   1     0.00  -0.00   0.35     0.00  -0.00   0.37     0.10   0.28   0.00
    23   1     0.00  -0.00   0.35     0.00  -0.00   0.37    -0.10   0.28   0.00
    24   1    -0.00  -0.00   0.35     0.00   0.00  -0.37     0.10   0.28   0.00
                      7                      8                      9
                      A                      A                      A
 Frequencies --    310.3236               365.4293               405.4268
 Red. masses --      6.8596                 7.2399                12.3679
 Frc consts  --      0.3892                 0.5696                 1.1978
 IR Inten    --      0.0000                 0.0000                28.9340
  Atom  AN      X      Y      Z        X      Y      Z        X      Y      Z
     1   8     0.33  -0.00  -0.00    -0.00  -0.11  -0.00     0.55  -0.00  -0.00
     2   8    -0.33   0.00   0.00     0.00   0.11   0.00     0.55  -0.00  -0.00
     3   6     0.05  -0.15  -0.00     0.15   0.01   0.00    -0.07   0.04  -0.00
     4   6    -0.05  -0.15  -0.00     0.15  -0.01  -0.00    -0.07  -0.04  -0.00
     5   6     0.05   0.15   0.00    -0.15   0.01   0.00    -0.07  -0.04  -0.00
     6   6    -0.05   0.15   0.00    -0.15  -0.01  -0.00    -0.07   0.04   0.00
     7   6     0.03   0.00  -0.00     0.00  -0.10  -0.00     0.05  -0.00  -0.00
     8   6    -0.03  -0.00   0.00    -0.00   0.10   0.00     0.05  -0.00  -0.00
     9   6     0.13  -0.02  -0.00     0.21   0.02  -0.00    -0.12  -0.02   0.00
    10   6    -0.13  -0.02  -0.00     0.21  -0.02  -0.00    -0.12   0.02   0.00
    11   6     0.13   0.02   0.00    -0.21   0.02  -0.00    -0.12   0.02   0.00
    12   6    -0.13   0.02   0.00    -0.21  -0.02  -0.00    -0.12  -0.02  -0.00
    13   6    -0.06   0.12   0.00     0.25   0.00   0.00    -0.17   0.00  -0.00
    14   6    -0.06  -0.12  -0.00    -0.25   0.00   0.00    -0.17  -0.00   0.00
    15   6     0.06  -0.12  -0.00    -0.25  -0.00  -0.00    -0.17   0.00   0.00
    16   6     0.06   0.12   0.00     0.25  -0.00  -0.00    -0.17  -0.00  -0.00
    17   1     0.27  -0.03   0.00     0.23   0.02  -0.00    -0.15  -0.01   0.00
    18   1    -0.27  -0.03   0.00     0.23  -0.02  -0.00    -0.15   0.01   0.00
    19   1     0.27   0.03  -0.00    -0.23   0.02  -0.00    -0.15   0.01  -0.00
    20   1    -0.27   0.03  -0.00    -0.23  -0.02  -0.00    -0.15  -0.01  -0.00
    21   1    -0.12   0.22   0.00     0.23   0.03   0.00    -0.16  -0.02  -0.00
    22   1    -0.12  -0.22  -0.00    -0.23   0.03   0.00    -0.16   0.02   0.00
    23   1     0.12  -0.22  -0.00    -0.23  -0.03  -0.00    -0.16  -0.02   0.00
    24   1     0.12   0.22   0.00     0.23  -0.03  -0.00    -0.16   0.02  -0.00
                     10                     11                     12
                      A                      A                      A
 Frequencies --    409.3951               421.3036               423.7251
 Red. masses --      3.2880                 8.5329                 5.0557
 Frc consts  --      0.3247                 0.8924                 0.5348
 IR Inten    --      0.2981                 0.0000                 0.0000
  Atom  AN      X      Y      Z        X      Y      Z        X      Y      Z
     1   8    -0.00  -0.00   0.03     0.22   0.00  -0.00     0.00  -0.00   0.09
     2   8    -0.00  -0.00   0.03    -0.22  -0.00   0.00     0.00   0.00  -0.09
     3   6     0.00   0.00  -0.08    -0.15   0.13   0.00    -0.00  -0.00   0.20
     4   6     0.00   0.00  -0.08     0.15   0.13   0.00    -0.00   0.00  -0.20
     5   6    -0.00   0.00  -0.08    -0.15  -0.13  -0.00     0.00  -0.00   0.20
     6   6    -0.00   0.00  -0.08     0.15  -0.13  -0.00     0.00   0.00  -0.20
     7   6    -0.00   0.00  -0.10     0.19   0.00  -0.00    -0.00   0.00  -0.20
     8   6    -0.00   0.00  -0.10    -0.19  -0.00   0.00     0.00  -0.00   0.20
     9   6     0.00  -0.00   0.18    -0.17   0.16   0.00    -0.00  -0.00   0.02
    10   6     0.00  -0.00   0.18     0.17   0.16   0.00    -0.00   0.00  -0.02
    11   6     0.00  -0.00   0.18    -0.17  -0.16  -0.00     0.00  -0.00   0.02
    12   6    -0.00  -0.00   0.18     0.17  -0.16  -0.00     0.00   0.00  -0.02
    13   6     0.00   0.00  -0.08     0.13   0.11   0.00    -0.00  -0.00   0.17
    14   6    -0.00   0.00  -0.08     0.13  -0.11  -0.00     0.00  -0.00   0.17
    15   6    -0.00   0.00  -0.08    -0.13  -0.11  -0.00     0.00   0.00  -0.17
    16   6     0.00   0.00  -0.08    -0.13   0.11   0.00    -0.00   0.00  -0.17
    17   1    -0.00  -0.00   0.41    -0.14   0.16   0.00    -0.00  -0.00   0.01
    18   1     0.00  -0.00   0.41     0.14   0.16   0.00    -0.00   0.00  -0.01
    19   1     0.00  -0.00   0.41    -0.14  -0.16  -0.00     0.00  -0.00   0.01
    20   1     0.00  -0.00   0.41     0.14  -0.16  -0.00     0.00   0.00  -0.01
    21   1     0.00   0.00  -0.17     0.20  -0.02  -0.00    -0.00  -0.00   0.40
    22   1    -0.00   0.00  -0.17     0.20   0.02   0.00     0.00  -0.00   0.40
    23   1    -0.00   0.00  -0.17    -0.20   0.02   0.00     0.00   0.00  -0.40
    24   1     0.00   0.00  -0.17    -0.20  -0.02  -0.00    -0.00   0.00  -0.40
                     13                     14                     15
                      A                      A                      A
 Frequencies --    442.5480               481.3430               487.9373
 Red. masses --      3.2573                11.7518                 3.9884
 Frc consts  --      0.3759                 1.6042                 0.5595
 IR Inten    --      0.0000                 0.0000                 0.0000
  Atom  AN      X      Y      Z        X      Y      Z        X      Y      Z
     1   8     0.00  -0.00   0.00    -0.00   0.42   0.00     0.00  -0.00  -0.00
     2   8    -0.00  -0.00  -0.00     0.00  -0.42  -0.00     0.00   0.00  -0.00
     3   6    -0.00  -0.00   0.16    -0.06  -0.06   0.00     0.00  -0.00   0.18
     4   6     0.00  -0.00   0.16    -0.06   0.06  -0.00    -0.00   0.00  -0.18
     5   6    -0.00   0.00  -0.16     0.06  -0.06   0.00    -0.00   0.00  -0.18
     6   6     0.00   0.00  -0.16     0.06   0.06  -0.00     0.00  -0.00   0.18
     7   6     0.00  -0.00  -0.00    -0.00   0.39   0.00    -0.00  -0.00  -0.00
     8   6    -0.00  -0.00   0.00     0.00  -0.39  -0.00    -0.00   0.00   0.00
     9   6    -0.00   0.00  -0.15     0.06   0.11   0.00     0.00  -0.00   0.07
    10   6     0.00   0.00  -0.15     0.06  -0.11  -0.00    -0.00   0.00  -0.07
    11   6    -0.00  -0.00   0.15    -0.06   0.11   0.00     0.00   0.00  -0.07
    12   6     0.00  -0.00   0.15    -0.06  -0.11  -0.00    -0.00  -0.00   0.07
    13   6     0.00  -0.00   0.06     0.15  -0.02   0.00    -0.00  -0.00   0.17
    14   6     0.00   0.00  -0.06    -0.15  -0.02   0.00    -0.00   0.00  -0.17
    15   6    -0.00   0.00  -0.06    -0.15   0.02  -0.00     0.00  -0.00   0.17
    16   6    -0.00  -0.00   0.06     0.15   0.02  -0.00     0.00   0.00  -0.17
    17   1    -0.00   0.00  -0.44     0.11   0.10   0.00     0.00  -0.00   0.06
    18   1     0.00   0.00  -0.44     0.11  -0.10  -0.00     0.00   0.00  -0.06
    19   1    -0.00  -0.00   0.44    -0.11   0.10   0.00     0.00   0.00  -0.06
    20   1     0.00  -0.00   0.44    -0.11  -0.10  -0.00     0.00  -0.00   0.06
    21   1     0.00  -0.00   0.07     0.11   0.07   0.00    -0.00  -0.00   0.42
    22   1     0.00   0.00  -0.07    -0.11   0.07   0.00    -0.00   0.00  -0.42
    23   1    -0.00   0.00  -0.07    -0.11  -0.07  -0.00     0.00  -0.00   0.42
    24   1    -0.00  -0.00   0.07     0.11  -0.07  -0.00     0.00   0.00  -0.42
                     16                     17                     18
                      A                      A                      A
 Frequencies --    625.5186               634.4692               665.3885
 Red. masses --      6.7151                 6.9003                 4.6248
 Frc consts  --      1.5481                 1.6366                 1.2064
 IR Inten    --      1.3685                10.8659                 0.0000
  Atom  AN      X      Y      Z        X      Y      Z        X      Y      Z
     1   8     0.00   0.20   0.00     0.06  -0.00  -0.00    -0.00   0.00  -0.05
     2   8    -0.00   0.20   0.00     0.06  -0.00  -0.00     0.00  -0.00   0.05
     3   6     0.11  -0.04  -0.00    -0.15   0.04   0.00     0.00   0.00  -0.08
     4   6    -0.11  -0.04  -0.00    -0.15  -0.04  -0.00     0.00  -0.00   0.08
     5   6    -0.11  -0.04  -0.00    -0.15  -0.04   0.00    -0.00   0.00  -0.08
     6   6     0.11  -0.04  -0.00    -0.15   0.04   0.00    -0.00  -0.00   0.08
     7   6    -0.00   0.17   0.00    -0.10   0.00   0.00     0.00  -0.00   0.22
     8   6    -0.00   0.17   0.00    -0.10   0.00   0.00    -0.00   0.00  -0.22
     9   6     0.18  -0.11  -0.00    -0.01   0.27   0.00    -0.00  -0.00   0.16
    10   6    -0.18  -0.11  -0.00    -0.01  -0.27  -0.00     0.00   0.00  -0.16
    11   6    -0.18  -0.11  -0.00    -0.01  -0.27  -0.00     0.00  -0.00   0.16
    12   6     0.18  -0.11  -0.00    -0.01   0.27   0.00    -0.00   0.00  -0.16
    13   6    -0.17  -0.06  -0.00     0.17  -0.02  -0.00    -0.00  -0.00   0.16
    14   6     0.17  -0.06  -0.00     0.17   0.02   0.00     0.00  -0.00   0.16
    15   6    -0.17  -0.06  -0.00     0.17  -0.02  -0.00     0.00   0.00  -0.16
    16   6     0.17  -0.06  -0.00     0.17   0.02   0.00    -0.00   0.00  -0.16
    17   1     0.15  -0.11   0.00    -0.00   0.27   0.00     0.00  -0.00   0.25
    18   1    -0.15  -0.11   0.00    -0.00  -0.27  -0.00     0.00   0.00  -0.25
    19   1    -0.15  -0.11   0.00    -0.00  -0.27  -0.00    -0.00  -0.00   0.25
    20   1     0.15  -0.11   0.00    -0.00   0.27   0.00    -0.00   0.00  -0.25
    21   1    -0.28   0.13   0.00     0.04   0.20   0.00     0.00  -0.00   0.33
    22   1     0.28   0.13   0.00     0.04  -0.20  -0.00    -0.00  -0.00   0.33
    23   1    -0.28   0.13   0.00     0.04   0.20   0.00     0.00   0.00  -0.33
    24   1     0.28   0.13   0.00     0.04  -0.20  -0.00    -0.00   0.00  -0.33
                     19                     20                     21
                      A                      A                      A
 Frequencies --    692.7933               692.8634               721.9215
 Red. masses --      6.2350                 7.2670                 1.9426
 Frc consts  --      1.7632                 2.0554                 0.5965
 IR Inten    --      0.0000                 0.0000               129.7727
  Atom  AN      X      Y      Z        X      Y      Z        X      Y      Z
     1   8     0.00   0.10   0.00     0.19  -0.00  -0.00    -0.00   0.00  -0.05
     2   8    -0.00  -0.10  -0.00    -0.19   0.00   0.00    -0.00   0.00  -0.05
     3   6     0.13  -0.06   0.00     0.11   0.21   0.00    -0.00  -0.00  -0.05
     4   6     0.13   0.07  -0.00    -0.11   0.21   0.00     0.00  -0.00  -0.05
     5   6    -0.13  -0.07   0.00     0.11  -0.21  -0.00     0.00  -0.00  -0.05
     6   6    -0.13   0.06  -0.00    -0.11  -0.21  -0.00    -0.00  -0.00  -0.05
     7   6    -0.00   0.08   0.00    -0.18  -0.00   0.00     0.00  -0.00   0.17
     8   6     0.00  -0.08  -0.00     0.18   0.00  -0.00     0.00  -0.00   0.17
     9   6     0.07  -0.28  -0.00     0.04   0.10   0.00    -0.00   0.00  -0.02
    10   6     0.07   0.28   0.00    -0.04   0.10   0.00     0.00  -0.00  -0.02
    11   6    -0.07  -0.28  -0.00     0.04  -0.10  -0.00     0.00   0.00  -0.02
    12   6    -0.07   0.28   0.00    -0.04  -0.10  -0.00    -0.00  -0.00  -0.02
    13   6    -0.08   0.02  -0.00    -0.13  -0.13  -0.00     0.00   0.00  -0.04
    14   6     0.08   0.02  -0.00    -0.13   0.13   0.00    -0.00   0.00  -0.04
    15   6     0.08  -0.02   0.00     0.13   0.13   0.00     0.00   0.00  -0.04
    16   6    -0.08  -0.02   0.00     0.13  -0.13  -0.00    -0.00   0.00  -0.04
    17   1     0.12  -0.28  -0.00    -0.27   0.10  -0.00     0.00  -0.00   0.33
    18   1     0.12   0.28   0.00     0.27   0.10   0.00    -0.00  -0.00   0.33
    19   1    -0.12  -0.28  -0.00    -0.27  -0.10   0.00    -0.00  -0.00   0.33
    20   1    -0.12   0.28   0.00     0.27  -0.10  -0.00     0.00  -0.00   0.33
    21   1     0.05  -0.20  -0.00    -0.15  -0.08  -0.00     0.00  -0.00   0.35
    22   1    -0.05  -0.20  -0.00    -0.15   0.08   0.00    -0.00  -0.00   0.35
    23   1    -0.05   0.20   0.00     0.15   0.08   0.00     0.00  -0.00   0.35
    24   1     0.05   0.20   0.00     0.15  -0.08  -0.00    -0.00  -0.00   0.35
                     22                     23                     24
                      A                      A                      A
 Frequencies --    724.3631               786.5497               796.8509
 Red. masses --      4.8223                 1.2092                 5.8398
 Frc consts  --      1.4908                 0.4407                 2.1848
 IR Inten    --      0.0000                 0.0000                 0.0000
  Atom  AN      X      Y      Z        X      Y      Z        X      Y      Z
     1   8     0.00   0.00   0.00     0.00  -0.00   0.00    -0.00   0.00  -0.08
     2   8    -0.00  -0.00   0.00    -0.00  -0.00  -0.00     0.00   0.00   0.08
     3   6     0.00   0.00  -0.23     0.00  -0.00   0.03    -0.00  -0.00   0.23
     4   6    -0.00  -0.00   0.23    -0.00  -0.00   0.03     0.00  -0.00  -0.23
     5   6     0.00  -0.00   0.23     0.00   0.00  -0.03     0.00  -0.00   0.23
     6   6    -0.00   0.00  -0.23    -0.00   0.00  -0.03    -0.00  -0.00  -0.23
     7   6     0.00   0.00  -0.00    -0.00  -0.00  -0.00     0.00  -0.00   0.32
     8   6     0.00  -0.00  -0.00     0.00  -0.00   0.00    -0.00   0.00  -0.32
     9   6    -0.00  -0.00   0.13     0.00   0.00  -0.03    -0.00  -0.00  -0.02
    10   6    -0.00   0.00  -0.13     0.00   0.00  -0.03     0.00  -0.00   0.02
    11   6    -0.00   0.00  -0.13     0.00  -0.00   0.03     0.00  -0.00  -0.02
    12   6    -0.00  -0.00   0.13     0.00  -0.00   0.03    -0.00  -0.00   0.02
    13   6    -0.00  -0.00   0.13    -0.00   0.00  -0.05     0.00   0.00  -0.06
    14   6    -0.00   0.00  -0.13    -0.00  -0.00   0.05    -0.00   0.00  -0.06
    15   6     0.00  -0.00   0.13     0.00  -0.00   0.05     0.00   0.00   0.06
    16   6    -0.00   0.00  -0.13     0.00   0.00  -0.05    -0.00   0.00   0.06
    17   1    -0.00  -0.00   0.36     0.00  -0.00   0.26     0.00   0.00  -0.37
    18   1     0.00   0.00  -0.36    -0.00  -0.00   0.26    -0.00  -0.00   0.37
    19   1    -0.00   0.00  -0.36    -0.00   0.00  -0.26    -0.00   0.00  -0.37
    20   1     0.00  -0.00   0.36    -0.00   0.00  -0.26     0.00  -0.00   0.37
    21   1    -0.00  -0.00   0.18    -0.00  -0.00   0.42     0.00   0.00   0.06
    22   1    -0.00   0.00  -0.18    -0.00   0.00  -0.42    -0.00   0.00   0.06
    23   1     0.00  -0.00   0.18    -0.00   0.00  -0.42     0.00   0.00  -0.06
    24   1     0.00   0.00  -0.18    -0.00  -0.00   0.42    -0.00   0.00  -0.06
                     25                     26                     27
                      A                      A                      A
 Frequencies --    804.0881               836.8818               917.2132
 Red. masses --      6.4212                 2.1639                 1.3120
 Frc consts  --      2.4461                 0.8929                 0.6503
 IR Inten    --      0.0721                31.5447                 0.0000
  Atom  AN      X      Y      Z        X      Y      Z        X      Y      Z
     1   8    -0.00   0.16   0.00    -0.00  -0.00  -0.04     0.00   0.00   0.00
     2   8    -0.00   0.16   0.00    -0.00  -0.00  -0.04     0.00   0.00  -0.00
     3   6    -0.04  -0.15  -0.00     0.00   0.00  -0.09    -0.00  -0.00   0.03
     4   6     0.04  -0.15   0.00     0.00   0.00  -0.09     0.00   0.00  -0.03
     5   6     0.04  -0.15  -0.00    -0.00   0.00  -0.09    -0.00   0.00  -0.03
     6   6    -0.04  -0.15  -0.00    -0.00   0.00  -0.09     0.00  -0.00   0.03
     7   6     0.00   0.12  -0.00     0.00  -0.00   0.16     0.00   0.00  -0.00
     8   6     0.00   0.12   0.00     0.00  -0.00   0.16    -0.00   0.00   0.00
     9   6    -0.05  -0.14  -0.00     0.00   0.00   0.03    -0.00   0.00  -0.07
    10   6     0.05  -0.14  -0.00    -0.00   0.00   0.03    -0.00  -0.00   0.07
    11   6     0.05  -0.14  -0.00    -0.00   0.00   0.03     0.00  -0.00   0.07
    12   6    -0.05  -0.14  -0.00     0.00   0.00   0.03    -0.00   0.00  -0.07
    13   6     0.18   0.13   0.00    -0.00  -0.00   0.06    -0.00  -0.00   0.04
    14   6    -0.18   0.13   0.00     0.00  -0.00   0.06    -0.00   0.00  -0.04
    15   6     0.18   0.13   0.00    -0.00  -0.00   0.06     0.00  -0.00   0.04
    16   6    -0.18   0.13   0.00     0.00  -0.00   0.06     0.00   0.00  -0.04
    17   1     0.23  -0.15  -0.00    -0.00   0.00  -0.15     0.00  -0.00   0.43
    18   1    -0.23  -0.15  -0.00     0.00   0.00  -0.15     0.00   0.00  -0.43
    19   1    -0.23  -0.15  -0.00     0.00   0.00  -0.15     0.00   0.00  -0.43
    20   1     0.23  -0.15  -0.00    -0.00   0.00  -0.15     0.00  -0.00   0.43
    21   1     0.23   0.05  -0.00    -0.00   0.00  -0.45    -0.00   0.00  -0.25
    22   1    -0.23   0.05  -0.00     0.00   0.00  -0.45     0.00  -0.00   0.25
    23   1     0.23   0.05  -0.00    -0.00   0.00  -0.45    -0.00   0.00  -0.25
    24   1    -0.23   0.05  -0.00     0.00   0.00  -0.45     0.00  -0.00   0.25
                     28                     29                     30
                      A                      A                      A
 Frequencies --    923.5662               936.8695               964.8160
 Red. masses --      1.3883                 6.7887                 6.8631
 Frc consts  --      0.6977                 3.5107                 3.7641
 IR Inten    --      0.0000                 0.0000               102.9700
  Atom  AN      X      Y      Z        X      Y      Z        X      Y      Z
     1   8    -0.00   0.00  -0.01     0.07  -0.00  -0.00    -0.09   0.00   0.00
     2   8     0.00  -0.00   0.01    -0.07   0.00   0.00    -0.09   0.00   0.00
     3   6     0.00  -0.00   0.04     0.12   0.02   0.00     0.12   0.06   0.00
     4   6     0.00   0.00  -0.04    -0.12   0.02   0.00     0.12  -0.06  -0.00
     5   6    -0.00  -0.00   0.04     0.12  -0.02  -0.00     0.12  -0.06  -0.00
     6   6    -0.00   0.00  -0.04    -0.12  -0.02  -0.00     0.12   0.06   0.00
     7   6     0.00  -0.00   0.04    -0.31   0.00   0.00     0.32  -0.00  -0.00
     8   6    -0.00   0.00  -0.04     0.31  -0.00  -0.00     0.32  -0.00  -0.00
     9   6    -0.00   0.00  -0.07    -0.05  -0.09  -0.00    -0.07   0.18   0.00
    10   6    -0.00  -0.00   0.07     0.05  -0.09  -0.00    -0.07  -0.18  -0.00
    11   6     0.00   0.00  -0.07    -0.05   0.09   0.00    -0.07  -0.18  -0.00
    12   6     0.00  -0.00   0.07     0.05   0.09   0.00    -0.07   0.18   0.00
    13   6    -0.00  -0.00   0.04     0.21   0.09   0.00    -0.12  -0.07  -0.00
    14   6     0.00  -0.00   0.04     0.21  -0.09  -0.00    -0.12   0.07   0.00
    15   6     0.00   0.00  -0.04    -0.21  -0.09  -0.00    -0.12  -0.07  -0.00
    16   6    -0.00   0.00  -0.04    -0.21   0.09   0.00    -0.12   0.07   0.00
    17   1     0.00  -0.00   0.42     0.00  -0.09   0.00    -0.22   0.20   0.00
    18   1     0.00   0.00  -0.42    -0.00  -0.09  -0.00    -0.22  -0.20  -0.00
    19   1    -0.00  -0.00   0.42     0.00   0.09   0.00    -0.22  -0.20  -0.00
    20   1    -0.00   0.00  -0.42    -0.00   0.09   0.00    -0.22   0.20   0.00
    21   1    -0.00   0.00  -0.25     0.32  -0.09  -0.00    -0.17  -0.01  -0.00
    22   1    -0.00   0.00  -0.25     0.32   0.09   0.00    -0.17   0.01   0.00
    23   1     0.00  -0.00   0.25    -0.32   0.09   0.00    -0.17  -0.01  -0.00
    24   1    -0.00  -0.00   0.25    -0.32  -0.09  -0.00    -0.17   0.01   0.00
                     31                     32                     33
                      A                      A                      A
 Frequencies --   1006.4746              1011.7901              1022.3774
 Red. masses --      1.3628                 1.4072                 1.3151
 Frc consts  --      0.8134                 0.8488                 0.8099
 IR Inten    --      0.0000                 4.0151                 0.0000
  Atom  AN      X      Y      Z        X      Y      Z        X      Y      Z
     1   8    -0.00   0.00   0.00    -0.00  -0.00   0.00    -0.00   0.00  -0.00
     2   8     0.00  -0.00   0.00    -0.00  -0.00   0.00    -0.00   0.00   0.00
     3   6    -0.00   0.00  -0.02    -0.00  -0.00   0.03     0.00   0.00  -0.00
     4   6     0.00   0.00  -0.02    -0.00  -0.00   0.03     0.00  -0.00   0.00
     5   6     0.00  -0.00   0.02     0.00  -0.00   0.03     0.00  -0.00   0.00
     6   6     0.00  -0.00   0.02     0.00  -0.00   0.03     0.00   0.00  -0.00
     7   6    -0.00   0.00  -0.00     0.00   0.00  -0.03     0.00   0.00   0.00
     8   6    -0.00  -0.00  -0.00    -0.00   0.00  -0.03     0.00   0.00  -0.00
     9   6     0.00  -0.00   0.07    -0.00   0.00  -0.08    -0.00   0.00  -0.04
    10   6    -0.00  -0.00   0.07     0.00   0.00  -0.08    -0.00  -0.00   0.04
    11   6    -0.00   0.00  -0.07    -0.00   0.00  -0.08    -0.00  -0.00   0.04
    12   6    -0.00   0.00  -0.07    -0.00   0.00  -0.08    -0.00   0.00  -0.04
    13   6     0.00   0.00  -0.05    -0.00  -0.00   0.05    -0.00   0.00  -0.07
    14   6     0.00  -0.00   0.05     0.00  -0.00   0.05    -0.00  -0.00   0.07
    15   6     0.00  -0.00   0.05     0.00  -0.00   0.05    -0.00   0.00  -0.07
    16   6    -0.00   0.00  -0.05     0.00  -0.00   0.05    -0.00  -0.00   0.07
    17   1    -0.00   0.00  -0.41     0.00  -0.00   0.42     0.00  -0.00   0.26
    18   1     0.00   0.00  -0.41    -0.00  -0.00   0.42     0.00   0.00  -0.26
    19   1    -0.00  -0.00   0.41    -0.00  -0.00   0.42     0.00   0.00  -0.26
    20   1     0.00  -0.00   0.41     0.00  -0.00   0.42     0.00  -0.00   0.26
    21   1    -0.00  -0.00   0.27     0.00   0.00  -0.26    -0.00  -0.00   0.42
    22   1    -0.00   0.00  -0.27    -0.00   0.00  -0.26    -0.00   0.00  -0.42
    23   1    -0.00   0.00  -0.27    -0.00   0.00  -0.26     0.00  -0.00   0.42
    24   1    -0.00  -0.00   0.27     0.00   0.00  -0.26     0.00   0.00  -0.42
                     34                     35                     36
                      A                      A                      A
 Frequencies --   1022.8018              1065.3042              1071.7233
 Red. masses --      1.3144                 2.1724                 1.7443
 Frc consts  --      0.8101                 1.4526                 1.1804
 IR Inten    --      0.0000                 0.0000                 1.4988
  Atom  AN      X      Y      Z        X      Y      Z        X      Y      Z
     1   8     0.00  -0.00  -0.00    -0.00  -0.00  -0.00     0.01   0.00  -0.00
     2   8    -0.00   0.00   0.00     0.00   0.00  -0.00     0.01   0.00  -0.00
     3   6    -0.00  -0.00  -0.00     0.02  -0.01  -0.00    -0.01  -0.02  -0.00
     4   6    -0.00   0.00   0.00     0.02   0.01   0.00    -0.01   0.02   0.00
     5   6     0.00  -0.00  -0.00    -0.02  -0.01  -0.00    -0.01   0.02   0.00
     6   6     0.00   0.00   0.00    -0.02   0.01   0.00    -0.01  -0.02  -0.00
     7   6    -0.00  -0.00   0.01    -0.00   0.00  -0.00    -0.04   0.00   0.00
     8   6     0.00   0.00  -0.01     0.00  -0.00   0.00    -0.04   0.00   0.00
     9   6    -0.00   0.00  -0.04     0.06   0.07   0.00     0.06   0.04   0.00
    10   6    -0.00  -0.00   0.04     0.06  -0.07  -0.00     0.06  -0.04  -0.00
    11   6     0.00   0.00  -0.04    -0.06   0.07   0.00     0.06  -0.04  -0.00
    12   6     0.00  -0.00   0.04    -0.06  -0.07  -0.00     0.06   0.04   0.00
    13   6     0.00   0.00  -0.07    -0.09  -0.09  -0.00    -0.07  -0.08  -0.00
    14   6    -0.00   0.00  -0.07     0.09  -0.09  -0.00    -0.07   0.08   0.00
    15   6     0.00  -0.00   0.07     0.09   0.09   0.00    -0.07  -0.08  -0.00
    16   6     0.00  -0.00   0.07    -0.09   0.09   0.00    -0.07   0.08   0.00
    17   1     0.00  -0.00   0.26     0.40   0.07  -0.00     0.43   0.04  -0.00
    18   1     0.00   0.00  -0.26     0.40  -0.07   0.00     0.43  -0.04   0.00
    19   1    -0.00  -0.00   0.26    -0.40   0.07   0.00     0.43  -0.04   0.00
    20   1    -0.00   0.00  -0.26    -0.40  -0.07   0.00     0.43   0.04  -0.00
    21   1    -0.00  -0.00   0.42    -0.03  -0.24  -0.00     0.00  -0.21  -0.00
[...]
 ,-0.06286208,-0.00000003,0.00000008,0.00030368,-0.00000992,0.00006722,
 0.13728915,0.00034815,0.00095288,0.00000017,0.00311563,0.00083818,0.00
 000019,-0.00136940,0.00073577,0.00000021,-0.00076051,0.00023962,-0.000
 00005,-0.05912358,-0.02506307,-0.00000216,-0.02012253,0.03403003,0.000
 00378,-0.00043736,0.00117315,-0.00000005,-0.00389292,-0.00829023,-0.00
 000095,0.00046471,-0.00036048,-0.00000011,0.00085267,0.00012879,0.0000
 0006,-0.29895090,0.13456274,0.00001737,0.04332447,-0.03106932,-0.00000
 380,-0.00040018,0.00064916,0.00000005,-0.13420558,-0.03967000,-0.00000
 372,0.73635487,-0.00257912,-0.00107059,0.00000008,0.00062758,0.0001988
 8,0.00000004,0.00043988,0.00143290,-0.00000009,0.00092159,-0.00009482,
 0.00000032,0.03018408,0.06980015,0.00000642,0.03167559,-0.05766021,-0.
 00000612,0.00472802,-0.00246259,-0.00000068,-0.00548886,0.00035100,-0.
 00000060,-0.00156527,-0.00009179,0.00000007,-0.00100148,-0.00009525,-0
 .00000011,0.05693357,-0.18916866,-0.00001449,-0.08570268,-0.02465390,-
 0.00000257,0.00064916,-0.00083607,-0.00000006,0.03967037,-0.33213204,-
 0.00003575,0.02959434,0.68046052,-0.00000023,-0.00000013,-0.00000428,0
 .00000012,0.00000014,-0.00055762,-0.00000004,0.00000025,-0.00072198,0.
 00000008,0.,0.00031694,0.00000360,0.00000710,0.00692275,0.00000370,-0.
 00000610,-0.00634997,0.00000049,-0.00000018,-0.00087014,-0.00000056,-0
 .00000077,0.00730400,-0.00000017,0.00000004,-0.00046027,-0.00000010,-0
 .00000002,0.00012688,0.00000936,-0.00001565,-0.06286209,-0.00001008,-0
 .00000329,0.00512937,0.00000006,-0.00000007,-0.00011276,0.00000528,-0.
 00003487,-0.06180837,-0.00000240,0.00006660,0.13728909,0.00034814,-0.0
 0095288,-0.00000017,0.00311561,-0.00083819,-0.00000021,-0.05912354,0.0
 2506272,0.00000269,-0.02012253,-0.03402983,-0.00000371,-0.00136940,-0.
 00073577,-0.00000020,-0.00076051,-0.00023962,0.00000006,-0.00043734,-0
 .00117315,0.00000004,-0.00389294,0.00829022,0.00000103,-0.29894977,-0.
 13456281,-0.00001555,0.04332414,0.03106958,0.00000354,0.00046470,0.000
 36048,0.00000010,0.00085267,-0.00012879,-0.00000006,-0.13420559,0.0396
 7043,0.00000432,-0.00040018,-0.00064916,-0.00000005,-0.00049651,0.0004
 9390,0.00000003,0.73635461,0.00257914,-0.00107060,0.00000006,-0.000627
 56,0.00019888,0.00000005,-0.03018443,0.06980013,0.00000667,-0.03167541
 ,-0.05766045,-0.00000594,-0.00043989,0.00143289,-0.00000009,-0.0009215
 9,-0.00009482,0.00000033,-0.00472802,-0.00246262,-0.00000065,0.0054888
 5,0.00035103,-0.00000065,-0.05693363,-0.18916911,-0.00001406,0.0857029
 1,-0.02465359,-0.00000323,0.00156527,-0.00009179,0.00000006,0.00100148
 ,-0.00009525,-0.00000012,-0.03966994,-0.33213196,-0.00003575,-0.000649
 16,-0.00083607,-0.00000006,-0.00049390,0.00115017,0.00000009,-0.029594
 45,0.68046024,0.00000023,-0.00000013,-0.00000428,-0.00000015,0.0000001
 4,-0.00055762,-0.00000313,0.00000694,0.00692276,-0.00000362,-0.0000058
 7,-0.00634996,0.00000005,0.00000025,-0.00072198,-0.00000007,0.,0.00031
 694,-0.00000050,-0.00000018,-0.00087014,0.00000064,-0.00000083,0.00730
 400,-0.00000747,-0.00001464,-0.06286211,0.00000984,-0.00000357,0.00512
 939,0.00000016,0.00000003,-0.00046027,0.00000009,-0.00000002,0.0001268
 8,-0.00000474,-0.00003547,-0.06180837,-0.00000006,-0.00000007,-0.00011
 276,-0.00000003,0.00000008,0.00030368,-0.00000235,0.00006728,0.1372891
 3,-0.00085579,0.00065277,0.00000015,-0.00088127,-0.00204659,-0.0000003
 0,0.00661658,0.02693889,0.00000302,-0.00534953,0.00218548,0.00000009,0
 .00042920,-0.00038031,-0.00000002,-0.00010916,0.00007716,0.00000003,0.
 00175709,0.00105328,0.00000005,-0.00017591,0.00251691,0.00000037,-0.05
 803905,-0.00571121,-0.00000015,-0.00141108,0.00001251,0.,0.00005117,-0
 .00012412,-0.00000002,0.00015849,-0.00012589,-0.00000001,-0.00446732,-
 0.00251611,-0.00000029,-0.00001951,-0.00013886,-0.00000002,-0.00008478
 ,-0.00000456,0.,0.00487291,-0.02669351,-0.00000295,0.05670309,0.000263
 33,-0.00035277,0.,-0.00227874,0.00114505,0.00000022,-0.00005275,-0.012
 35111,-0.00000194,0.00281865,0.00069536,-0.00000066,0.00016900,-0.0000
 3702,-0.00000003,0.00008760,0.00000153,-0.00000002,-0.00069837,-0.0001
 9525,-0.00000013,-0.00085488,-0.00247311,0.00000018,-0.00470258,-0.339
 65321,-0.00003445,-0.00029135,0.00079635,0.00000026,-0.00000363,-0.000
 03403,0.,-0.00002437,0.00002390,0.00000001,-0.00234833,0.00048259,-0.0
 0000083,0.00000732,0.00001531,0.,0.00002631,0.00002247,0.,0.00278739,-
 0.00778483,-0.00000137,0.00516974,0.35965192,0.00000003,0.,-0.00042226
 ,-0.00000030,0.00000016,-0.00018191,-0.00000022,-0.00000136,0.00369525
 ,0.00000036,-0.00000092,0.00717516,0.00000001,-0.00000004,0.00022859,0
 .00000001,0.,0.00004058,-0.00000015,-0.00000015,0.00073520,-0.00000014
 ,0.00000010,-0.00411578,0.00000043,-0.00003454,-0.04009044,0.00000020,
 0.00000031,-0.00137764,0.,0.,0.00002562,0.,0.,-0.00001701,-0.00000042,
 -0.00000064,0.00779518,0.,0.,-0.00000165,0.,0.,-0.00002855,0.,-0.00000
 164,0.00435059,0.00000018,0.00003817,0.02736288,-0.00088135,0.00204660
 ,0.00000032,-0.00085579,-0.00065276,-0.00000012,-0.00534951,-0.0021854
 9,-0.00000026,0.00661667,-0.02693879,-0.00000292,-0.00010916,-0.000077
 16,-0.00000002,0.00042920,0.00038031,0.00000001,-0.00017590,-0.0025169
 0,-0.00000036,0.00175710,-0.00105328,-0.00000008,-0.00141108,-0.000012
 51,-0.00000002,-0.05803912,0.00571192,0.00000004,0.00015849,0.00012589
 ,0.,0.00005117,0.00012412,0.00000002,0.00487284,0.02669355,0.00000290,
 -0.00008478,0.00000456,0.,-0.00001951,0.00013886,0.00000002,-0.0044673
 3,0.00251609,0.00000024,0.00008068,-0.00001376,0.00000001,0.05670321,0
 .00227881,0.00114506,0.00000026,-0.00026333,-0.00035277,0.,-0.00281866
 ,0.00069535,-0.00000070,0.00005279,-0.01235118,-0.00000195,-0.00008760
 ,0.00000153,-0.00000001,-0.00016900,-0.00003702,-0.00000003,0.00085488
 ,-0.00247313,0.00000015,0.00069837,-0.00019525,-0.00000012,0.00029134,
 0.00079635,0.00000026,0.00470331,-0.33965260,-0.00003397,0.00002437,0.
 00002390,0.,0.00000363,-0.00003403,0.,-0.00278734,-0.00778477,-0.00000
 136,-0.00002632,0.00002247,0.,-0.00000732,0.00001531,0.,0.00234832,0.0
 0048261,-0.00000081,0.00001376,-0.00009033,0.00000008,-0.00517060,0.35
 965132,0.00000031,0.00000013,-0.00018191,-0.00000004,-0.00000002,-0.00
 042226,-0.00000044,-0.00000099,0.00717515,0.00000037,-0.00000147,0.003
 69523,-0.00000001,0.,0.00004058,0.,-0.00000005,0.00022859,0.00000008,0
 .00000013,-0.00411579,0.00000014,-0.00000015,0.00073520,-0.00000025,0.
 00000033,-0.00137764,-0.00000067,-0.00003406,-0.04009053,0.,0.,-0.0000
 1701,0.00000002,0.,0.00002562,0.00000007,-0.00000153,0.00435061,0.,0.,
 -0.00002855,0.,0.,-0.00000165,0.00000038,-0.00000059,0.00779517,0.,0.0
 0000008,-0.00081245,0.00000003,0.00003770,0.02736297,-0.00085579,-0.00
 065276,-0.00000015,-0.00088135,0.00204660,0.00000030,0.00042920,0.0003
 8031,0.00000001,-0.00010916,-0.00007716,-0.00000003,0.00661667,-0.0269
 3879,-0.00000302,-0.00534951,-0.00218549,0.,0.00175710,-0.00105328,-0.
 00000006,-0.00017591,-0.00251690,-0.00000040,0.00005117,0.00012412,0.0
 0000002,0.00015849,0.00012589,0.00000001,-0.05803909,0.00571196,0.0000
 0028,-0.00141108,-0.00001251,0.,-0.00001951,0.00013886,0.00000002,-0.0
 0446734,0.00251609,0.00000038,0.00487284,0.02669355,0.00000293,-0.0000
 8478,0.00000456,0.,-0.00008112,0.00000964,0.,0.00005191,0.00000985,0.,
 0.05670318,-0.00026333,-0.00035277,0.,0.00227880,0.00114506,0.00000020
 ,-0.00016900,-0.00003702,-0.00000003,-0.00008760,0.00000153,-0.0000000
 2,0.00005280,-0.01235118,-0.00000192,-0.00281866,0.00069535,-0.0000006
 3,0.00069837,-0.00019525,-0.00000013,0.00085488,-0.00247313,0.00000016
 ,0.00000363,-0.00003403,0.,0.00002437,0.00002390,0.00000001,0.00470334
 ,-0.33965299,-0.00003419,0.00029134,0.00079635,0.00000026,-0.00000732,
 0.00001531,0.,0.00234832,0.00048260,-0.00000084,-0.00278734,-0.0077847
 6,-0.00000133,-0.00002632,0.00002247,0.,-0.00000964,0.00002571,0.,0.00
 000985,-0.00000729,0.,-0.00517063,0.35965170,-0.00000003,0.,-0.0004222
 6,0.00000030,0.00000014,-0.00018191,-0.00000002,-0.00000005,0.00022859
 ,-0.00000001,0.,0.00004058,0.00000019,-0.00000118,0.00369524,-0.000000
 28,-0.00000089,0.00717515,0.00000014,-0.00000014,0.00073520,0.00000010
 ,0.00000012,-0.00411579,0.,0.,0.00002562,0.,0.,-0.00001701,-0.00000029
 ,-0.00003424,-0.04009049,-0.00000019,0.00000031,-0.00137764,0.,0.,-0.0
 0000165,0.00000052,-0.00000067,0.00779518,0.,-0.00000185,0.00435061,0.
 ,0.,-0.00002855,0.,0.,0.00004295,0.,0.,-0.00000156,-0.00000039,0.00003
 788,0.02736293,-0.00088127,-0.00204659,-0.00000031,-0.00085579,0.00065
 277,0.00000012,-0.00010916,0.00007716,0.00000002,0.00042920,-0.0003803
 1,-0.00000002,-0.00534953,0.00218548,0.00000034,0.00661658,0.02693888,
 0.00000289,-0.00017590,0.00251691,0.00000033,0.00175709,0.00105328,0.0
 0000007,0.00015849,-0.00012589,0.,0.00005117,-0.00012412,-0.00000002,-
 0.00141108,0.00001251,0.00000002,-0.05803907,-0.00571116,0.00000009,-0
 .00008478,-0.00000456,0.,0.00487291,-0.02669351,-0.00000289,-0.0044673
 2,-0.00251610,-0.00000015,-0.00001951,-0.00013886,-0.00000002,0.000051
 91,-0.00000985,0.,-0.00008112,-0.00000964,0.,0.00008068,0.00001376,-0.
 00000002,0.05670309,-0.00227874,0.00114506,0.00000028,0.00026333,-0.00
 035277,0.,0.00008760,0.00000153,-0.00000001,0.00016900,-0.00003702,-0.
 00000003,0.00281865,0.00069536,-0.00000071,-0.00005275,-0.01235110,-0.
 00000194,-0.00085488,-0.00247311,0.00000015,-0.00069837,-0.00019525,-0
 .00000011,-0.00002437,0.00002390,0.,-0.00000363,-0.00003403,0.,-0.0002
 9135,0.00079635,0.00000026,-0.00470254,-0.33965305,-0.00003383,0.00002
 631,0.00002247,0.,0.00278739,-0.00778484,-0.00000138,-0.00234833,0.000
 48259,-0.00000079,0.00000732,0.00001531,0.,-0.00000985,-0.00000729,0.,
 0.00000964,0.00002571,0.,-0.00001376,-0.00009033,0.00000008,0.00516969
 ,0.35965175,-0.00000031,0.00000015,-0.00018191,0.00000004,-0.00000003,
 -0.00042226,0.00000001,0.,0.00004058,0.,-0.00000005,0.00022859,0.00000
 051,-0.00000100,0.00717516,-0.00000037,-0.00000164,0.00369524,-0.00000
 011,0.00000011,-0.00411578,-0.00000015,-0.00000015,0.00073520,0.,0.,-0
 .00001701,-0.00000002,0.,0.00002562,0.00000024,0.00000033,-0.00137764,
 0.00000079,-0.00003396,-0.04009045,0.,0.,-0.00002855,-0.00000007,-0.00
 000130,0.00435059,-0.00000028,-0.00000056,0.00779518,0.,0.,-0.00000165
 ,0.,0.,-0.00000156,0.,0.,0.00004295,0.,0.00000008,-0.00081245,-0.00000
 024,0.00003754,0.02736290,0.00000619,0.00049906,0.00000009,0.00003106,
 -0.00007050,-0.00000002,0.00040563,0.00109827,0.00000015,-0.00342953,0
 .00372811,0.00000028,0.00005366,0.00005709,0.00000002,-0.00036405,0.00
 037957,0.00000001,-0.00026948,-0.00176036,-0.00000020,-0.00018214,-0.0
 0000279,0.,0.00173834,0.00055106,0.00000009,-0.01755528,-0.01572662,-0
 .00000190,-0.00003321,-0.00000891,0.,-0.00008824,-0.00015830,0.,-0.268
 96487,-0.12116288,-0.00001463,-0.00002535,0.00003196,0.,-0.00000610,-0
 .00002344,0.,0.00399426,0.00267408,0.00000030,0.00007573,0.00021443,0.
 00000002,0.00066861,0.00028556,0.00000006,-0.00001052,-0.00000581,0.,0
 .00001956,0.00000493,0.,0.28342496,-0.00017603,-0.00009985,-0.00000004
 ,-0.00022391,0.00017419,0.,0.00117053,-0.00097756,0.00000001,0.0034495
 5,-0.00082377,-0.00000094,-0.00007343,-0.00003309,-0.00000005,0.000240
 87,-0.00022608,0.00000001,0.00069677,0.00084968,0.00000008,0.00002727,
 -0.00022635,0.00000016,0.00077702,-0.00594120,-0.00000162,0.01507610,0
 .01189093,0.00000098,-0.00003672,0.00002645,0.,0.00002040,0.00007402,0
 .00000003,-0.12113660,-0.12862884,-0.00001079,0.00002557,0.00000623,0.
 ,0.00001503,-0.00001543,0.,-0.02830621,-0.00922526,-0.00000166,-0.0012
 9760,-0.00041547,-0.00000002,-0.00045357,0.00053409,0.00000052,0.00001
 380,0.00000182,0.,-0.00000201,-0.00000167,0.,0.12979788,0.13249367,-0.
 00000002,-0.00000004,0.00010703,-0.00000004,-0.00000002,0.00019983,0.0
 0000010,0.,-0.00102016,0.00000044,-0.00000095,0.00791516,-0.00000003,-
 0.00000003,0.00020312,0.00000005,-0.00000002,-0.00019039,0.00000009,0.
 00000015,0.00013205,0.00000005,0.00000014,-0.00136548,0.00000022,-0.00
 000162,0.00750968,0.00000153,0.00000094,0.00419541,0.,0.,0.00004730,0.
 ,0.00000002,-0.00014897,-0.00001465,-0.00001071,-0.03974002,0.,0.,0.00
 003080,0.,0.,-0.00004980,-0.00000341,-0.00000170,0.00399815,-0.0000001
 7,-0.00000003,-0.00019149,-0.00000002,0.00000054,-0.00421410,0.,0.,0.0
 0000228,0.,0.,0.00000057,0.00001577,0.00001282,0.02630086,0.00000619,-
 0.00049906,-0.00000009,0.00003105,0.00007050,0.00000002,0.00005366,-0.
 00005709,-0.00000002,-0.00036405,-0.00037957,-0.00000001,0.00040564,-0
 .00109827,-0.00000016,-0.00342951,-0.00372812,-0.00000019,-0.00026947,
 0.00176036,0.00000020,-0.00018214,0.00000279,-0.00000001,-0.00003321,0
 .00000890,0.,-0.00008824,0.00015830,0.,0.00173834,-0.00055103,-0.00000
 005,-0.01755529,0.01572652,0.00000205,-0.00002535,-0.00003196,0.,-0.26
 896543,0.12116237,0.00001626,0.00399418,-0.00267404,-0.00000030,-0.000
 00610,0.00002344,0.,-0.00001052,0.00000581,0.,0.00001956,-0.00000493,0
 .,0.00007573,-0.00021443,-0.00000002,0.00066861,-0.00028556,-0.0000000
 9,-0.00002306,0.00000785,0.,0.28342557,0.00017603,-0.00009986,-0.00000
 004,0.00022392,0.00017419,0.,0.00007343,-0.00003309,-0.00000005,-0.000
 24087,-0.00022608,0.00000002,-0.00117053,-0.00097757,0.00000002,-0.003
 44956,-0.00082379,-0.00000090,-0.00069677,0.00084969,0.00000008,-0.000
 02727,-0.00022636,0.00000016,0.00003672,0.00002645,0.,-0.00002040,0.00
 007402,0.00000003,-0.00077700,-0.00594122,-0.00000160,-0.01507618,0.01
 189093,0.00000109,-0.00002557,0.00000623,0.,0.12113607,-0.12862807,-0.
 00001162,0.02830627,-0.00922521,-0.00000187,-0.00001503,-0.00001543,0.
 ,-0.00001380,0.00000182,0.,0.00000201,-0.00000167,0.,0.00129760,-0.000
 41547,-0.00000003,0.00045358,0.00053409,0.00000051,-0.00000785,0.00000
 546,0.,-0.12979734,0.13249288,0.00000002,-0.00000004,0.00010703,0.0000
 0004,-0.00000002,0.00019983,0.00000003,-0.00000003,0.00020312,-0.00000
 005,-0.00000002,-0.00019039,-0.00000011,0.00000003,-0.00102015,-0.0000
 0035,-0.00000092,0.00791516,-0.00000008,0.00000013,0.00013205,-0.00000
 005,0.00000014,-0.00136548,0.,0.,0.00004730,0.,0.00000002,-0.00014897,
 -0.00000019,-0.00000160,0.00750968,-0.00000135,0.00000080,0.00419540,0
 .,0.,0.00003080,0.00001628,-0.00001153,-0.03974005,0.00000338,-0.00000
 168,0.00399816,0.,0.,-0.00004980,0.,0.,0.00000228,0.,0.,0.00000057,0.0
 0000017,-0.00000003,-0.00019149,-0.00000002,0.00000054,-0.00421411,0.,
 0.,0.00003139,-0.00001761,0.00001370,0.02630088,0.00003106,-0.00007050
 ,-0.00000002,0.00000619,0.00049906,0.00000008,-0.00036406,0.00037957,0
 .00000002,0.00005366,0.00005709,0.00000002,-0.00342953,0.00372811,0.00
 000045,0.00040563,0.00109827,0.00000014,-0.00018214,-0.00000279,0.,-0.
 00026948,-0.00176036,-0.00000018,-0.00008824,-0.00015830,-0.00000001,-
 0.00003321,-0.00000891,0.,-0.01755528,-0.01572662,-0.00000161,0.001738
 33,0.00055106,0.00000015,-0.00000610,-0.00002344,0.,0.00399426,0.00267
 409,0.00000031,-0.26896498,-0.12116298,-0.00001165,-0.00002535,0.00003
 196,0.,0.00001956,0.00000493,0.,-0.00001052,-0.00000581,0.,0.00066861,
 0.00028556,0.,0.00007573,0.00021443,0.00000002,-0.00000370,-0.00000355
 ,0.,0.00053753,-0.00039101,-0.00000011,0.28342506,-0.00022391,0.000174
 19,0.,-0.00017603,-0.00009985,-0.00000003,0.00024087,-0.00022608,0.000
 00001,-0.00007343,-0.00003309,-0.00000005,0.00344955,-0.00082377,-0.00
 000101,0.00117053,-0.00097756,0.,0.00002727,-0.00022635,0.00000015,0.0
 0069677,0.00084968,0.00000006,0.00002040,0.00007402,0.00000003,-0.0000
 3672,0.00002645,0.,0.01507610,0.01189093,0.00000079,0.00077702,-0.0059
 4120,-0.00000161,0.00001503,-0.00001543,0.,-0.02830620,-0.00922526,-0.
 00000129,-0.12113670,-0.12862889,-0.00000914,0.00002557,0.00000623,0.,
 -0.00000201,-0.00000167,0.,0.00001380,0.00000182,0.,-0.00045358,0.0005
 3409,0.00000053,-0.00129760,-0.00041547,0.,-0.00000355,0.00000053,0.,0
 .00039100,0.00055751,0.00000051,0.12979798,0.13249370,-0.00000003,-0.0
 0000002,0.00019983,-0.00000002,-0.00000003,0.00010703,0.00000005,-0.00
 000002,-0.00019039,-0.00000003,-0.00000003,0.00020312,0.00000061,-0.00
 000092,0.00791516,0.00000009,0.,-0.00102016,0.00000002,0.00000015,-0.0
 0136548,0.00000009,0.00000013,0.00013205,0.,0.00000002,-0.00014897,0.,
 0.,0.00004730,0.00000176,0.00000113,0.00419541,0.00000033,-0.00000163,
 0.00750968,0.,0.,-0.00004980,-0.00000342,-0.00000176,0.00399814,-0.000
 01165,-0.00000907,-0.03973999,0.,0.,0.00003080,0.,0.,0.00000057,0.,0.,
 0.00000228,-0.00000007,0.00000053,-0.00421410,-0.00000018,-0.00000004,
 -0.00019149,0.,0.,0.00000025,0.00000003,0.00000052,-0.00375346,0.00001
 242,0.00001106,0.02630084,0.00003106,0.00007050,0.00000002,0.00000619,
 -0.00049906,-0.00000008,-0.00342951,-0.00372812,-0.00000036,0.00040564
 ,-0.00109827,-0.00000015,-0.00036405,-0.00037957,-0.00000002,0.0000536
 6,-0.00005709,-0.00000002,-0.00018214,0.00000279,0.,-0.00026948,0.0017
 6036,0.00000018,-0.01755529,0.01572653,0.00000179,0.00173834,-0.000551
 04,-0.00000011,-0.00008824,0.00015830,0.,-0.00003321,0.00000891,0.,0.0
 0399419,-0.00267405,-0.00000031,-0.00000610,0.00002344,0.,-0.00002535,
 -0.00003196,0.,-0.26896567,0.12116259,0.00001354,0.00066861,-0.0002855
 6,-0.00000003,0.00007573,-0.00021443,-0.00000002,0.00001956,-0.0000049
 3,0.,-0.00001052,0.00000581,0.,0.00053753,0.00039101,0.00000008,-0.000
 00370,0.00000355,0.,-0.00002306,0.00000785,0.,0.28342580,0.00022392,0.
 00017419,0.,0.00017603,-0.00009986,-0.00000003,-0.00344955,-0.00082379
 ,-0.00000099,-0.00117053,-0.00097757,0.00000001,-0.00024087,-0.0002260
 8,0.00000002,0.00007343,-0.00003309,-0.00000005,-0.00002727,-0.0002263
 6,0.00000015,-0.00069677,0.00084969,0.00000006,-0.01507619,0.01189093,
 0.00000091,-0.00077700,-0.00594121,-0.00000162,-0.00002040,0.00007402,
 0.00000003,0.00003672,0.00002645,0.,0.02830625,-0.00922520,-0.00000153
 ,-0.00001503,-0.00001543,0.,-0.00002557,0.00000623,0.,0.12113630,-0.12
 862818,-0.00001015,0.00045358,0.00053409,0.00000053,0.00129760,-0.0004
 1547,0.,0.00000201,-0.00000167,0.,-0.00001380,0.00000182,0.,-0.0003910
 1,0.00055751,0.00000051,0.00000355,0.00000053,0.,-0.00000785,0.0000054
 6,0.,-0.12979755,0.13249298,0.00000003,-0.00000002,0.00019983,0.000000
 02,-0.00000003,0.00010703,-0.00000052,-0.00000090,0.00791516,-0.000000
 10,0.00000001,-0.00102015,-0.00000005,-0.00000002,-0.00019039,0.000000
 03,-0.00000003,0.00020312,-0.00000003,0.00000015,-0.00136548,-0.000000
 09,0.00000011,0.00013205,-0.00000159,0.00000101,0.00419540,-0.00000030
 ,-0.00000164,0.00750968,0.,0.00000002,-0.00014897,0.,0.,0.00004730,0.0
 0000344,-0.00000176,0.00399815,0.,0.,-0.00004980,0.,0.,0.00003080,0.00
 001352,-0.00001007,-0.03973999,0.00000003,0.00000054,-0.00421411,0.000
 00018,-0.00000004,-0.00019149,0.,0.,0.00000057,0.,0.,0.00000228,-0.000
 00006,0.00000052,-0.00375347,0.,0.,0.00000025,0.,0.,0.00003139,-0.0000
 1452,0.00001215,0.02630084\\-0.00000045,-0.00000004,-0.00000763,0.0000
 0039,0.00000047,0.00000452,0.00001073,-0.00003351,0.00000257,0.0000105
 0,0.00003300,-0.00000517,-0.00001061,-0.00003326,0.00000250,-0.0000106
 7,0.00003339,-0.00000521,0.00000006,-0.00000505,0.00002075,0.00000003,
 0.00000498,-0.00001261,0.00000886,0.00000914,0.00000119,0.00000892,-0.
 00000892,-0.00000143,-0.00000893,0.00000906,0.00000134,-0.00000882,-0.
 00000908,-0.00000128,-0.00001199,0.00000808,0.00000038,0.00001186,0.00
 000831,0.00000033,0.00001217,-0.00000810,-0.00000025,-0.00001213,-0.00
 000826,-0.00000016,-0.00000924,-0.00000743,0.00000010,-0.00000931,0.00
 000721,0.00000002,0.00000931,-0.00000733,0.00000006,0.00000926,0.00000
 737,-0.00000002,-0.00000342,-0.00000315,0.00000018,0.00000349,-0.00000
 313,0.00000019,0.00000338,0.00000314,-0.00000018,-0.00000338,0.0000031
 0,-0.00000019\\\@


 ALL SCIENCE IS EITHER PHYSICS, OR STAMP COLLECTING.
   --ERNEST RUTHERFORD, 1871-1937.
 Job cpu time:       0 days  4 hours 29 minutes 14.0 seconds.
 Elapsed time:       0 days  0 hours 17 minutes  1.0 seconds.
 File lengths (MBytes):  RWF=    359 Int=      0 D2E=      0 Chk=     14 Scr=      1
 Normal termination of Gaussian 16 at Sat Nov 22 22:33:04 2025.
