 Entering Gaussian System, Link 0=g16
 Input=AARE0081.gjf
 Output=AARE0081.log
 Initial command:
 /usr/local/g16/l1.exe "/dados_01/scratch/Gau-1885294.inp" -scrdir="/dados_01/scratch/"
 Entering Link 1 = /usr/local/g16/l1.exe PID=   1885300.
  
 Copyright (c) 1988-2017, Gaussian, Inc.  All Rights Reserved.
  
 This is part of the Gaussian(R) 16 program.  It is based on
 the Gaussian(R) 09 system (copyright 2009, Gaussian, Inc.),
 the Gaussian(R) 03 system (copyright 2003, Gaussian, Inc.),
 the Gaussian(R) 98 system (copyright 1998, Gaussian, Inc.),
 the Gaussian(R) 94 system (copyright 1995, Gaussian, Inc.),
 the Gaussian 92(TM) system (copyright 1992, Gaussian, Inc.),
 the Gaussian 90(TM) system (copyright 1990, Gaussian, Inc.),
 the Gaussian 88(TM) system (copyright 1988, Gaussian, Inc.),
 the Gaussian 86(TM) system (copyright 1986, Carnegie Mellon
 University), and the Gaussian 82(TM) system (copyright 1983,
 Carnegie Mellon University). Gaussian is a federally registered
 trademark of Gaussian, Inc.
  
 This software contains proprietary and confidential information,
 including trade secrets, belonging to Gaussian, Inc.
  
 This software is provided under written license and may be
 used, copied, transmitted, or stored only in accord with that
 written license.
  
 The following legend is applicable only to US Government
 contracts under FAR:
  
                    RESTRICTED RIGHTS LEGEND
  
 Use, reproduction and disclosure by the US Government is
 subject to restrictions as set forth in subparagraphs (a)
 and (c) of the Commercial Computer Software - Restricted
 Rights clause in FAR 52.227-19.
  
 Gaussian, Inc.
 340 Quinnipiac St., Bldg. 40, Wallingford CT 06492
  
  
 ---------------------------------------------------------------
 Warning -- This program may not be used in any manner that
 competes with the business of Gaussian, Inc. or will provide
 assistance to any competitor of Gaussian, Inc.  The licensee
 of this program is prohibited from giving any competitor of
 Gaussian, Inc. access to this program.  By using this program,
 the user acknowledges that Gaussian, Inc. is engaged in the
 business of creating and licensing software in the field of
 computational chemistry and represents and warrants to the
 licensee that it is not a competitor of Gaussian, Inc. and that
 it will not use this program in any manner prohibited above.
 ---------------------------------------------------------------
  

 Cite this work as:
 Gaussian 16, Revision B.01,
 M. J. Frisch, G. W. Trucks, H. B. Schlegel, G. E. Scuseria, 
 M. A. Robb, J. R. Cheeseman, G. Scalmani, V. Barone, 
 G. A. Petersson, H. Nakatsuji, X. Li, M. Caricato, A. V. Marenich, 
 J. Bloino, B. G. Janesko, R. Gomperts, B. Mennucci, H. P. Hratchian, 
 J. V. Ortiz, A. F. Izmaylov, J. L. Sonnenberg, D. Williams-Young, 
 F. Ding, F. Lipparini, F. Egidi, J. Goings, B. Peng, A. Petrone, 
 T. Henderson, D. Ranasinghe, V. G. Zakrzewski, J. Gao, N. Rega, 
 G. Zheng, W. Liang, M. Hada, M. Ehara, K. Toyota, R. Fukuda, 
 J. Hasegawa, M. Ishida, T. Nakajima, Y. Honda, O. Kitao, H. Nakai, 
 T. Vreven, K. Throssell, J. A. Montgomery, Jr., J. E. Peralta, 
 F. Ogliaro, M. J. Bearpark, J. J. Heyd, E. N. Brothers, K. N. Kudin, 
 V. N. Staroverov, T. A. Keith, R. Kobayashi, J. Normand, 
 K. Raghavachari, A. P. Rendell, J. C. Burant, S. S. Iyengar, 
 J. Tomasi, M. Cossi, J. M. Millam, M. Klene, C. Adamo, R. Cammi, 
 J. W. Ochterski, R. L. Martin, K. Morokuma, O. Farkas, 
 J. B. Foresman, and D. J. Fox, Gaussian, Inc., Wallingford CT, 2016.
 
 ******************************************
 Gaussian 16:  ES64L-G16RevB.01 20-Dec-2017
                17-Sep-2025 
 ******************************************
 %nprocs=16
 Will use up to   16 processors via shared memory.
 %mem=40GB
 %chk=AARE0081.chk
 ----------------------------------------------------------------------
 # opt freq=noraman M08HX/6-311++G** scf=xqc Empiricaldispersion=pfd In
 t(Grid=ultraFine)
 ----------------------------------------------------------------------
 1/18=20,19=15,26=4,38=1/1,3;
 2/9=110,12=2,17=6,18=5,40=1/2;
 3/5=4,6=6,7=1111,11=2,25=1,30=1,71=1,74=-74,75=-5,124=11/1,2,3;
 4//1;
 5/5=2,8=3,13=1,38=5/2,8;
 6/7=2,8=2,9=2,10=2,28=1/1;
 7//1,2,3,16;
 1/18=20,19=15,26=4/3(2);
 2/9=110/2;
 99//99;
 2/9=110/2;
 3/5=4,6=6,7=1111,11=2,25=1,30=1,71=1,74=-74,75=-5,124=11/1,2,3;
 4/5=5,16=3,69=1/1;
 5/5=2,8=3,13=1,38=5/2,8;
 7//1,2,3,16;
 1/18=20,19=15,26=4/3(-5);
 2/9=110/2;
 6/7=2,8=2,9=2,10=2,19=2,28=1/1;
 99/9=1/99;
 --------
 AARE0081
 --------
 Symbolic Z-matrix:
 Charge =  0 Multiplicity = 1
 O                    -1.2981   -2.3856    0.3322 
 O                     2.1218    1.8956   -0.2951 
 O                     3.0979   -0.7055   -0.352 
 C                    -0.9573   -0.0103    0.205 
 C                    -0.4669   -1.3158    0.1777 
 C                     1.2787    0.8366   -0.1419 
 C                     1.769    -0.4689   -0.1693 
 C                    -0.0844    1.0659    0.0452 
 C                     0.8962   -1.5451   -0.0093 
 C                    -2.3762    0.2558    0.4009 
 C                    -3.0515    1.3271   -0.0696 
 C                    -1.8725   -2.9346   -0.8516 
 C                     1.5409    3.1976   -0.2548 
 C                    -4.5083    1.5639    0.1644 
 C                     3.9106   -0.7767    0.8181 
 H                    -0.4918    2.0684    0.0997 
 H                     1.279    -2.5625   -0.0306 
 H                    -2.9241   -0.4823    0.9826 
 H                    -2.5543    2.0789   -0.6761 
 H                    -2.536    -3.754    -0.5616 
 H                    -1.0904   -3.3336   -1.5055 
 H                    -2.4603   -2.1826   -1.387 
 H                     1.1016    3.414     0.7251 
 H                     0.8324    3.3511   -1.076 
 H                     2.3541    3.9162   -0.4014 
 H                    -4.6518    2.5161    0.6841 
 H                    -5.0365    1.6107   -0.7928 
 H                    -4.9647    0.7732    0.768 
 H                     3.5852   -1.6008    1.461 
 H                     3.875     0.1676    1.3704 
 H                     4.9426   -0.9616    0.5078 
 

 GradGradGradGradGradGradGradGradGradGradGradGradGradGradGradGradGradGrad
 Berny optimization.
 Initialization pass.
                           ----------------------------
                           !    Initial Parameters    !
                           ! (Angstroms and Degrees)  !
 --------------------------                            --------------------------
 ! Name  Definition              Value          Derivative Info.                !
 --------------------------------------------------------------------------------
 ! R1    R(1,5)                  1.3635         estimate D2E/DX2                !
 ! R2    R(1,12)                 1.4257         estimate D2E/DX2                !
 ! R3    R(2,6)                  1.3623         estimate D2E/DX2                !
 ! R4    R(2,13)                 1.4263         estimate D2E/DX2                !
 ! R5    R(3,7)                  1.3621         estimate D2E/DX2                !
 ! R6    R(3,15)                 1.4264         estimate D2E/DX2                !
 ! R7    R(4,5)                  1.3948         estimate D2E/DX2                !
 ! R8    R(4,8)                  1.3949         estimate D2E/DX2                !
 ! R9    R(4,10)                 1.4569         estimate D2E/DX2                !
 ! R10   R(5,9)                  1.3948         estimate D2E/DX2                !
 ! R11   R(6,7)                  1.3948         estimate D2E/DX2                !
 ! R12   R(6,8)                  1.3949         estimate D2E/DX2                !
 ! R13   R(7,9)                  1.3948         estimate D2E/DX2                !
 ! R14   R(8,16)                 1.0835         estimate D2E/DX2                !
 ! R15   R(9,17)                 1.0872         estimate D2E/DX2                !
 ! R16   R(10,11)                1.351          estimate D2E/DX2                !
 ! R17   R(10,18)                1.0878         estimate D2E/DX2                !
 ! R18   R(11,14)                1.4944         estimate D2E/DX2                !
 ! R19   R(11,19)                1.0864         estimate D2E/DX2                !
 ! R20   R(12,20)                1.0935         estimate D2E/DX2                !
 ! R21   R(12,21)                1.0947         estimate D2E/DX2                !
 ! R22   R(12,22)                1.0944         estimate D2E/DX2                !
 ! R23   R(13,23)                1.0955         estimate D2E/DX2                !
 ! R24   R(13,24)                1.0954         estimate D2E/DX2                !
 ! R25   R(13,25)                1.0951         estimate D2E/DX2                !
 ! R26   R(14,26)                1.0942         estimate D2E/DX2                !
 ! R27   R(14,27)                1.0943         estimate D2E/DX2                !
 ! R28   R(14,28)                1.0945         estimate D2E/DX2                !
 ! R29   R(15,29)                1.0947         estimate D2E/DX2                !
 ! R30   R(15,30)                1.0945         estimate D2E/DX2                !
 ! R31   R(15,31)                1.0934         estimate D2E/DX2                !
 ! A1    A(5,1,12)             116.9764         estimate D2E/DX2                !
 ! A2    A(6,2,13)             117.0264         estimate D2E/DX2                !
 ! A3    A(7,3,15)             117.0327         estimate D2E/DX2                !
 ! A4    A(5,4,8)              119.9908         estimate D2E/DX2                !
 ! A5    A(5,4,10)             121.0647         estimate D2E/DX2                !
 ! A6    A(8,4,10)             118.9444         estimate D2E/DX2                !
 ! A7    A(1,5,4)              121.1839         estimate D2E/DX2                !
 ! A8    A(1,5,9)              118.8116         estimate D2E/DX2                !
 ! A9    A(4,5,9)              120.0045         estimate D2E/DX2                !
 ! A10   A(2,6,7)              120.5205         estimate D2E/DX2                !
 ! A11   A(2,6,8)              119.4784         estimate D2E/DX2                !
 ! A12   A(7,6,8)              120.001          estimate D2E/DX2                !
 ! A13   A(3,7,6)              120.5417         estimate D2E/DX2                !
 ! A14   A(3,7,9)              119.4619         estimate D2E/DX2                !
 ! A15   A(6,7,9)              119.9965         estimate D2E/DX2                !
 ! A16   A(4,8,6)              120.0049         estimate D2E/DX2                !
 ! A17   A(4,8,16)             118.2162         estimate D2E/DX2                !
 ! A18   A(6,8,16)             121.7555         estimate D2E/DX2                !
 ! A19   A(5,9,7)              120.0023         estimate D2E/DX2                !
 ! A20   A(5,9,17)             120.035          estimate D2E/DX2                !
 ! A21   A(7,9,17)             119.9627         estimate D2E/DX2                !
 ! A22   A(4,10,11)            125.7925         estimate D2E/DX2                !
 ! A23   A(4,10,18)            116.009          estimate D2E/DX2                !
 ! A24   A(11,10,18)           118.1981         estimate D2E/DX2                !
 ! A25   A(10,11,14)           123.9473         estimate D2E/DX2                !
 ! A26   A(10,11,19)           120.9588         estimate D2E/DX2                !
 ! A27   A(14,11,19)           115.0823         estimate D2E/DX2                !
 ! A28   A(1,12,20)            108.2278         estimate D2E/DX2                !
 ! A29   A(1,12,21)            110.3938         estimate D2E/DX2                !
 ! A30   A(1,12,22)            110.9776         estimate D2E/DX2                !
 ! A31   A(20,12,21)           108.5892         estimate D2E/DX2                !
 ! A32   A(20,12,22)           108.5873         estimate D2E/DX2                !
 ! A33   A(21,12,22)           109.9952         estimate D2E/DX2                !
 ! A34   A(2,13,23)            111.6499         estimate D2E/DX2                !
 ! A35   A(2,13,24)            111.7259         estimate D2E/DX2                !
 ! A36   A(2,13,25)            107.0259         estimate D2E/DX2                !
 ! A37   A(23,13,24)           112.5531         estimate D2E/DX2                !
 ! A38   A(23,13,25)           106.7335         estimate D2E/DX2                !
 ! A39   A(24,13,25)           106.7379         estimate D2E/DX2                !
 ! A40   A(11,14,26)           109.8835         estimate D2E/DX2                !
 ! A41   A(11,14,27)           109.8994         estimate D2E/DX2                !
 ! A42   A(11,14,28)           112.235          estimate D2E/DX2                !
 ! A43   A(26,14,27)           108.3567         estimate D2E/DX2                !
 ! A44   A(26,14,28)           108.1832         estimate D2E/DX2                !
 ! A45   A(27,14,28)           108.1818         estimate D2E/DX2                !
 ! A46   A(3,15,29)            110.4857         estimate D2E/DX2                !
 ! A47   A(3,15,30)            110.6298         estimate D2E/DX2                !
 ! A48   A(3,15,31)            108.2642         estimate D2E/DX2                !
 ! A49   A(29,15,30)           110.0885         estimate D2E/DX2                !
 ! A50   A(29,15,31)           108.6586         estimate D2E/DX2                !
 ! A51   A(30,15,31)           108.6507         estimate D2E/DX2                !
 ! D1    D(12,1,5,4)            90.0095         estimate D2E/DX2                !
 ! D2    D(12,1,5,9)           -90.0352         estimate D2E/DX2                !
 ! D3    D(5,1,12,20)         -177.9797         estimate D2E/DX2                !
 ! D4    D(5,1,12,21)           63.3023         estimate D2E/DX2                !
 ! D5    D(5,1,12,22)          -58.9229         estimate D2E/DX2                !
 ! D6    D(13,2,6,7)           179.999          estimate D2E/DX2                !
 ! D7    D(13,2,6,8)            -0.0826         estimate D2E/DX2                !
 ! D8    D(6,2,13,23)           64.0068         estimate D2E/DX2                !
 ! D9    D(6,2,13,24)          -63.0332         estimate D2E/DX2                !
 ! D10   D(6,2,13,25)         -179.5364         estimate D2E/DX2                !
 ! D11   D(15,3,7,6)            89.9941         estimate D2E/DX2                !
 ! D12   D(15,3,7,9)           -90.0265         estimate D2E/DX2                !
 ! D13   D(7,3,15,29)           61.5837         estimate D2E/DX2                !
 ! D14   D(7,3,15,30)          -60.5862         estimate D2E/DX2                !
 ! D15   D(7,3,15,31)         -179.5386         estimate D2E/DX2                !
 ! D16   D(8,4,5,1)            179.9581         estimate D2E/DX2                !
 ! D17   D(8,4,5,9)              0.0034         estimate D2E/DX2                !
 ! D18   D(10,4,5,1)             0.052          estimate D2E/DX2                !
 ! D19   D(10,4,5,9)          -179.9027         estimate D2E/DX2                !
 ! D20   D(5,4,8,6)              0.0013         estimate D2E/DX2                !
 ! D21   D(5,4,8,16)          -178.2696         estimate D2E/DX2                !
 ! D22   D(10,4,8,6)           179.9094         estimate D2E/DX2                !
 ! D23   D(10,4,8,16)            1.6385         estimate D2E/DX2                !
 ! D24   D(5,4,10,11)         -151.282          estimate D2E/DX2                !
 ! D25   D(5,4,10,18)           28.9278         estimate D2E/DX2                !
 ! D26   D(8,4,10,11)           28.8109         estimate D2E/DX2                !
 ! D27   D(8,4,10,18)         -150.9793         estimate D2E/DX2                !
 ! D28   D(1,5,9,7)           -179.9692         estimate D2E/DX2                !
 ! D29   D(1,5,9,17)             0.0403         estimate D2E/DX2                !
 ! D30   D(4,5,9,7)             -0.0134         estimate D2E/DX2                !
 ! D31   D(4,5,9,17)           179.9961         estimate D2E/DX2                !
 ! D32   D(2,6,7,3)             -0.1169         estimate D2E/DX2                !
 ! D33   D(2,6,7,9)            179.9038         estimate D2E/DX2                !
 ! D34   D(8,6,7,3)            179.9652         estimate D2E/DX2                !
 ! D35   D(8,6,7,9)             -0.0141         estimate D2E/DX2                !
 ! D36   D(2,6,8,4)           -179.9147         estimate D2E/DX2                !
 ! D37   D(2,6,8,16)            -1.7066         estimate D2E/DX2                !
 ! D38   D(7,6,8,4)              0.004          estimate D2E/DX2                !
 ! D39   D(7,6,8,16)           178.2122         estimate D2E/DX2                !
 ! D40   D(3,7,9,5)           -179.9607         estimate D2E/DX2                !
 ! D41   D(3,7,9,17)             0.0297         estimate D2E/DX2                !
 ! D42   D(6,7,9,5)              0.0188         estimate D2E/DX2                !
 ! D43   D(6,7,9,17)          -179.9908         estimate D2E/DX2                !
 ! D44   D(4,10,11,14)        -179.5677         estimate D2E/DX2                !
 ! D45   D(4,10,11,19)           1.7333         estimate D2E/DX2                !
 ! D46   D(18,10,11,14)          0.2184         estimate D2E/DX2                !
 ! D47   D(18,10,11,19)       -178.4807         estimate D2E/DX2                !
 ! D48   D(10,11,14,26)        120.871          estimate D2E/DX2                !
 ! D49   D(10,11,14,27)       -119.9801         estimate D2E/DX2                !
 ! D50   D(10,11,14,28)          0.45           estimate D2E/DX2                !
 ! D51   D(19,11,14,26)        -60.3608         estimate D2E/DX2                !
 ! D52   D(19,11,14,27)         58.7881         estimate D2E/DX2                !
 ! D53   D(19,11,14,28)        179.2182         estimate D2E/DX2                !
 --------------------------------------------------------------------------------
 Trust Radius=3.00D-01 FncErr=1.00D-07 GrdErr=1.00D-06 EigMax=2.50D+02 EigMin=1.00D-04
 Number of steps in this run=    145 maximum allowed number of steps=    186.
 GradGradGradGradGradGradGradGradGradGradGradGradGradGradGradGradGradGrad

                          Input orientation:                          
 ---------------------------------------------------------------------
 Center     Atomic      Atomic             Coordinates (Angstroms)
 Number     Number       Type             X           Y           Z
 ---------------------------------------------------------------------
      1          8           0       -1.298100   -2.385600    0.332200
      2          8           0        2.121800    1.895600   -0.295100
      3          8           0        3.097900   -0.705500   -0.352000
      4          6           0       -0.957300   -0.010300    0.205000
      5          6           0       -0.466900   -1.315800    0.177700
      6          6           0        1.278700    0.836600   -0.141900
      7          6           0        1.769000   -0.468900   -0.169300
      8          6           0       -0.084400    1.065900    0.045200
      9          6           0        0.896200   -1.545100   -0.009300
     10          6           0       -2.376200    0.255800    0.400900
     11          6           0       -3.051500    1.327100   -0.069600
     12          6           0       -1.872500   -2.934600   -0.851600
     13          6           0        1.540900    3.197600   -0.254800
     14          6           0       -4.508300    1.563900    0.164400
     15          6           0        3.910600   -0.776700    0.818100
     16          1           0       -0.491800    2.068400    0.099700
     17          1           0        1.279000   -2.562500   -0.030600
     18          1           0       -2.924100   -0.482300    0.982600
     19          1           0       -2.554300    2.078900   -0.676100
     20          1           0       -2.536000   -3.754000   -0.561600
     21          1           0       -1.090400   -3.333600   -1.505500
     22          1           0       -2.460300   -2.182600   -1.387000
     23          1           0        1.101600    3.414000    0.725100
     24          1           0        0.832400    3.351100   -1.076000
     25          1           0        2.354100    3.916200   -0.401400
     26          1           0       -4.651800    2.516100    0.684100
     27          1           0       -5.036500    1.610700   -0.792800
     28          1           0       -4.964700    0.773200    0.768000
     29          1           0        3.585200   -1.600800    1.461000
     30          1           0        3.875000    0.167600    1.370400
     31          1           0        4.942600   -0.961600    0.507800
 ---------------------------------------------------------------------
                    Distance matrix (angstroms):
                    1          2          3          4          5
     1  O    0.000000
     2  O    5.515242   0.000000
     3  O    4.755595   2.778800   0.000000
     4  C    2.402993   3.655600   4.151891   0.000000
     5  C    1.363538   4.151867   3.655249   1.394836   0.000000
     6  C    4.152980   1.362266   2.394098   2.416045   2.789640
     7  C    3.651348   2.393983   1.362106   2.789825   2.415967
     8  C    3.669917   2.381496   3.663695   1.394882   2.415855
     9  C    2.374450   3.663631   2.381146   2.415988   1.394844
    10  C    2.853772   4.837909   5.608630   1.456868   2.482976
    11  C    4.125530   5.209326   6.482772   2.499944   3.704893
    12  C    1.425734   6.292452   5.470225   3.241223   2.378168
    13  C    6.290995   1.426279   4.203319   4.091826   4.958739
    14  C    5.092356   6.654276   7.954315   3.884502   4.962435
    15  C    5.473136   3.402970   1.426424   4.965855   4.456820
    16  H    4.532361   2.648893   4.559002   2.132785   3.385190
    17  H    2.608517   4.544769   2.619188   3.401510   2.155416
    18  H    2.586397   5.722590   6.172152   2.166967   2.716692
    19  H    4.746206   4.695175   6.309143   2.773356   4.075561
    20  H    2.050315   7.326944   6.409221   4.134641   3.282158
    21  H    2.078217   6.255224   5.077335   3.740033   2.700635
    22  H    2.085082   6.230538   5.843512   3.084211   2.678296
    23  H    6.288743   2.094554   4.702727   4.029318   5.013068
    24  H    6.279473   2.095433   4.702411   4.017835   5.003988
    25  H    7.320479   2.036685   4.681430   5.172088   5.972204
    26  H    5.949605   6.872082   8.456362   4.501285   5.696779
    27  H    5.586741   7.181235   8.469212   4.501457   5.512487
    28  H    4.859207   7.253168   8.273238   4.121904   4.994255
    29  H    5.073137   4.177348   2.079902   4.974086   4.260000
    30  H    5.861540   2.972135   2.081550   4.974025   4.740792
    31  H    6.403511   4.094527   2.051283   5.983768   5.431125
                    6          7          8          9         10
     6  C    0.000000
     7  C    1.394803   0.000000
     8  C    1.394857   2.415929   0.000000
     9  C    2.415861   1.394843   2.789600   0.000000
    10  C    3.740355   4.246528   2.456651   3.757673   0.000000
    11  C    4.358492   5.145170   2.980786   4.882367   1.350957
    12  C    4.965449   4.450363   4.472757   3.210277   3.464264
    13  C    2.378196   3.674583   2.697359   4.792610   4.942449
    14  C    5.840561   6.606673   4.453437   6.237361   2.512550
    15  C    3.232837   2.378266   4.466830   3.218950   6.384667
    16  H    2.170339   3.409028   1.083490   3.872442   2.631958
    17  H    3.400922   2.154646   3.876840   1.087241   4.635676
    18  H    4.546155   4.832416   3.367423   4.087554   1.087824
    19  H    4.064550   5.043714   2.765294   5.048163   2.124933
    20  H    5.983452   5.429439   5.441506   4.118771   4.126795
    21  H    4.986242   4.262406   4.772034   3.063319   4.262797
    22  H    4.964470   4.722980   4.271867   3.683824   3.024806
    23  H    2.725077   4.040085   2.717063   5.017390   4.708973
    24  H    2.719271   4.036301   2.705504   5.011456   4.696512
    25  H    3.272272   4.430047   3.777558   5.666129   6.034729
    26  H    6.218828   7.131984   4.834503   6.910460   3.219862
    27  H    6.395675   7.143411   5.051965   6.765344   3.215256
    28  H    6.309674   6.911155   4.942210   6.350501   2.665107
    29  H    3.718891   2.690290   4.752025   3.065225   6.333172
    30  H    3.078211   2.685339   4.270825   3.702724   6.326548
    31  H    4.132771   3.282218   5.440173   4.120827   7.420130
                   11         12         13         14         15
    11  C    0.000000
    12  C    4.490396   0.000000
    13  C    4.962178   7.043532   0.000000
    14  C    1.494355   5.311892   6.279930   0.000000
    15  C    7.326993   6.394425   4.749911   8.762626   0.000000
    16  H    2.670253   5.276487   2.352155   4.048577   5.290729
    17  H    5.820974   3.277873   5.770408   7.110418   3.291609
    18  H    2.096970   3.237889   5.916844   2.714051   6.843015
    19  H    1.086395   5.062690   4.266104   2.188557   7.223712
    20  H    5.130827   1.093503   8.064737   5.718138   7.233709
    21  H    5.256410   1.094745   7.151543   6.201299   6.078393
    22  H    3.795136   1.094379   6.799855   4.542841   6.886755
    23  H    4.715394   7.185818   1.095453   5.933653   5.045899
    24  H    4.493784   6.846668   1.095401   5.766780   5.486498
    25  H    6.002836   8.062276   1.095067   7.276399   5.092463
    26  H    2.131372   6.308170   6.300437   1.094242   9.174703
    27  H    2.131589   5.538421   6.787480   1.094266   9.399217
    28  H    2.160721   5.092405   7.017597   1.094459   9.009753
    29  H    7.413577   6.075659   5.490699   8.786424   1.094690
    30  H    7.168992   6.898890   4.155743   8.583927   1.094534
    31  H    8.335297   7.224008   5.426976   9.788544   1.093388
                   16         17         18         19         20
    16  H    0.000000
    17  H    4.959632   0.000000
    18  H    3.633410   4.797901   0.000000
    19  H    2.203607   6.054210   3.073725   0.000000
    20  H    6.206159   4.031855   3.638571   5.834052   0.000000
    21  H    5.667150   2.895511   4.205117   5.667986   1.776919
    22  H    4.914903   3.995811   2.953157   4.321411   1.776602
    23  H    2.177312   6.026699   5.608362   4.136600   8.140513
    24  H    2.186572   6.021875   5.748398   3.639801   7.879922
    25  H    3.429958   6.577757   7.008684   5.248192   9.097841
    26  H    4.224637   7.840750   3.473392   2.537872   6.733686
    27  H    4.654067   7.608028   3.463369   2.528665   5.923340
    28  H    4.704360   7.123794   2.405490   3.098436   5.306784
    29  H    5.651380   2.910034   6.622001   7.469997   6.796784
    30  H    4.929164   4.019386   6.841091   7.012641   7.759671
    31  H    6.235395   4.034194   7.895577   8.176171   8.054227
                   21         22         23         24         25
    21  H    0.000000
    22  H    1.793173   0.000000
    23  H    7.437106   6.962042   0.000000
    24  H    6.968992   6.446738   1.822193   0.000000
    25  H    8.102050   7.832319   1.757829   1.757838   0.000000
    26  H    7.190056   5.583002   5.823188   5.819934   7.226425
    27  H    6.365984   4.623744   6.575118   6.128065   7.751741
    28  H    6.086445   4.433148   6.616318   6.606987   8.050514
    29  H    5.802065   6.708030   5.644292   6.207704   5.951591
    30  H    6.721934   7.298131   4.318249   5.037555   4.416380
    31  H    6.787993   7.738478   5.826352   6.164540   5.596419
                   26         27         28         29         30
    26  H    0.000000
    27  H    1.774536   0.000000
    28  H    1.772751   1.772754   0.000000
    29  H    9.241245   9.472437   8.900388   0.000000
    30  H    8.870895   9.283146   8.880875   1.794277   0.000000
    31  H   10.206762  10.387046  10.061403   1.777555   1.777341
                   31
    31  H    0.000000
 Stoichiometry    C12H16O3
 Framework group  C1[X(C12H16O3)]
 Deg. of freedom    87
 Full point group                 C1      NOp   1
 Largest Abelian subgroup         C1      NOp   1
 Largest concise Abelian subgroup C1      NOp   1
                         Standard orientation:                         
 ---------------------------------------------------------------------
 Center     Atomic      Atomic             Coordinates (Angstroms)
 Number     Number       Type             X           Y           Z
 ---------------------------------------------------------------------
      1          8           0        1.304039   -2.396353   -0.371484
      2          8           0       -2.140021    1.852897    0.335777
      3          8           0       -3.094153   -0.756368    0.391428
      4          6           0        0.946157   -0.024738   -0.224047
      5          6           0        0.466764   -1.334332   -0.197366
      6          6           0       -1.290913    0.801765    0.162842
      7          6           0       -1.770206   -0.507829    0.189621
      8          6           0        0.067219    1.043310   -0.043942
      9          6           0       -0.891370   -1.575877    0.009317
     10          6           0        2.359648    0.254114   -0.440263
     11          6           0        3.033548    1.327952    0.026441
     12          6           0        1.901201   -2.947956    0.799776
     13          6           0       -1.570315    3.159809    0.294671
     14          6           0        4.484576    1.578050   -0.228642
     15          6           0       -3.924373   -0.826958   -0.766344
     16          1           0        0.465640    2.049412   -0.098440
     17          1           0       -1.265592   -2.596473    0.030145
     18          1           0        2.904347   -0.475893   -1.035035
     19          1           0        2.539818    2.071919    0.645309
     20          1           0        2.566677   -3.760119    0.494357
     21          1           0        1.132613   -3.357343    1.463208
     22          1           0        2.491195   -2.194514    1.330717
     23          1           0       -1.148081    3.385826   -0.690546
     24          1           0       -0.850373    3.314000    1.105728
     25          1           0       -2.386891    3.870843    0.458398
     26          1           0        4.612299    2.534578   -0.744497
     27          1           0        5.027221    1.623238    0.720521
     28          1           0        4.937871    0.794835   -0.844223
     29          1           0       -3.602401   -1.644395   -1.419396
     30          1           0       -3.904977    0.120993   -1.313169
     31          1           0       -4.949896   -1.022169   -0.441237
 ---------------------------------------------------------------------
 Rotational constants (GHZ):           0.7745333           0.4162632           0.2829609
 Standard basis: 6-311++G(d,p) (5D, 7F)
 There are   457 symmetry adapted cartesian basis functions of A   symmetry.
 There are   442 symmetry adapted basis functions of A   symmetry.
   442 basis functions,   684 primitive gaussians,   457 cartesian basis functions
    56 alpha electrons       56 beta electrons
       nuclear repulsion energy       998.6110332379 Hartrees.
 NAtoms=   31 NActive=   31 NUniq=   31 SFac= 1.00D+00 NAtFMM=   60 NAOKFM=F Big=F
 Integral buffers will be    131072 words long.
 Raffenetti 2 integral format.
 Two-electron integral symmetry is turned on.
 R6APFD:  NTU= -4 IXU= 1 FactS= 1.050
 Nuclear repulsion after empirical dispersion term =      998.5897981089 Hartrees.
 One-electron integrals computed using PRISM.
 NBasis=   442 RedAO= T EigKep=  1.81D-06  NBF=   442
 NBsUse=   439 1.00D-06 EigRej=  9.48D-07 NBFU=   439
 ExpMin= 3.60D-02 ExpMax= 8.59D+03 ExpMxC= 1.30D+03 IAcc=3 IRadAn=         5 AccDes= 0.00D+00
 Harris functional with IExCor= 1009 and IRadAn=       5 diagonalized for initial guess.
 HarFok:  IExCor= 1009 AccDes= 0.00D+00 IRadAn=         5 IDoV= 1 UseB2=F ITyADJ=14
 ICtDFT=  3500011 ScaDFX=  1.000000  1.000000  1.000000  1.000000
 FoFCou: FMM=F IPFlag=           0 FMFlag=      100000 FMFlg1=           0
         NFxFlg=           0 DoJE=T BraDBF=F KetDBF=T FulRan=T
         wScrn=  0.000000 ICntrl=       500 IOpCl=  0 I1Cent=   200000004 NGrid=           0
         NMat0=    1 NMatS0=      1 NMatT0=    0 NMatD0=    1 NMtDS0=    0 NMtDT0=    0
 Petite list used in FoFCou.
 Requested convergence on RMS density matrix=1.00D-08 within  32 cycles.
 Requested convergence on MAX density matrix=1.00D-06.
 Requested convergence on             energy=1.00D-06.
 No special actions if energy rises.
 SCF Done:  E(RM08HX) =  -692.504900570     A.U. after   16 cycles
            NFock= 16  Conv=0.29D-08     -V/T= 2.0045
 QCSCF skips out because SCF is already converged.

 **********************************************************************

            Population analysis using the SCF Density.

 **********************************************************************

 Orbital symmetries:
       Occupied  (A) (A) (A) (A) (A) (A) (A) (A) (A) (A) (A) (A)
                 (A) (A) (A) (A) (A) (A) (A) (A) (A) (A) (A) (A)
                 (A) (A) (A) (A) (A) (A) (A) (A) (A) (A) (A) (A)
                 (A) (A) (A) (A) (A) (A) (A) (A) (A) (A) (A) (A)
                 (A) (A) (A) (A) (A) (A) (A) (A)
       Virtual   (A) (A) (A) (A) (A) (A) (A) (A) (A) (A) (A) (A)
                 (A) (A) (A) (A) (A) (A) (A) (A) (A) (A) (A) (A)
                 (A) (A) (A) (A) (A) (A) (A) (A) (A) (A) (A) (A)
                 (A) (A) (A) (A) (A) (A) (A) (A) (A) (A) (A) (A)
                 (A) (A) (A) (A) (A) (A) (A) (A) (A) (A) (A) (A)
                 (A) (A) (A) (A) (A) (A) (A) (A) (A) (A) (A) (A)
                 (A) (A) (A) (A) (A) (A) (A) (A) (A) (A) (A) (A)
                 (A) (A) (A) (A) (A) (A) (A) (A) (A) (A) (A) (A)
                 (A) (A) (A) (A) (A) (A) (A) (A) (A) (A) (A) (A)
                 (A) (A) (A) (A) (A) (A) (A) (A) (A) (A) (A) (A)
                 (A) (A) (A) (A) (A) (A) (A) (A) (A) (A) (A) (A)
                 (A) (A) (A) (A) (A) (A) (A) (A) (A) (A) (A) (A)
                 (A) (A) (A) (A) (A) (A) (A) (A) (A) (A) (A) (A)
                 (A) (A) (A) (A) (A) (A) (A) (A) (A) (A) (A) (A)
                 (A) (A) (A) (A) (A) (A) (A) (A) (A) (A) (A) (A)
                 (A) (A) (A) (A) (A) (A) (A) (A) (A) (A) (A) (A)
                 (A) (A) (A) (A) (A) (A) (A) (A) (A) (A) (A) (A)
                 (A) (A) (A) (A) (A) (A) (A) (A) (A) (A) (A) (A)
                 (A) (A) (A) (A) (A) (A) (A) (A) (A) (A) (A) (A)
                 (A) (A) (A) (A) (A) (A) (A) (A) (A) (A) (A) (A)
                 (A) (A) (A) (A) (A) (A) (A) (A) (A) (A) (A) (A)
                 (A) (A) (A) (A) (A) (A) (A) (A) (A) (A) (A) (A)
                 (A) (A) (A) (A) (A) (A) (A) (A) (A) (A) (A) (A)
                 (A) (A) (A) (A) (A) (A) (A) (A) (A) (A) (A) (A)
                 (A) (A) (A) (A) (A) (A) (A) (A) (A) (A) (A) (A)
                 (A) (A) (A) (A) (A) (A) (A) (A) (A) (A) (A) (A)
                 (A) (A) (A) (A) (A) (A) (A) (A) (A) (A) (A) (A)
                 (A) (A) (A) (A) (A) (A) (A) (A) (A) (A) (A) (A)
                 (A) (A) (A) (A) (A) (A) (A) (A) (A) (A) (A) (A)
                 (A) (A) (A) (A) (A) (A) (A) (A) (A) (A) (A) (A)
                 (A) (A) (A) (A) (A) (A) (A) (A) (A) (A) (A) (A)
                 (A) (A) (A) (A) (A) (A) (A) (A) (A) (A) (A)
 The electronic state is 1-A.
 Alpha  occ. eigenvalues --  -19.64297 -19.62347 -19.62133 -10.59528 -10.58989
 Alpha  occ. eigenvalues --  -10.58569 -10.58541 -10.57543 -10.57270 -10.54159
 Alpha  occ. eigenvalues --  -10.53828 -10.53486 -10.53433 -10.53212 -10.52485
 Alpha  occ. eigenvalues --   -1.19494  -1.17689  -1.16927  -0.97167  -0.91123
 Alpha  occ. eigenvalues --   -0.86659  -0.85823  -0.81620  -0.80309  -0.78310
 Alpha  occ. eigenvalues --   -0.75034  -0.70987  -0.67087  -0.64357  -0.61604
 Alpha  occ. eigenvalues --   -0.59931  -0.59089  -0.56011  -0.55918  -0.54041
 Alpha  occ. eigenvalues --   -0.53133  -0.52887  -0.52843  -0.51822  -0.49806
 Alpha  occ. eigenvalues --   -0.49584  -0.48793  -0.47784  -0.46333  -0.45132
 Alpha  occ. eigenvalues --   -0.43542  -0.42990  -0.41927  -0.41352  -0.39912
 Alpha  occ. eigenvalues --   -0.39314  -0.35562  -0.34530  -0.33668  -0.29148
 Alpha  occ. eigenvalues --   -0.26053
 Alpha virt. eigenvalues --   -0.03166  -0.02192  -0.02035  -0.01505  -0.00979
 Alpha virt. eigenvalues --   -0.00299  -0.00040   0.00541   0.00766   0.01090
 Alpha virt. eigenvalues --    0.01514   0.01879   0.02173   0.02578   0.03340
 Alpha virt. eigenvalues --    0.03664   0.04087   0.04756   0.05115   0.05262
 Alpha virt. eigenvalues --    0.05840   0.05949   0.06685   0.07513   0.07602
 Alpha virt. eigenvalues --    0.08448   0.09302   0.09723   0.09792   0.10003
 Alpha virt. eigenvalues --    0.10194   0.11019   0.11309   0.11710   0.11892
 Alpha virt. eigenvalues --    0.11980   0.12443   0.12913   0.13382   0.13625
 Alpha virt. eigenvalues --    0.14042   0.14288   0.14533   0.14927   0.15375
 Alpha virt. eigenvalues --    0.15711   0.15829   0.15917   0.16204   0.16637
 Alpha virt. eigenvalues --    0.16920   0.17278   0.17352   0.17782   0.18703
 Alpha virt. eigenvalues --    0.18736   0.19030   0.19575   0.20578   0.20977
 Alpha virt. eigenvalues --    0.21263   0.21816   0.22254   0.22905   0.23193
 Alpha virt. eigenvalues --    0.23673   0.24249   0.24786   0.25597   0.25746
 Alpha virt. eigenvalues --    0.26094   0.26925   0.27305   0.27645   0.28491
 Alpha virt. eigenvalues --    0.29028   0.29198   0.29696   0.30152   0.30716
 Alpha virt. eigenvalues --    0.31022   0.31978   0.32225   0.33084   0.33703
 Alpha virt. eigenvalues --    0.33810   0.34258   0.34884   0.35227   0.35504
 Alpha virt. eigenvalues --    0.35859   0.36061   0.37212   0.37657   0.38252
 Alpha virt. eigenvalues --    0.39004   0.39466   0.40457   0.41009   0.42433
 Alpha virt. eigenvalues --    0.42622   0.44659   0.45506   0.47335   0.47874
 Alpha virt. eigenvalues --    0.48130   0.48528   0.49357   0.50165   0.51285
 Alpha virt. eigenvalues --    0.52174   0.52455   0.53408   0.55731   0.56624
 Alpha virt. eigenvalues --    0.58606   0.59253   0.60419   0.61222   0.63427
 Alpha virt. eigenvalues --    0.64137   0.64511   0.64780   0.65370   0.65528
 Alpha virt. eigenvalues --    0.66887   0.67425   0.67952   0.68154   0.69034
 Alpha virt. eigenvalues --    0.69440   0.69680   0.70036   0.70173   0.71424
 Alpha virt. eigenvalues --    0.71526   0.71659   0.72335   0.72989   0.73467
 Alpha virt. eigenvalues --    0.74436   0.75437   0.75992   0.76160   0.77782
 Alpha virt. eigenvalues --    0.77990   0.78692   0.79467   0.80978   0.81542
 Alpha virt. eigenvalues --    0.82041   0.83802   0.86045   0.87714   0.90845
 Alpha virt. eigenvalues --    0.92247   0.93154   0.93779   0.94982   0.96285
 Alpha virt. eigenvalues --    0.96633   0.96960   0.98056   0.99533   1.01904
 Alpha virt. eigenvalues --    1.02049   1.03968   1.04752   1.05850   1.06956
 Alpha virt. eigenvalues --    1.07962   1.09035   1.09685   1.10152   1.10934
 Alpha virt. eigenvalues --    1.11966   1.14207   1.16404   1.17837   1.19600
 Alpha virt. eigenvalues --    1.20770   1.23131   1.24650   1.27299   1.28069
 Alpha virt. eigenvalues --    1.30246   1.31975   1.34060   1.34754   1.35517
 Alpha virt. eigenvalues --    1.38384   1.38600   1.40513   1.42815   1.44282
 Alpha virt. eigenvalues --    1.44895   1.46198   1.47096   1.48179   1.48856
 Alpha virt. eigenvalues --    1.49729   1.50278   1.53328   1.56078   1.56359
 Alpha virt. eigenvalues --    1.57410   1.58120   1.58818   1.59693   1.60053
 Alpha virt. eigenvalues --    1.60384   1.61325   1.61447   1.62245   1.62425
 Alpha virt. eigenvalues --    1.64825   1.65497   1.67752   1.69199   1.70854
 Alpha virt. eigenvalues --    1.71386   1.72662   1.72785   1.74150   1.74580
 Alpha virt. eigenvalues --    1.74891   1.76171   1.76519   1.77750   1.77931
 Alpha virt. eigenvalues --    1.79482   1.80605   1.81759   1.82258   1.83736
 Alpha virt. eigenvalues --    1.85786   1.86486   1.89177   1.91067   1.91590
 Alpha virt. eigenvalues --    1.93807   1.94787   1.96712   1.98451   2.01597
 Alpha virt. eigenvalues --    2.03084   2.04810   2.05428   2.07823   2.08258
 Alpha virt. eigenvalues --    2.09055   2.09812   2.12219   2.14426   2.15935
 Alpha virt. eigenvalues --    2.16277   2.16982   2.17494   2.18370   2.19314
 Alpha virt. eigenvalues --    2.21170   2.22814   2.24990   2.25758   2.28521
 Alpha virt. eigenvalues --    2.30630   2.33043   2.34315   2.36646   2.37491
 Alpha virt. eigenvalues --    2.41663   2.43651   2.45005   2.45084   2.46603
 Alpha virt. eigenvalues --    2.47502   2.48745   2.50653   2.52415   2.53600
 Alpha virt. eigenvalues --    2.54699   2.56005   2.56936   2.57003   2.58240
 Alpha virt. eigenvalues --    2.58704   2.59322   2.59839   2.60983   2.61698
 Alpha virt. eigenvalues --    2.62345   2.62613   2.66698   2.67709   2.69281
 Alpha virt. eigenvalues --    2.72851   2.73579   2.74922   2.76228   2.77027
 Alpha virt. eigenvalues --    2.78584   2.83414   2.85544   2.87272   2.89288
 Alpha virt. eigenvalues --    2.90583   2.92036   2.93099   2.95029   2.97370
 Alpha virt. eigenvalues --    2.98484   3.01409   3.03769   3.07709   3.10604
 Alpha virt. eigenvalues --    3.11731   3.14070   3.15334   3.15658   3.17755
 Alpha virt. eigenvalues --    3.18603   3.19330   3.20491   3.24576   3.29941
 Alpha virt. eigenvalues --    3.30798   3.31346   3.36446   3.38267   3.39615
 Alpha virt. eigenvalues --    3.40481   3.45322   3.50566   3.54636   3.56389
 Alpha virt. eigenvalues --    3.61576   3.64169   3.70295   3.77797   3.81336
 Alpha virt. eigenvalues --    3.82913   3.83832   3.84417   3.84459   3.84787
 Alpha virt. eigenvalues --    3.85752   3.86708   3.88877   3.98076   4.08575
 Alpha virt. eigenvalues --    4.09495   4.15443   4.21800   4.29019   4.31999
 Alpha virt. eigenvalues --    4.32998   4.35129   4.56302   4.95160   5.19455
 Alpha virt. eigenvalues --    5.30898   5.32806   5.48160   5.50115   5.56721
 Alpha virt. eigenvalues --    5.80302   5.90940   5.96715  23.63726  23.87751
 Alpha virt. eigenvalues --   23.97601  23.98007  23.98657  23.99243  24.02562
 Alpha virt. eigenvalues --   24.02863  24.10837  24.14704  24.22824  24.26909
 Alpha virt. eigenvalues --   49.96209  50.00143  50.03301
          Condensed to atoms (all electrons):
               1          2          3          4          5          6
     1  O    8.046197   0.001488  -0.003960  -0.117053   0.586235  -0.084112
     2  O    0.001488   8.124393   0.041793   0.157817   0.011669   0.148691
     3  O   -0.003960   0.041793   7.996337  -0.003361  -0.016026   0.293891
     4  C   -0.117053   0.157817  -0.003361  27.397197 -12.166023  -5.627650
     5  C    0.586235   0.011669  -0.016026 -12.166023  21.370052   1.311924
     6  C   -0.084112   0.148691   0.293891  -5.627650   1.311924  33.862259
     7  C    0.033890  -1.039383   0.266943   1.850721  -4.887116  -8.806703
     8  C   -0.002640   0.612694   0.196779   4.524258  -2.522632  -2.553048
     9  C   -0.212918   0.045911  -0.687081  -9.422598   3.266277 -11.133902
    10  C   -0.077723   0.035633   0.035817  -1.716808   2.676550  -1.129353
    11  C   -0.038259  -0.006248  -0.000794   0.181198  -2.763562   0.975690
    12  C    0.112359   0.000874  -0.000213  -0.159776  -0.082743   0.024510
    13  C   -0.000781   0.068959  -0.012024  -0.554837   0.124541   0.348745
    14  C   -0.009330   0.001589   0.000606  -0.037881   0.033863  -0.134219
    15  C    0.001506   0.020938   0.128628  -0.014252  -0.011824  -0.157598
    16  H    0.000617  -0.027201  -0.000259  -0.081581   0.190386  -0.296273
    17  H   -0.008056   0.001288  -0.016454  -0.153924  -0.072476  -0.198107
    18  H   -0.000838   0.000610   0.000064   0.303330  -0.157413  -0.100040
    19  H   -0.002550  -0.003338  -0.000430   0.013345  -0.131704   0.091288
    20  H   -0.065964   0.000046  -0.000014  -0.029384   0.029665  -0.000563
    21  H   -0.038994  -0.000197   0.000168  -0.059688   0.020008   0.029052
    22  H   -0.041312   0.000059  -0.000009   0.141281  -0.110191  -0.001796
    23  H    0.000036  -0.030685   0.001674   0.020257   0.005059   0.007494
    24  H    0.000154  -0.030331   0.000785  -0.000244   0.033878  -0.013073
    25  H   -0.000034  -0.083284  -0.001175  -0.050330  -0.000236   0.093259
    26  H   -0.000101   0.000077  -0.000000  -0.027410  -0.004916   0.004843
    27  H    0.000590   0.000059   0.000004   0.014236   0.018278  -0.014013
    28  H   -0.000065  -0.000046   0.000013  -0.013930   0.001999   0.004987
    29  H   -0.000104   0.002441  -0.055026   0.012659   0.006327  -0.080458
    30  H    0.000005  -0.007633  -0.038057   0.003506   0.019322   0.049632
    31  H    0.000025  -0.000997  -0.061327   0.006625  -0.012171   0.005711
               7          8          9         10         11         12
     1  O    0.033890  -0.002640  -0.212918  -0.077723  -0.038259   0.112359
     2  O   -1.039383   0.612694   0.045911   0.035633  -0.006248   0.000874
     3  O    0.266943   0.196779  -0.687081   0.035817  -0.000794  -0.000213
     4  C    1.850721   4.524258  -9.422598  -1.716808   0.181198  -0.159776
     5  C   -4.887116  -2.522632   3.266277   2.676550  -2.763562  -0.082743
     6  C   -8.806703  -2.553048 -11.133902  -1.129353   0.975690   0.024510
     7  C   29.098854 -10.469593   2.880603  -2.713764   0.306677  -0.050372
     8  C  -10.469593  18.582829  -2.768177  -0.039525   0.991865  -0.030443
     9  C    2.880603  -2.768177  25.217460  -1.526400  -1.001024   0.124095
    10  C   -2.713764  -0.039525  -1.526400  10.926437  -1.097482   0.011365
    11  C    0.306677   0.991865  -1.001024  -1.097482   9.754826   0.003933
    12  C   -0.050372  -0.030443   0.124095   0.011365   0.003933   5.410122
    13  C    0.823698  -1.326970   0.279506  -0.155955   0.021142  -0.000480
    14  C   -0.116604  -0.189633  -0.101864   0.524358  -1.342966  -0.025168
    15  C   -0.175719   0.036037   0.153774  -0.003136  -0.006796   0.002013
    16  H    0.041803   0.422999   0.267270  -0.057941  -0.107332   0.005398
    17  H   -0.176264   0.016259   0.878637  -0.031001  -0.011501   0.002314
    18  H    0.012744   0.027385  -0.017488   0.380583  -0.242414  -0.000808
    19  H    0.051784   0.026537  -0.031931  -0.108158   0.546942   0.000735
    20  H    0.001805  -0.002281   0.037216  -0.009035  -0.004598   0.388860
    21  H   -0.008431  -0.006327  -0.017289   0.021922   0.007437   0.416325
    22  H    0.013099   0.013121  -0.059807  -0.000572   0.000776   0.391609
    23  H   -0.102042   0.080231  -0.039018   0.029227  -0.005908  -0.000255
    24  H   -0.138988   0.094212  -0.032894   0.032860  -0.008316   0.000092
    25  H    0.173684  -0.203613   0.028230  -0.020390   0.002966   0.000001
    26  H   -0.001432   0.019992  -0.002789  -0.064287   0.056511  -0.000373
    27  H   -0.000538  -0.025498   0.006846   0.016005  -0.132092   0.000539
    28  H   -0.000463   0.004590  -0.002402   0.037508  -0.036909  -0.000170
    29  H   -0.007738  -0.010737   0.063613   0.002118   0.001030  -0.000073
    30  H   -0.048103  -0.028591  -0.009909  -0.001838   0.001541  -0.000038
    31  H    0.019468   0.018596  -0.019975   0.000260  -0.000059  -0.000010
              13         14         15         16         17         18
     1  O   -0.000781  -0.009330   0.001506   0.000617  -0.008056  -0.000838
     2  O    0.068959   0.001589   0.020938  -0.027201   0.001288   0.000610
     3  O   -0.012024   0.000606   0.128628  -0.000259  -0.016454   0.000064
     4  C   -0.554837  -0.037881  -0.014252  -0.081581  -0.153924   0.303330
     5  C    0.124541   0.033863  -0.011824   0.190386  -0.072476  -0.157413
     6  C    0.348745  -0.134219  -0.157598  -0.296273  -0.198107  -0.100040
     7  C    0.823698  -0.116604  -0.175719   0.041803  -0.176264   0.012744
     8  C   -1.326970  -0.189633   0.036037   0.422999   0.016259   0.027385
     9  C    0.279506  -0.101864   0.153774   0.267270   0.878637  -0.017488
    10  C   -0.155955   0.524358  -0.003136  -0.057941  -0.031001   0.380583
    11  C    0.021142  -1.342966  -0.006796  -0.107332  -0.011501  -0.242414
    12  C   -0.000480  -0.025168   0.002013   0.005398   0.002314  -0.000808
    13  C    5.849810  -0.010525  -0.006678  -0.076218   0.000125  -0.002936
    14  C   -0.010525   7.368108   0.000337   0.008462  -0.000903   0.027135
    15  C   -0.006678   0.000337   5.388069   0.007327   0.000022   0.000821
    16  H   -0.076218   0.008462   0.007327   0.742667   0.006211  -0.000942
    17  H    0.000125  -0.000903   0.000022   0.006211   0.430463   0.000906
    18  H   -0.002936   0.027135   0.000821  -0.000942   0.000906   0.447818
    19  H    0.014680  -0.162232  -0.001092  -0.035564  -0.000486  -0.005453
    20  H    0.000088   0.000244   0.000098   0.000700   0.000570   0.002294
    21  H    0.000192   0.000086  -0.000214  -0.001299  -0.005798  -0.002352
    22  H    0.000142   0.000128   0.000222  -0.003989   0.000162   0.002442
    23  H    0.391709   0.001838  -0.000727  -0.051894  -0.000527   0.000812
    24  H    0.368411   0.002082   0.000790   0.010898  -0.000714  -0.000158
    25  H    0.412638  -0.001112  -0.001144  -0.005628   0.000112  -0.000269
    26  H    0.000142   0.369589  -0.000002  -0.011244  -0.000028  -0.000313
    27  H   -0.000213   0.467569   0.000020   0.005418   0.000084   0.004208
    28  H    0.000080   0.352612  -0.000019   0.003091  -0.000166  -0.010275
    29  H    0.001758  -0.000018   0.408845  -0.000858  -0.001123  -0.000084
    30  H    0.002740   0.000015   0.402414  -0.002109  -0.000376  -0.000022
    31  H   -0.001605   0.000056   0.390740   0.000729  -0.000469   0.000083
              19         20         21         22         23         24
     1  O   -0.002550  -0.065964  -0.038994  -0.041312   0.000036   0.000154
     2  O   -0.003338   0.000046  -0.000197   0.000059  -0.030685  -0.030331
     3  O   -0.000430  -0.000014   0.000168  -0.000009   0.001674   0.000785
     4  C    0.013345  -0.029384  -0.059688   0.141281   0.020257  -0.000244
     5  C   -0.131704   0.029665   0.020008  -0.110191   0.005059   0.033878
     6  C    0.091288  -0.000563   0.029052  -0.001796   0.007494  -0.013073
     7  C    0.051784   0.001805  -0.008431   0.013099  -0.102042  -0.138988
     8  C    0.026537  -0.002281  -0.006327   0.013121   0.080231   0.094212
     9  C   -0.031931   0.037216  -0.017289  -0.059807  -0.039018  -0.032894
    10  C   -0.108158  -0.009035   0.021922  -0.000572   0.029227   0.032860
    11  C    0.546942  -0.004598   0.007437   0.000776  -0.005908  -0.008316
    12  C    0.000735   0.388860   0.416325   0.391609  -0.000255   0.000092
    13  C    0.014680   0.000088   0.000192   0.000142   0.391709   0.368411
    14  C   -0.162232   0.000244   0.000086   0.000128   0.001838   0.002082
    15  C   -0.001092   0.000098  -0.000214   0.000222  -0.000727   0.000790
    16  H   -0.035564   0.000700  -0.001299  -0.003989  -0.051894   0.010898
    17  H   -0.000486   0.000570  -0.005798   0.000162  -0.000527  -0.000714
    18  H   -0.005453   0.002294  -0.002352   0.002442   0.000812  -0.000158
    19  H    0.494120  -0.000287   0.000513   0.001440   0.003714  -0.008275
    20  H   -0.000287   0.497832  -0.030046  -0.032405  -0.000000  -0.000032
    21  H    0.000513  -0.030046   0.549069  -0.065214   0.000019   0.000022
    22  H    0.001440  -0.032405  -0.065214   0.564403   0.000124   0.000107
    23  H    0.003714  -0.000000   0.000019   0.000124   0.567565  -0.074661
    24  H   -0.008275  -0.000032   0.000022   0.000107  -0.074661   0.579307
    25  H    0.001934   0.000006   0.000006   0.000015  -0.020580  -0.027176
    26  H    0.012621  -0.000018  -0.000007   0.000089   0.000509  -0.000001
    27  H   -0.007905   0.000140   0.000076  -0.001870  -0.000174   0.000070
    28  H   -0.004485  -0.000188   0.000088   0.000671  -0.000168   0.000102
    29  H    0.000136  -0.000077  -0.000077   0.000073   0.000432  -0.000281
    30  H    0.000010  -0.000015   0.000065  -0.000045  -0.000507   0.000736
    31  H   -0.000073   0.000024  -0.000025  -0.000014   0.000017  -0.000031
              25         26         27         28         29         30
     1  O   -0.000034  -0.000101   0.000590  -0.000065  -0.000104   0.000005
     2  O   -0.083284   0.000077   0.000059  -0.000046   0.002441  -0.007633
     3  O   -0.001175  -0.000000   0.000004   0.000013  -0.055026  -0.038057
     4  C   -0.050330  -0.027410   0.014236  -0.013930   0.012659   0.003506
     5  C   -0.000236  -0.004916   0.018278   0.001999   0.006327   0.019322
     6  C    0.093259   0.004843  -0.014013   0.004987  -0.080458   0.049632
     7  C    0.173684  -0.001432  -0.000538  -0.000463  -0.007738  -0.048103
     8  C   -0.203613   0.019992  -0.025498   0.004590  -0.010737  -0.028591
     9  C    0.028230  -0.002789   0.006846  -0.002402   0.063613  -0.009909
    10  C   -0.020390  -0.064287   0.016005   0.037508   0.002118  -0.001838
    11  C    0.002966   0.056511  -0.132092  -0.036909   0.001030   0.001541
    12  C    0.000001  -0.000373   0.000539  -0.000170  -0.000073  -0.000038
    13  C    0.412638   0.000142  -0.000213   0.000080   0.001758   0.002740
    14  C   -0.001112   0.369589   0.467569   0.352612  -0.000018   0.000015
    15  C   -0.001144  -0.000002   0.000020  -0.000019   0.408845   0.402414
    16  H   -0.005628  -0.011244   0.005418   0.003091  -0.000858  -0.002109
    17  H    0.000112  -0.000028   0.000084  -0.000166  -0.001123  -0.000376
    18  H   -0.000269  -0.000313   0.004208  -0.010275  -0.000084  -0.000022
    19  H    0.001934   0.012621  -0.007905  -0.004485   0.000136   0.000010
    20  H    0.000006  -0.000018   0.000140  -0.000188  -0.000077  -0.000015
    21  H    0.000006  -0.000007   0.000076   0.000088  -0.000077   0.000065
    22  H    0.000015   0.000089  -0.001870   0.000671   0.000073  -0.000045
    23  H   -0.020580   0.000509  -0.000174  -0.000168   0.000432  -0.000507
    24  H   -0.027176  -0.000001   0.000070   0.000102  -0.000281   0.000736
    25  H    0.435234  -0.000006  -0.000031   0.000017   0.000306  -0.000421
    26  H   -0.000006   0.536625  -0.060356  -0.028417  -0.000000  -0.000000
    27  H   -0.000031  -0.060356   0.540605  -0.030502  -0.000004   0.000000
    28  H    0.000017  -0.028417  -0.030502   0.513165   0.000005  -0.000000
    29  H    0.000306  -0.000000  -0.000004   0.000005   0.579562  -0.073516
    30  H   -0.000421  -0.000000   0.000000  -0.000000  -0.073516   0.548380
    31  H   -0.000313  -0.000001   0.000002  -0.000001  -0.034174  -0.023849
              31
     1  O    0.000025
     2  O   -0.000997
     3  O   -0.061327
     4  C    0.006625
     5  C   -0.012171
     6  C    0.005711
     7  C    0.019468
     8  C    0.018596
     9  C   -0.019975
    10  C    0.000260
    11  C   -0.000059
    12  C   -0.000010
    13  C   -0.001605
    14  C    0.000056
    15  C    0.390740
    16  H    0.000729
    17  H   -0.000469
    18  H    0.000083
    19  H   -0.000073
    20  H    0.000024
    21  H   -0.000025
    22  H   -0.000014
    23  H    0.000017
    24  H   -0.000031
    25  H   -0.000313
    26  H   -0.000001
    27  H    0.000002
    28  H   -0.000001
    29  H   -0.034174
    30  H   -0.023849
    31  H    0.491620
 Mulliken charges:
               1
     1  O   -0.078307
     2  O   -0.047686
     3  O   -0.067289
     4  C    1.610297
     5  C   -0.767002
     6  C   -0.921067
     7  C   -0.832521
     8  C    0.511324
     9  C   -0.161971
    10  C    0.022724
    11  C   -0.046272
    12  C   -0.544223
    13  C   -0.559882
    14  C   -1.026222
    15  C   -0.563401
    16  H    0.046357
    17  H    0.341219
    18  H    0.330572
    19  H    0.244162
    20  H    0.215320
    21  H    0.190910
    22  H    0.187261
    23  H    0.216430
    24  H    0.210670
    25  H    0.267333
    26  H    0.200704
    27  H    0.198444
    28  H    0.209276
    29  H    0.185041
    30  H    0.206663
    31  H    0.221136
 Sum of Mulliken charges =  -0.00000
 Mulliken charges with hydrogens summed into heavy atoms:
               1
     1  O   -0.078307
     2  O   -0.047686
     3  O   -0.067289
     4  C    1.610297
     5  C   -0.767002
     6  C   -0.921067
     7  C   -0.832521
     8  C    0.557681
     9  C    0.179247
    10  C    0.353295
    11  C    0.197890
    12  C    0.049268
    13  C    0.134551
    14  C   -0.417798
    15  C    0.049439
 Electronic spatial extent (au):  <R**2>=           3935.8145
 Charge=              0.0000 electrons
 Dipole moment (field-independent basis, Debye):
    X=              1.2134    Y=              1.4873    Z=             -0.0999  Tot=              1.9221
 Quadrupole moment (field-independent basis, Debye-Ang):
   XX=            -85.3482   YY=            -78.6350   ZZ=            -94.1541
   XY=              0.4889   XZ=              7.6134   YZ=             -1.6670
 Traceless Quadrupole moment (field-independent basis, Debye-Ang):
   XX=              0.6975   YY=              7.4108   ZZ=             -8.1083
   XY=              0.4889   XZ=              7.6134   YZ=             -1.6670
 Octapole moment (field-independent basis, Debye-Ang**2):
  XXX=            -11.1996  YYY=             16.4698  ZZZ=              2.8435  XYY=             -7.2597
  XXY=             -9.2388  XXZ=            -19.2592  XZZ=             -4.2566  YZZ=             -0.2822
  YYZ=             14.7944  XYZ=             -8.0440
 Hexadecapole moment (field-independent basis, Debye-Ang**3):
 XXXX=          -3107.4406 YYYY=          -1597.3966 ZZZZ=           -234.0402 XXXY=             16.6239
 XXXZ=             66.7043 YYYX=            -88.1693 YYYZ=            -18.2666 ZZZX=              0.7500
 ZZZY=              5.1506 XXYY=           -786.2346 XXZZ=           -593.6871 YYZZ=           -333.6073
 XXYZ=             12.4035 YYXZ=             19.2297 ZZXY=            -10.5698
 N-N= 9.985897981089D+02 E-N=-3.611708958490D+03  KE= 6.893901912670D+02
 R6APFD:  NTU= -4 IXU= 1 FactS= 1.050
 Calling FoFJK, ICntrl=      2127 FMM=F ISym2X=0 I1Cent= 0 IOpClX= 0 NMat=1 NMatS=1 NMatT=0.
 ***** Axes restored to original set *****
 -------------------------------------------------------------------
 Center     Atomic                   Forces (Hartrees/Bohr)
 Number     Number              X              Y              Z
 -------------------------------------------------------------------
      1        8          -0.010995870   -0.009939744    0.006957156
      2        8           0.007327782    0.000614591    0.000689443
      3        8           0.011287287   -0.000785142   -0.006703186
      4        6          -0.002860249    0.006491420   -0.001616263
      5        6           0.008560599   -0.001209959   -0.008059814
      6        6          -0.015142227    0.028465277   -0.000627623
      7        6           0.005590282   -0.011853603    0.007875715
      8        6           0.006774408   -0.015339271    0.000035084
      9        6          -0.001885999    0.009349458    0.000116914
     10        6          -0.018071665    0.012083292   -0.005120410
     11        6           0.006649677   -0.018155293    0.008235681
     12        6           0.003824088    0.004262974    0.003067323
     13        6           0.015091314   -0.003547511   -0.001791877
     14        6           0.001479310   -0.001739576    0.001549595
     15        6          -0.006354502    0.002563706   -0.002626779
     16        1           0.000491117   -0.000528721    0.000900615
     17        1           0.001174104   -0.000201570   -0.000225264
     18        1          -0.002437177   -0.003618437    0.000310548
     19        1           0.004965722    0.001178557   -0.003237040
     20        1           0.001089467    0.000798283    0.003629478
     21        1           0.002405965    0.000511434   -0.002819004
     22        1          -0.000505936    0.003867602   -0.001961757
     23        1          -0.005354460   -0.001807262    0.000443731
     24        1          -0.004920280   -0.001921438    0.001053855
     25        1           0.002762006   -0.004424078   -0.000333178
     26        1          -0.003156141    0.002726638    0.000046093
     27        1          -0.003034308    0.002049326   -0.001231022
     28        1           0.000598492   -0.001067369    0.000646324
     29        1          -0.002189432   -0.001501677    0.002642467
     30        1          -0.001547534    0.002527247    0.001893967
     31        1          -0.001615840    0.000150847   -0.003740771
 -------------------------------------------------------------------
 Cartesian Forces:  Max     0.028465277 RMS     0.006470844

 GradGradGradGradGradGradGradGradGradGradGradGradGradGradGradGradGradGrad
 Berny optimization.
 FormGI is forming the generalized inverse of G from B-inverse, IUseBI=4.
 Internal  Forces:  Max     0.030689955 RMS     0.005639922
 Search for a local minimum.
 Step number   1 out of a maximum of  145
 All quantities printed in internal units (Hartrees-Bohrs-Radians)
 Mixed Optimization -- RFO/linear search
 Second derivative matrix not updated -- first step.
 ITU=  0
     Eigenvalues ---    0.00841   0.01337   0.01342   0.01344   0.01351
     Eigenvalues ---    0.01650   0.01905   0.02051   0.02157   0.02157
     Eigenvalues ---    0.02157   0.02157   0.02159   0.02160   0.02163
     Eigenvalues ---    0.02164   0.02174   0.02191   0.02193   0.02738
     Eigenvalues ---    0.07203   0.07477   0.09776   0.10113   0.10135
     Eigenvalues ---    0.10459   0.10460   0.10616   0.15993   0.15998
     Eigenvalues ---    0.16000   0.16000   0.16000   0.16000   0.16000
     Eigenvalues ---    0.16000   0.16000   0.16000   0.16000   0.16000
     Eigenvalues ---    0.16000   0.16000   0.16000   0.16000   0.22000
     Eigenvalues ---    0.22001   0.23000   0.23981   0.25000   0.25000
     Eigenvalues ---    0.25000   0.25000   0.25000   0.25000   0.25000
     Eigenvalues ---    0.25000   0.32977   0.34190   0.34196   0.34234
     Eigenvalues ---    0.34270   0.34276   0.34294   0.34302   0.34311
     Eigenvalues ---    0.34324   0.34327   0.34411   0.34424   0.35065
     Eigenvalues ---    0.35133   0.35233   0.35576   0.37359   0.41507
     Eigenvalues ---    0.41529   0.41608   0.42333   0.42673   0.46482
     Eigenvalues ---    0.46485   0.46486   0.46491   0.52239   0.52492
     Eigenvalues ---    0.52524   0.54818
 RFO step:  Lambda=-1.60657668D-02 EMin= 8.40621762D-03
 Linear search not attempted -- first point.
 Iteration  1 RMS(Cart)=  0.15816449 RMS(Int)=  0.00410890
 Iteration  2 RMS(Cart)=  0.00895224 RMS(Int)=  0.00022392
 Iteration  3 RMS(Cart)=  0.00002218 RMS(Int)=  0.00022374
 Iteration  4 RMS(Cart)=  0.00000000 RMS(Int)=  0.00022374
 Variable       Old X    -DE/DX   Delta X   Delta X   Delta X     New X
                                 (Linear)    (Quad)   (Total)
    R1        2.57671   0.00395   0.00000   0.00734   0.00734   2.58405
    R2        2.69425  -0.00798   0.00000  -0.01846  -0.01846   2.67579
    R3        2.57431   0.00060   0.00000   0.00111   0.00111   2.57542
    R4        2.69528  -0.01379   0.00000  -0.03196  -0.03196   2.66331
    R5        2.57401   0.00022   0.00000   0.00041   0.00041   2.57442
    R6        2.69555  -0.00836   0.00000  -0.01938  -0.01938   2.67617
    R7        2.63586   0.00030   0.00000   0.00065   0.00065   2.63651
    R8        2.63595   0.00784   0.00000   0.01708   0.01708   2.65303
    R9        2.75308   0.01163   0.00000   0.02985   0.02985   2.78293
   R10        2.63587  -0.00207   0.00000  -0.00506  -0.00507   2.63080
   R11        2.63580   0.00417   0.00000   0.00865   0.00866   2.64445
   R12        2.63590   0.00348   0.00000   0.00799   0.00800   2.64389
   R13        2.63587  -0.00588   0.00000  -0.01299  -0.01299   2.62288
   R14        2.04750  -0.00063   0.00000  -0.00169  -0.00169   2.04581
   R15        2.05459   0.00061   0.00000   0.00165   0.00165   2.05624
   R16        2.55294  -0.01774   0.00000  -0.03144  -0.03144   2.52150
   R17        2.05569   0.00385   0.00000   0.01049   0.01049   2.06618
   R18        2.82392   0.00448   0.00000   0.01295   0.01295   2.83687
   R19        2.05299   0.00490   0.00000   0.01329   0.01329   2.06628
   R20        2.06642  -0.00030   0.00000  -0.00082  -0.00082   2.06560
   R21        2.06877   0.00321   0.00000   0.00896   0.00896   2.07773
   R22        2.06808   0.00389   0.00000   0.01082   0.01082   2.07890
   R23        2.07011   0.00218   0.00000   0.00610   0.00610   2.07621
   R24        2.07001   0.00212   0.00000   0.00593   0.00593   2.07594
   R25        2.06938  -0.00081   0.00000  -0.00225  -0.00225   2.06712
   R26        2.06782   0.00281   0.00000   0.00782   0.00782   2.07563
   R27        2.06786   0.00263   0.00000   0.00732   0.00732   2.07518
   R28        2.06823   0.00088   0.00000   0.00244   0.00244   2.07067
   R29        2.06866   0.00333   0.00000   0.00929   0.00929   2.07795
   R30        2.06837   0.00319   0.00000   0.00888   0.00888   2.07725
   R31        2.06620  -0.00049   0.00000  -0.00136  -0.00136   2.06485
    A1        2.04162  -0.01877   0.00000  -0.07056  -0.07056   1.97107
    A2        2.04250   0.00881   0.00000   0.03313   0.03313   2.07562
    A3        2.04261  -0.01869   0.00000  -0.07023  -0.07023   1.97237
    A4        2.09424  -0.00631   0.00000  -0.02285  -0.02289   2.07135
    A5        2.11298  -0.00880   0.00000  -0.03352  -0.03350   2.07947
    A6        2.07597   0.01511   0.00000   0.05636   0.05637   2.13235
    A7        2.11506  -0.00677   0.00000  -0.02446  -0.02444   2.09062
    A8        2.07365   0.00427   0.00000   0.01700   0.01702   2.09067
    A9        2.09447   0.00250   0.00000   0.00746   0.00742   2.10189
   A10        2.10348  -0.02570   0.00000  -0.09701  -0.09704   2.00644
   A11        2.08529   0.03069   0.00000   0.11494   0.11485   2.20014
   A12        2.09441  -0.00499   0.00000  -0.01796  -0.01805   2.07636
   A13        2.10385  -0.00603   0.00000  -0.02166  -0.02165   2.08220
   A14        2.08500   0.00475   0.00000   0.01886   0.01888   2.10388
   A15        2.09433   0.00128   0.00000   0.00280   0.00277   2.09710
   A16        2.09448   0.00436   0.00000   0.02096   0.02093   2.11541
   A17        2.06326  -0.00208   0.00000  -0.00992  -0.00993   2.05334
   A18        2.12503  -0.00229   0.00000  -0.01114  -0.01112   2.11391
   A19        2.09443   0.00316   0.00000   0.00959   0.00954   2.10397
   A20        2.09501  -0.00050   0.00000   0.00132   0.00134   2.09634
   A21        2.09374  -0.00265   0.00000  -0.01091  -0.01088   2.08286
   A22        2.19549  -0.00032   0.00000  -0.00136  -0.00146   2.19403
   A23        2.02474   0.00024   0.00000   0.00113   0.00102   2.02576
   A24        2.06295   0.00009   0.00000   0.00032   0.00021   2.06315
   A25        2.16329   0.00032   0.00000   0.00137   0.00137   2.16466
   A26        2.11113  -0.00368   0.00000  -0.02066  -0.02066   2.09047
   A27        2.00856   0.00336   0.00000   0.01930   0.01930   2.02787
   A28        1.88893  -0.00502   0.00000  -0.02763  -0.02767   1.86127
   A29        1.92674   0.00108   0.00000   0.00608   0.00609   1.93282
   A30        1.93693  -0.00120   0.00000  -0.00767  -0.00772   1.92920
   A31        1.89524   0.00279   0.00000   0.01763   0.01765   1.91289
   A32        1.89521   0.00310   0.00000   0.01759   0.01749   1.91270
   A33        1.91978  -0.00068   0.00000  -0.00551  -0.00552   1.91426
   A34        1.94866  -0.00026   0.00000  -0.00428  -0.00443   1.94423
   A35        1.94999  -0.00087   0.00000  -0.00813  -0.00830   1.94169
   A36        1.86795  -0.00546   0.00000  -0.02535  -0.02539   1.84257
   A37        1.96442  -0.00348   0.00000  -0.02908  -0.02934   1.93509
   A38        1.86285   0.00535   0.00000   0.03652   0.03650   1.89935
   A39        1.86293   0.00519   0.00000   0.03477   0.03472   1.89765
   A40        1.91783   0.00359   0.00000   0.02009   0.02006   1.93789
   A41        1.91811   0.00296   0.00000   0.01652   0.01648   1.93459
   A42        1.95887  -0.00253   0.00000  -0.01382  -0.01376   1.94511
   A43        1.89118  -0.00355   0.00000  -0.02132  -0.02145   1.86973
   A44        1.88815  -0.00049   0.00000  -0.00221  -0.00215   1.88600
   A45        1.88813  -0.00016   0.00000  -0.00037  -0.00032   1.88781
   A46        1.92834   0.00070   0.00000   0.00411   0.00410   1.93244
   A47        1.93085  -0.00024   0.00000  -0.00187  -0.00191   1.92895
   A48        1.88957  -0.00553   0.00000  -0.03102  -0.03106   1.85851
   A49        1.92141  -0.00056   0.00000  -0.00385  -0.00386   1.91754
   A50        1.89645   0.00288   0.00000   0.01734   0.01734   1.91379
   A51        1.89631   0.00277   0.00000   0.01548   0.01541   1.91172
    D1        1.57096  -0.00203   0.00000  -0.05371  -0.05375   1.51721
    D2       -1.57141  -0.00204   0.00000  -0.05394  -0.05390  -1.62531
    D3       -3.10633   0.00012   0.00000  -0.00457  -0.00466  -3.11100
    D4        1.10483  -0.00086   0.00000  -0.01280  -0.01278   1.09206
    D5       -1.02840   0.00008   0.00000  -0.00476  -0.00469  -1.03309
    D6        3.14158   0.00010   0.00000   0.00277   0.00294  -3.13867
    D7       -0.00144  -0.00075   0.00000  -0.01971  -0.01988  -0.02132
    D8        1.11713  -0.00301   0.00000  -0.03000  -0.02981   1.08732
    D9       -1.10014   0.00255   0.00000   0.01887   0.01871  -1.08143
   D10       -3.13350   0.00003   0.00000  -0.00345  -0.00347  -3.13697
   D11        1.57069  -0.00273   0.00000  -0.07192  -0.07187   1.49882
   D12       -1.57126  -0.00278   0.00000  -0.07303  -0.07308  -1.64434
   D13        1.07484  -0.00049   0.00000  -0.00844  -0.00843   1.06641
   D14       -1.05743  -0.00009   0.00000  -0.00508  -0.00503  -1.06246
   D15       -3.13354   0.00007   0.00000  -0.00383  -0.00388  -3.13742
   D16        3.14086  -0.00083   0.00000  -0.02233  -0.02223   3.11863
   D17        0.00006  -0.00083   0.00000  -0.02211  -0.02209  -0.02203
   D18        0.00091  -0.00068   0.00000  -0.01776  -0.01773  -0.01682
   D19       -3.13990  -0.00068   0.00000  -0.01754  -0.01759   3.12570
   D20        0.00002   0.00083   0.00000   0.02208   0.02220   0.02223
   D21       -3.11139   0.00099   0.00000   0.02626   0.02662  -3.08477
   D22        3.14001   0.00066   0.00000   0.01752   0.01747  -3.12570
   D23        0.02860   0.00082   0.00000   0.02171   0.02189   0.05048
   D24       -2.64037   0.00040   0.00000   0.01091   0.01084  -2.62953
   D25        0.50489  -0.00061   0.00000  -0.01694  -0.01701   0.48787
   D26        0.50285   0.00057   0.00000   0.01551   0.01558   0.51843
   D27       -2.63509  -0.00045   0.00000  -0.01234  -0.01227  -2.64736
   D28       -3.14106   0.00021   0.00000   0.00562   0.00559  -3.13547
   D29        0.00070   0.00036   0.00000   0.00956   0.00977   0.01047
   D30       -0.00023   0.00020   0.00000   0.00538   0.00543   0.00519
   D31        3.14153   0.00035   0.00000   0.00932   0.00961  -3.13205
   D32       -0.00204  -0.00130   0.00000  -0.03501  -0.03382  -0.03586
   D33        3.13991  -0.00126   0.00000  -0.03390  -0.03262   3.10729
   D34        3.14099  -0.00047   0.00000  -0.01253  -0.01285   3.12813
   D35       -0.00025  -0.00043   0.00000  -0.01141  -0.01165  -0.01190
   D36       -3.14010   0.00066   0.00000   0.01711   0.01824  -3.12187
   D37       -0.02979   0.00050   0.00000   0.01282   0.01372  -0.01607
   D38        0.00007  -0.00020   0.00000  -0.00532  -0.00547  -0.00540
   D39        3.11039  -0.00036   0.00000  -0.00961  -0.00999   3.10040
   D40       -3.14091   0.00048   0.00000   0.01250   0.01300  -3.12790
   D41        0.00052   0.00033   0.00000   0.00856   0.00886   0.00938
   D42        0.00033   0.00043   0.00000   0.01139   0.01178   0.01211
   D43       -3.14143   0.00028   0.00000   0.00744   0.00763  -3.13380
   D44       -3.13405   0.00036   0.00000   0.00559   0.00559  -3.12846
   D45        0.03025   0.00029   0.00000   0.00471   0.00472   0.03497
   D46        0.00381   0.00140   0.00000   0.03399   0.03399   0.03780
   D47       -3.11508   0.00132   0.00000   0.03311   0.03311  -3.08196
   D48        2.10960   0.00016   0.00000   0.00127   0.00119   2.11078
   D49       -2.09405  -0.00017   0.00000  -0.00238  -0.00231  -2.09636
   D50        0.00785  -0.00001   0.00000  -0.00062  -0.00062   0.00724
   D51       -1.05349   0.00015   0.00000   0.00164   0.00157  -1.05192
   D52        1.02605  -0.00018   0.00000  -0.00200  -0.00193   1.02412
   D53        3.12795  -0.00002   0.00000  -0.00024  -0.00024   3.12771
         Item               Value     Threshold  Converged?
 Maximum Force            0.030690     0.000450     NO 
 RMS     Force            0.005640     0.000300     NO 
 Maximum Displacement     0.775188     0.001800     NO 
 RMS     Displacement     0.161919     0.001200     NO 
 Predicted change in Energy=-8.713262D-03
 GradGradGradGradGradGradGradGradGradGradGradGradGradGradGradGradGradGrad

                          Input orientation:                          
 ---------------------------------------------------------------------
 Center     Atomic      Atomic             Coordinates (Angstroms)
 Number     Number       Type             X           Y           Z
 ---------------------------------------------------------------------
      1          8           0       -1.329382   -2.366728    0.368498
      2          8           0        2.229412    1.806626   -0.284748
      3          8           0        3.078205   -0.693012   -0.392291
      4          6           0       -0.986557   -0.006654    0.213012
      5          6           0       -0.482816   -1.307543    0.191607
      6          6           0        1.274349    0.844684   -0.143697
      7          6           0        1.750796   -0.470550   -0.181542
      8          6           0       -0.092700    1.064631    0.056925
      9          6           0        0.876253   -1.534205   -0.007562
     10          6           0       -2.431914    0.199702    0.405628
     11          6           0       -3.142634    1.223802   -0.070296
     12          6           0       -1.923574   -2.805866   -0.839414
     13          6           0        1.841930    3.161363   -0.255496
     14          6           0       -4.614437    1.405322    0.163094
     15          6           0        3.842401   -0.651728    0.799276
     16          1           0       -0.493182    2.067771    0.129999
     17          1           0        1.262204   -2.551274   -0.032177
     18          1           0       -2.956470   -0.574435    0.972221
     19          1           0       -2.654706    1.982994   -0.687659
     20          1           0       -2.597153   -3.625755   -0.576978
     21          1           0       -1.158121   -3.167551   -1.540939
     22          1           0       -2.497893   -1.991435   -1.305349
     23          1           0        1.396852    3.430138    0.712373
     24          1           0        1.156165    3.397254   -1.080648
     25          1           0        2.764312    3.733585   -0.390915
     26          1           0       -4.818419    2.356945    0.672248
     27          1           0       -5.161624    1.424063   -0.788822
     28          1           0       -5.025424    0.596429    0.777466
     29          1           0        3.510087   -1.429702    1.501742
     30          1           0        3.764557    0.337179    1.272895
     31          1           0        4.879384   -0.837249    0.509149
 ---------------------------------------------------------------------
                    Distance matrix (angstroms):
                    1          2          3          4          5
     1  O    0.000000
     2  O    5.523462   0.000000
     3  O    4.775663   2.642008   0.000000
     4  C    2.389908   3.725346   4.166506   0.000000
     5  C    1.367421   4.157059   3.660527   1.395179   0.000000
     6  C    4.165925   1.362854   2.383319   2.442071   2.798596
     7  C    3.658624   2.329218   1.362322   2.804277   2.414295
     8  C    3.660696   2.461605   3.653183   1.403921   2.407808
     9  C    2.387330   3.615110   2.388350   2.419117   1.392162
    10  C    2.793478   4.978633   5.638708   1.472665   2.473171
    11  C    4.046273   5.407823   6.517415   2.498590   3.681159
    12  C    1.415965   6.231374   5.448107   3.133878   2.320293
    13  C    6.403623   1.409365   4.050099   4.272724   5.057220
    14  C    5.006210   6.870217   7.993010   3.893287   4.942746
    15  C    5.465724   3.133743   1.416168   4.907001   4.416657
    16  H    4.518948   2.766356   4.544174   2.133904   3.375891
    17  H    2.628862   4.471082   2.623105   3.404722   2.154540
    18  H    2.494837   5.843183   6.188155   2.186168   2.695509
    19  H    4.668194   4.903880   6.333602   2.748204   4.039535
    20  H    2.021463   7.272681   6.390992   4.039306   3.230364
    21  H    2.077643   6.147831   5.038769   3.618985   2.630092
    22  H    2.075579   6.149334   5.797625   2.920431   2.601754
    23  H    6.415159   2.079229   4.587766   4.212070   5.123472
    24  H    6.442163   2.077357   4.571472   4.225092   5.141984
    25  H    7.385720   2.002638   4.437713   5.331334   6.024628
    26  H    5.880368   7.133765   8.531832   4.525557   5.697099
    27  H    5.513218   7.418076   8.516692   4.525684   5.505829
    28  H    4.754817   7.431388   8.288535   4.122471   4.960204
    29  H    5.057937   3.912224   2.077641   4.889345   4.204123
    30  H    5.837573   2.634805   2.074901   4.880026   4.681289
    31  H    6.395926   3.826578   2.019317   5.931850   5.392143
                    6          7          8          9         10
     6  C    0.000000
     7  C    1.399384   0.000000
     8  C    1.399089   2.410835   0.000000
     9  C    2.415808   1.387968   2.774344   0.000000
    10  C    3.801861   4.276572   2.518258   3.757810   0.000000
    11  C    4.433831   5.179658   3.056733   4.874628   1.334319
    12  C    4.902780   4.403122   4.374503   3.185613   3.292716
    13  C    2.387813   3.633810   2.869963   4.800247   5.241591
    14  C    5.923364   6.644837   4.535797   6.230379   2.505144
    15  C    3.118226   2.317248   4.356833   3.198091   6.344046
    16  H    2.166798   3.402288   1.082596   3.855970   2.706351
    17  H    3.397811   2.142532   3.862444   1.088114   4.626667
    18  H    4.599891   4.847712   3.424249   4.070738   1.093377
    19  H    4.126635   5.067985   2.821643   5.029999   2.103579
    20  H    5.929678   5.386682   5.354796   4.094309   3.953092
    21  H    4.895634   4.193277   4.647544   3.026176   4.092685
    22  H    4.860332   4.650526   4.120715   3.643923   2.780805
    23  H    2.726248   4.017428   2.871236   5.043216   5.018890
    24  H    2.721664   4.015207   2.880080   5.054617   5.030673
    25  H    3.259885   4.329643   3.935275   5.609041   6.334317
    26  H    6.330444   7.202657   4.937724   6.930547   3.228032
    27  H    6.494122   7.193045   5.151550   6.768876   3.221349
    28  H    6.371603   6.926421   5.007012   6.323423   2.649896
    29  H    3.588708   2.616968   4.614030   3.037433   6.258099
    30  H    2.909541   2.612096   4.109282   3.672049   6.258379
    31  H    4.031301   3.224839   5.342591   4.096071   7.385193
                   11         12         13         14         15
    11  C    0.000000
    12  C    4.279704   0.000000
    13  C    5.351105   7.080099   0.000000
    14  C    1.501208   5.097045   6.703998   0.000000
    15  C    7.284537   6.369622   4.433293   8.726643   0.000000
    16  H    2.787831   5.170891   2.607163   4.174288   5.161480
    17  H    5.801314   3.296305   5.746319   7.087150   3.310137
    18  H    2.086900   3.054207   6.203880   2.706100   6.801509
[...]
 146,-0.00001045,-0.00000835,0.03283385,0.02201892,-0.05570654,0.000001
 02,-0.00001206,0.00000701,0.00008285,0.00010264,0.00014314,-0.00017499
 ,0.00002426,-0.00047059,-0.00000193,0.00000256,-0.00004802,-0.00000017
 ,-0.00000233,-0.00000123,0.00001249,-0.00000396,-0.00001540,0.00000077
 ,0.00000254,-0.00000061,0.00000104,-0.00000098,0.00000183,-0.00000247,
 -0.00000145,0.00000058,0.02278073,0.01531015,-0.00220189,-0.01963223,-
 0.01363480,0.00499477,-0.03560493,-0.02400705,0.05201095,0.00029830,0.
 00038148,-0.00003788,-0.00013603,-0.00033652,0.00003981,-0.00048294,-0
 .00001543,-0.00001509,-0.00091657,-0.00047121,-0.00224872,-0.00018818,
 -0.00053026,0.00016396,0.00004921,0.00033276,0.00010660,0.00025221,-0.
 00008211,-0.00007920,-0.00008418,0.00035727,-0.00002205,-0.00004972,-0
 .00015038,0.00015916,-0.00289929,-0.00130118,0.00114483,-0.00679127,0.
 03136548,0.01562003,-0.00013374,-0.00009130,-0.00015317,-0.00008109,0.
 00019297,0.00000948,-0.05033778,0.03428956,0.02357715,0.00011041,0.000
 07921,0.00013511,-0.00005324,-0.00004326,-0.00003817,-0.00002243,0.000
 01695,0.00000179,0.00013512,0.00042727,0.00095113,0.00056327,-0.001058
 58,-0.00034406,0.00001141,0.00004717,0.00000163,-0.00000561,0.00000733
 ,0.00001163,-0.00003509,-0.00004246,-0.00001453,0.00001042,-0.00001011
 ,-0.00002271,0.00001885,-0.00000591,0.00001617,-0.00000847,-0.00001755
 ,-0.00000013,0.05754615,0.00008151,-0.00005695,0.00001994,0.00008222,0
 .00009273,-0.00001361,0.00009208,-0.00000097,0.00002637,0.00064595,0.0
 0014375,0.00042130,-0.00013434,0.00014179,0.00001002,-0.00003538,-0.00
 005262,-0.00003526,-0.00010277,0.00000796,0.00000846,0.00009123,-0.000
 14356,0.00006442,0.00008933,-0.00002287,-0.00004844,0.00021904,0.00115
 132,-0.00104240,0.00365071,-0.00312672,0.00014244,-0.00003331,0.000048
 87,-0.00001613,0.00001073,-0.00004611,-0.00001585,0.03160070,-0.231324
 69,-0.11161079,-0.00002797,-0.00001206,-0.00003687,-0.00002027,-0.0000
 2400,0.00000611,0.00000706,-0.00000323,-0.00000622,-0.00018289,-0.0000
 6440,-0.00070833,0.00053915,0.00013720,0.00000402,-0.00000320,0.000010
 84,0.00000349,0.00002228,-0.00000900,-0.00000368,-0.00001379,-0.000014
 07,0.00003450,-0.00000832,0.00000468,0.00000417,-0.00000600,0.00000016
 ,0.00000796,0.00000721,0.00000337,0.00000002,-0.03966819,0.24933844,-0
 .00008168,-0.00010573,-0.00001112,0.00006681,0.00018400,-0.00002322,0.
 00022590,0.00000821,0.00000530,-0.00003643,-0.00021445,-0.00015267,0.0
 0011480,0.00020241,-0.00001886,-0.00007076,-0.00020786,-0.00000601,-0.
 00012108,0.00003606,0.00002457,-0.00002244,-0.00009836,0.00003003,0.00
 002821,0.00006095,0.00002003,-0.00034108,0.00074109,-0.00030914,0.0001
 7268,-0.00215747,-0.00112521,0.00001473,0.00004879,0.00002961,0.000040
 07,-0.00009635,0.00001624,0.02276925,-0.11232863,-0.11163000,-0.000053
 66,-0.00003865,-0.00006014,0.00000244,-0.00000392,0.00002096,0.0000096
 0,-0.00000563,-0.00000105,0.00006063,0.00005937,0.00025603,0.00040223,
 0.00010820,0.00012924,-0.00000705,-0.00001705,-0.00000172,0.00000588,-
 0.00000711,-0.00000198,0.00000727,0.00000935,-0.00000356,-0.00000942,0
 .00000162,0.00000809,-0.00000936,0.00000044,-0.00001258,0.00000791,0.0
 0000782,-0.00000244,-0.02416738,0.12366045,0.11854110,0.00023065,0.000
 25302,0.00021402,-0.00017064,-0.00031269,0.00005107,-0.00036968,-0.000
 00780,-0.00001790,0.00014102,0.00186348,0.00161229,-0.00074916,-0.0004
 7087,0.00021704,-0.00001975,0.00040335,0.00003189,0.00022310,-0.000230
 70,-0.00001245,0.00020843,0.00016223,-0.00010539,0.00007228,0.00018910
 ,-0.00021519,-0.00314104,-0.00156812,0.00147349,-0.01668174,0.00565972
 ,-0.02924731,-0.00010276,-0.00006803,-0.00019633,-0.00006069,0.0001481
 2,-0.00002521,-0.10395978,0.00767811,-0.10916673,0.00008880,0.00005986
 ,0.00010488,0.00006138,-0.00000888,-0.00006339,-0.00006988,0.00001814,
 -0.00000484,-0.00020422,-0.00049075,-0.00088452,0.00056605,-0.00032201
 ,0.00090672,0.00002063,0.00003175,0.00000599,-0.00001432,0.00001283,0.
 00001354,-0.00003595,-0.00001004,-0.00002017,0.00002074,-0.00000535,-0
 .00000080,0.00001805,-0.00000970,0.00000594,-0.00001508,-0.00001329,0.
 00000463,0.00205612,-0.00094730,0.00459325,0.11588935,-0.00011970,-0.0
 0006496,-0.00016977,-0.00001220,-0.00005939,0.00001239,-0.00004096,-0.
 00000891,-0.00000235,0.00033667,-0.00063995,-0.00074435,0.00013601,0.0
 0020015,0.00001368,0.00000924,0.00004325,0.00006643,-0.00000033,-0.000
 03112,-0.00002009,-0.00007705,-0.00001549,0.00002296,0.00004597,-0.000
 07043,0.00001892,0.00092913,0.00062261,-0.00031867,0.00481834,-0.00225
 104,0.00449402,0.00010665,-0.00005690,0.00017120,-0.00001772,0.0000351
 6,-0.00001106,0.00680105,-0.04575121,0.02016328,0.00000921,0.00000916,
 0.00001217,-0.00003605,-0.00000647,-0.00003418,0.00001777,-0.00000145,
 0.00000603,0.00012636,0.00052902,0.00062537,-0.00017862,0.00013860,-0.
 00017117,-0.00000734,-0.00000652,-0.00000274,-0.00002011,0.00002299,-0
 .00001873,0.00001093,0.00002022,-0.00003022,0.00000261,-0.00000011,-0.
 00000311,0.00000144,-0.00000090,0.00000824,-0.00000048,-0.00000273,0.0
 0000113,-0.01363824,0.00213673,-0.02463187,-0.01205676,0.04645532,0.00
 003346,0.00010755,0.00002213,-0.00004167,-0.00005241,0.00000567,-0.000
 08415,0.00000863,0.00000139,-0.00031892,-0.00028931,-0.00026465,0.0000
 9165,-0.00015227,0.00003015,0.00002916,0.00007668,-0.00001691,0.000063
 39,-0.00002195,-0.00001056,0.00001575,0.00005960,-0.00001112,-0.000025
 14,-0.00002966,0.00003617,0.00086466,-0.00098350,0.00001366,0.00231971
 ,0.00027697,0.00836530,-0.00001946,-0.00005531,-0.00003715,-0.00000027
 ,0.00002002,-0.00000891,-0.10691981,0.01997766,-0.24501734,0.00002313,
 0.00000933,0.00002044,0.00002636,0.00001666,0.00000491,0.00000354,0.00
 000021,-0.00000442,-0.00000596,-0.00025621,-0.00004439,-0.00080959,0.0
 0020649,0.00017816,0.00000124,0.00001094,-0.00000652,-0.00000568,0.000
 00676,0.00000194,-0.00002063,0.00001981,0.00000524,0.00000364,-0.00000
 148,0.00000539,0.00000643,0.00000175,-0.00000042,-0.00000660,-0.000001
 75,0.00000046,-0.00733323,0.00192987,-0.01485066,0.11897149,-0.0202728
 1,0.26412615,0.00020008,0.00007667,-0.00005053,-0.00001310,-0.00001316
 ,0.00000229,-0.00008279,0.00002582,-0.00000513,0.00021115,0.00017999,-
 0.00013855,-0.00011102,-0.00017274,0.00005577,0.00009897,0.00018303,-0
 .00003660,0.00001933,-0.00002466,0.00000369,-0.00003935,-0.00012551,-0
 .00013281,-0.00001061,-0.00000756,-0.00001534,0.00192180,-0.00166011,0
 .00032692,-0.01408418,-0.02668166,0.01790386,-0.00003458,0.00002448,-0
 .00001398,0.00002080,-0.00001443,0.00001929,-0.08684826,-0.07813355,0.
 05262490,0.00002375,0.00000602,0.00003140,0.00009832,0.00014990,0.0001
 0972,0.00000187,0.00000117,0.00000351,-0.00034895,0.00142816,-0.000653
 49,-0.00536969,0.00167009,0.00062301,0.00000092,0.00002529,0.00000472,
 0.00001972,-0.00001314,-0.00000503,-0.00002567,-0.00002588,0.00003418,
 0.00000456,-0.00000058,0.00000603,0.00000799,0.00000665,-0.00002168,-0
 .00001307,0.00000184,-0.00000300,0.00119715,0.00404163,-0.00361166,0.0
 0601353,0.01285690,-0.00686002,0.09714322,0.00001298,0.00008711,0.0000
 0677,-0.00004821,-0.00004106,-0.00000492,-0.00012108,0.00000586,-0.000
 02284,0.00000508,0.00011028,-0.00016011,-0.00012572,-0.00002314,0.0000
 2137,-0.00001652,0.00010960,0.00005678,0.00006610,-0.00009708,-0.00000
 307,0.00015213,0.00000274,-0.00000448,0.00005701,0.00002087,-0.0000029
 9,0.00130633,0.00089510,-0.00106002,0.00192548,0.00389887,-0.00315328,
 -0.00000754,-0.00004094,-0.00001516,0.00000735,0.00000824,0.00001050,-
 0.08065324,-0.20246687,0.10531840,0.00003170,0.00001364,0.00004224,0.0
 0003158,-0.00002928,-0.00002123,-0.00000814,0.00000524,0.00000451,-0.0
 0029979,0.00008840,0.00010759,0.00148783,0.00084363,0.00002792,0.00000
 419,0.00000851,-0.00000063,-0.00000724,0.00000555,0.00000242,-0.000024
 82,0.00001441,-0.00000772,0.00000542,-0.00000235,0.00000488,0.00000221
 ,-0.00000244,-0.00001124,-0.00000547,-0.00000234,0.00000037,-0.0100216
 2,-0.01831843,0.01477711,0.00005209,-0.00124455,-0.00060965,0.08619569
 ,0.21615185,-0.00019688,-0.00016019,-0.00010170,0.00001330,0.00000389,
 0.00000352,0.00007149,-0.00001277,-0.00000405,-0.00003697,-0.00032212,
 -0.00014641,0.00015702,0.00021566,-0.00002266,-0.00006233,-0.00007010,
 0.00003110,-0.00002918,0.00000318,0.00000301,-0.00007032,0.00003803,0.
 00005619,0.00000629,-0.00001235,0.00001081,-0.00139083,-0.00025040,-0.
 00006129,0.00222322,0.00324211,-0.00333882,0.00011839,-0.00000593,0.00
 015158,-0.00001104,0.00000652,-0.00000795,0.05394078,0.10477231,-0.117
 02440,-0.00001772,-0.00000730,-0.00001984,-0.00003769,-0.00003036,-0.0
 0004521,0.00001291,-0.00000219,0.00000365,0.00031963,-0.00026362,0.000
 35820,0.00080156,0.00012601,0.00157956,0.00000421,-0.00005004,0.000002
 57,-0.00003455,0.00001983,-0.00001593,0.00004275,0.00004930,-0.0000618
 0,-0.00000278,-0.00000120,-0.00000352,-0.00000231,-0.00000128,0.000008
 38,0.00000554,-0.00000075,0.00000118,-0.00741802,-0.01281393,0.0091090
 2,0.01178591,0.02081960,-0.01253837,-0.06019448,-0.11529303,0.12206755
 ,0.00014033,0.00009132,0.00000948,-0.00015430,-0.00008874,-0.00007151,
 -0.00009836,0.00909085,-0.02436250,-0.00000607,-0.00022379,-0.00007460
 ,-0.00032544,0.00014177,0.00023499,-0.00042039,0.00035396,0.00078266,0
 .00489895,0.00158247,-0.00291027,0.00020693,0.00023988,-0.00000225,0.0
 0087362,-0.00068886,0.00057721,-0.00001791,-0.00002407,0.00001351,0.00
 000508,0.00001223,0.00000351,-0.00002734,-0.00002095,-0.00006348,-0.00
 003449,0.00002247,-0.00003114,0.00000052,-0.00001307,0.00000018,-0.076
 61575,-0.04448714,0.06689631,-0.00003488,0.00000306,-0.00001692,0.0000
 4348,-0.00009462,-0.00018641,0.00000612,0.00000087,-0.00000295,-0.0000
 0019,0.00000530,0.00000347,0.00000865,0.00000601,0.00000368,-0.0000057
 7,-0.00000442,0.00000830,0.00000131,-0.00000227,0.00000726,0.00000638,
 -0.00000686,0.00000226,0.00001003,0.00001018,0.00000044,-0.00000474,0.
 00000985,0.00000402,0.00000817,-0.00000167,-0.00000391,0.00000678,0.00
 000057,0.00000124,0.00000178,0.00000267,-0.00000192,0.07579012,0.00007
 020,0.00004169,-0.00005044,0.00101949,-0.00010853,0.00036499,0.0020485
 4,0.00892776,-0.01044151,0.00001250,-0.00022332,0.00000463,-0.00015418
 ,0.00012632,0.00011998,-0.00083425,-0.00076969,0.00022808,0.00064135,0
 .00037393,-0.00031909,0.00036986,0.00011342,-0.00011199,0.00092304,-0.
 00002664,0.00011202,0.00000613,-0.00000306,-0.00002074,0.00000328,-0.0
 0000893,0.00000078,-0.00001241,0.00000131,0.00000050,-0.00000145,0.000
 31197,0.00009087,0.00000143,0.00000489,0.00000090,-0.04437160,-0.13130
 853,0.11041711,-0.00002022,-0.00000574,0.00000817,-0.00002282,-0.00011
 013,-0.00004734,0.00001018,0.00000515,0.00000467,-0.00000156,0.0000046
 6,0.00000005,0.00000094,0.00000041,0.00000111,0.00000042,-0.00000200,-
 0.00000362,0.00000064,-0.00000130,0.00000111,0.00003394,-0.00005907,-0
 .00003015,0.00005953,-0.00008442,0.00001252,-0.00002176,0.00004158,-0.
 00002622,-0.00000124,-0.00000217,0.00000238,-0.00000096,-0.00000043,-0
 .00000175,0.00000229,0.00000192,-0.00000008,0.04858553,0.13170490,-0.0
 0014278,-0.00014501,0.00002302,0.00037564,-0.00012953,0.00012012,-0.00
 672556,0.00775082,-0.02832235,-0.00023040,-0.00026350,0.00004629,-0.00
 013043,0.00015545,-0.00010493,-0.00118950,0.00050386,0.00015544,0.0064
 6981,-0.00107047,-0.00013236,0.00038332,0.00023062,0.00006338,-0.00090
 599,-0.00016146,0.00024479,0.00009366,0.00000464,-0.00006219,-0.000032
 15,-0.00000036,0.00000155,0.00002189,0.00002040,0.00003198,0.00004723,
 -0.00012393,0.00003734,0.00000316,0.00003257,-0.00000115,0.06131632,0.
 10812845,-0.19537074,-0.00007349,0.00002402,-0.00000670,-0.00004984,-0
 .00005903,-0.00016222,-0.00002974,-0.00000440,0.00000164,-0.00000081,-
 0.00000617,0.00000635,-0.00001322,-0.00001347,-0.00000017,0.00000789,0
 .00001063,-0.00000556,0.00000715,0.00000006,0.00000417,-0.00003679,0.0
 0002726,0.00001275,-0.00000211,-0.00001838,0.00000862,0.00000629,0.000
 02113,-0.00001467,-0.00002429,0.00000520,0.00001047,-0.00001799,-0.000
 00197,-0.00000352,-0.00000590,-0.00000797,0.00000400,-0.06059312,-0.11
 663312,0.22077468,0.00001086,0.00011671,0.00000154,-0.00080321,0.00176
 956,-0.00107392,-0.00336076,-0.01935517,-0.01170867,-0.00005620,0.0002
 3571,-0.00002758,0.00029251,-0.00033970,-0.00005329,-0.00147576,-0.000
 98123,-0.00017033,0.00411163,-0.00278940,-0.00001923,0.00000803,-0.000
 05794,0.00008561,-0.00110495,0.00006338,0.00036440,-0.00000912,0.00003
 678,0.00001152,-0.00001019,-0.00000365,0.00000758,-0.00001920,-0.00000
 491,-0.00003133,0.00007887,0.00077384,-0.00014123,-0.00000027,0.000000
 09,-0.00000030,-0.05281931,0.02317938,0.00856101,-0.00000963,0.0000003
 0,-0.00004578,0.00008446,0.00012507,0.00000541,0.00001082,0.00000032,-
 0.00000513,-0.00000517,0.00000448,-0.00001084,0.00000597,0.00000894,0.
 00000012,-0.00000099,0.00000183,0.00001049,-0.00000663,-0.00000187,-0.
 00000275,0.00000913,-0.00006112,-0.00001091,0.00010469,-0.00013402,0.0
 0005246,-0.00001475,-0.00005982,0.00000417,0.00000192,-0.00000183,-0.0
 0000204,0.00000508,0.00000003,0.00000262,0.00000266,0.00000298,-0.0000
 0176,0.00176826,-0.01110741,-0.00101644,0.05244068,-0.00014581,-0.0000
 6224,-0.00003689,0.00263168,-0.00162416,0.00244583,-0.00364857,0.00204
 261,-0.00323641,-0.00008601,-0.00001078,0.00006667,0.00017022,0.000005
 38,-0.00000452,-0.00088864,0.00002130,-0.00012230,0.00214366,0.0001773
 0,-0.00057695,-0.00012999,0.00022800,-0.00015181,-0.00042049,-0.000086
 28,0.00017661,0.00005525,0.00001552,0.00001054,-0.00001472,0.00000932,
 0.00000091,0.00003612,0.00000816,0.00004665,0.00031449,-0.00032858,0.0
 0019920,-0.00000022,0.00001145,-0.00000365,0.01744330,-0.30125555,-0.0
 4809846,-0.00008094,0.00001559,-0.00004947,0.00008058,0.00005552,-0.00
 000897,-0.00001629,-0.00000857,-0.00000361,0.00000125,-0.00000660,0.00
 000163,-0.00000824,-0.00000908,-0.00000310,0.00000410,0.00000335,0.000
 00063,-0.00000483,0.00000487,-0.00000571,-0.00003682,0.00004127,0.0000
 0121,-0.00004822,-0.00008321,-0.00000090,-0.00003212,-0.00000911,0.000
 01301,-0.00001262,0.00000511,0.00000568,-0.00001034,-0.00000119,-0.000
 00206,-0.00000342,-0.00000433,0.00000131,0.00277793,-0.01398905,-0.002
 77937,-0.02012389,0.31906675,-0.00012778,-0.00001176,-0.00000530,0.000
 42807,0.00132303,-0.00074855,-0.00681359,-0.02648130,-0.01217088,-0.00
 008135,0.00013052,-0.00002091,0.00029166,-0.00019587,-0.00001199,-0.00
 196095,-0.00194025,0.00036734,0.00431734,-0.00064419,-0.00005228,0.000
 13193,0.00031935,-0.00011190,-0.00118049,0.00022598,0.00025221,0.00005
 951,0.00004454,-0.00002448,-0.00002394,-0.00001135,0.00000895,0.000015
 52,0.00001288,0.00002531,0.00006536,0.00067651,0.00003113,0.00000011,0
 .00001955,-0.00000112,0.00496831,-0.04039704,-0.05551884,-0.00008985,0
 .00001210,0.00004195,0.00006622,0.00008659,-0.00008901,-0.00000207,-0.
 00000163,-0.00000015,-0.00000333,-0.00000178,-0.00000447,-0.00000584,-
 0.00000228,-0.00000102,0.00000635,0.00000550,0.00000435,-0.00000560,0.
 00000200,-0.00000365,0.00009754,-0.00013152,-0.00004516,0.00011818,-0.
 00016101,0.00002339,-0.00004328,0.00007674,-0.00001245,-0.00001189,0.0
 0000113,0.00000694,-0.00000887,-0.00000190,-0.00000231,-0.00000004,-0.
 00000107,0.00000141,-0.00179008,0.02399510,0.00683596,0.00054197,0.051
 63044,0.06208103,-0.00025080,-0.00020601,-0.00004949,0.00047665,0.0004
 0807,-0.00002993,-0.02484906,0.00343218,-0.00064544,-0.00012956,-0.000
 25423,0.00004506,0.00000873,0.00029033,0.00023960,-0.00079461,-0.00061
 341,0.00005147,0.00064114,-0.00171673,-0.00385728,0.00022894,0.0001108
 5,0.00011573,-0.00030477,0.00048823,-0.00022722,0.00006998,0.00005181,
 -0.00009128,-0.00002886,-0.00003692,0.00000520,0.00005713,0.00005057,0
 .00012074,0.00003901,-0.00019411,0.00001815,-0.00000099,0.00004966,-0.
 00000038,-0.28018239,0.06205474,0.06796632,-0.00005755,0.00002062,0.00
 000510,-0.00001079,-0.00001436,-0.00007073,-0.00003158,-0.00000625,0.0
 0001191,0.00000124,-0.00000641,0.00000569,-0.00002028,-0.00002033,-0.0
 0000338,0.00001131,0.00000538,-0.00001554,-0.00000046,0.00000455,-0.00
 000786,-0.00003249,0.00001803,-0.00000146,-0.00002581,0.00000620,0.000
 00337,0.00001470,0.00004492,-0.00000286,-0.00003308,0.00000640,0.00001
 627,-0.00002728,-0.00000332,-0.00000636,-0.00000630,-0.00000943,0.0000
 0579,-0.00603088,0.00276058,0.00248819,0.00076057,0.00005356,0.0010408
 7,0.31050816,0.00001459,0.00003269,-0.00000431,0.00076981,-0.00006979,
 0.00065057,-0.01022522,0.00266857,0.00115333,-0.00001677,0.00011421,0.
 00000078,0.00014078,-0.00014460,0.00006307,-0.00084222,-0.00078111,-0.
 00013850,-0.00134421,0.00026479,-0.00139032,-0.00007886,0.00004375,0.0
 0002344,-0.00021436,0.00016188,0.00008489,-0.00000532,0.00000660,0.000
 00043,-0.00000544,-0.00000455,-0.00000036,-0.00001433,0.00000472,-0.00
 001027,0.00008833,0.00026191,0.00000253,0.00000111,0.00000080,0.000000
 39,0.06710963,-0.06740569,-0.01845315,-0.00002437,-0.00000033,-0.00000
 429,-0.00001371,-0.00000638,0.00000427,0.00000116,0.00000167,0.0000003
 4,-0.00000171,0.00000198,-0.00000158,0.00000149,0.00000319,0.00000001,
 -0.00000012,0.00000152,0.00000118,0.00000046,-0.00000230,-0.00000201,-
 0.00001897,-0.00001245,-0.00000612,0.00003857,-0.00008239,0.00001846,-
 0.00001057,-0.00003005,-0.00001217,0.00000072,-0.00000108,-0.00000083,
 0.00000179,0.00000053,0.00000118,0.00000080,0.00000098,-0.00000008,-0.
 01728044,0.00504311,0.00450303,0.02870256,-0.00423277,-0.00857899,-0.0
 6677517,0.06416059,-0.00010683,-0.00002992,0.00001795,0.00036986,0.000
 17966,-0.00005483,-0.03602100,0.00633911,0.00216319,-0.00010365,-0.000
 11124,-0.00001847,-0.00002279,-0.00011116,0.00027834,-0.00097163,-0.00
 020966,0.00018913,-0.00207991,-0.00143795,-0.00322457,0.00016844,0.000
 22440,0.00013125,-0.00094600,0.00020997,0.00010346,0.00002196,0.000014
 53,-0.00002472,-0.00001793,-0.00000510,0.00001019,0.00000090,0.0000132
 7,0.00002127,0.00003670,0.00004660,-0.00000643,-0.00000039,0.00001036,
 -0.00000485,0.08066531,-0.01999257,-0.06973447,-0.00006082,0.00001332,
 -0.00002577,0.00000097,-0.00005340,-0.00018507,-0.00000926,-0.00000427
 ,-0.00000036,-0.00000119,0.00000186,0.00000185,-0.00000217,-0.00000042
 ,-0.00000221,0.00000381,0.00000039,0.00000032,-0.00000332,-0.00000150,
 -0.00000265,-0.00001260,0.00000232,-0.00000371,0.00000275,-0.00001707,
 0.00001497,-0.00000205,0.00001872,-0.00000140,-0.00000796,0.00000163,0
 .00000274,-0.00000505,-0.00000042,0.00000008,-0.00000106,-0.00000146,0
 .00000020,0.02156256,-0.00767890,-0.00419601,0.00467264,0.00048385,-0.
 00085550,-0.06713027,0.02209507,0.07540608\\0.00001428,0.00002496,-0.0
 0001377,0.00000626,0.00000089,-0.00000879,-0.00000015,0.00000185,0.000
 01452,0.00000964,0.00006090,-0.00000054,0.00001646,-0.00007375,0.00000
 561,-0.00001103,-0.00000903,0.00001067,0.00002871,0.00000548,-0.000007
 47,-0.00002599,-0.00001590,-0.00000018,-0.00004399,0.00000719,0.000006
 09,0.00000843,-0.00001124,0.00000071,0.00000022,0.00000428,-0.00000282
 ,-0.00000088,-0.00000687,0.00001137,0.00001477,0.00000274,0.00000823,-
 0.00000206,-0.00000090,0.00000031,-0.00000774,-0.00000938,-0.00002893,
 0.00000022,0.00000472,-0.00000075,0.00000782,-0.00000050,-0.00000391,0
 .00000084,-0.00000033,-0.00000147,-0.00000149,0.00000207,0.00000204,-0
 .00000091,0.00000106,-0.00000614,-0.00000005,0.00000226,-0.00000571,0.
 00000171,0.00000181,-0.00000632,-0.00000815,0.00000087,0.00000104,-0.0
 0000607,0.00000382,0.00000354,-0.00000463,-0.00000006,0.00000480,0.000
 00035,-0.00000161,0.00000006,0.00000094,0.00000104,0.00000123,0.000000
 67,-0.00000215,0.00000025,0.00000036,0.00000017,0.00000567,-0.00000055
 ,0.00000163,0.00000683,0.00000202,0.00000399,0.00000381\\\@


 ONE BIG VICE IN A MAN IS APT TO KEEP OUT MANY SMALLER ONES.

                           -- BRET HARTE
 Job cpu time:       0 days  8 hours 17 minutes 33.8 seconds.
 Elapsed time:       0 days  0 hours 31 minutes 16.1 seconds.
 File lengths (MBytes):  RWF=    529 Int=      0 D2E=      0 Chk=     17 Scr=      1
 Normal termination of Gaussian 16 at Wed Sep 17 22:36:12 2025.
