 Entering Gaussian System, Link 0=g16
 Input=AIOE0082.gjf
 Output=AIOE0082.log
 Initial command:
 /usr/local/g16/l1.exe "/dados_01/scratch/Gau-1887781.inp" -scrdir="/dados_01/scratch/"
 Entering Link 1 = /usr/local/g16/l1.exe PID=   1887782.
  
 Copyright (c) 1988-2017, Gaussian, Inc.  All Rights Reserved.
  
 This is part of the Gaussian(R) 16 program.  It is based on
 the Gaussian(R) 09 system (copyright 2009, Gaussian, Inc.),
 the Gaussian(R) 03 system (copyright 2003, Gaussian, Inc.),
 the Gaussian(R) 98 system (copyright 1998, Gaussian, Inc.),
 the Gaussian(R) 94 system (copyright 1995, Gaussian, Inc.),
 the Gaussian 92(TM) system (copyright 1992, Gaussian, Inc.),
 the Gaussian 90(TM) system (copyright 1990, Gaussian, Inc.),
 the Gaussian 88(TM) system (copyright 1988, Gaussian, Inc.),
 the Gaussian 86(TM) system (copyright 1986, Carnegie Mellon
 University), and the Gaussian 82(TM) system (copyright 1983,
 Carnegie Mellon University). Gaussian is a federally registered
 trademark of Gaussian, Inc.
  
 This software contains proprietary and confidential information,
 including trade secrets, belonging to Gaussian, Inc.
  
 This software is provided under written license and may be
 used, copied, transmitted, or stored only in accord with that
 written license.
  
 The following legend is applicable only to US Government
 contracts under FAR:
  
                    RESTRICTED RIGHTS LEGEND
  
 Use, reproduction and disclosure by the US Government is
 subject to restrictions as set forth in subparagraphs (a)
 and (c) of the Commercial Computer Software - Restricted
 Rights clause in FAR 52.227-19.
  
 Gaussian, Inc.
 340 Quinnipiac St., Bldg. 40, Wallingford CT 06492
  
  
 ---------------------------------------------------------------
 Warning -- This program may not be used in any manner that
 competes with the business of Gaussian, Inc. or will provide
 assistance to any competitor of Gaussian, Inc.  The licensee
 of this program is prohibited from giving any competitor of
 Gaussian, Inc. access to this program.  By using this program,
 the user acknowledges that Gaussian, Inc. is engaged in the
 business of creating and licensing software in the field of
 computational chemistry and represents and warrants to the
 licensee that it is not a competitor of Gaussian, Inc. and that
 it will not use this program in any manner prohibited above.
 ---------------------------------------------------------------
  

 Cite this work as:
 Gaussian 16, Revision B.01,
 M. J. Frisch, G. W. Trucks, H. B. Schlegel, G. E. Scuseria, 
 M. A. Robb, J. R. Cheeseman, G. Scalmani, V. Barone, 
 G. A. Petersson, H. Nakatsuji, X. Li, M. Caricato, A. V. Marenich, 
 J. Bloino, B. G. Janesko, R. Gomperts, B. Mennucci, H. P. Hratchian, 
 J. V. Ortiz, A. F. Izmaylov, J. L. Sonnenberg, D. Williams-Young, 
 F. Ding, F. Lipparini, F. Egidi, J. Goings, B. Peng, A. Petrone, 
 T. Henderson, D. Ranasinghe, V. G. Zakrzewski, J. Gao, N. Rega, 
 G. Zheng, W. Liang, M. Hada, M. Ehara, K. Toyota, R. Fukuda, 
 J. Hasegawa, M. Ishida, T. Nakajima, Y. Honda, O. Kitao, H. Nakai, 
 T. Vreven, K. Throssell, J. A. Montgomery, Jr., J. E. Peralta, 
 F. Ogliaro, M. J. Bearpark, J. J. Heyd, E. N. Brothers, K. N. Kudin, 
 V. N. Staroverov, T. A. Keith, R. Kobayashi, J. Normand, 
 K. Raghavachari, A. P. Rendell, J. C. Burant, S. S. Iyengar, 
 J. Tomasi, M. Cossi, J. M. Millam, M. Klene, C. Adamo, R. Cammi, 
 J. W. Ochterski, R. L. Martin, K. Morokuma, O. Farkas, 
 J. B. Foresman, and D. J. Fox, Gaussian, Inc., Wallingford CT, 2016.
 
 ******************************************
 Gaussian 16:  ES64L-G16RevB.01 20-Dec-2017
                17-Sep-2025 
 ******************************************
 %nprocs=16
 Will use up to   16 processors via shared memory.
 %mem=40GB
 %chk=AIOE0082.chk
 ----------------------------------------------------------------------
 # opt freq=noraman M08HX/6-311++G** scf=xqc Empiricaldispersion=pfd In
 t(Grid=ultraFine)
 ----------------------------------------------------------------------
 1/18=20,19=15,26=4,38=1/1,3;
 2/9=110,12=2,17=6,18=5,40=1/2;
 3/5=4,6=6,7=1111,11=2,25=1,30=1,71=1,74=-74,75=-5,124=11/1,2,3;
 4//1;
 5/5=2,8=3,13=1,38=5/2,8;
 6/7=2,8=2,9=2,10=2,28=1/1;
 7//1,2,3,16;
 1/18=20,19=15,26=4/3(2);
 2/9=110/2;
 99//99;
 2/9=110/2;
 3/5=4,6=6,7=1111,11=2,25=1,30=1,71=1,74=-74,75=-5,124=11/1,2,3;
 4/5=5,16=3,69=1/1;
 5/5=2,8=3,13=1,38=5/2,8;
 7//1,2,3,16;
 1/18=20,19=15,26=4/3(-5);
 2/9=110/2;
 6/7=2,8=2,9=2,10=2,19=2,28=1/1;
 99/9=1/99;
 --------
 AIOE0082
 --------
 Symbolic Z-matrix:
 Charge =  0 Multiplicity = 1
 O                    -0.9655   -2.3923   -0.1045 
 O                    -2.7487   -0.8639    0.4364 
 O                     1.7061   -1.5274   -0.7195 
 O                    -2.3835    1.9997    0.5224 
 C                     0.9438    0.7279   -0.3893 
 C                    -0.5579   -1.0941   -0.1258 
 C                    -1.5761   -0.2213    0.1831 
 C                     0.7154   -0.6501   -0.4173 
 C                    -1.3772    1.1435    0.2178 
 C                    -0.0965    1.6195   -0.0735 
 C                     2.2994    1.2771   -0.6937 
 C                    -2.3545   -2.239     0.2526 
 C                     3.1678    1.409     0.5293 
 C                     2.0433   -2.4985    0.2724 
 C                    -3.177     2.4891   -0.5607 
 C                     4.361     0.8207    0.6704 
 H                     0.0913    2.691    -0.0519 
 H                     2.7912    0.6678   -1.4628 
 H                     2.1981    2.2712   -1.1491 
 H                    -2.5392   -2.7847    1.1849 
 H                    -2.9711   -2.6777   -0.5403 
 H                     2.8042    2.0404    1.3366 
 H                     3.0884   -2.7846    0.1222 
 H                     1.4239   -3.3915    0.1515 
 H                     1.9392   -2.0952    1.2855 
 H                    -3.9379    3.1593   -0.1518 
 H                    -3.6766    1.6614   -1.0739 
 H                    -2.5561    3.0505   -1.2659 
 H                     4.9414    0.965     1.575 
 H                     4.776     0.1879   -0.1063 
 

 GradGradGradGradGradGradGradGradGradGradGradGradGradGradGradGradGradGrad
 Berny optimization.
 Initialization pass.
                           ----------------------------
                           !    Initial Parameters    !
                           ! (Angstroms and Degrees)  !
 --------------------------                            --------------------------
 ! Name  Definition              Value          Derivative Info.                !
 --------------------------------------------------------------------------------
 ! R1    R(1,6)                  1.3609         estimate D2E/DX2                !
 ! R2    R(1,12)                 1.4423         estimate D2E/DX2                !
 ! R3    R(2,7)                  1.3609         estimate D2E/DX2                !
 ! R4    R(2,12)                 1.4422         estimate D2E/DX2                !
 ! R5    R(3,8)                  1.3574         estimate D2E/DX2                !
 ! R6    R(3,14)                 1.4285         estimate D2E/DX2                !
 ! R7    R(4,9)                  1.3559         estimate D2E/DX2                !
 ! R8    R(4,15)                 1.4291         estimate D2E/DX2                !
 ! R9    R(5,8)                  1.3971         estimate D2E/DX2                !
 ! R10   R(5,10)                 1.406          estimate D2E/DX2                !
 ! R11   R(5,11)                 1.494          estimate D2E/DX2                !
 ! R12   R(6,7)                  1.3762         estimate D2E/DX2                !
 ! R13   R(6,8)                  1.3796         estimate D2E/DX2                !
 ! R14   R(7,9)                  1.3797         estimate D2E/DX2                !
 ! R15   R(9,10)                 1.397          estimate D2E/DX2                !
 ! R16   R(10,17)                1.088          estimate D2E/DX2                !
 ! R17   R(11,13)                1.5057         estimate D2E/DX2                !
 ! R18   R(11,18)                1.0976         estimate D2E/DX2                !
 ! R19   R(11,19)                1.0981         estimate D2E/DX2                !
 ! R20   R(12,20)                1.0959         estimate D2E/DX2                !
 ! R21   R(12,21)                1.0961         estimate D2E/DX2                !
 ! R22   R(13,16)                1.3378         estimate D2E/DX2                !
 ! R23   R(13,22)                1.0875         estimate D2E/DX2                !
 ! R24   R(14,23)                1.0939         estimate D2E/DX2                !
 ! R25   R(14,24)                1.0935         estimate D2E/DX2                !
 ! R26   R(14,25)                1.0954         estimate D2E/DX2                !
 ! R27   R(15,26)                1.0933         estimate D2E/DX2                !
 ! R28   R(15,27)                1.0946         estimate D2E/DX2                !
 ! R29   R(15,28)                1.0945         estimate D2E/DX2                !
 ! R30   R(16,29)                1.0844         estimate D2E/DX2                !
 ! R31   R(16,30)                1.0844         estimate D2E/DX2                !
 ! A1    A(6,1,12)             101.0068         estimate D2E/DX2                !
 ! A2    A(7,2,12)             101.0098         estimate D2E/DX2                !
 ! A3    A(8,3,14)             117.1981         estimate D2E/DX2                !
 ! A4    A(9,4,15)             117.2629         estimate D2E/DX2                !
 ! A5    A(8,5,10)             120.5979         estimate D2E/DX2                !
 ! A6    A(8,5,11)             120.4543         estimate D2E/DX2                !
 ! A7    A(10,5,11)            118.9478         estimate D2E/DX2                !
 ! A8    A(1,6,7)              112.3272         estimate D2E/DX2                !
 ! A9    A(1,6,8)              125.9265         estimate D2E/DX2                !
 ! A10   A(7,6,8)              121.7462         estimate D2E/DX2                !
 ! A11   A(2,7,6)              112.3213         estimate D2E/DX2                !
 ! A12   A(2,7,9)              125.9186         estimate D2E/DX2                !
 ! A13   A(6,7,9)              121.7601         estimate D2E/DX2                !
 ! A14   A(3,8,5)              121.5092         estimate D2E/DX2                !
 ! A15   A(3,8,6)              120.8404         estimate D2E/DX2                !
 ! A16   A(5,8,6)              117.6505         estimate D2E/DX2                !
 ! A17   A(4,9,7)              121.5548         estimate D2E/DX2                !
 ! A18   A(4,9,10)             120.8009         estimate D2E/DX2                !
 ! A19   A(7,9,10)             117.6442         estimate D2E/DX2                !
 ! A20   A(5,10,9)             120.6011         estimate D2E/DX2                !
 ! A21   A(5,10,17)            120.0818         estimate D2E/DX2                !
 ! A22   A(9,10,17)            119.3169         estimate D2E/DX2                !
 ! A23   A(5,11,13)            112.9559         estimate D2E/DX2                !
 ! A24   A(5,11,18)            110.1993         estimate D2E/DX2                !
 ! A25   A(5,11,19)            109.4863         estimate D2E/DX2                !
 ! A26   A(13,11,18)           111.0612         estimate D2E/DX2                !
 ! A27   A(13,11,19)           108.1036         estimate D2E/DX2                !
 ! A28   A(18,11,19)           104.6721         estimate D2E/DX2                !
 ! A29   A(1,12,2)             113.3349         estimate D2E/DX2                !
 ! A30   A(1,12,20)            108.6624         estimate D2E/DX2                !
 ! A31   A(1,12,21)            108.6697         estimate D2E/DX2                !
 ! A32   A(2,12,20)            108.6793         estimate D2E/DX2                !
 ! A33   A(2,12,21)            108.6658         estimate D2E/DX2                !
 ! A34   A(20,12,21)           108.7408         estimate D2E/DX2                !
 ! A35   A(11,13,16)           124.1618         estimate D2E/DX2                !
 ! A36   A(11,13,22)           117.4514         estimate D2E/DX2                !
 ! A37   A(16,13,22)           118.3747         estimate D2E/DX2                !
 ! A38   A(3,14,23)            107.9372         estimate D2E/DX2                !
 ! A39   A(3,14,24)            110.1624         estimate D2E/DX2                !
 ! A40   A(3,14,25)            111.6837         estimate D2E/DX2                !
 ! A41   A(23,14,24)           108.2039         estimate D2E/DX2                !
 ! A42   A(23,14,25)           108.3053         estimate D2E/DX2                !
 ! A43   A(24,14,25)           110.4324         estimate D2E/DX2                !
 ! A44   A(4,15,26)            108.2343         estimate D2E/DX2                !
 ! A45   A(4,15,27)            110.4767         estimate D2E/DX2                !
 ! A46   A(4,15,28)            110.4251         estimate D2E/DX2                !
 ! A47   A(26,15,27)           108.7379         estimate D2E/DX2                !
 ! A48   A(26,15,28)           108.7446         estimate D2E/DX2                !
 ! A49   A(27,15,28)           110.1637         estimate D2E/DX2                !
 ! A50   A(13,16,29)           120.4525         estimate D2E/DX2                !
 ! A51   A(13,16,30)           121.4936         estimate D2E/DX2                !
 ! A52   A(29,16,30)           118.0537         estimate D2E/DX2                !
 ! D1    D(12,1,6,7)            -0.006          estimate D2E/DX2                !
 ! D2    D(12,1,6,8)          -179.9762         estimate D2E/DX2                !
 ! D3    D(6,1,12,2)             0.0132         estimate D2E/DX2                !
 ! D4    D(6,1,12,20)         -120.9082         estimate D2E/DX2                !
 ! D5    D(6,1,12,21)          120.9226         estimate D2E/DX2                !
 ! D6    D(12,2,7,6)             0.0108         estimate D2E/DX2                !
 ! D7    D(12,2,7,9)           179.9905         estimate D2E/DX2                !
 ! D8    D(7,2,12,1)            -0.015          estimate D2E/DX2                !
 ! D9    D(7,2,12,20)          120.8969         estimate D2E/DX2                !
 ! D10   D(7,2,12,21)         -120.9265         estimate D2E/DX2                !
 ! D11   D(14,3,8,5)           119.999          estimate D2E/DX2                !
 ! D12   D(14,3,8,6)           -59.9903         estimate D2E/DX2                !
 ! D13   D(8,3,14,23)         -153.325          estimate D2E/DX2                !
 ! D14   D(8,3,14,24)           88.7279         estimate D2E/DX2                !
 ! D15   D(8,3,14,25)          -34.3796         estimate D2E/DX2                !
 ! D16   D(15,4,9,7)           -89.9958         estimate D2E/DX2                !
 ! D17   D(15,4,9,10)           89.9809         estimate D2E/DX2                !
 ! D18   D(9,4,15,26)          179.9032         estimate D2E/DX2                !
 ! D19   D(9,4,15,27)           60.9524         estimate D2E/DX2                !
 ! D20   D(9,4,15,28)          -61.1679         estimate D2E/DX2                !
 ! D21   D(10,5,8,3)          -179.9862         estimate D2E/DX2                !
 ! D22   D(10,5,8,6)             0.0034         estimate D2E/DX2                !
 ! D23   D(11,5,8,3)            -0.0417         estimate D2E/DX2                !
 ! D24   D(11,5,8,6)           179.9479         estimate D2E/DX2                !
 ! D25   D(8,5,10,9)            -0.0069         estimate D2E/DX2                !
 ! D26   D(8,5,10,17)          179.8595         estimate D2E/DX2                !
 ! D27   D(11,5,10,9)         -179.9522         estimate D2E/DX2                !
 ! D28   D(11,5,10,17)          -0.0858         estimate D2E/DX2                !
 ! D29   D(8,5,11,13)          -89.9483         estimate D2E/DX2                !
 ! D30   D(8,5,11,18)           34.9195         estimate D2E/DX2                !
 ! D31   D(8,5,11,19)          149.5314         estimate D2E/DX2                !
 ! D32   D(10,5,11,13)          89.9971         estimate D2E/DX2                !
 ! D33   D(10,5,11,18)        -145.1352         estimate D2E/DX2                !
 ! D34   D(10,5,11,19)         -30.5232         estimate D2E/DX2                !
 ! D35   D(1,6,7,2)             -0.0033         estimate D2E/DX2                !
 ! D36   D(1,6,7,9)           -179.984          estimate D2E/DX2                !
 ! D37   D(8,6,7,2)            179.9683         estimate D2E/DX2                !
 ! D38   D(8,6,7,9)             -0.0123         estimate D2E/DX2                !
 ! D39   D(1,6,8,3)             -0.0367         estimate D2E/DX2                !
 ! D40   D(1,6,8,5)            179.9736         estimate D2E/DX2                !
 ! D41   D(7,6,8,3)            179.9957         estimate D2E/DX2                !
 ! D42   D(7,6,8,5)              0.006          estimate D2E/DX2                !
 ! D43   D(2,7,9,4)              0.008          estimate D2E/DX2                !
 ! D44   D(2,7,9,10)          -179.9694         estimate D2E/DX2                !
 ! D45   D(6,7,9,4)            179.9859         estimate D2E/DX2                !
 ! D46   D(6,7,9,10)             0.0085         estimate D2E/DX2                !
 ! D47   D(4,9,10,5)          -179.9766         estimate D2E/DX2                !
 ! D48   D(4,9,10,17)            0.1559         estimate D2E/DX2                !
 ! D49   D(7,9,10,5)             0.001          estimate D2E/DX2                !
 ! D50   D(7,9,10,17)         -179.8665         estimate D2E/DX2                !
 ! D51   D(5,11,13,16)         122.3007         estimate D2E/DX2                !
 ! D52   D(5,11,13,22)         -58.9875         estimate D2E/DX2                !
 ! D53   D(18,11,13,16)         -2.0972         estimate D2E/DX2                !
 ! D54   D(18,11,13,22)        176.6145         estimate D2E/DX2                !
 ! D55   D(19,11,13,16)       -116.3931         estimate D2E/DX2                !
 ! D56   D(19,11,13,22)         62.3186         estimate D2E/DX2                !
 ! D57   D(11,13,16,29)        179.3831         estimate D2E/DX2                !
 ! D58   D(11,13,16,30)         -0.7638         estimate D2E/DX2                !
 ! D59   D(22,13,16,29)          0.6824         estimate D2E/DX2                !
 ! D60   D(22,13,16,30)       -179.4645         estimate D2E/DX2                !
 --------------------------------------------------------------------------------
 Trust Radius=3.00D-01 FncErr=1.00D-07 GrdErr=1.00D-06 EigMax=2.50D+02 EigMin=1.00D-04
 Number of steps in this run=    153 maximum allowed number of steps=    180.
 GradGradGradGradGradGradGradGradGradGradGradGradGradGradGradGradGradGrad

                          Input orientation:                          
 ---------------------------------------------------------------------
 Center     Atomic      Atomic             Coordinates (Angstroms)
 Number     Number       Type             X           Y           Z
 ---------------------------------------------------------------------
      1          8           0       -0.965500   -2.392300   -0.104500
      2          8           0       -2.748700   -0.863900    0.436400
      3          8           0        1.706100   -1.527400   -0.719500
      4          8           0       -2.383500    1.999700    0.522400
      5          6           0        0.943800    0.727900   -0.389300
      6          6           0       -0.557900   -1.094100   -0.125800
      7          6           0       -1.576100   -0.221300    0.183100
      8          6           0        0.715400   -0.650100   -0.417300
      9          6           0       -1.377200    1.143500    0.217800
     10          6           0       -0.096500    1.619500   -0.073500
     11          6           0        2.299400    1.277100   -0.693700
     12          6           0       -2.354500   -2.239000    0.252600
     13          6           0        3.167800    1.409000    0.529300
     14          6           0        2.043300   -2.498500    0.272400
     15          6           0       -3.177000    2.489100   -0.560700
     16          6           0        4.361000    0.820700    0.670400
     17          1           0        0.091300    2.691000   -0.051900
     18          1           0        2.791200    0.667800   -1.462800
     19          1           0        2.198100    2.271200   -1.149100
     20          1           0       -2.539200   -2.784700    1.184900
     21          1           0       -2.971100   -2.677700   -0.540300
     22          1           0        2.804200    2.040400    1.336600
     23          1           0        3.088400   -2.784600    0.122200
     24          1           0        1.423900   -3.391500    0.151500
     25          1           0        1.939200   -2.095200    1.285500
     26          1           0       -3.937900    3.159300   -0.151800
     27          1           0       -3.676600    1.661400   -1.073900
     28          1           0       -2.556100    3.050500   -1.265900
     29          1           0        4.941400    0.965000    1.575000
     30          1           0        4.776000    0.187900   -0.106300
 ---------------------------------------------------------------------
                    Distance matrix (angstroms):
                    1          2          3          4          5
     1  O    0.000000
     2  O    2.410058   0.000000
     3  O    2.874669   4.649901   0.000000
     4  O    4.657617   2.888074   5.541442   0.000000
     5  C    3.669085   4.104895   2.403437   3.676901   0.000000
     6  C    1.360851   2.273470   2.380320   3.650285   2.375757
     7  C    2.273497   1.360914   3.646014   2.387438   2.752911
     8  C    2.441010   3.574144   1.357375   4.184215   1.397081
     9  C    3.574249   2.440994   4.185568   1.355913   2.434817
    10  C    4.104956   3.668983   3.683702   2.393746   1.406024
    11  C    4.946840   5.598600   2.866686   4.891891   1.493965
    12  C    1.442339   1.442247   4.235543   4.247377   4.482557
    13  C    5.651173   6.338744   3.509774   5.582643   2.500780
    14  C    3.034174   5.065775   1.428497   6.316080   3.472233
    15  C    5.378375   3.524239   6.324726   1.429077   4.484662
    16  C    6.268608   7.310299   3.807084   6.848374   3.578943
    17  H    5.192257   4.576172   4.565979   2.632936   2.166646
    18  H    5.032096   6.053392   2.559070   5.700219   2.137499
    19  H    5.731299   6.067412   3.854346   4.884535   2.128929
    20  H    2.071971   2.072104   4.819763   4.832560   5.191123
    21  H    2.072150   2.072022   4.819907   4.832461   5.191084
    22  H    5.994684   6.330878   4.261756   5.251363   2.857005
    23  H    4.079142   6.153011   2.049333   7.279518   4.147119
    24  H    2.602531   4.886770   2.076812   6.610514   4.182394
    25  H    3.233829   4.920719   2.096845   6.003021   3.430112
    26  H    6.297433   4.236309   7.358137   2.053138   5.458856
    27  H    4.972151   3.085311   6.266379   2.082001   4.763213
    28  H    5.788172   4.272873   6.278700   2.081343   4.290944
    29  H    6.998832   7.986171   4.684437   7.472130   4.460437
    30  H    6.294621   7.617212   3.569671   7.411904   3.880392
                    6          7          8          9         10
     6  C    0.000000
     7  C    1.376201   0.000000
     8  C    1.379638   2.407347   0.000000
     9  C    2.407523   1.379654   2.828308   0.000000
    10  C    2.753044   2.375627   2.434844   1.397005   0.000000
    11  C    3.756230   4.246585   2.509891   3.790260   2.498444
    12  C    2.163736   2.163758   3.521030   3.521027   4.482514
    13  C    4.536023   5.028153   3.339193   4.563392   3.326159
    14  C    2.982808   4.277110   2.378148   4.996695   4.653635
    15  C    4.459613   3.234561   5.002591   2.378231   3.237754
    16  C    5.338162   6.047510   4.078816   5.765066   4.589202
    17  H    3.841081   3.364066   3.418474   2.150346   1.088048
    18  H    4.013519   4.751084   2.671868   4.519543   3.342858
    19  H    4.468548   4.715071   3.356773   3.990350   2.616642
    20  H    2.915752   2.915851   4.209036   4.209071   5.191082
    21  H    2.916013   2.916030   4.209106   4.209133   5.191065
    22  H    4.823631   5.062892   3.831193   4.420435   3.252630
    23  H    4.026760   5.322760   3.237017   5.948167   5.438564
    24  H    3.046715   4.364764   2.888041   5.330739   5.241408
    25  H    3.038005   4.133294   2.546670   4.756855   4.448590
    26  H    5.432908   4.137477   6.019570   3.279823   4.139259
    27  H    4.268251   3.088156   5.006378   2.687741   3.717482
    28  H    4.740289   3.710078   5.011714   2.688461   3.085322
    29  H    6.113503   6.769232   4.943368   6.465181   5.341007
    30  H    5.485836   6.371842   4.157816   6.235390   5.078564
                   11         12         13         14         15
    11  C    0.000000
    12  C    5.909080   0.000000
    13  C    1.505737   6.624218   0.000000
    14  C    3.905649   4.405494   4.074194   0.000000
    15  C    5.610489   4.867535   6.527726   7.267857   0.000000
    16  C    2.513815   7.391499   1.337809   4.067828   7.817967
    17  H    2.699394   5.511765   3.383219   5.553952   3.313823
    18  H    1.097556   6.153886   2.158626   3.687239   6.304786
    19  H    1.098128   6.559942   2.121493   4.979424   5.411598
    20  H    6.590858   1.095941   7.112438   4.681226   5.591679
    21  H    6.591066   1.096058   7.451930   5.082991   5.170941
    22  H    2.227009   6.789735   1.087476   4.723675   6.290933
    23  H    4.217300   5.471731   4.214062   1.093914   8.217877
    24  H    4.824592   3.951555   5.121398   1.093491   7.500464
    25  H    3.926752   4.418531   3.789553   1.095381   7.113351
    26  H    6.537602   5.640243   7.349722   8.244113   1.093314
    27  H    6.000401   4.326739   7.034186   7.199621   1.094560
    28  H    5.200792   5.506841   6.219349   7.369684   1.094529
    29  H    3.496365   8.077408   2.106248   4.700168   8.531853
    30  H    2.768563   7.540735   2.116927   3.850689   8.291695
                   16         17         18         19         20
    16  C    0.000000
    17  H    4.716999   0.000000
    18  H    2.652959   3.656971   0.000000
    19  H    3.176896   2.412195   1.738122   0.000000
    20  H    7.802332   6.199395   6.880642   7.311066   0.000000
    21  H    8.213665   6.199981   6.726625   7.182122   1.781657
    22  H    2.086892   3.116254   3.117826   2.568916   7.201148
    23  H    3.862411   6.244607   3.810462   5.288663   5.727060
    24  H    5.161244   6.230088   4.577487   5.861494   4.140324
    25  H    3.840044   5.301989   3.989138   5.005972   4.532284
    26  H    8.661224   4.057553   7.294318   6.279636   6.250941
    27  H    8.267549   4.037528   6.555221   5.906743   5.115043
    28  H    7.521139   2.934581   5.857444   4.819063   6.329002
    29  H    1.084430   5.399014   3.733620   4.080757   8.376861
    30  H    1.084400   5.311768   2.451495   3.474642   8.000981
                   21         22         23         24         25
    21  H    0.000000
    22  H    7.690079   0.000000
    23  H    6.096546   4.983589   0.000000
    24  H    4.506010   5.728458   1.771933   0.000000
    25  H    5.271043   4.225402   1.774599   1.797744   0.000000
    26  H    5.929267   6.994511   9.207275   8.470766   8.013483
    27  H    4.428346   6.924949   8.183080   7.283440   7.156537
    28  H    5.788868   6.043685   8.236237   7.703816   7.293531
    29  H    8.963895   2.404359   4.427611   5.777391   4.296724
    30  H    8.271492   3.066221   3.425779   4.910717   3.898344
                   26         27         28         29         30
    26  H    0.000000
    27  H    1.778272   0.000000
    28  H    1.778322   1.794988   0.000000
    29  H    9.307994   9.042763   8.284475   0.000000
    30  H    9.206701   8.634460   7.956057   1.859573   0.000000
 Stoichiometry    C12H14O4
 Framework group  C1[X(C12H14O4)]
 Deg. of freedom    84
 Full point group                 C1      NOp   1
 Largest Abelian subgroup         C1      NOp   1
 Largest concise Abelian subgroup C1      NOp   1
                         Standard orientation:                         
 ---------------------------------------------------------------------
 Center     Atomic      Atomic             Coordinates (Angstroms)
 Number     Number       Type             X           Y           Z
 ---------------------------------------------------------------------
      1          8           0       -0.830538    2.417261    0.146719
      2          8           0       -2.689053    1.002104   -0.446270
      3          8           0        1.781604    1.392403    0.771298
      4          8           0       -2.481916   -1.874917   -0.590537
      5          6           0        0.899618   -0.809565    0.384068
      6          6           0       -0.495699    1.098250    0.144172
      7          6           0       -1.556908    0.290112   -0.194472
      8          6           0        0.747523    0.578103    0.439548
      9          6           0       -1.433456   -1.082598   -0.256679
     10          6           0       -0.184614   -1.635096    0.037881
     11          6           0        2.219032   -1.439573    0.690934
     12          6           0       -2.221556    2.348981   -0.228447
     13          6           0        3.093259   -1.593719   -0.525294
     14          6           0        2.183790    2.363961   -0.195618
     15          6           0       -3.314091   -2.342185    0.473139
     16          6           0        4.318783   -1.069815   -0.640827
     17          1           0       -0.056166   -2.714684   -0.004978
     18          1           0        2.734636   -0.874913    1.478296
     19          1           0        2.057465   -2.435889    1.123528
     20          1           0       -2.364687    2.923648   -1.150595
     21          1           0       -2.822300    2.804458    0.567161
     22          1           0        2.704879   -2.186761   -1.349956
     23          1           0        3.241266    2.588289   -0.028082
     24          1           0        1.613375    3.287264   -0.061976
     25          1           0        2.069563    1.988531   -1.218292
     26          1           0       -4.106011   -2.960276    0.041673
     27          1           0       -3.773170   -1.499001    0.998827
     28          1           0       -2.733632   -2.951983    1.172573
     29          1           0        4.901006   -1.227044   -1.542095
     30          1           0        4.758921   -0.477587    0.153823
 ---------------------------------------------------------------------
 Rotational constants (GHZ):           0.7518523           0.4258793           0.2889637
 Standard basis: 6-311++G(d,p) (5D, 7F)
 There are   466 symmetry adapted cartesian basis functions of A   symmetry.
 There are   450 symmetry adapted basis functions of A   symmetry.
   450 basis functions,   702 primitive gaussians,   466 cartesian basis functions
    59 alpha electrons       59 beta electrons
       nuclear repulsion energy      1132.4198848918 Hartrees.
 NAtoms=   30 NActive=   30 NUniq=   30 SFac= 1.00D+00 NAtFMM=   60 NAOKFM=F Big=F
 Integral buffers will be    131072 words long.
 Raffenetti 2 integral format.
 Two-electron integral symmetry is turned on.
 R6APFD:  NTU= -4 IXU= 1 FactS= 1.050
 Nuclear repulsion after empirical dispersion term =     1132.3956113081 Hartrees.
 One-electron integrals computed using PRISM.
 NBasis=   450 RedAO= T EigKep=  1.49D-06  NBF=   450
 NBsUse=   448 1.00D-06 EigRej=  8.72D-07 NBFU=   448
 ExpMin= 3.60D-02 ExpMax= 8.59D+03 ExpMxC= 1.30D+03 IAcc=3 IRadAn=         5 AccDes= 0.00D+00
 Harris functional with IExCor= 1009 and IRadAn=       5 diagonalized for initial guess.
 HarFok:  IExCor= 1009 AccDes= 0.00D+00 IRadAn=         5 IDoV= 1 UseB2=F ITyADJ=14
 ICtDFT=  3500011 ScaDFX=  1.000000  1.000000  1.000000  1.000000
 FoFCou: FMM=F IPFlag=           0 FMFlag=      100000 FMFlg1=           0
         NFxFlg=           0 DoJE=T BraDBF=F KetDBF=T FulRan=T
         wScrn=  0.000000 ICntrl=       500 IOpCl=  0 I1Cent=   200000004 NGrid=           0
         NMat0=    1 NMatS0=      1 NMatT0=    0 NMatD0=    1 NMtDS0=    0 NMtDT0=    0
 Petite list used in FoFCou.
 Requested convergence on RMS density matrix=1.00D-08 within  32 cycles.
 Requested convergence on MAX density matrix=1.00D-06.
 Requested convergence on             energy=1.00D-06.
 No special actions if energy rises.
 SCF Done:  E(RM08HX) =  -766.488774125     A.U. after   15 cycles
            NFock= 15  Conv=0.32D-08     -V/T= 2.0041
 QCSCF skips out because SCF is already converged.

 **********************************************************************

            Population analysis using the SCF Density.

 **********************************************************************

 Orbital symmetries:
       Occupied  (A) (A) (A) (A) (A) (A) (A) (A) (A) (A) (A) (A)
                 (A) (A) (A) (A) (A) (A) (A) (A) (A) (A) (A) (A)
                 (A) (A) (A) (A) (A) (A) (A) (A) (A) (A) (A) (A)
                 (A) (A) (A) (A) (A) (A) (A) (A) (A) (A) (A) (A)
                 (A) (A) (A) (A) (A) (A) (A) (A) (A) (A) (A)
       Virtual   (A) (A) (A) (A) (A) (A) (A) (A) (A) (A) (A) (A)
                 (A) (A) (A) (A) (A) (A) (A) (A) (A) (A) (A) (A)
                 (A) (A) (A) (A) (A) (A) (A) (A) (A) (A) (A) (A)
                 (A) (A) (A) (A) (A) (A) (A) (A) (A) (A) (A) (A)
                 (A) (A) (A) (A) (A) (A) (A) (A) (A) (A) (A) (A)
                 (A) (A) (A) (A) (A) (A) (A) (A) (A) (A) (A) (A)
                 (A) (A) (A) (A) (A) (A) (A) (A) (A) (A) (A) (A)
                 (A) (A) (A) (A) (A) (A) (A) (A) (A) (A) (A) (A)
                 (A) (A) (A) (A) (A) (A) (A) (A) (A) (A) (A) (A)
                 (A) (A) (A) (A) (A) (A) (A) (A) (A) (A) (A) (A)
                 (A) (A) (A) (A) (A) (A) (A) (A) (A) (A) (A) (A)
                 (A) (A) (A) (A) (A) (A) (A) (A) (A) (A) (A) (A)
                 (A) (A) (A) (A) (A) (A) (A) (A) (A) (A) (A) (A)
                 (A) (A) (A) (A) (A) (A) (A) (A) (A) (A) (A) (A)
                 (A) (A) (A) (A) (A) (A) (A) (A) (A) (A) (A) (A)
                 (A) (A) (A) (A) (A) (A) (A) (A) (A) (A) (A) (A)
                 (A) (A) (A) (A) (A) (A) (A) (A) (A) (A) (A) (A)
                 (A) (A) (A) (A) (A) (A) (A) (A) (A) (A) (A) (A)
                 (A) (A) (A) (A) (A) (A) (A) (A) (A) (A) (A) (A)
                 (A) (A) (A) (A) (A) (A) (A) (A) (A) (A) (A) (A)
                 (A) (A) (A) (A) (A) (A) (A) (A) (A) (A) (A) (A)
                 (A) (A) (A) (A) (A) (A) (A) (A) (A) (A) (A) (A)
                 (A) (A) (A) (A) (A) (A) (A) (A) (A) (A) (A) (A)
                 (A) (A) (A) (A) (A) (A) (A) (A) (A) (A) (A) (A)
                 (A) (A) (A) (A) (A) (A) (A) (A) (A) (A) (A) (A)
                 (A) (A) (A) (A) (A) (A) (A) (A) (A) (A) (A) (A)
                 (A) (A) (A) (A) (A) (A) (A) (A) (A) (A) (A) (A)
                 (A) (A) (A) (A) (A) (A) (A) (A) (A) (A) (A) (A)
                 (A) (A) (A) (A) (A) (A) (A) (A) (A) (A) (A) (A)
                 (A) (A) (A) (A) (A) (A) (A) (A) (A) (A) (A) (A)
                 (A) (A) (A) (A) (A) (A) (A) (A) (A) (A) (A) (A)
                 (A) (A) (A) (A) (A) (A) (A) (A) (A) (A) (A) (A)
                 (A) (A) (A) (A) (A)
 The electronic state is 1-A.
 Alpha  occ. eigenvalues --  -19.66961 -19.66645 -19.63230 -19.62770 -10.65673
 Alpha  occ. eigenvalues --  -10.59790 -10.59601 -10.59360 -10.59232 -10.57886
 Alpha  occ. eigenvalues --  -10.57571 -10.54606 -10.53724 -10.53595 -10.53396
 Alpha  occ. eigenvalues --  -10.52131  -1.26559  -1.18922  -1.18237  -1.16793
 Alpha  occ. eigenvalues --   -0.97951  -0.91447  -0.86793  -0.86608  -0.81352
 Alpha  occ. eigenvalues --   -0.79929  -0.77283  -0.76488  -0.71718  -0.69683
 Alpha  occ. eigenvalues --   -0.64183  -0.62739  -0.61409  -0.61245  -0.59105
 Alpha  occ. eigenvalues --   -0.58346  -0.54824  -0.54181  -0.53956  -0.53528
 Alpha  occ. eigenvalues --   -0.52472  -0.50751  -0.50035  -0.49536  -0.48224
 Alpha  occ. eigenvalues --   -0.47823  -0.47332  -0.46648  -0.45673  -0.43340
 Alpha  occ. eigenvalues --   -0.42600  -0.41904  -0.41051  -0.37691  -0.36045
 Alpha  occ. eigenvalues --   -0.35478  -0.32145  -0.28182  -0.26961
 Alpha virt. eigenvalues --   -0.03022  -0.02193  -0.01923  -0.01036  -0.00665
 Alpha virt. eigenvalues --   -0.00243   0.00354   0.00651   0.00849   0.01416
 Alpha virt. eigenvalues --    0.01805   0.02179   0.02815   0.02911   0.03192
 Alpha virt. eigenvalues --    0.03475   0.03729   0.04859   0.05199   0.05312
 Alpha virt. eigenvalues --    0.05656   0.06821   0.06973   0.07065   0.08176
 Alpha virt. eigenvalues --    0.08576   0.09106   0.09497   0.10258   0.10597
 Alpha virt. eigenvalues --    0.11105   0.11350   0.11530   0.11731   0.11959
 Alpha virt. eigenvalues --    0.12461   0.12643   0.13063   0.13511   0.13624
 Alpha virt. eigenvalues --    0.13819   0.14210   0.14325   0.14756   0.15325
 Alpha virt. eigenvalues --    0.15534   0.15719   0.16114   0.16356   0.16648
 Alpha virt. eigenvalues --    0.17163   0.17294   0.17606   0.18204   0.18546
 Alpha virt. eigenvalues --    0.18816   0.19156   0.19449   0.20544   0.20807
 Alpha virt. eigenvalues --    0.20932   0.22037   0.22335   0.23090   0.23345
 Alpha virt. eigenvalues --    0.23563   0.24058   0.24485   0.25558   0.25646
 Alpha virt. eigenvalues --    0.26907   0.27107   0.27611   0.27988   0.28461
 Alpha virt. eigenvalues --    0.28589   0.29473   0.29744   0.30189   0.30542
 Alpha virt. eigenvalues --    0.31090   0.31469   0.32069   0.32407   0.32880
 Alpha virt. eigenvalues --    0.33061   0.33685   0.34485   0.34598   0.34948
 Alpha virt. eigenvalues --    0.35577   0.36357   0.36931   0.37116   0.37947
 Alpha virt. eigenvalues --    0.38267   0.38532   0.39664   0.40844   0.41416
 Alpha virt. eigenvalues --    0.41852   0.43389   0.43969   0.44015   0.45534
 Alpha virt. eigenvalues --    0.46226   0.48300   0.48665   0.49408   0.50282
 Alpha virt. eigenvalues --    0.50919   0.51474   0.52659   0.53603   0.55143
 Alpha virt. eigenvalues --    0.56358   0.56777   0.58861   0.59890   0.60723
 Alpha virt. eigenvalues --    0.62092   0.62625   0.63589   0.63990   0.64970
 Alpha virt. eigenvalues --    0.65390   0.66328   0.66622   0.67192   0.68230
 Alpha virt. eigenvalues --    0.68663   0.69187   0.69712   0.70203   0.71226
 Alpha virt. eigenvalues --    0.71897   0.72110   0.73272   0.73623   0.73890
 Alpha virt. eigenvalues --    0.74986   0.75912   0.76311   0.76613   0.77869
 Alpha virt. eigenvalues --    0.78863   0.79909   0.80110   0.80524   0.80972
 Alpha virt. eigenvalues --    0.83229   0.83481   0.87015   0.87321   0.89434
 Alpha virt. eigenvalues --    0.91567   0.92150   0.92279   0.93021   0.93772
 Alpha virt. eigenvalues --    0.96064   0.96803   0.97523   0.99102   1.00132
 Alpha virt. eigenvalues --    1.02224   1.03910   1.05256   1.06034   1.06520
 Alpha virt. eigenvalues --    1.06720   1.08428   1.09969   1.10033   1.11080
 Alpha virt. eigenvalues --    1.12274   1.13718   1.15248   1.16308   1.16850
 Alpha virt. eigenvalues --    1.17634   1.20715   1.22326   1.23116   1.24828
 Alpha virt. eigenvalues --    1.26736   1.28743   1.29273   1.30729   1.32093
 Alpha virt. eigenvalues --    1.32883   1.34879   1.35423   1.37899   1.38889
 Alpha virt. eigenvalues --    1.39711   1.40679   1.41968   1.43795   1.44300
 Alpha virt. eigenvalues --    1.46844   1.48284   1.49905   1.51136   1.53653
 Alpha virt. eigenvalues --    1.55234   1.56341   1.56885   1.57407   1.59010
 Alpha virt. eigenvalues --    1.59572   1.60736   1.62068   1.62988   1.64169
 Alpha virt. eigenvalues --    1.65462   1.66694   1.67208   1.67843   1.69178
 Alpha virt. eigenvalues --    1.69666   1.71305   1.71821   1.72704   1.73528
 Alpha virt. eigenvalues --    1.74293   1.75360   1.75828   1.76544   1.77180
 Alpha virt. eigenvalues --    1.78157   1.79030   1.81245   1.81803   1.81853
 Alpha virt. eigenvalues --    1.85264   1.86505   1.87134   1.88104   1.89770
 Alpha virt. eigenvalues --    1.90717   1.91084   1.93612   1.94743   1.94967
 Alpha virt. eigenvalues --    1.97378   1.98274   1.99396   2.00045   2.02198
 Alpha virt. eigenvalues --    2.04167   2.06314   2.07125   2.09550   2.11962
 Alpha virt. eigenvalues --    2.12962   2.14786   2.16533   2.17059   2.19751
 Alpha virt. eigenvalues --    2.21076   2.22639   2.23573   2.24691   2.25316
 Alpha virt. eigenvalues --    2.28447   2.29987   2.31523   2.32849   2.35884
 Alpha virt. eigenvalues --    2.36996   2.39892   2.41560   2.41671   2.45191
 Alpha virt. eigenvalues --    2.45975   2.47675   2.48677   2.50970   2.54299
 Alpha virt. eigenvalues --    2.55734   2.56481   2.57581   2.58309   2.58872
 Alpha virt. eigenvalues --    2.59261   2.60319   2.60748   2.61464   2.62383
 Alpha virt. eigenvalues --    2.65686   2.67005   2.68421   2.71166   2.72635
 Alpha virt. eigenvalues --    2.75200   2.75232   2.81408   2.82516   2.83560
 Alpha virt. eigenvalues --    2.83691   2.87384   2.88051   2.89530   2.91254
 Alpha virt. eigenvalues --    2.91429   2.91916   2.93060   3.01439   3.02167
 Alpha virt. eigenvalues --    3.02569   3.05017   3.06000   3.08379   3.08756
 Alpha virt. eigenvalues --    3.11119   3.12643   3.14611   3.16591   3.17823
 Alpha virt. eigenvalues --    3.18892   3.21627   3.22438   3.22691   3.23772
 Alpha virt. eigenvalues --    3.26695   3.30550   3.30934   3.34668   3.37182
 Alpha virt. eigenvalues --    3.38070   3.39893   3.47160   3.52606   3.55683
 Alpha virt. eigenvalues --    3.57716   3.58405   3.60935   3.67168   3.74926
 Alpha virt. eigenvalues --    3.76829   3.81250   3.81765   3.83365   3.84064
 Alpha virt. eigenvalues --    3.84566   3.88702   3.89767   3.94372   4.03669
 Alpha virt. eigenvalues --    4.04530   4.08646   4.10666   4.14599   4.23460
 Alpha virt. eigenvalues --    4.28893   4.32694   4.35816   4.39839   4.44634
 Alpha virt. eigenvalues --    4.96463   5.16305   5.18939   5.30360   5.32576
 Alpha virt. eigenvalues --    5.45091   5.48587   5.51940   5.68344   5.69439
 Alpha virt. eigenvalues --    5.85539   5.93331   5.95823  23.61073  23.84566
 Alpha virt. eigenvalues --   23.85492  23.97039  23.97701  23.98629  23.99778
 Alpha virt. eigenvalues --   24.04117  24.13379  24.13985  24.24000  24.30926
 Alpha virt. eigenvalues --   49.93962  49.96828  50.01259  50.05207
          Condensed to atoms (all electrons):
               1          2          3          4          5          6
     1  O    8.090778   0.010771   0.027605   0.000546  -0.236592   0.740728
     2  O    0.010771   8.036934   0.001491   0.031227   0.046191   0.117684
     3  O    0.027605   0.001491   8.062457   0.000832  -0.749002   0.055019
     4  O    0.000546   0.031227   0.000832   8.019992   0.011733   0.091279
     5  C   -0.236592   0.046191  -0.749002   0.011733  32.166430 -13.931067
     6  C    0.740728   0.117684   0.055019   0.091279 -13.931067  31.825947
     7  C    0.445891   0.959235   0.074294  -0.120162  -5.443530   2.098257
     8  C   -1.016083   0.009109   0.681279   0.010932   2.839083   0.111575
     9  C    0.000312  -0.949617  -0.036990   0.599295  -4.397106  -7.193821
    10  C   -0.047592  -0.210165  -0.060890  -0.522038  -3.178883  -4.688833
    11  C    0.016475   0.001363   0.097203   0.019520  -2.193756  -1.722382
    12  C    0.151566   0.134610  -0.006511  -0.017749  -0.216924  -0.780661
    13  C   -0.003343   0.001969   0.026982   0.003268  -0.977086   0.077029
    14  C   -0.014718  -0.001992   0.051788   0.000293   0.208236  -0.148916
    15  C    0.002363   0.013486   0.000817   0.126733  -0.004358  -0.003518
    16  C    0.000787  -0.000657  -0.002670   0.000982   0.801081  -0.216563
    17  H    0.000199  -0.002271  -0.000765  -0.015666  -0.073596   0.075409
    18  H    0.000100  -0.000324  -0.034119  -0.000106   0.257591  -0.210105
    19  H    0.000356   0.000171   0.003835   0.000184  -0.167594   0.043409
    20  H   -0.078331  -0.064667   0.000170   0.000411   0.021588  -0.054338
    21  H   -0.057709  -0.069741   0.000138   0.000188  -0.028375   0.096216
    22  H    0.000109   0.000198   0.002761  -0.000702  -0.082399  -0.037610
    23  H   -0.001497  -0.000085  -0.051075   0.000025  -0.000732   0.001427
    24  H   -0.010907  -0.000767  -0.041142   0.000003   0.019893   0.024010
    25  H    0.002989   0.000832  -0.046043   0.000140   0.052141  -0.054995
    26  H   -0.000050  -0.000846   0.000065  -0.060825   0.001530   0.011310
    27  H   -0.001472  -0.006274   0.000054  -0.043338   0.010043  -0.004834
    28  H    0.000071   0.002272  -0.000024  -0.046638   0.005943  -0.016233
    29  H   -0.000050  -0.000037  -0.000761   0.000031   0.021988  -0.002581
    30  H   -0.000029   0.000043   0.002219   0.000010  -0.005245  -0.012061
               7          8          9         10         11         12
     1  O    0.445891  -1.016083   0.000312  -0.047592   0.016475   0.151566
     2  O    0.959235   0.009109  -0.949617  -0.210165   0.001363   0.134610
     3  O    0.074294   0.681279  -0.036990  -0.060890   0.097203  -0.006511
     4  O   -0.120162   0.010932   0.599295  -0.522038   0.019520  -0.017749
     5  C   -5.443530   2.839083  -4.397106  -3.178883  -2.193756  -0.216924
     6  C    2.098257   0.111575  -7.193821  -4.688833  -1.722382  -0.780661
     7  C   32.838703  -9.486480  -3.830806 -11.217010   0.344854  -0.728451
     8  C   -9.486480  23.568242  -3.830026  -2.896695  -2.325142  -0.081139
     9  C   -3.830806  -3.830026  21.143039   5.180545  -0.219446   0.394410
    10  C  -11.217010  -2.896695   5.180545  24.585249  -1.768558   0.234342
    11  C    0.344854  -2.325142  -0.219446  -1.768558  13.637852  -0.039212
    12  C   -0.728451  -0.081139   0.394410   0.234342  -0.039212   6.629578
    13  C    0.065813   0.029959   0.095993   0.171227  -0.411792  -0.007578
    14  C   -0.087717  -0.174025   0.057605   0.093580  -0.136071   0.013799
    15  C   -0.204278   0.005247  -0.199074   0.246909  -0.015696  -0.003851
    16  C    0.042170  -0.071883   0.051721  -0.398199  -0.130965  -0.004535
    17  H   -0.203446   0.100394  -0.170517   0.761219  -0.179986   0.001095
    18  H   -0.048426  -0.223976   0.029979   0.132669   0.466244  -0.001874
    19  H    0.034988   0.052318  -0.019278  -0.147842   0.623933   0.002301
    20  H    0.149329  -0.008020  -0.001909  -0.025518   0.003934   0.298181
    21  H   -0.110881   0.007983   0.016919   0.027607  -0.004744   0.355133
    22  H    0.003907  -0.068130   0.015045   0.002770   0.116497  -0.000329
    23  H   -0.010312   0.031296  -0.004347  -0.002150  -0.000700   0.001150
    24  H   -0.034446  -0.034048   0.002905   0.009093   0.001942  -0.001371
    25  H    0.037904  -0.051696   0.009347  -0.004750   0.020708  -0.001990
    26  H    0.018218   0.002570   0.014992  -0.029957  -0.000278   0.000097
    27  H    0.029286  -0.006409  -0.062365   0.014161  -0.003133   0.006453
    28  H   -0.057317  -0.010971  -0.019387   0.066718   0.021999  -0.000098
    29  H   -0.002004  -0.000181   0.003723   0.014997  -0.014851  -0.000132
    30  H   -0.003903  -0.014142   0.001470  -0.005686   0.033706  -0.000164
              13         14         15         16         17         18
     1  O   -0.003343  -0.014718   0.002363   0.000787   0.000199   0.000100
     2  O    0.001969  -0.001992   0.013486  -0.000657  -0.002271  -0.000324
     3  O    0.026982   0.051788   0.000817  -0.002670  -0.000765  -0.034119
     4  O    0.003268   0.000293   0.126733   0.000982  -0.015666  -0.000106
     5  C   -0.977086   0.208236  -0.004358   0.801081  -0.073596   0.257591
     6  C    0.077029  -0.148916  -0.003518  -0.216563   0.075409  -0.210105
     7  C    0.065813  -0.087717  -0.204278   0.042170  -0.203446  -0.048426
     8  C    0.029959  -0.174025   0.005247  -0.071883   0.100394  -0.223976
     9  C    0.095993   0.057605  -0.199074   0.051721  -0.170517   0.029979
    10  C    0.171227   0.093580   0.246909  -0.398199   0.761219   0.132669
    11  C   -0.411792  -0.136071  -0.015696  -0.130965  -0.179986   0.466244
    12  C   -0.007578   0.013799  -0.003851  -0.004535   0.001095  -0.001874
    13  C    7.226910  -0.029284   0.004240  -0.626501   0.000398  -0.112649
    14  C   -0.029284   5.566021   0.000126  -0.027329  -0.001856   0.007484
    15  C    0.004240   0.000126   5.387485  -0.000661   0.000070  -0.000544
    16  C   -0.626501  -0.027329  -0.000661   6.738973  -0.016607  -0.004922
    17  H    0.000398  -0.001856   0.000070  -0.016607   0.437067  -0.001200
    18  H   -0.112649   0.007484  -0.000544  -0.004922  -0.001200   0.452063
    19  H   -0.082140   0.001331   0.001802  -0.012300  -0.009724  -0.022329
    20  H    0.000051  -0.011648   0.000655   0.000088  -0.000572  -0.000010
    21  H   -0.000088   0.008848  -0.000563   0.000051   0.000568  -0.000126
    22  H    0.422182   0.001151  -0.000192  -0.094179  -0.009079   0.002957
    23  H   -0.016654   0.406675   0.000025   0.004839   0.000226  -0.001565
    24  H    0.004612   0.408012  -0.000036  -0.000681  -0.000064   0.000788
    25  H    0.013980   0.370451   0.000207  -0.008920  -0.000492   0.004266
    26  H    0.000056   0.000034   0.391145  -0.000006  -0.000031   0.000018
    27  H   -0.000283   0.000333   0.403742   0.000006   0.000715  -0.000021
    28  H   -0.001229  -0.000359   0.402409  -0.000354  -0.004538   0.000624
    29  H   -0.045993   0.000218  -0.000017   0.402943   0.000972  -0.003573
    30  H   -0.011661  -0.004789   0.000061   0.388895  -0.000779  -0.000804
              19         20         21         22         23         24
     1  O    0.000356  -0.078331  -0.057709   0.000109  -0.001497  -0.010907
     2  O    0.000171  -0.064667  -0.069741   0.000198  -0.000085  -0.000767
     3  O    0.003835   0.000170   0.000138   0.002761  -0.051075  -0.041142
     4  O    0.000184   0.000411   0.000188  -0.000702   0.000025   0.000003
     5  C   -0.167594   0.021588  -0.028375  -0.082399  -0.000732   0.019893
     6  C    0.043409  -0.054338   0.096216  -0.037610   0.001427   0.024010
     7  C    0.034988   0.149329  -0.110881   0.003907  -0.010312  -0.034446
     8  C    0.052318  -0.008020   0.007983  -0.068130   0.031296  -0.034048
     9  C   -0.019278  -0.001909   0.016919   0.015045  -0.004347   0.002905
    10  C   -0.147842  -0.025518   0.027607   0.002770  -0.002150   0.009093
    11  C    0.623933   0.003934  -0.004744   0.116497  -0.000700   0.001942
    12  C    0.002301   0.298181   0.355133  -0.000329   0.001150  -0.001371
    13  C   -0.082140   0.000051  -0.000088   0.422182  -0.016654   0.004612
    14  C    0.001331  -0.011648   0.008848   0.001151   0.406675   0.408012
    15  C    0.001802   0.000655  -0.000563  -0.000192   0.000025  -0.000036
    16  C   -0.012300   0.000088   0.000051  -0.094179   0.004839  -0.000681
    17  H   -0.009724  -0.000572   0.000568  -0.009079   0.000226  -0.000064
    18  H   -0.022329  -0.000010  -0.000126   0.002957  -0.001565   0.000788
    19  H    0.460604   0.000011   0.000049   0.001880   0.000735  -0.000213
    20  H    0.000011   0.603302  -0.112738   0.000057  -0.001292  -0.000435
    21  H    0.000049  -0.112738   0.606921  -0.000065   0.001088  -0.000703
    22  H    0.001880   0.000057  -0.000065   0.429034  -0.001081   0.000269
    23  H    0.000735  -0.001292   0.001088  -0.001081   0.484538  -0.030120
    24  H   -0.000213  -0.000435  -0.000703   0.000269  -0.030120   0.510078
    25  H    0.000152   0.000960  -0.000875   0.001270  -0.030167  -0.046533
    26  H    0.000243   0.000054  -0.000051  -0.000080   0.000004   0.000005
    27  H   -0.000078   0.000517  -0.001330  -0.000097   0.000040  -0.000090
    28  H   -0.001130   0.000148  -0.000336   0.000458  -0.000047   0.000033
    29  H   -0.000414  -0.000008   0.000003  -0.008248   0.000731  -0.000017
    30  H    0.001466   0.000038  -0.000027  -0.003617  -0.004481   0.000667
              25         26         27         28         29         30
     1  O    0.002989  -0.000050  -0.001472   0.000071  -0.000050  -0.000029
     2  O    0.000832  -0.000846  -0.006274   0.002272  -0.000037   0.000043
     3  O   -0.046043   0.000065   0.000054  -0.000024  -0.000761   0.002219
     4  O    0.000140  -0.060825  -0.043338  -0.046638   0.000031   0.000010
     5  C    0.052141   0.001530   0.010043   0.005943   0.021988  -0.005245
     6  C   -0.054995   0.011310  -0.004834  -0.016233  -0.002581  -0.012061
     7  C    0.037904   0.018218   0.029286  -0.057317  -0.002004  -0.003903
     8  C   -0.051696   0.002570  -0.006409  -0.010971  -0.000181  -0.014142
     9  C    0.009347   0.014992  -0.062365  -0.019387   0.003723   0.001470
    10  C   -0.004750  -0.029957   0.014161   0.066718   0.014997  -0.005686
    11  C    0.020708  -0.000278  -0.003133   0.021999  -0.014851   0.033706
    12  C   -0.001990   0.000097   0.006453  -0.000098  -0.000132  -0.000164
    13  C    0.013980   0.000056  -0.000283  -0.001229  -0.045993  -0.011661
    14  C    0.370451   0.000034   0.000333  -0.000359   0.000218  -0.004789
    15  C    0.000207   0.391145   0.403742   0.402409  -0.000017   0.000061
    16  C   -0.008920  -0.000006   0.000006  -0.000354   0.402943   0.388895
    17  H   -0.000492  -0.000031   0.000715  -0.004538   0.000972  -0.000779
    18  H    0.004266   0.000018  -0.000021   0.000624  -0.003573  -0.000804
    19  H    0.000152   0.000243  -0.000078  -0.001130  -0.000414   0.001466
    20  H    0.000960   0.000054   0.000517   0.000148  -0.000008   0.000038
    21  H   -0.000875  -0.000051  -0.001330  -0.000336   0.000003  -0.000027
    22  H    0.001270  -0.000080  -0.000097   0.000458  -0.008248  -0.003617
    23  H   -0.030167   0.000004   0.000040  -0.000047   0.000731  -0.004481
    24  H   -0.046533   0.000005  -0.000090   0.000033  -0.000017   0.000667
    25  H    0.518249   0.000019  -0.000075   0.000034  -0.001355   0.001240
    26  H    0.000019   0.490591  -0.024939  -0.032360  -0.000001  -0.000001
    27  H   -0.000075  -0.024939   0.553442  -0.072660   0.000010  -0.000023
    28  H    0.000034  -0.032360  -0.072660   0.573961  -0.000013   0.000014
    29  H   -0.001355  -0.000001   0.000010  -0.000013   0.458862  -0.004804
    30  H    0.001240  -0.000001  -0.000023   0.000014  -0.004804   0.465654
 Mulliken charges:
               1
     1  O   -0.023271
     2  O   -0.060146
     3  O   -0.059015
     4  O   -0.090402
     5  C    1.222774
     6  C   -0.290780
     7  C    0.446318
     8  C   -1.150939
     9  C   -0.682612
    10  C   -0.336319
    11  C   -0.239521
    12  C   -0.330149
    13  C    0.181613
    14  C   -0.557283
    15  C   -0.554735
    16  C   -0.814606
    17  H    0.312855
    18  H    0.311889
    19  H    0.233272
    20  H    0.279990
    21  H    0.266641
    22  H    0.305263
    23  H    0.223507
    24  H    0.219264
    25  H    0.213002
    26  H    0.218473
    27  H    0.208618
    28  H    0.189007
    29  H    0.180561
    30  H    0.176734
 Sum of Mulliken charges =  -0.00000
 Mulliken charges with hydrogens summed into heavy atoms:
               1
     1  O   -0.023271
     2  O   -0.060146
     3  O   -0.059015
     4  O   -0.090402
     5  C    1.222774
     6  C   -0.290780
     7  C    0.446318
     8  C   -1.150939
     9  C   -0.682612
    10  C   -0.023464
    11  C    0.305640
    12  C    0.216481
    13  C    0.486877
    14  C    0.098489
    15  C    0.061362
    16  C   -0.457311
 Electronic spatial extent (au):  <R**2>=           3826.5928
 Charge=             -0.0000 electrons
 Dipole moment (field-independent basis, Debye):
    X=             -0.5516    Y=              0.7648    Z=              0.3025  Tot=              0.9903
 Quadrupole moment (field-independent basis, Debye-Ang):
   XX=            -89.7273   YY=            -86.1414   ZZ=            -97.6655
   XY=             -0.0566   XZ=             -6.5141   YZ=             -5.5468
 Traceless Quadrupole moment (field-independent basis, Debye-Ang):
   XX=              1.4507   YY=              5.0367   ZZ=             -6.4874
   XY=             -0.0566   XZ=             -6.5141   YZ=             -5.5468
 Octapole moment (field-independent basis, Debye-Ang**2):
  XXX=            -27.9484  YYY=             21.7897  ZZZ=             -3.0871  XYY=            -28.6848
  XXY=             18.9842  XXZ=              9.0914  XZZ=             -2.8698  YZZ=              5.3858
  YYZ=             -1.7624  XYZ=              7.3603
 Hexadecapole moment (field-independent basis, Debye-Ang**3):
 XXXX=          -3043.1796 YYYY=          -1648.4071 ZZZZ=           -262.9304 XXXY=            120.3408
 XXXZ=            -54.0242 YYYX=             36.2947 YYYZ=            -25.0341 ZZZX=              4.6264
 ZZZY=              1.9151 XXYY=           -729.0259 XXZZ=           -561.3938 YYZZ=           -332.1950
 XXYZ=            -11.2448 YYXZ=            -14.9930 ZZXY=            -18.2708
 N-N= 1.132395611308D+03 E-N=-4.054299520901D+03  KE= 7.633513153045D+02
 R6APFD:  NTU= -4 IXU= 1 FactS= 1.050
 Calling FoFJK, ICntrl=      2127 FMM=F ISym2X=0 I1Cent= 0 IOpClX= 0 NMat=1 NMatS=1 NMatT=0.
 ***** Axes restored to original set *****
 -------------------------------------------------------------------
 Center     Atomic                   Forces (Hartrees/Bohr)
 Number     Number              X              Y              Z
 -------------------------------------------------------------------
      1        8          -0.022534792    0.017544534    0.006791598
      2        8           0.020682708   -0.021294583   -0.007585277
      3        8           0.011537464    0.000244346   -0.003434578
      4        8          -0.013376040    0.008790956    0.009012990
      5        6          -0.009693580    0.014414417    0.001873824
      6        6           0.012831953    0.004303544   -0.002145911
      7        6          -0.003332957    0.014975108    0.002211941
      8        6           0.002626544   -0.002700160    0.006167684
      9        6           0.005392131    0.010448616   -0.008822726
     10        6           0.004798270   -0.015255597   -0.003291588
     11        6           0.010778016    0.003882249   -0.006512179
     12        6          -0.023824367   -0.027007496    0.004122226
     13        6           0.013330757   -0.009678474   -0.002032181
     14        6          -0.001064806    0.000170913   -0.002815275
     15        6           0.005650563   -0.005769588    0.002772921
     16        6          -0.012708294    0.005201185    0.000689722
     17        1          -0.000668282    0.000389843   -0.000191932
     18        1           0.002264547   -0.003104202    0.003472744
     19        1          -0.003227056    0.002193804    0.000643906
     20        1           0.001718353    0.001286216    0.002040895
     21        1           0.000800697    0.001414714   -0.002415666
     22        1          -0.004714136    0.001794968    0.001869543
     23        1           0.000428007    0.002628827   -0.002422722
     24        1          -0.003416642   -0.000851702    0.001863135
     25        1          -0.002083796    0.002466846    0.000932402
     26        1           0.001794794   -0.001105531    0.003529853
     27        1          -0.000233713   -0.002526309   -0.002310189
     28        1           0.002200896    0.000138628   -0.002896464
     29        1           0.002804361   -0.000493449    0.001623688
     30        1           0.001238398   -0.002502624   -0.002742384
 -------------------------------------------------------------------
 Cartesian Forces:  Max     0.027007496 RMS     0.008015763

 GradGradGradGradGradGradGradGradGradGradGradGradGradGradGradGradGradGrad
 Berny optimization.
 FormGI is forming the generalized inverse of G from B-inverse, IUseBI=4.
 Internal  Forces:  Max     0.027312802 RMS     0.005903246
 Search for a local minimum.
 Step number   1 out of a maximum of  153
 All quantities printed in internal units (Hartrees-Bohrs-Radians)
 Mixed Optimization -- RFO/linear search
 Second derivative matrix not updated -- first step.
 ITU=  0
     Eigenvalues ---    0.00690   0.00846   0.01307   0.01311   0.01315
     Eigenvalues ---    0.01588   0.01599   0.02062   0.02088   0.02195
     Eigenvalues ---    0.02230   0.02247   0.02254   0.02256   0.02275
     Eigenvalues ---    0.02334   0.02344   0.02911   0.02911   0.04825
     Eigenvalues ---    0.06466   0.06714   0.09643   0.10021   0.10141
     Eigenvalues ---    0.10166   0.10456   0.10488   0.12409   0.12627
     Eigenvalues ---    0.13396   0.15998   0.16000   0.16000   0.16000
     Eigenvalues ---    0.16000   0.16000   0.16000   0.16000   0.16000
     Eigenvalues ---    0.16000   0.21905   0.22001   0.23498   0.23745
     Eigenvalues ---    0.25000   0.25000   0.25000   0.25000   0.25000
     Eigenvalues ---    0.25000   0.25000   0.25000   0.31783   0.33019
     Eigenvalues ---    0.33890   0.33954   0.34122   0.34135   0.34198
     Eigenvalues ---    0.34291   0.34294   0.34364   0.34412   0.34432
     Eigenvalues ---    0.35039   0.35106   0.35464   0.35468   0.36061
     Eigenvalues ---    0.38521   0.41122   0.41206   0.41655   0.43241
     Eigenvalues ---    0.45535   0.46736   0.48092   0.48878   0.49752
     Eigenvalues ---    0.52359   0.53482   0.53782   0.57699
 RFO step:  Lambda=-1.97151447D-02 EMin= 6.90052494D-03
 Linear search not attempted -- first point.
 Iteration  1 RMS(Cart)=  0.10524503 RMS(Int)=  0.00225532
 Iteration  2 RMS(Cart)=  0.00493905 RMS(Int)=  0.00032452
 Iteration  3 RMS(Cart)=  0.00000886 RMS(Int)=  0.00032449
 Iteration  4 RMS(Cart)=  0.00000000 RMS(Int)=  0.00032449
 Variable       Old X    -DE/DX   Delta X   Delta X   Delta X     New X
                                 (Linear)    (Quad)   (Total)
    R1        2.57164   0.01170   0.00000   0.02122   0.02106   2.59270
    R2        2.72563  -0.00443   0.00000  -0.01020  -0.00984   2.71578
    R3        2.57175   0.01212   0.00000   0.02195   0.02180   2.59355
    R4        2.72545  -0.00586   0.00000  -0.01371  -0.01335   2.71210
    R5        2.56507   0.00223   0.00000   0.00403   0.00403   2.56909
    R6        2.69947  -0.00614   0.00000  -0.01422  -0.01422   2.68525
    R7        2.56230   0.00491   0.00000   0.00881   0.00881   2.57111
    R8        2.70056  -0.00922   0.00000  -0.02140  -0.02140   2.67917
    R9        2.64010   0.00182   0.00000   0.00351   0.00354   2.64364
   R10        2.65700  -0.00552   0.00000  -0.01269  -0.01261   2.64439
   R11        2.82318   0.00847   0.00000   0.02422   0.02422   2.84740
   R12        2.60064  -0.00279   0.00000  -0.00513  -0.00565   2.59499
   R13        2.60714   0.00813   0.00000   0.01642   0.01638   2.62352
   R14        2.60717   0.00563   0.00000   0.01130   0.01126   2.61843
   R15        2.63996   0.00353   0.00000   0.00681   0.00685   2.64680
   R16        2.05611   0.00026   0.00000   0.00072   0.00072   2.05683
   R17        2.84543  -0.00100   0.00000  -0.00296  -0.00296   2.84247
   R18        2.07408   0.00031   0.00000   0.00085   0.00085   2.07493
   R19        2.07516   0.00202   0.00000   0.00562   0.00562   2.08078
   R20        2.07103   0.00081   0.00000   0.00223   0.00223   2.07326
   R21        2.07125   0.00073   0.00000   0.00203   0.00203   2.07328
   R22        2.52809  -0.00874   0.00000  -0.01465  -0.01465   2.51344
   R23        2.05503   0.00401   0.00000   0.01081   0.01081   2.06584
   R24        2.06720   0.00005   0.00000   0.00015   0.00015   2.06734
   R25        2.06640   0.00243   0.00000   0.00667   0.00667   2.07306
   R26        2.06997   0.00197   0.00000   0.00545   0.00545   2.07542
   R27        2.06606  -0.00061   0.00000  -0.00167  -0.00167   2.06439
   R28        2.06842   0.00310   0.00000   0.00855   0.00855   2.07697
   R29        2.06836   0.00319   0.00000   0.00879   0.00879   2.07715
   R30        2.04928   0.00279   0.00000   0.00746   0.00746   2.05673
   R31        2.04922   0.00390   0.00000   0.01041   0.01041   2.05963
    A1        1.76290   0.02553   0.00000   0.10014   0.10051   1.86341
    A2        1.76295   0.02522   0.00000   0.09878   0.09917   1.86212
    A3        2.04549  -0.01260   0.00000  -0.04673  -0.04673   1.99876
    A4        2.04662  -0.01925   0.00000  -0.07138  -0.07138   1.97525
    A5        2.10483  -0.00225   0.00000  -0.01030  -0.01042   2.09441
    A6        2.10232  -0.00954   0.00000  -0.03441  -0.03460   2.06772
    A7        2.07603   0.01179   0.00000   0.04468   0.04442   2.12045
    A8        1.96048  -0.01215   0.00000  -0.04413  -0.04452   1.91596
    A9        2.19783   0.01101   0.00000   0.03859   0.03890   2.23673
   A10        2.12487   0.00114   0.00000   0.00554   0.00562   2.13049
   A11        1.96038  -0.01129   0.00000  -0.04078  -0.04118   1.91920
   A12        2.19769   0.01260   0.00000   0.04474   0.04504   2.24274
   A13        2.12511  -0.00131   0.00000  -0.00396  -0.00388   2.12123
   A14        2.12073  -0.00551   0.00000  -0.02069  -0.02066   2.10007
   A15        2.10906   0.00579   0.00000   0.02121   0.02123   2.13029
   A16        2.05339  -0.00027   0.00000  -0.00052  -0.00057   2.05282
   A17        2.12153  -0.00448   0.00000  -0.01639  -0.01638   2.10515
   A18        2.10837   0.00707   0.00000   0.02644   0.02644   2.13482
   A19        2.05328  -0.00258   0.00000  -0.01004  -0.01010   2.04318
   A20        2.10489   0.00528   0.00000   0.01928   0.01930   2.12419
   A21        2.09582  -0.00197   0.00000  -0.00592  -0.00599   2.08983
   A22        2.08247  -0.00331   0.00000  -0.01339  -0.01347   2.06901
   A23        1.97145  -0.00597   0.00000  -0.03188  -0.03244   1.93901
   A24        1.92334   0.00273   0.00000   0.00085  -0.00047   1.92288
   A25        1.91090  -0.00003   0.00000   0.00423   0.00447   1.91537
   A26        1.93838  -0.00261   0.00000  -0.03387  -0.03455   1.90384
   A27        1.88676   0.00473   0.00000   0.03491   0.03521   1.92197
   A28        1.82687   0.00185   0.00000   0.03200   0.03223   1.85911
   A29        1.97807  -0.02731   0.00000  -0.11401  -0.11400   1.86407
   A30        1.89652   0.00647   0.00000   0.01997   0.01890   1.91542
   A31        1.89664   0.00620   0.00000   0.01830   0.01722   1.91387
   A32        1.89681   0.00640   0.00000   0.01963   0.01851   1.91532
   A33        1.89658   0.00668   0.00000   0.02151   0.02037   1.91695
   A34        1.89789   0.00244   0.00000   0.04002   0.03894   1.93682
   A35        2.16703  -0.00077   0.00000  -0.00310  -0.00327   2.16376
   A36        2.04991  -0.00297   0.00000  -0.01688  -0.01706   2.03286
   A37        2.06603   0.00377   0.00000   0.02065   0.02047   2.08650
   A38        1.88386  -0.00398   0.00000  -0.02034  -0.02046   1.86340
   A39        1.92270   0.00190   0.00000   0.01119   0.01116   1.93386
   A40        1.94925  -0.00386   0.00000  -0.02405  -0.02419   1.92506
   A41        1.88852   0.00367   0.00000   0.02579   0.02579   1.91431
   A42        1.89028   0.00305   0.00000   0.01543   0.01518   1.90546
   A43        1.92741  -0.00058   0.00000  -0.00660  -0.00665   1.92076
   A44        1.88905  -0.00569   0.00000  -0.03137  -0.03139   1.85766
   A45        1.92818   0.00058   0.00000   0.00294   0.00293   1.93111
   A46        1.92728   0.00065   0.00000   0.00362   0.00361   1.93089
   A47        1.89783   0.00257   0.00000   0.01429   0.01427   1.91210
   A48        1.89795   0.00282   0.00000   0.01633   0.01632   1.91427
   A49        1.92272  -0.00094   0.00000  -0.00578  -0.00579   1.91693
   A50        2.10229   0.00243   0.00000   0.01353   0.01353   2.11583
   A51        2.12046  -0.00136   0.00000  -0.00757  -0.00757   2.11290
   A52        2.06042  -0.00107   0.00000  -0.00597  -0.00597   2.05445
    D1       -0.00010   0.00017   0.00000   0.00382   0.00391   0.00381
    D2       -3.14118   0.00021   0.00000   0.00446   0.00475  -3.13642
    D3        0.00023  -0.00005   0.00000  -0.00106  -0.00110  -0.00087
    D4       -2.11025   0.00507   0.00000   0.03429   0.03422  -2.07603
    D5        2.11050  -0.00501   0.00000  -0.03520  -0.03511   2.07539
    D6        0.00019   0.00019   0.00000   0.00438   0.00455   0.00474
    D7        3.14143  -0.00007   0.00000  -0.00123  -0.00111   3.14032
    D8       -0.00026  -0.00009   0.00000  -0.00198  -0.00207  -0.00233
    D9        2.11005  -0.00517   0.00000  -0.03716  -0.03716   2.07289
   D10       -2.11057   0.00514   0.00000   0.03397   0.03398  -2.07659
   D11        2.09438  -0.00052   0.00000  -0.01225  -0.01218   2.08220
   D12       -1.04703  -0.00066   0.00000  -0.01571  -0.01578  -1.06280
   D13       -2.67603   0.00052   0.00000  -0.01545  -0.01566  -2.69168
   D14        1.54859  -0.00262   0.00000  -0.04084  -0.04080   1.50779
   D15       -0.60004  -0.00053   0.00000  -0.02359  -0.02342  -0.62346
   D16       -1.57072   0.00161   0.00000   0.03789   0.03780  -1.53293
   D17        1.57046   0.00200   0.00000   0.04726   0.04736   1.61782
   D18        3.13990  -0.00001   0.00000   0.00249   0.00250  -3.14078
   D19        1.06382  -0.00000   0.00000   0.00251   0.00249   1.06631
   D20       -1.06758   0.00035   0.00000   0.00538   0.00538  -1.06220
   D21       -3.14135  -0.00022   0.00000  -0.00355  -0.00375   3.13808
   D22        0.00006  -0.00008   0.00000  -0.00020  -0.00031  -0.00025
   D23       -0.00073  -0.00153   0.00000  -0.04043  -0.03967  -0.04040
   D24        3.14068  -0.00139   0.00000  -0.03707  -0.03623   3.10445
   D25       -0.00012   0.00038   0.00000   0.00747   0.00750   0.00738
   D26        3.13914  -0.00031   0.00000  -0.00907  -0.00928   3.12986
   D27       -3.14076   0.00168   0.00000   0.04384   0.04458  -3.09618
   D28       -0.00150   0.00099   0.00000   0.02730   0.02780   0.02630
   D29       -1.56989   0.00423   0.00000   0.08417   0.08419  -1.48570
   D30        0.60946  -0.00154   0.00000   0.01654   0.01669   0.62615
   D31        2.60982   0.00219   0.00000   0.05789   0.05803   2.66784
   D32        1.57075   0.00293   0.00000   0.04787   0.04768   1.61843
   D33       -2.53309  -0.00284   0.00000  -0.01976  -0.01982  -2.55290
   D34       -0.53273   0.00089   0.00000   0.02159   0.02152  -0.51121
   D35       -0.00006  -0.00025   0.00000  -0.00566  -0.00542  -0.00548
   D36       -3.14131   0.00000   0.00000  -0.00032  -0.00023  -3.14155
   D37        3.14104  -0.00028   0.00000  -0.00626  -0.00619   3.13485
   D38       -0.00022  -0.00003   0.00000  -0.00092  -0.00100  -0.00122
   D39       -0.00064  -0.00000   0.00000  -0.00048  -0.00035  -0.00099
   D40        3.14113  -0.00014   0.00000  -0.00380  -0.00386   3.13728
   D41        3.14152   0.00004   0.00000   0.00024   0.00059  -3.14108
   D42        0.00011  -0.00009   0.00000  -0.00309  -0.00291  -0.00280
   D43        0.00014   0.00099   0.00000   0.02324   0.02319   0.02333
   D44       -3.14106   0.00061   0.00000   0.01415   0.01411  -3.12695
   D45        3.14135   0.00070   0.00000   0.01712   0.01694  -3.12490
   D46        0.00015   0.00032   0.00000   0.00803   0.00786   0.00801
   D47       -3.14118  -0.00086   0.00000  -0.02019  -0.02034   3.12166
   D48        0.00272  -0.00018   0.00000  -0.00378  -0.00376  -0.00104
   D49        0.00002  -0.00049   0.00000  -0.01118  -0.01110  -0.01108
   D50       -3.13926   0.00019   0.00000   0.00522   0.00548  -3.13378
   D51        2.13455  -0.00175   0.00000  -0.04912  -0.04840   2.08615
   D52       -1.02953  -0.00045   0.00000  -0.01330  -0.01286  -1.04239
   D53       -0.03660   0.00119   0.00000   0.00019  -0.00026  -0.03686
   D54        3.08251   0.00249   0.00000   0.03602   0.03528   3.11778
   D55       -2.03144  -0.00232   0.00000  -0.03996  -0.03980  -2.07124
   D56        1.08767  -0.00102   0.00000  -0.00413  -0.00426   1.08340
   D57        3.13083   0.00046   0.00000   0.01462   0.01483  -3.13753
   D58       -0.01333   0.00034   0.00000   0.01221   0.01242  -0.00091
   D59        0.01191  -0.00077   0.00000  -0.02106  -0.02127  -0.00936
   D60       -3.13225  -0.00089   0.00000  -0.02347  -0.02369   3.12725
         Item               Value     Threshold  Converged?
 Maximum Force            0.027313     0.000450     NO 
 RMS     Force            0.005903     0.000300     NO 
 Maximum Displacement     0.570212     0.001800     NO 
 RMS     Displacement     0.106211     0.001200     NO 
 Predicted change in Energy=-1.091105D-02
 GradGradGradGradGradGradGradGradGradGradGradGradGradGradGradGradGradGrad

                          Input orientation:                          
 ---------------------------------------------------------------------
 Center     Atomic      Atomic             Coordinates (Angstroms)
 Number     Number       Type             X           Y           Z
 ---------------------------------------------------------------------
      1          8           0       -0.994568   -2.328781   -0.089736
      2          8           0       -2.714131   -0.885036    0.435900
      3          8           0        1.743780   -1.429724   -0.757012
      4          8           0       -2.400840    2.030610    0.548763
      5          6           0        0.948680    0.802695   -0.425319
      6          6           0       -0.543873   -1.033657   -0.133356
      7          6           0       -1.567216   -0.174653    0.183801
      8          6           0        0.730971   -0.579111   -0.442478
      9          6           0       -1.378644    1.197754    0.213167
     10          6           0       -0.099763    1.672273   -0.104723
     11          6           0        2.336874    1.314748   -0.710099
     12          6           0       -2.384315   -2.272138    0.271841
     13          6           0        3.177744    1.321942    0.537063
     14          6           0        2.081787   -2.350118    0.271479
     15          6           0       -3.199837    2.408108   -0.559897
     16          6           0        4.303592    0.628015    0.678417
     17          1           0        0.077132    2.745987   -0.081936
     18          1           0        2.824000    0.686930   -1.467839
     19          1           0        2.279379    2.329345   -1.134026
     20          1           0       -2.543292   -2.805183    1.217496
     21          1           0       -2.992570   -2.706940   -0.531071
     22          1           0        2.813360    1.933117    1.366981
     23          1           0        3.128641   -2.626951    0.115671
     24          1           0        1.450581   -3.245623    0.215801
     25          1           0        1.976792   -1.876070    1.256588
     26          1           0       -3.977056    3.069341   -0.169889
     27          1           0       -3.665013    1.525380   -1.020754
     28          1           0       -2.597567    2.944829   -1.306491
     29          1           0        4.875764    0.663257    1.603585
     30          1           0        4.682308    0.000352   -0.128128
 ---------------------------------------------------------------------
                    Distance matrix (angstroms):
                    1          2          3          4          5
     1  O    0.000000
     2  O    2.305990   0.000000
     3  O    2.958397   4.646795   0.000000
     4  O    4.624886   2.934601   5.554893   0.000000
     5  C    3.700671   4.123871   2.392885   3.698093   0.000000
     6  C    1.371997   2.248591   2.403991   3.647375   2.384354
     7  C    2.245666   1.372448   3.663745   2.385647   2.766942
     8  C    2.482590   3.568454   1.359506   4.195407   1.398956
     9  C    3.560297   2.484180   4.194571   1.360572   2.445439
    10  C    4.099918   3.696893   3.666949   2.418761   1.399350
    11  C    4.975808   5.627168   2.808218   4.954102   1.506779
    12  C    1.437130   1.435182   4.336977   4.311682   4.587971
    13  C    5.579322   6.292469   3.361925   5.623428   2.482846
    14  C    3.097562   5.017403   1.420974   6.273883   3.421942
    15  C    5.246178   3.474524   6.261563   1.417755   4.450355
    16  C    6.115815   7.183075   3.584324   6.850801   3.536125
    17  H    5.186701   4.609081   4.546427   2.655163   2.157288
    18  H    5.057187   6.063513   2.480398   5.759436   2.148738
    19  H    5.788558   6.142642   3.815705   4.982516   2.145621
    20  H    2.081913   2.080155   4.916254   4.883891   5.282943
    21  H    2.080816   2.081321   4.910738   4.894953   5.278462
    22  H    5.897975   6.273919   4.118743   5.278908   2.822628
    23  H    4.139075   6.105309   2.027996   7.242624   4.099679
    24  H    2.629202   4.792248   2.080822   6.540867   4.129384
    25  H    3.293405   4.864200   2.075597   5.909893   3.325899
    26  H    6.167769   4.195123   7.301662   2.019871   5.428241
    27  H    4.780442   2.972561   6.169055   2.077685   4.707757
    28  H    5.644560   4.209201   6.187563   2.077610   4.235690
    29  H    6.802972   7.833722   4.445482   7.478721   4.422430
    30  H    6.136225   7.470566   3.327996   7.399399   3.830412
                    6          7          8          9         10
     6  C    0.000000
     7  C    1.373210   0.000000
     8  C    1.388306   2.416086   0.000000
     9  C    2.407512   1.385613   2.835065   0.000000
    10  C    2.742282   2.376510   2.423412   1.400628   0.000000
    11  C    3.761163   4.273089   2.497449   3.830299   2.536041
    12  C    2.255049   2.252742   3.616848   3.613166   4.573768
    13  C    4.455192   4.987908   3.249646   4.569573   3.358075
    14  C    2.964971   4.249183   2.338996   4.956347   4.591331
    15  C    4.368275   3.144709   4.938473   2.319338   3.218555
    16  C    5.188260   5.946032   3.934105   5.729648   4.592746
    17  H    3.830665   3.362236   3.407898   2.145552   1.088426
    18  H    4.010465   4.770012   2.652357   4.555100   3.373036
    19  H    4.503540   4.775245   3.366738   4.059133   2.674233
    20  H    2.993457   2.990140   4.293216   4.288191   5.269413
    21  H    2.992352   2.992516   4.289552   4.290138   5.265701
    22  H    4.724804   5.003205   3.731190   4.409643   3.274178
    23  H    4.010980   5.298064   3.202187   5.912148   5.380938
    24  H    2.998758   4.305691   2.839270   5.267648   5.166430
    25  H    2.999227   4.075008   2.474065   4.668627   4.330819
    26  H    5.350016   4.056590   5.962468   3.225107   4.121826
    27  H    4.132512   2.956656   4.907948   2.618660   3.683979
    28  H    4.628417   3.607459   4.923802   2.616754   3.050027
    29  H    5.938767   6.650554   4.786352   6.429353   5.356520
    30  H    5.327492   6.259751   4.005953   6.187520   5.065972
                   11         12         13         14         15
    11  C    0.000000
    12  C    6.009957   0.000000
    13  C    1.504170   6.627537   0.000000
    14  C    3.802606   4.466782   3.841312   0.000000
    15  C    5.645633   4.823025   6.561754   7.157336   0.000000
    16  C    2.503509   7.300978   1.330056   3.737819   7.810480
    17  H    2.747629   5.600487   3.467687   5.487606   3.328835
    18  H    1.098005   6.237716   2.132605   3.577676   6.330357
    19  H    1.101102   6.700757   2.148129   4.889975   5.509777
    20  H    6.671243   1.097121   7.087058   4.742719   5.546944
    21  H    6.678997   1.097130   7.446178   5.149807   5.119327
    22  H    2.218937   6.774904   1.093194   4.481230   6.332221
    23  H    4.104362   5.526568   3.971617   1.093991   8.115285
    24  H    4.737066   3.956923   4.893766   1.097019   7.361574
    25  H    3.765480   4.488413   3.491029   1.098264   6.960697
    26  H    6.575419   5.591364   7.398942   8.140941   1.092430
    27  H    6.013611   4.210954   7.020790   7.050891   1.099085
    28  H    5.230827   5.454663   6.275879   7.240359   1.099182
[...]
 0.00008292,-0.00003500,0.00002559,0.00006760,-0.00022450,-0.00003576,0
 .00005795,-0.00003792,0.00001763,0.00014424,0.00007008,-0.00009644,0.0
 0004904,-0.00007529,-0.00006750,-0.00000227,-0.00000166,-0.00002198,-0
 .00006037,0.00000728,-0.00002429,-0.00002469,0.00000166,-0.00002584,0.
 01223796,0.01225646,-0.00006484,0.13627114,0.16246216,-0.00090301,-0.0
 0022047,-0.00084653,-0.00001955,-0.00024777,-0.00003212,0.01782120,0.0
 2513085,-0.00680804,-0.00015374,0.00009607,0.00000742,-0.00057438,0.00
 056768,0.00017791,-0.00005967,0.00116203,0.00025623,0.00013202,-0.0000
 7496,-0.00011199,0.00361501,-0.00252325,0.00022918,0.00011249,-0.00008
 646,0.00000725,0.00008754,0.00019139,-0.00001852,0.00001027,-0.0000150
 3,-0.00025408,-0.00052576,-0.00018045,0.00033831,-0.00074313,0.0000527
 9,-0.00019885,-0.00974551,-0.01014159,-0.04922963,0.00006094,0.0000144
 0,-0.00001147,0.00008822,-0.00092921,0.00029308,-0.00007202,0.00004805
 ,-0.00002189,-0.00014669,-0.00006869,0.00012902,0.00000277,0.00007396,
 0.00013822,0.00012035,-0.00003165,-0.00010303,-0.00000496,0.00000456,-
 0.00001745,0.00004276,0.00005537,0.00004817,0.00461130,0.00270527,0.00
 069653,0.00691803,0.00016132,0.05328022,-0.00024003,0.00026255,0.00002
 307,-0.00001468,0.00002357,0.00001540,0.00127675,0.00162401,-0.0032871
 3,0.00018788,-0.00015265,0.00001048,0.00039628,0.00034145,-0.00002828,
 -0.00010419,-0.00068917,0.00045855,-0.00028165,0.00017136,0.00017547,0
 .00073237,-0.00144814,-0.00210668,-0.00022446,-0.00003106,-0.00004561,
 0.00019533,-0.00011008,0.00005463,-0.00002286,0.00008793,-0.00000486,0
 .00005290,0.00005934,-0.00020755,0.00023742,-0.00031121,0.00022599,-0.
 05183443,-0.00390212,-0.00538239,-0.00006927,-0.00001095,-0.00001125,-
 0.00050510,0.00003843,-0.00002382,0.00003336,-0.00002116,0.00001754,-0
 .00002986,-0.00002545,-0.00001023,-0.00004998,0.00000704,-0.00008352,-
 0.00003036,-0.00000078,0.00005584,-0.00000228,0.00000319,0.00003124,-0
 .00001738,0.00004847,-0.00002274,0.00261460,0.01391117,0.02343095,0.00
 128810,-0.01330282,-0.02081034,0.04667153,-0.00042659,0.00000241,0.000
 19532,-0.00000337,0.00002965,-0.00000101,0.00242642,0.00652014,0.02965
 516,-0.00009696,0.00005251,-0.00000983,-0.00052645,-0.00010860,-0.0003
 7137,0.00031643,-0.00034239,-0.00069162,0.00000032,0.00014405,-0.00002
 624,-0.00219731,0.00418363,0.00192659,0.00005623,-0.00002051,0.0001094
 4,0.00001964,0.00007530,-0.00011118,-0.00005930,0.00000891,0.00012446,
 0.00015935,0.00004565,-0.00021529,-0.00019564,-0.00047788,0.00025274,-
 0.00181432,-0.12593615,-0.12397718,0.00003880,0.00001540,-0.00002268,-
 0.00061771,-0.00077228,0.00019268,-0.00002603,0.00002329,0.00000154,0.
 00003944,0.00005879,-0.00001661,0.00000442,-0.00000745,-0.00001559,-0.
 00005580,0.00000025,0.00005838,-0.00000031,-0.00000845,0.00002760,0.00
 005083,0.00002874,-0.00004884,-0.00255060,-0.00648120,-0.01117729,0.00
 179550,-0.00835482,-0.01589781,0.00349072,0.13113514,-0.00017003,-0.00
 036924,-0.00008775,-0.00010684,-0.00001919,0.00004134,-0.00393055,0.00
 213995,-0.03071319,-0.00037335,0.00030195,0.00002282,-0.00053033,0.000
 75450,0.00015440,-0.00058683,0.00060563,0.00019846,-0.00000801,0.00005
 251,0.00006348,0.00455122,-0.00426864,0.00035351,0.00004388,-0.0002308
 9,-0.00002666,0.00013444,0.00001020,-0.00012815,0.00002756,-0.00006890
 ,-0.00021149,0.00020694,0.00005530,-0.00015618,-0.00082167,-0.00001892
 ,-0.00016324,-0.00644283,-0.11533705,-0.22651959,0.00014944,0.00004845
 ,-0.00004603,0.00025417,-0.00089378,0.00043134,-0.00004390,0.00005711,
 -0.00001128,-0.00007365,-0.00007385,0.00003534,0.00003778,0.00002925,0
 .00011915,-0.00004563,0.00001365,0.00006941,-0.00001661,-0.00000958,0.
 00001513,0.00006137,0.00006361,0.00003300,-0.00031039,-0.00205395,-0.0
 0092677,0.00038953,-0.00107701,0.00210404,0.00748651,0.12009239,0.2554
 5450,0.00035079,0.00019625,-0.00001822,0.00098044,-0.00059001,0.000194
 52,-0.00020017,0.00029542,-0.00001864,-0.03120700,0.02888204,0.0063510
 8,-0.00025165,-0.00023846,-0.00017763,0.00004216,-0.00024937,-0.000096
 20,-0.00137700,-0.00041049,-0.00011585,0.00011727,-0.00015628,0.000006
 21,-0.00283493,-0.00371612,0.00286019,-0.00065114,0.00135328,0.0001624
 7,-0.00002168,0.00011678,-0.00002358,-0.00010626,0.00012907,-0.0000509
 5,-0.00002590,-0.00001803,0.00007465,-0.00001601,-0.00011060,0.0000910
 3,-0.10742993,0.10849422,0.01245317,-0.00002559,0.00000172,-0.00002798
 ,-0.00000755,-0.00005804,0.00006684,-0.00003977,-0.00000262,-0.0000064
 4,0.00000840,-0.00001068,-0.00000277,0.00000488,-0.00002806,-0.0000096
 1,0.00001187,0.00000040,-0.00000014,0.00000795,0.00000285,-0.00000945,
 -0.00001345,0.00001885,-0.00000701,0.00000794,0.00000970,-0.00000861,0
 .00000796,-0.00000363,-0.00001569,0.13336019,0.00037593,-0.00015485,0.
 00000593,0.00087761,-0.00123423,0.00012544,0.00013119,-0.00011359,0.00
 002133,-0.00767191,0.01218665,0.00213426,-0.00000980,-0.00019611,-0.00
 005195,-0.00008904,0.00001421,-0.00003085,-0.00137848,-0.00016418,0.00
 000563,-0.00003469,0.00015128,0.00000719,-0.00277398,0.00106542,0.0006
 4083,-0.00031404,0.00038535,-0.00006998,-0.00002227,0.00000555,0.00003
 512,-0.00009800,0.00071391,-0.00026054,0.00001715,0.00001667,-0.000042
 13,-0.00001358,0.00003961,-0.00005332,0.12179936,-0.25823438,-0.026370
 21,0.00002030,0.00000377,0.00001240,0.00002784,-0.00001458,0.00003095,
 0.00000899,-0.00000195,-0.00000055,0.00000291,0.00000867,0.00000168,0.
 00002240,-0.00005954,0.00005163,0.00000591,-0.00005368,-0.00000279,-0.
 00000833,-0.00000421,0.00000388,0.00001645,-0.00000640,0.00000270,-0.0
 0001098,0.00000979,0.00000190,-0.00000532,0.00000276,0.00000802,-0.124
 70602,0.26852853,-0.00001583,-0.00003884,-0.00000841,-0.00023510,-0.00
 044130,0.00045474,0.00003708,-0.00004677,0.00000246,0.01118899,-0.0101
 2208,-0.00166096,0.00003036,0.00025241,-0.00002168,0.00016111,-0.00007
 761,0.00004385,0.00004326,0.00014338,-0.00008937,-0.00011775,-0.000092
 71,0.00003758,0.00061732,0.00139571,-0.00055359,0.00045485,-0.00045939
 ,0.00022546,0.00001284,-0.00003130,-0.00002236,0.00013866,0.00009337,-
 0.00002180,-0.00000979,-0.00000016,-0.00000372,0.00000044,0.00001939,-
 0.00001914,0.01088539,-0.02237679,-0.05373903,0.00000715,-0.00000233,0
 .00000140,-0.00000719,0.00001870,-0.00001696,0.00001837,0.00000089,0.0
 0000279,-0.00000536,0.00000110,0.00000216,0.00002282,-0.00005344,0.000
 04683,-0.00000656,0.00000420,0.00000349,-0.00000237,0.00000036,-0.0000
 0123,0.00000280,-0.00000219,0.00000262,-0.00000337,-0.00000255,0.00000
 117,0.00000143,0.00000007,0.00000265,-0.02035383,0.02677134,0.05068505
 ,-0.00004846,-0.00000840,-0.00000130,0.00012436,0.00102950,0.00098824,
 -0.00009533,0.00009951,0.00001801,-0.01087113,-0.01719029,0.03343494,0
 .00045402,-0.00076368,-0.00030363,-0.00081794,0.00030049,-0.00016699,0
 .00031997,0.00025364,-0.00101786,0.00051351,0.00056854,0.00002334,0.00
 572496,-0.00470579,0.00149615,-0.00153186,-0.00002921,-0.00024890,0.00
 000364,-0.00000819,0.00001255,0.00011202,-0.00013032,0.00018259,0.0000
 0645,0.00001237,0.00001654,0.00000132,-0.00003580,0.00003653,-0.053088
 59,0.01748649,-0.02917155,-0.00000458,0.00000128,-0.00000732,0.0001145
 3,0.00006579,0.00019239,-0.00000077,0.00000614,-0.00000230,0.00001261,
 0.00000248,-0.00000482,0.00000005,-0.00001566,-0.00002366,0.00000036,0
 .00002466,-0.00003507,0.00000406,-0.00000306,0.00000026,-0.00000595,0.
 00000491,-0.00000087,0.00000394,0.00000366,-0.00000270,0.00000202,-0.0
 0000113,-0.00000388,-0.00001053,0.00513029,-0.01408039,0.05840958,-0.0
 0007213,0.00015778,0.00006007,0.00008389,-0.00125115,-0.00107368,-0.00
 024234,0.00029867,-0.00002663,-0.00382353,-0.00219950,0.00673522,-0.00
 008212,0.00034881,-0.00000052,0.00027615,-0.00021378,0.00012818,-0.000
 34791,0.00056466,0.00031839,-0.00007609,-0.00030609,-0.00005165,0.0011
 1423,0.00020504,-0.00144185,0.00001652,0.00005576,-0.00009773,0.000016
 47,0.00001653,-0.00000403,-0.00004409,-0.00017944,-0.00011290,-0.00000
 614,-0.00000451,0.00007646,-0.00000169,-0.00010506,0.00011468,0.012268
 07,-0.10632611,0.10564905,-0.00002502,-0.00000274,-0.00002413,0.000022
 64,-0.00001447,0.00001188,-0.00002154,-0.00000009,-0.00000748,-0.00000
 155,-0.00001198,-0.00000102,0.00002285,0.00000589,0.00006246,0.0000066
 6,0.00001567,0.00001875,0.00000432,-0.00000226,-0.00001083,-0.00002099
 ,0.00001747,-0.00001043,0.00001284,-0.00000118,-0.00000543,0.00000623,
 -0.00000655,-0.00002346,0.00210068,-0.00983365,0.02330818,-0.00985473,
 0.10947775,-0.00057187,-0.00008630,-0.00000710,-0.00161496,0.00016778,
 0.00069434,0.00018006,-0.00030684,0.00001821,0.00884403,0.00330323,-0.
 00424445,-0.00023092,0.00007739,0.00005430,0.00011171,0.00029196,0.000
 05841,0.00241700,0.00022812,-0.00085574,-0.00005044,-0.00006399,0.0000
 7300,-0.00291307,0.00243327,0.00049305,0.00077925,-0.00040576,-0.00001
 312,-0.00000116,-0.00000709,-0.00003572,0.00041514,-0.00057200,0.00009
 129,-0.00002233,-0.00001312,-0.00002093,0.00003570,0.00011898,-0.00009
 420,-0.02339147,0.10358633,-0.24685694,0.00000654,-0.00000603,0.000007
 74,-0.00011956,-0.00002818,-0.00002232,0.00000202,-0.00000739,0.000004
 66,-0.00001362,-0.00000347,0.00000472,0.00004913,-0.00006125,0.0000224
 9,-0.00001871,0.00003013,-0.00000228,-0.00000065,0.00000517,0.00000108
 ,0.00000545,-0.00002123,0.00000966,-0.00000224,-0.00002057,0.00000613,
 -0.00000431,0.00000873,0.00001760,-0.00053630,-0.00320752,0.00565303,0
 .01980450,-0.11657270,0.26196947,0.00057340,0.00016187,-0.00003350,0.0
 0063747,0.00123394,-0.00007423,-0.00014248,0.00026067,-0.00008113,-0.0
 2413816,-0.01758057,-0.01271830,0.00021088,-0.00027753,0.00024340,-0.0
 0016402,-0.00031963,0.00025603,-0.00208814,0.00000536,-0.00016368,0.00
 017959,0.00013913,-0.00002099,0.00429051,-0.00535979,-0.00160902,-0.00
 128945,0.00075314,0.00036862,-0.00001380,0.00003720,-0.00001098,-0.000
 08819,0.00076865,-0.00009705,-0.00000005,-0.00000233,0.00003162,-0.000
 03762,-0.00008980,0.00006483,-0.09617784,-0.06063820,-0.07431812,-0.00
 001153,0.00000479,-0.00001289,0.00020971,0.00010322,-0.00018225,-0.000
 01689,0.00000869,-0.00000323,0.00002047,0.00000179,-0.00001480,0.00003
 389,-0.00011590,0.00003742,0.00001153,-0.00001274,-0.00001879,0.000005
 14,0.00000018,0.00000306,-0.00000863,0.00001903,-0.00000929,0.00000386
 ,0.00001547,-0.00000671,0.00000467,-0.00000269,-0.00000896,0.00931087,
 0.00870891,0.01121601,0.00066719,-0.00134069,-0.00316023,0.10801725,-0
 .00007089,0.00015298,0.00002493,0.00142819,-0.00368751,0.00024192,-0.0
 0025514,0.00028696,-0.00005674,-0.00478406,-0.00000139,0.00004716,0.00
 000742,0.00017937,0.00002681,-0.00008263,-0.00014106,-0.00001829,-0.00
 015179,0.00124012,-0.00015829,0.00006396,-0.00017171,0.00002809,0.0009
 8437,-0.00012033,0.00031222,-0.00012210,0.00002617,-0.00003401,0.00001
 306,0.00002327,-0.00001669,0.00025795,-0.00079248,0.00031514,-0.000009
 30,-0.00001929,0.00005438,-0.00000685,-0.00010958,0.00010080,-0.067234
 19,-0.14000086,-0.10613093,-0.00002574,-0.00000026,-0.00001540,0.00004
 952,-0.00001269,-0.00001414,-0.00002283,0.00000653,-0.00000354,0.00000
 140,-0.00001248,-0.00000844,-0.00002030,0.00005025,-0.00006758,-0.0000
 0145,0.00002707,-0.00000926,0.00001073,0.00000284,-0.00000264,-0.00001
 789,0.00001759,-0.00000809,0.00001808,0.00000231,-0.00000574,0.0000076
 3,-0.00000375,-0.00001754,-0.01131445,-0.01304998,-0.01826057,0.007754
 63,0.00928449,0.01113105,0.07351271,0.14681121,0.00061768,0.00000705,-
 0.00002102,0.00109816,-0.00214583,0.00056103,0.00000018,0.00006652,0.0
 0001802,0.01109483,0.01197414,0.01419149,0.00008348,0.00001655,-0.0001
 1843,0.00000602,-0.00024497,-0.00002746,-0.00176135,-0.00038482,-0.000
 67010,0.00001516,-0.00001838,0.00001996,-0.00036415,0.00089577,0.00074
 515,0.00021054,-0.00003197,-0.00020666,-0.00000569,-0.00000348,0.00000
 933,-0.00017311,0.00058540,-0.00014129,0.00001424,-0.00000262,-0.00003
 129,-0.00002241,-0.00003854,-0.00001183,-0.07930438,-0.10627690,-0.174
 84534,0.00000393,0.00000289,0.00001200,0.00001010,-0.00003339,0.000086
 27,0.00000679,0.00000152,0.00000215,0.00000353,0.00000544,0.00000032,0
 .00003865,-0.00013313,0.00006169,0.00000106,-0.00003129,0.00003468,0.0
 0000022,0.00000367,0.00000591,0.00000621,0.00000392,0.00000047,-0.0000
 0418,0.00001374,-0.00000366,0.00000367,0.00000327,0.00000152,-0.000772
 52,0.00022374,-0.00100773,-0.01113141,-0.01700937,-0.01703063,0.080327
 66,0.11255384,0.17836217,-0.00000857,-0.00007772,0.00001024,0.00001372
 ,-0.00002901,-0.00000144,0.00001501,-0.00054862,0.00002703,0.00000935,
 -0.00002968,-0.00000187,0.00119370,-0.00050653,0.00120384,-0.00010747,
 -0.00000836,-0.00001695,0.00004019,-0.00013011,0.00000825,-0.00002844,
 0.00020960,0.00013049,0.00011986,0.00010230,-0.00007836,-0.00006716,0.
 00008140,0.00010711,0.00448558,0.00912051,-0.00099113,-0.00002379,0.00
 001763,-0.00003015,-0.00426474,0.00197328,-0.02171897,0.00004562,0.000
 19356,-0.00045500,0.00000508,0.00000224,-0.00001156,-0.08491818,0.0231
 1976,-0.09847492,0.00004686,-0.00004827,0.00002000,0.00002770,-0.00018
 959,-0.00006431,-0.00129308,0.00023675,-0.00193706,-0.00000148,0.00000
 148,0.00001132,-0.00000103,-0.00000148,0.00000495,-0.00360255,-0.00394
 654,0.00125820,-0.00000340,-0.00006247,-0.00000207,0.00000649,0.000040
 26,0.00011490,-0.00017564,0.00003767,0.00006469,0.00000157,-0.00000197
 ,-0.00000044,-0.00000217,-0.00000087,0.00000488,-0.00000242,0.00000138
 ,0.00000040,0.08289478,0.00005453,0.00005476,0.00000363,0.00020624,0.0
 0019068,0.00001270,-0.00067996,-0.00016634,-0.00001420,0.00014292,-0.0
 0006189,-0.00003313,0.00071140,-0.00089865,0.00179892,-0.00018245,-0.0
 0003469,-0.00000670,-0.00006224,-0.00022395,-0.00003663,0.00044120,-0.
 00028441,0.00003807,0.00000768,0.00018470,-0.00018038,0.00020859,0.000
 21209,0.00001070,0.00754207,0.00419721,-0.00251701,-0.00001191,-0.0000
 9565,0.00002728,0.00920206,0.00112722,0.02181276,0.00018405,0.00028339
 ,-0.00036448,-0.00005355,-0.00001565,0.00002436,0.02184356,-0.05005296
 ,0.02573644,0.00002228,-0.00001411,0.00010526,-0.00012241,-0.00008746,
 -0.00004994,-0.00058770,0.00005879,-0.00062794,-0.00000697,0.00000619,
 -0.00001436,0.00000442,0.00000929,0.00000006,-0.00392236,-0.00327156,0
 .00095183,0.00003284,-0.00000417,-0.00010895,0.00001545,0.00000044,0.0
 0011411,-0.00014072,0.00009411,0.00009243,0.00001275,-0.00000909,0.000
 00005,0.00000063,0.00001170,0.00000079,0.00000363,0.00000964,-0.000004
 68,-0.02880701,0.04421170,-0.00006932,-0.00010161,0.00001133,-0.000121
 49,-0.00010706,0.00000489,-0.00018672,-0.00024184,0.00028214,-0.000134
 98,0.00005602,0.00002016,-0.00029923,0.00046740,-0.00042014,0.00001197
 ,0.00012314,-0.00001279,0.00005966,0.00007145,0.00001198,0.00005263,-0
 .00004290,0.00001784,0.00004712,-0.00007169,0.00003423,-0.00017374,-0.
 00012497,0.00000118,-0.00155181,-0.00123574,0.00180792,0.00004013,0.00
 006281,-0.00004414,0.00041462,-0.00244393,-0.00194514,0.00003335,0.000
 23051,-0.00043366,0.00005652,0.00001614,-0.00002246,-0.10184914,0.0296
 3829,-0.29327483,0.00000449,-0.00000621,-0.00001900,0.00013188,-0.0000
 6472,0.00063140,-0.00011215,0.00006290,0.00028402,-0.00000187,-0.00000
 067,0.00001805,-0.00000626,-0.00000652,0.00000080,0.00088411,0.0016049
 6,0.00065820,0.00000767,0.00001354,-0.00006980,-0.00002093,-0.00000728
 ,0.00006988,-0.00014053,-0.00002300,0.00001739,-0.00000875,0.00000605,
 0.00000163,-0.00000151,-0.00000815,0.00000346,-0.00000484,-0.00000819,
 0.00000162,0.11139823,-0.03237845,0.30524428,0.00012910,-0.00000917,-0
 .00000823,0.00004652,-0.00009163,0.00000384,0.00104860,-0.00009727,0.0
 0011140,0.00015278,-0.00014005,0.00000947,-0.00053564,0.00055300,-0.00
 062561,0.00026347,-0.00014561,-0.00011378,-0.00002826,0.00013920,0.000
 03938,-0.00108266,0.00083847,-0.00003335,-0.00016384,0.00003727,0.0000
 5663,-0.00000818,-0.00013501,-0.00007118,-0.00329630,-0.00462401,0.002
 52424,-0.00015067,0.00003177,0.00003175,-0.00342681,0.01501572,0.01708
 587,-0.00029882,-0.00036071,0.00024702,-0.00005831,-0.00000670,0.00001
 389,-0.07463269,0.06143264,0.06292733,0.00002216,-0.00002172,-0.000018
 92,-0.00019003,0.00022129,-0.00089587,0.00076959,-0.00042054,0.0004581
 8,0.00000508,-0.00000212,-0.00000872,0.00000962,0.00000156,0.00000098,
 0.00299683,0.00793137,-0.00249594,-0.00001169,-0.00030321,-0.00006415,
 0.00015307,0.00006363,0.00003900,-0.00009900,0.00014207,0.00008160,0.0
 0000624,-0.00000681,-0.00000091,0.00000274,0.00000990,-0.00000356,0.00
 000280,0.00000860,-0.00000329,0.00559460,-0.00605902,-0.00845913,0.072
 77970,0.00004503,-0.00001393,0.00000511,-0.00002363,-0.00007233,0.0000
 1507,-0.00003366,-0.00051600,0.00017747,0.00002915,-0.00003849,0.00001
 853,-0.00054902,0.00063556,-0.00052609,0.00013417,-0.00001591,-0.00009
 932,-0.00005071,0.00014833,0.00002118,-0.00029560,0.00020264,0.0000214
 2,-0.00017767,-0.00005144,0.00004064,-0.00012056,-0.00012039,0.0000520
 0,-0.00459966,-0.00337547,-0.00023426,-0.00006000,0.00003087,-0.000008
 83,0.00894314,-0.00851617,-0.01862624,-0.00040502,0.00030009,-0.000290
 66,-0.00002052,0.00000432,-0.00000592,0.06312731,-0.13999726,-0.119611
 57,-0.00000735,0.00001373,-0.00006410,0.00044735,0.00002261,0.00130926
 ,0.00043122,-0.00007670,0.00052429,-0.00000006,-0.00000198,0.00000270,
 0.00000250,0.00000006,0.00000169,0.00766986,0.00303124,-0.00007439,0.0
 0008314,-0.00027238,-0.00003045,0.00011291,-0.00003170,0.00004878,0.00
 006855,0.00009931,0.00013707,-0.00000116,-0.00000177,-0.00000109,0.000
 00125,-0.00000167,0.00000051,0.00000150,0.00000255,0.00000192,-0.00074
 959,0.00456867,0.00451975,-0.07400288,0.14404360,-0.00004296,0.0000705
 0,-0.00000536,0.00004265,0.00010474,0.00000413,-0.00066836,0.00018493,
 -0.00039535,-0.00001882,0.00002946,-0.00000198,-0.00007964,-0.00021242
 ,0.00016355,-0.00015816,-0.00004711,0.00004572,-0.00000867,-0.00010567
 ,-0.00001704,0.00040495,-0.00017851,-0.00011791,0.00006236,0.00005955,
 -0.00002058,-0.00001259,0.00003162,-0.00005045,0.00013848,0.00230985,0
 .00119233,0.00006517,-0.00005169,-0.00000644,-0.00318334,0.00328870,0.
 00607118,0.00018125,-0.00031348,0.00010084,0.00000101,0.00000072,0.000
 00048,0.06704072,-0.12328805,-0.20666838,-0.00000124,0.00000747,0.0000
 1625,0.00040111,-0.00013247,-0.00007969,-0.00018881,0.00006893,-0.0001
 9331,-0.00000313,0.00000146,-0.00000278,-0.00000048,0.00000222,0.00000
 057,-0.00268578,-0.00049537,0.00124691,0.00007019,0.00033317,0.0001790
 0,-0.00012457,0.00009308,-0.00012549,0.00017846,-0.00004282,-0.0001447
 4,-0.00000002,-0.00000017,-0.00000093,-0.00000186,-0.00000136,0.000000
 81,0.00000036,-0.00000026,0.00000167,0.00941969,-0.01439252,-0.0128804
 3,-0.07082795,0.13267554,0.21168742\\0.00000062,0.00000663,-0.00000050
 ,0.00000396,0.00001404,0.00000502,-0.00000097,0.00000048,0.00000011,-0
 .00000137,0.00000356,-0.00000494,0.00000498,-0.00001685,0.00000041,-0.
 00001512,0.00000163,-0.00000157,-0.00000354,-0.00001300,-0.00000457,0.
 00001024,0.00001794,0.00000179,0.00002009,0.00000347,-0.00000274,-0.00
 002010,0.00000218,0.00000563,0.00000391,-0.00000059,-0.00000281,-0.000
 00107,-0.00001033,0.00000010,-0.00000039,-0.00000376,-0.00000096,-0.00
 000006,-0.00000332,-0.00000145,-0.00000354,-0.00000769,0.00000254,-0.0
 0000196,0.00000140,-0.00000004,0.00000393,-0.00000091,0.00000026,-0.00
 000027,0.00000116,0.00000137,0.00000038,0.00000170,0.00000277,0.000000
 15,0.00000099,-0.00000211,-0.00000032,-0.00000067,-0.00000046,-0.00000
 146,0.00000130,-0.00000023,0.00000072,0.00000061,0.00000088,0.00000011
 ,0.00000086,-0.00000008,0.00000010,-0.00000055,0.00000076,-0.00000254,
 -0.00000057,0.00000092,0.00000055,0.00000128,0.00000115,0.00000241,-0.
 00000007,-0.00000153,0.00000010,-0.00000054,0.00000032,0.00000046,-0.0
 0000038,-0.00000003\\\@


 A COMPUTER IS LIKE A HORSE, IT WILL SENSE WEAKNESS.
     -- GREG WETTSTEIN
 Job cpu time:       0 days  9 hours 37 minutes 41.5 seconds.
 Elapsed time:       0 days  0 hours 36 minutes 56.7 seconds.
 File lengths (MBytes):  RWF=    543 Int=      0 D2E=      0 Chk=     18 Scr=      1
 Normal termination of Gaussian 16 at Thu Sep 18 01:17:31 2025.
