 Entering Gaussian System, Link 0=g16
 Input=AISE0083.gjf
 Output=AISE0083.log
 Initial command:
 /usr/local/g16/l1.exe "/dados_01/scratch/Gau-1895097.inp" -scrdir="/dados_01/scratch/"
 Entering Link 1 = /usr/local/g16/l1.exe PID=   1895098.
  
 Copyright (c) 1988-2017, Gaussian, Inc.  All Rights Reserved.
  
 This is part of the Gaussian(R) 16 program.  It is based on
 the Gaussian(R) 09 system (copyright 2009, Gaussian, Inc.),
 the Gaussian(R) 03 system (copyright 2003, Gaussian, Inc.),
 the Gaussian(R) 98 system (copyright 1998, Gaussian, Inc.),
 the Gaussian(R) 94 system (copyright 1995, Gaussian, Inc.),
 the Gaussian 92(TM) system (copyright 1992, Gaussian, Inc.),
 the Gaussian 90(TM) system (copyright 1990, Gaussian, Inc.),
 the Gaussian 88(TM) system (copyright 1988, Gaussian, Inc.),
 the Gaussian 86(TM) system (copyright 1986, Carnegie Mellon
 University), and the Gaussian 82(TM) system (copyright 1983,
 Carnegie Mellon University). Gaussian is a federally registered
 trademark of Gaussian, Inc.
  
 This software contains proprietary and confidential information,
 including trade secrets, belonging to Gaussian, Inc.
  
 This software is provided under written license and may be
 used, copied, transmitted, or stored only in accord with that
 written license.
  
 The following legend is applicable only to US Government
 contracts under FAR:
  
                    RESTRICTED RIGHTS LEGEND
  
 Use, reproduction and disclosure by the US Government is
 subject to restrictions as set forth in subparagraphs (a)
 and (c) of the Commercial Computer Software - Restricted
 Rights clause in FAR 52.227-19.
  
 Gaussian, Inc.
 340 Quinnipiac St., Bldg. 40, Wallingford CT 06492
  
  
 ---------------------------------------------------------------
 Warning -- This program may not be used in any manner that
 competes with the business of Gaussian, Inc. or will provide
 assistance to any competitor of Gaussian, Inc.  The licensee
 of this program is prohibited from giving any competitor of
 Gaussian, Inc. access to this program.  By using this program,
 the user acknowledges that Gaussian, Inc. is engaged in the
 business of creating and licensing software in the field of
 computational chemistry and represents and warrants to the
 licensee that it is not a competitor of Gaussian, Inc. and that
 it will not use this program in any manner prohibited above.
 ---------------------------------------------------------------
  

 Cite this work as:
 Gaussian 16, Revision B.01,
 M. J. Frisch, G. W. Trucks, H. B. Schlegel, G. E. Scuseria, 
 M. A. Robb, J. R. Cheeseman, G. Scalmani, V. Barone, 
 G. A. Petersson, H. Nakatsuji, X. Li, M. Caricato, A. V. Marenich, 
 J. Bloino, B. G. Janesko, R. Gomperts, B. Mennucci, H. P. Hratchian, 
 J. V. Ortiz, A. F. Izmaylov, J. L. Sonnenberg, D. Williams-Young, 
 F. Ding, F. Lipparini, F. Egidi, J. Goings, B. Peng, A. Petrone, 
 T. Henderson, D. Ranasinghe, V. G. Zakrzewski, J. Gao, N. Rega, 
 G. Zheng, W. Liang, M. Hada, M. Ehara, K. Toyota, R. Fukuda, 
 J. Hasegawa, M. Ishida, T. Nakajima, Y. Honda, O. Kitao, H. Nakai, 
 T. Vreven, K. Throssell, J. A. Montgomery, Jr., J. E. Peralta, 
 F. Ogliaro, M. J. Bearpark, J. J. Heyd, E. N. Brothers, K. N. Kudin, 
 V. N. Staroverov, T. A. Keith, R. Kobayashi, J. Normand, 
 K. Raghavachari, A. P. Rendell, J. C. Burant, S. S. Iyengar, 
 J. Tomasi, M. Cossi, J. M. Millam, M. Klene, C. Adamo, R. Cammi, 
 J. W. Ochterski, R. L. Martin, K. Morokuma, O. Farkas, 
 J. B. Foresman, and D. J. Fox, Gaussian, Inc., Wallingford CT, 2016.
 
 ******************************************
 Gaussian 16:  ES64L-G16RevB.01 20-Dec-2017
                18-Sep-2025 
 ******************************************
 %nprocs=16
 Will use up to   16 processors via shared memory.
 %mem=40GB
 %chk=AISE0083.chk
 ----------------------------------------------------------------------
 # opt freq=noraman M08HX/6-311++G** scf=xqc Empiricaldispersion=pfd In
 t(Grid=ultraFine)
 ----------------------------------------------------------------------
 1/18=20,19=15,26=4,38=1/1,3;
 2/9=110,12=2,17=6,18=5,40=1/2;
 3/5=4,6=6,7=1111,11=2,25=1,30=1,71=1,74=-74,75=-5,124=11/1,2,3;
 4//1;
 5/5=2,8=3,13=1,38=5/2,8;
 6/7=2,8=2,9=2,10=2,28=1/1;
 7//1,2,3,16;
 1/18=20,19=15,26=4/3(2);
 2/9=110/2;
 99//99;
 2/9=110/2;
 3/5=4,6=6,7=1111,11=2,25=1,30=1,71=1,74=-74,75=-5,124=11/1,2,3;
 4/5=5,16=3,69=1/1;
 5/5=2,8=3,13=1,38=5/2,8;
 7//1,2,3,16;
 1/18=20,19=15,26=4/3(-5);
 2/9=110/2;
 6/7=2,8=2,9=2,10=2,19=2,28=1/1;
 99/9=1/99;
 --------
 AISE0083
 --------
 Symbolic Z-matrix:
 Charge =  0 Multiplicity = 1
 O                     1.8925   -0.6211    0. 
 C                     0.5699   -0.3011   -0.0003 
 C                     0.1759    1.037    -0.0002 
 C                    -0.3918   -1.3114   -0.0001 
 C                    -1.1799    1.3647    0. 
 C                    -1.7476   -0.9836    0.0001 
 C                    -2.1417    0.3545    0.0002 
 C                     2.8227    0.461     0.0003 
 H                     0.8695    1.8709   -0.0003 
 H                    -0.091    -2.3555    0. 
 H                    -1.4879    2.4064    0.0001 
 H                    -2.4966   -1.7702    0.0003 
 H                    -3.1974    0.6096    0.0003 
 H                     2.7368    1.0652    0.9098 
 H                     2.7373    1.0653   -0.9092 
 H                     3.8267    0.0241    0.0005 
 

 GradGradGradGradGradGradGradGradGradGradGradGradGradGradGradGradGradGrad
 Berny optimization.
 Initialization pass.
                           ----------------------------
                           !    Initial Parameters    !
                           ! (Angstroms and Degrees)  !
 --------------------------                            --------------------------
 ! Name  Definition              Value          Derivative Info.                !
 --------------------------------------------------------------------------------
 ! R1    R(1,2)                  1.3608         estimate D2E/DX2                !
 ! R2    R(1,8)                  1.427          estimate D2E/DX2                !
 ! R3    R(2,3)                  1.3949         estimate D2E/DX2                !
 ! R4    R(2,4)                  1.3948         estimate D2E/DX2                !
 ! R5    R(3,5)                  1.3948         estimate D2E/DX2                !
 ! R6    R(3,9)                  1.0847         estimate D2E/DX2                !
 ! R7    R(4,6)                  1.3949         estimate D2E/DX2                !
 ! R8    R(4,10)                 1.0866         estimate D2E/DX2                !
 ! R9    R(5,7)                  1.3948         estimate D2E/DX2                !
 ! R10   R(5,11)                 1.0863         estimate D2E/DX2                !
 ! R11   R(6,7)                  1.3949         estimate D2E/DX2                !
 ! R12   R(6,12)                 1.0862         estimate D2E/DX2                !
 ! R13   R(7,13)                 1.0861         estimate D2E/DX2                !
 ! R14   R(8,14)                 1.0953         estimate D2E/DX2                !
 ! R15   R(8,15)                 1.0953         estimate D2E/DX2                !
 ! R16   R(8,16)                 1.0949         estimate D2E/DX2                !
 ! A1    A(2,1,8)              117.082          estimate D2E/DX2                !
 ! A2    A(1,2,3)              120.0081         estimate D2E/DX2                !
 ! A3    A(1,2,4)              119.987          estimate D2E/DX2                !
 ! A4    A(3,2,4)              120.0048         estimate D2E/DX2                !
 ! A5    A(2,3,5)              119.9948         estimate D2E/DX2                !
 ! A6    A(2,3,9)              123.8409         estimate D2E/DX2                !
 ! A7    A(5,3,9)              116.1642         estimate D2E/DX2                !
 ! A8    A(2,4,6)              119.9963         estimate D2E/DX2                !
 ! A9    A(2,4,10)             120.3403         estimate D2E/DX2                !
 ! A10   A(6,4,10)             119.6633         estimate D2E/DX2                !
 ! A11   A(3,5,7)              120.0061         estimate D2E/DX2                !
 ! A12   A(3,5,11)             120.0593         estimate D2E/DX2                !
 ! A13   A(7,5,11)             119.9346         estimate D2E/DX2                !
 ! A14   A(4,6,7)              120.0028         estimate D2E/DX2                !
 ! A15   A(4,6,12)             120.0054         estimate D2E/DX2                !
 ! A16   A(7,6,12)             119.9918         estimate D2E/DX2                !
 ! A17   A(5,7,6)              119.9951         estimate D2E/DX2                !
 ! A18   A(5,7,13)             120.0095         estimate D2E/DX2                !
 ! A19   A(6,7,13)             119.9954         estimate D2E/DX2                !
 ! A20   A(1,8,14)             111.5538         estimate D2E/DX2                !
 ! A21   A(1,8,15)             111.5545         estimate D2E/DX2                !
 ! A22   A(1,8,16)             107.1665         estimate D2E/DX2                !
 ! A23   A(14,8,15)            112.2754         estimate D2E/DX2                !
 ! A24   A(14,8,16)            106.9703         estimate D2E/DX2                !
 ! A25   A(15,8,16)            106.9654         estimate D2E/DX2                !
 ! D1    D(8,1,2,3)             -0.005          estimate D2E/DX2                !
 ! D2    D(8,1,2,4)           -179.9762         estimate D2E/DX2                !
 ! D3    D(2,1,8,14)            63.2269         estimate D2E/DX2                !
 ! D4    D(2,1,8,15)           -63.2309         estimate D2E/DX2                !
 ! D5    D(2,1,8,16)          -179.9992         estimate D2E/DX2                !
 ! D6    D(1,2,3,5)           -179.9759         estimate D2E/DX2                !
 ! D7    D(1,2,3,9)              0.0261         estimate D2E/DX2                !
 ! D8    D(4,2,3,5)             -0.0047         estimate D2E/DX2                !
 ! D9    D(4,2,3,9)            179.9973         estimate D2E/DX2                !
 ! D10   D(1,2,4,6)            179.9759         estimate D2E/DX2                !
 ! D11   D(1,2,4,10)            -0.018          estimate D2E/DX2                !
 ! D12   D(3,2,4,6)              0.0047         estimate D2E/DX2                !
 ! D13   D(3,2,4,10)          -179.9892         estimate D2E/DX2                !
 ! D14   D(2,3,5,7)              0.0047         estimate D2E/DX2                !
 ! D15   D(2,3,5,11)           179.9987         estimate D2E/DX2                !
 ! D16   D(9,3,5,7)           -179.9971         estimate D2E/DX2                !
 ! D17   D(9,3,5,11)            -0.0032         estimate D2E/DX2                !
 ! D18   D(2,4,6,7)             -0.0047         estimate D2E/DX2                !
 ! D19   D(2,4,6,12)          -179.9973         estimate D2E/DX2                !
 ! D20   D(10,4,6,7)           179.9893         estimate D2E/DX2                !
 ! D21   D(10,4,6,12)           -0.0033         estimate D2E/DX2                !
 ! D22   D(3,5,7,6)             -0.0047         estimate D2E/DX2                !
 ! D23   D(3,5,7,13)          -179.9966         estimate D2E/DX2                !
 ! D24   D(11,5,7,6)          -179.9987         estimate D2E/DX2                !
 ! D25   D(11,5,7,13)            0.0095         estimate D2E/DX2                !
 ! D26   D(4,6,7,5)              0.0047         estimate D2E/DX2                !
 ! D27   D(4,6,7,13)           179.9966         estimate D2E/DX2                !
 ! D28   D(12,6,7,5)           179.9973         estimate D2E/DX2                !
 ! D29   D(12,6,7,13)           -0.0108         estimate D2E/DX2                !
 --------------------------------------------------------------------------------
 Trust Radius=3.00D-01 FncErr=1.00D-07 GrdErr=1.00D-06 EigMax=2.50D+02 EigMin=1.00D-04
 Number of steps in this run=     80 maximum allowed number of steps=    100.
 GradGradGradGradGradGradGradGradGradGradGradGradGradGradGradGradGradGrad

                          Input orientation:                          
 ---------------------------------------------------------------------
 Center     Atomic      Atomic             Coordinates (Angstroms)
 Number     Number       Type             X           Y           Z
 ---------------------------------------------------------------------
      1          8           0        1.892500   -0.621100    0.000000
      2          6           0        0.569900   -0.301100   -0.000300
      3          6           0        0.175900    1.037000   -0.000200
      4          6           0       -0.391800   -1.311400   -0.000100
      5          6           0       -1.179900    1.364700    0.000000
      6          6           0       -1.747600   -0.983600    0.000100
      7          6           0       -2.141700    0.354500    0.000200
      8          6           0        2.822700    0.461000    0.000300
      9          1           0        0.869500    1.870900   -0.000300
     10          1           0       -0.091000   -2.355500    0.000000
     11          1           0       -1.487900    2.406400    0.000100
     12          1           0       -2.496600   -1.770200    0.000300
     13          1           0       -3.197400    0.609600    0.000300
     14          1           0        2.736800    1.065200    0.909800
     15          1           0        2.737300    1.065300   -0.909200
     16          1           0        3.826700    0.024100    0.000500
 ---------------------------------------------------------------------
                    Distance matrix (angstroms):
                    1          2          3          4          5
     1  O    0.000000
     2  C    1.360761   0.000000
     3  C    2.386632   1.394901   0.000000
     4  C    2.386324   1.394838   2.416043   0.000000
     5  C    3.658284   2.415924   1.394841   2.789733   0.000000
     6  C    3.658105   2.415908   2.789745   1.394864   2.415946
     7  C    4.150490   2.789729   2.416004   2.416066   1.394835
     8  C    1.426959   2.378215   2.708750   3.670751   4.103350
     9  H    2.693806   2.192566   1.084652   3.423143   2.110990
    10  H    2.634846   2.158089   3.402983   1.086566   3.876286
    11  H    4.537936   3.400750   2.154875   3.876012   1.086279
    12  H    4.537029   3.400247   3.875904   2.154224   3.400191
    13  H    5.236574   3.875813   3.400268   3.400240   2.154178
    14  H    2.093845   2.718550   2.717923   4.032900   4.032118
    15  H    2.093866   2.718597   2.718060   4.033167   4.032461
    16  H    2.038973   3.272996   3.788708   4.424851   5.182977
                    6          7          8          9         10
     6  C    0.000000
     7  C    1.394929   0.000000
     8  C    4.793173   4.965542   0.000000
     9  H    3.872645   3.371468   2.408902   0.000000
    10  H    2.150914   3.398451   4.052446   4.334169   0.000000
    11  H    3.399933   2.153543   4.729255   2.417456   4.962562
    12  H    1.086159   2.154137   5.768293   4.958653   2.475780
    13  H    2.154114   1.086084   6.021934   4.257999   4.294361
    14  H    5.013480   5.013205   1.095275   2.228058   4.530494
    15  H    5.013895   5.013670   1.095291   2.227951   4.530761
    16  H    5.664652   5.977538   1.094942   3.486503   4.583762
                   11         12         13         14         15
    11  H    0.000000
    12  H    4.296680   0.000000
    13  H    2.480097   2.480840   0.000000
    14  H    4.524871   6.021226   6.020755   0.000000
    15  H    4.525228   6.021707   6.021255   1.819000   0.000000
    16  H    5.824116   6.572947   7.048460   1.760283   1.760240
                   16
    16  H    0.000000
 Stoichiometry    C7H8O
 Framework group  C1[X(C7H8O)]
 Deg. of freedom    42
 Full point group                 C1      NOp   1
 Largest Abelian subgroup         C1      NOp   1
 Largest concise Abelian subgroup C1      NOp   1
                         Standard orientation:                         
 ---------------------------------------------------------------------
 Center     Atomic      Atomic             Coordinates (Angstroms)
 Number     Number       Type             X           Y           Z
 ---------------------------------------------------------------------
      1          8           0        1.754425   -0.709353   -0.000026
      2          6           0        0.443333   -0.345059   -0.000326
      3          6           0        0.094553    1.005534   -0.000226
      4          6           0       -0.551797   -1.322448   -0.000126
      5          6           0       -1.249460    1.378641   -0.000026
      6          6           0       -1.895807   -0.949241    0.000074
      7          6           0       -2.244687    0.401355    0.000174
      8          6           0        2.720487    0.340854    0.000274
      9          1           0        0.815803    1.815638   -0.000326
     10          1           0       -0.286277   -2.376072   -0.000026
     11          1           0       -1.522256    2.430109    0.000074
     12          1           0       -2.670834   -1.710209    0.000274
     13          1           0       -3.291211    0.691811    0.000274
     14          1           0        2.654953    0.947601    0.909774
     15          1           0        2.655456    0.947684   -0.909226
     16          1           0        3.709227   -0.129561    0.000474
 ---------------------------------------------------------------------
 Rotational constants (GHZ):           4.9918788           1.5916418           1.2165315
 Standard basis: 6-311++G(d,p) (5D, 7F)
 There are   240 symmetry adapted cartesian basis functions of A   symmetry.
 There are   232 symmetry adapted basis functions of A   symmetry.
   232 basis functions,   360 primitive gaussians,   240 cartesian basis functions
    29 alpha electrons       29 beta electrons
       nuclear repulsion energy       346.3574294174 Hartrees.
 NAtoms=   16 NActive=   16 NUniq=   16 SFac= 1.00D+00 NAtFMM=   60 NAOKFM=F Big=F
 Integral buffers will be    131072 words long.
 Raffenetti 2 integral format.
 Two-electron integral symmetry is turned on.
 R6APFD:  NTU= -4 IXU= 1 FactS= 1.050
 Nuclear repulsion after empirical dispersion term =      346.3509537180 Hartrees.
 One-electron integrals computed using PRISM.
 NBasis=   232 RedAO= T EigKep=  6.54D-06  NBF=   232
 NBsUse=   231 1.00D-06 EigRej=  8.62D-07 NBFU=   231
 ExpMin= 3.60D-02 ExpMax= 8.59D+03 ExpMxC= 1.30D+03 IAcc=3 IRadAn=         5 AccDes= 0.00D+00
 Harris functional with IExCor= 1009 and IRadAn=       5 diagonalized for initial guess.
 HarFok:  IExCor= 1009 AccDes= 0.00D+00 IRadAn=         5 IDoV= 1 UseB2=F ITyADJ=14
 ICtDFT=  3500011 ScaDFX=  1.000000  1.000000  1.000000  1.000000
 FoFCou: FMM=F IPFlag=           0 FMFlag=      100000 FMFlg1=           0
         NFxFlg=           0 DoJE=T BraDBF=F KetDBF=T FulRan=T
         wScrn=  0.000000 ICntrl=       500 IOpCl=  0 I1Cent=   200000004 NGrid=           0
         NMat0=    1 NMatS0=      1 NMatT0=    0 NMatD0=    1 NMtDS0=    0 NMtDT0=    0
 Petite list used in FoFCou.
 Requested convergence on RMS density matrix=1.00D-08 within  32 cycles.
 Requested convergence on MAX density matrix=1.00D-06.
 Requested convergence on             energy=1.00D-06.
 No special actions if energy rises.
 SCF Done:  E(RM08HX) =  -346.759523231     A.U. after   13 cycles
            NFock= 13  Conv=0.59D-08     -V/T= 2.0049
 QCSCF skips out because SCF is already converged.

 **********************************************************************

            Population analysis using the SCF Density.

 **********************************************************************

 Orbital symmetries:
       Occupied  (A) (A) (A) (A) (A) (A) (A) (A) (A) (A) (A) (A)
                 (A) (A) (A) (A) (A) (A) (A) (A) (A) (A) (A) (A)
                 (A) (A) (A) (A) (A)
       Virtual   (A) (A) (A) (A) (A) (A) (A) (A) (A) (A) (A) (A)
                 (A) (A) (A) (A) (A) (A) (A) (A) (A) (A) (A) (A)
                 (A) (A) (A) (A) (A) (A) (A) (A) (A) (A) (A) (A)
                 (A) (A) (A) (A) (A) (A) (A) (A) (A) (A) (A) (A)
                 (A) (A) (A) (A) (A) (A) (A) (A) (A) (A) (A) (A)
                 (A) (A) (A) (A) (A) (A) (A) (A) (A) (A) (A) (A)
                 (A) (A) (A) (A) (A) (A) (A) (A) (A) (A) (A) (A)
                 (A) (A) (A) (A) (A) (A) (A) (A) (A) (A) (A) (A)
                 (A) (A) (A) (A) (A) (A) (A) (A) (A) (A) (A) (A)
                 (A) (A) (A) (A) (A) (A) (A) (A) (A) (A) (A) (A)
                 (A) (A) (A) (A) (A) (A) (A) (A) (A) (A) (A) (A)
                 (A) (A) (A) (A) (A) (A) (A) (A) (A) (A) (A) (A)
                 (A) (A) (A) (A) (A) (A) (A) (A) (A) (A) (A) (A)
                 (A) (A) (A) (A) (A) (A) (A) (A) (A) (A) (A) (A)
                 (A) (A) (A) (A) (A) (A) (A) (A) (A) (A) (A) (A)
                 (A) (A) (A) (A) (A) (A) (A) (A) (A) (A) (A) (A)
                 (A) (A) (A) (A) (A) (A) (A) (A) (A) (A)
 The electronic state is 1-A.
 Alpha  occ. eigenvalues --  -19.64365 -10.59959 -10.58536 -10.53899 -10.53853
 Alpha  occ. eigenvalues --  -10.53408 -10.53395 -10.52913  -1.19150  -0.96693
 Alpha  occ. eigenvalues --   -0.86268  -0.85215  -0.79636  -0.70253  -0.68042
 Alpha  occ. eigenvalues --   -0.62076  -0.56457  -0.55772  -0.55555  -0.52225
 Alpha  occ. eigenvalues --   -0.49875  -0.48031  -0.45643  -0.43654  -0.42383
 Alpha  occ. eigenvalues --   -0.39802  -0.39572  -0.31427  -0.28267
 Alpha virt. eigenvalues --   -0.02792  -0.01495  -0.00879   0.00498   0.00731
 Alpha virt. eigenvalues --    0.00737   0.00999   0.02324   0.02576   0.03975
 Alpha virt. eigenvalues --    0.04684   0.04930   0.05664   0.06995   0.08767
 Alpha virt. eigenvalues --    0.09000   0.09193   0.10104   0.10866   0.11619
 Alpha virt. eigenvalues --    0.11849   0.12460   0.12518   0.12700   0.12901
 Alpha virt. eigenvalues --    0.13518   0.13754   0.15179   0.15197   0.15962
 Alpha virt. eigenvalues --    0.16481   0.17477   0.18279   0.18851   0.20276
 Alpha virt. eigenvalues --    0.20639   0.21555   0.22344   0.22892   0.23872
 Alpha virt. eigenvalues --    0.24457   0.27315   0.27925   0.29081   0.30292
 Alpha virt. eigenvalues --    0.30607   0.31453   0.32001   0.33457   0.34120
 Alpha virt. eigenvalues --    0.36050   0.37594   0.38610   0.40111   0.42226
 Alpha virt. eigenvalues --    0.43108   0.46026   0.49127   0.52457   0.55995
 Alpha virt. eigenvalues --    0.56877   0.57041   0.57448   0.58920   0.60313
 Alpha virt. eigenvalues --    0.61584   0.62545   0.63428   0.65254   0.65902
 Alpha virt. eigenvalues --    0.66209   0.67043   0.68827   0.69706   0.72074
 Alpha virt. eigenvalues --    0.73563   0.74661   0.76860   0.78242   0.80530
 Alpha virt. eigenvalues --    0.81700   0.83093   0.86682   0.87567   0.87674
 Alpha virt. eigenvalues --    0.90158   0.92623   0.92771   0.94355   0.97678
 Alpha virt. eigenvalues --    1.02254   1.02842   1.02939   1.04449   1.05256
 Alpha virt. eigenvalues --    1.07786   1.12152   1.12368   1.14332   1.18202
 Alpha virt. eigenvalues --    1.19950   1.28845   1.32326   1.33740   1.37977
 Alpha virt. eigenvalues --    1.43534   1.46473   1.50693   1.54723   1.55452
 Alpha virt. eigenvalues --    1.56448   1.59385   1.60129   1.61440   1.61644
 Alpha virt. eigenvalues --    1.63692   1.67338   1.67956   1.72370   1.72625
 Alpha virt. eigenvalues --    1.73078   1.77249   1.77454   1.80758   1.81049
 Alpha virt. eigenvalues --    1.84152   1.87461   1.93310   1.96838   1.97943
 Alpha virt. eigenvalues --    1.98193   1.98209   1.99874   2.03048   2.06737
 Alpha virt. eigenvalues --    2.08166   2.09685   2.11452   2.13266   2.15779
 Alpha virt. eigenvalues --    2.20451   2.31630   2.32681   2.38831   2.43048
 Alpha virt. eigenvalues --    2.45229   2.46267   2.46415   2.47476   2.52891
 Alpha virt. eigenvalues --    2.53499   2.60324   2.63571   2.65088   2.67839
 Alpha virt. eigenvalues --    2.70593   2.71113   2.72334   2.72717   2.73708
 Alpha virt. eigenvalues --    2.77105   2.84998   2.85675   2.87427   2.87827
 Alpha virt. eigenvalues --    2.93201   2.96275   2.96442   2.97980   3.11653
 Alpha virt. eigenvalues --    3.14285   3.16769   3.18982   3.25351   3.31387
 Alpha virt. eigenvalues --    3.39504   3.44930   3.46769   3.54391   3.56110
 Alpha virt. eigenvalues --    3.64782   3.71158   3.82316   3.83677   4.03462
 Alpha virt. eigenvalues --    4.08334   4.14253   4.19933   4.21960   4.30448
 Alpha virt. eigenvalues --    4.92450   5.15939   5.51399   5.88030  23.66787
 Alpha virt. eigenvalues --   23.97629  24.00221  24.03232  24.13456  24.15291
 Alpha virt. eigenvalues --   24.24595  49.98176
          Condensed to atoms (all electrons):
               1          2          3          4          5          6
     1  O    8.183587   0.141644   0.400322  -0.722301   0.069097  -0.025744
     2  C    0.141644  11.656054  -1.425252  -0.960947  -3.047064  -0.342234
     3  C    0.400322  -1.425252  13.059029  -6.156774  -1.819293   0.644211
     4  C   -0.722301  -0.960947  -6.156774  13.179489   2.513614   0.018472
     5  C    0.069097  -3.047064  -1.819293   2.513614   9.418380  -0.634645
     6  C   -0.025744  -0.342234   0.644211   0.018472  -0.634645   5.736612
     7  C    0.022701   0.202093   0.275811  -1.400716   0.203664   0.405623
     8  C    0.148315   0.412587  -0.144662  -0.151723  -0.569704   0.061380
     9  H   -0.008340  -0.173713   0.706133  -0.172396  -0.128981   0.040469
    10  H   -0.018608  -0.117196  -0.146512   0.569965   0.054031  -0.024711
    11  H   -0.002602   0.061449  -0.077310   0.093726   0.341473  -0.017643
    12  H   -0.000503   0.040927   0.078311  -0.139559  -0.037118   0.388943
    13  H   -0.000196   0.038665   0.019570  -0.044824  -0.068048  -0.047111
    14  H   -0.037392  -0.036975   0.028653  -0.013318   0.005476  -0.003270
    15  H   -0.037361  -0.037251   0.029011  -0.013530   0.005477  -0.003278
    16  H   -0.065395   0.090114  -0.054803   0.030125  -0.040219   0.006409
               7          8          9         10         11         12
     1  O    0.022701   0.148315  -0.008340  -0.018608  -0.002602  -0.000503
     2  C    0.202093   0.412587  -0.173713  -0.117196   0.061449   0.040927
     3  C    0.275811  -0.144662   0.706133  -0.146512  -0.077310   0.078311
     4  C   -1.400716  -0.151723  -0.172396   0.569965   0.093726  -0.139559
     5  C    0.203664  -0.569704  -0.128981   0.054031   0.341473  -0.037118
     6  C    0.405623   0.061380   0.040469  -0.024711  -0.017643   0.388943
     7  C    6.346628  -0.011133   0.044757  -0.008825  -0.099673  -0.028145
     8  C   -0.011133   5.649920  -0.000502  -0.004252   0.001571  -0.000317
     9  H    0.044757  -0.000502   0.494653  -0.003753  -0.015402   0.002021
    10  H   -0.008825  -0.004252  -0.003753   0.418267   0.002121  -0.007554
    11  H   -0.099673   0.001571  -0.015402   0.002121   0.428138  -0.001105
    12  H   -0.028145  -0.000317   0.002021  -0.007554  -0.001105   0.420566
    13  H    0.429550  -0.001214   0.001928  -0.000789  -0.007656  -0.003109
    14  H    0.003208   0.392744  -0.013457  -0.000037   0.000432  -0.000149
    15  H    0.003219   0.392787  -0.013451  -0.000036   0.000432  -0.000149
    16  H   -0.005524   0.396815   0.002053   0.000354   0.000554   0.000043
              13         14         15         16
     1  O   -0.000196  -0.037392  -0.037361  -0.065395
     2  C    0.038665  -0.036975  -0.037251   0.090114
     3  C    0.019570   0.028653   0.029011  -0.054803
     4  C   -0.044824  -0.013318  -0.013530   0.030125
     5  C   -0.068048   0.005476   0.005477  -0.040219
     6  C   -0.047111  -0.003270  -0.003278   0.006409
     7  C    0.429550   0.003208   0.003219  -0.005524
     8  C   -0.001214   0.392744   0.392787   0.396815
     9  H    0.001928  -0.013457  -0.013451   0.002053
    10  H   -0.000789  -0.000037  -0.000036   0.000354
    11  H   -0.007656   0.000432   0.000432   0.000554
    12  H   -0.003109  -0.000149  -0.000149   0.000043
    13  H    0.433532   0.000000  -0.000001  -0.000142
    14  H    0.000000   0.566492  -0.073293  -0.023219
    15  H   -0.000001  -0.073293   0.566576  -0.023252
    16  H   -0.000142  -0.023219  -0.023252   0.426691
 Mulliken charges:
               1
     1  O   -0.047225
     2  C   -0.502901
     3  C    0.583555
     4  C   -0.629305
     5  C   -0.266141
     6  C   -0.203482
     7  C   -0.383238
     8  C   -0.572614
     9  H    0.237980
    10  H    0.287534
    11  H    0.291494
    12  H    0.286896
    13  H    0.249845
    14  H    0.204105
    15  H    0.204100
    16  H    0.259397
 Sum of Mulliken charges =  -0.00000
 Mulliken charges with hydrogens summed into heavy atoms:
               1
     1  O   -0.047225
     2  C   -0.502901
     3  C    0.821535
     4  C   -0.341771
     5  C    0.025353
     6  C    0.083414
     7  C   -0.133393
     8  C    0.094988
 Electronic spatial extent (au):  <R**2>=            972.6173
 Charge=             -0.0000 electrons
 Dipole moment (field-independent basis, Debye):
    X=              0.6584    Y=              1.2554    Z=              0.0005  Tot=              1.4176
 Quadrupole moment (field-independent basis, Debye-Ang):
   XX=            -40.9822   YY=            -44.8321   ZZ=            -52.1660
   XY=              3.6827   XZ=             -0.0002   YZ=             -0.0003
 Traceless Quadrupole moment (field-independent basis, Debye-Ang):
   XX=              5.0113   YY=              1.1613   ZZ=             -6.1726
   XY=              3.6827   XZ=             -0.0002   YZ=             -0.0003
 Octapole moment (field-independent basis, Debye-Ang**2):
  XXX=             17.7052  YYY=             -1.3951  ZZZ=              0.0017  XYY=             -3.1970
  XXY=              4.9694  XXZ=              0.0056  XZZ=              9.0931  YZZ=             -0.5679
  YYZ=              0.0015  XYZ=              0.0001
 Hexadecapole moment (field-independent basis, Debye-Ang**3):
 XXXX=           -819.5157 YYYY=           -311.4556 ZZZZ=            -67.6723 XXXY=              7.9999
 XXXZ=             -0.0033 YYYX=             -0.0423 YYYZ=             -0.0036 ZZZX=             -0.0013
 ZZZY=             -0.0009 XXYY=           -204.0814 XXZZ=           -176.8164 YYZZ=            -75.1231
 XXYZ=             -0.0038 YYXZ=             -0.0044 ZZXY=              0.9608
 N-N= 3.463509537180D+02 E-N=-1.499255343148D+03  KE= 3.450749772993D+02
 R6APFD:  NTU= -4 IXU= 1 FactS= 1.050
 Calling FoFJK, ICntrl=      2127 FMM=F ISym2X=0 I1Cent= 0 IOpClX= 0 NMat=1 NMatS=1 NMatT=0.
 ***** Axes restored to original set *****
 -------------------------------------------------------------------
 Center     Atomic                   Forces (Hartrees/Bohr)
 Number     Number              X              Y              Z
 -------------------------------------------------------------------
      1        8           0.004304460   -0.002388517   -0.000018004
      2        6           0.010432285    0.013699895    0.000052875
      3        6          -0.013821108    0.009856661   -0.000014609
      4        6          -0.004299457   -0.004923489   -0.000005260
      5        6          -0.003023015   -0.011341503    0.000004331
      6        6           0.008534184    0.005769531    0.000002516
      7        6          -0.001335997    0.003251572   -0.000015479
      8        6           0.002828347   -0.013990166   -0.000015479
      9        1           0.004145704   -0.003216092    0.000000811
     10        1           0.003644375    0.000054178   -0.000002779
     11        1           0.000332921    0.001617556   -0.000002429
     12        1          -0.000164144   -0.001721366   -0.000002154
     13        1          -0.001582224    0.000324490    0.000005610
     14        1          -0.003588801    0.003607221   -0.000248583
     15        1          -0.003590684    0.003604131    0.000255715
     16        1          -0.002816846   -0.004204103    0.000002920
 -------------------------------------------------------------------
 Cartesian Forces:  Max     0.013990166 RMS     0.005079126

 GradGradGradGradGradGradGradGradGradGradGradGradGradGradGradGradGradGrad
 Berny optimization.
 FormGI is forming the generalized inverse of G from B-inverse, IUseBI=4.
 Internal  Forces:  Max     0.022879388 RMS     0.004634487
 Search for a local minimum.
 Step number   1 out of a maximum of   80
 All quantities printed in internal units (Hartrees-Bohrs-Radians)
 Mixed Optimization -- RFO/linear search
 Second derivative matrix not updated -- first step.
 ITU=  0
     Eigenvalues ---    0.01335   0.02156   0.02156   0.02156   0.02157
     Eigenvalues ---    0.02157   0.02157   0.02157   0.02157   0.02166
     Eigenvalues ---    0.02211   0.09818   0.10596   0.16000   0.16000
     Eigenvalues ---    0.16000   0.16000   0.16000   0.16000   0.16000
     Eigenvalues ---    0.16000   0.22000   0.22000   0.23486   0.25000
     Eigenvalues ---    0.25000   0.34208   0.34210   0.34248   0.35213
     Eigenvalues ---    0.35246   0.35260   0.35269   0.35438   0.41429
     Eigenvalues ---    0.42136   0.42326   0.46474   0.46482   0.46485
     Eigenvalues ---    0.46487   0.52794
 RFO step:  Lambda=-5.99677809D-03 EMin= 1.33516194D-02
 Linear search not attempted -- first point.
 Iteration  1 RMS(Cart)=  0.08136995 RMS(Int)=  0.00197961
 Iteration  2 RMS(Cart)=  0.00336905 RMS(Int)=  0.00004641
 Iteration  3 RMS(Cart)=  0.00000125 RMS(Int)=  0.00004640
 Iteration  4 RMS(Cart)=  0.00000000 RMS(Int)=  0.00004640
 Variable       Old X    -DE/DX   Delta X   Delta X   Delta X     New X
                                 (Linear)    (Quad)   (Total)
    R1        2.57147   0.00037   0.00000   0.00069   0.00069   2.57215
    R2        2.69656  -0.01301   0.00000  -0.03095  -0.03095   2.66561
    R3        2.63598   0.00546   0.00000   0.01226   0.01225   2.64823
    R4        2.63586  -0.00122   0.00000  -0.00245  -0.00246   2.63340
    R5        2.63587   0.00117   0.00000   0.00299   0.00299   2.63886
    R6        2.04970   0.00018   0.00000   0.00050   0.00050   2.05019
    R7        2.63591  -0.00434   0.00000  -0.00974  -0.00974   2.62618
    R8        2.05331   0.00096   0.00000   0.00267   0.00267   2.05598
    R9        2.63586  -0.00408   0.00000  -0.00882  -0.00881   2.62704
   R10        2.05277   0.00146   0.00000   0.00407   0.00407   2.05684
   R11        2.63603  -0.00066   0.00000  -0.00207  -0.00206   2.63397
   R12        2.05254   0.00136   0.00000   0.00379   0.00379   2.05633
   R13        2.05240   0.00161   0.00000   0.00450   0.00450   2.05690
   R14        2.06977   0.00206   0.00000   0.00593   0.00593   2.07570
   R15        2.06980   0.00205   0.00000   0.00590   0.00590   2.07570
   R16        2.06914  -0.00090   0.00000  -0.00259  -0.00259   2.06655
    A1        2.04347   0.00796   0.00000   0.03108   0.03108   2.07455
    A2        2.09454   0.02288   0.00000   0.08871   0.08872   2.18325
    A3        2.09417  -0.02027   0.00000  -0.07983  -0.07982   2.01434
    A4        2.09448  -0.00261   0.00000  -0.00888  -0.00889   2.08559
    A5        2.09431  -0.00151   0.00000  -0.00438  -0.00439   2.08991
    A6        2.16143  -0.00462   0.00000  -0.03020  -0.03019   2.13124
    A7        2.02745   0.00613   0.00000   0.03458   0.03458   2.06203
    A8        2.09433   0.00077   0.00000   0.00245   0.00244   2.09678
    A9        2.10034  -0.00399   0.00000  -0.02296  -0.02296   2.07738
   A10        2.08852   0.00322   0.00000   0.02051   0.02051   2.10903
   A11        2.09450   0.00295   0.00000   0.01363   0.01363   2.10814
   A12        2.09543  -0.00228   0.00000  -0.01164  -0.01165   2.08378
   A13        2.09325  -0.00067   0.00000  -0.00199  -0.00199   2.09126
   A14        2.09444   0.00380   0.00000   0.01412   0.01413   2.10857
   A15        2.09449  -0.00299   0.00000  -0.01364  -0.01364   2.08085
   A16        2.09425  -0.00081   0.00000  -0.00048  -0.00048   2.09377
   A17        2.09431  -0.00340   0.00000  -0.01693  -0.01692   2.07739
   A18        2.09456   0.00175   0.00000   0.00879   0.00878   2.10334
   A19        2.09432   0.00165   0.00000   0.00814   0.00814   2.10245
   A20        1.94698  -0.00045   0.00000  -0.00574  -0.00589   1.94109
   A21        1.94699  -0.00045   0.00000  -0.00573  -0.00587   1.94112
   A22        1.87041  -0.00542   0.00000  -0.02687  -0.02690   1.84351
   A23        1.95958  -0.00317   0.00000  -0.02874  -0.02897   1.93060
   A24        1.86698   0.00493   0.00000   0.03548   0.03545   1.90244
   A25        1.86690   0.00493   0.00000   0.03553   0.03550   1.90240
    D1       -0.00009   0.00001   0.00000   0.00020   0.00020   0.00012
    D2       -3.14118  -0.00001   0.00000  -0.00039  -0.00039  -3.14157
    D3        1.10352  -0.00246   0.00000  -0.02361  -0.02345   1.08006
    D4       -1.10359   0.00246   0.00000   0.02359   0.02344  -1.08015
    D5       -3.14158  -0.00000   0.00000  -0.00004  -0.00004   3.14156
    D6       -3.14117  -0.00001   0.00000  -0.00044  -0.00047   3.14154
    D7        0.00046  -0.00001   0.00000  -0.00040  -0.00042   0.00003
    D8       -0.00008   0.00000   0.00000   0.00013   0.00013   0.00005
    D9        3.14154   0.00000   0.00000   0.00017   0.00018  -3.14146
   D10        3.14117   0.00002   0.00000   0.00049   0.00046  -3.14155
   D11       -0.00031   0.00001   0.00000   0.00038   0.00036   0.00004
   D12        0.00008  -0.00000   0.00000  -0.00014  -0.00013  -0.00005
   D13       -3.14140  -0.00001   0.00000  -0.00025  -0.00024   3.14155
   D14        0.00008  -0.00000   0.00000  -0.00008  -0.00009  -0.00001
   D15        3.14157   0.00000   0.00000   0.00001   0.00001   3.14158
   D16       -3.14154  -0.00000   0.00000  -0.00012  -0.00013   3.14151
   D17       -0.00006   0.00000   0.00000  -0.00003  -0.00003  -0.00009
   D18       -0.00008   0.00000   0.00000   0.00009   0.00009   0.00001
   D19       -3.14155  -0.00000   0.00000  -0.00002  -0.00002  -3.14157
   D20        3.14141   0.00001   0.00000   0.00020   0.00019  -3.14159
   D21       -0.00006   0.00000   0.00000   0.00008   0.00008   0.00002
   D22       -0.00008   0.00000   0.00000   0.00004   0.00004  -0.00004
   D23       -3.14153  -0.00000   0.00000  -0.00004  -0.00004  -3.14157
   D24       -3.14157  -0.00000   0.00000  -0.00005  -0.00005   3.14156
   D25        0.00017  -0.00000   0.00000  -0.00013  -0.00013   0.00003
   D26        0.00008  -0.00000   0.00000  -0.00005  -0.00005   0.00004
   D27        3.14153   0.00000   0.00000   0.00003   0.00003   3.14157
   D28        3.14155   0.00000   0.00000   0.00007   0.00006  -3.14157
   D29       -0.00019   0.00000   0.00000   0.00015   0.00014  -0.00004
         Item               Value     Threshold  Converged?
 Maximum Force            0.022879     0.000450     NO 
 RMS     Force            0.004634     0.000300     NO 
 Maximum Displacement     0.323033     0.001800     NO 
 RMS     Displacement     0.081086     0.001200     NO 
 Predicted change in Energy=-3.075882D-03
 GradGradGradGradGradGradGradGradGradGradGradGradGradGradGradGradGradGrad

                          Input orientation:                          
 ---------------------------------------------------------------------
 Center     Atomic      Atomic             Coordinates (Angstroms)
 Number     Number       Type             X           Y           Z
 ---------------------------------------------------------------------
      1          8           0        1.873044   -0.599388    0.000119
      2          6           0        0.567203   -0.215412    0.000135
      3          6           0        0.117774    1.111949    0.000072
      4          6           0       -0.361619   -1.254275    0.000104
      5          6           0       -1.252818    1.379302    0.000037
      6          6           0       -1.722640   -0.973344    0.000070
      7          6           0       -2.179865    0.343368    0.000059
      8          6           0        2.874793    0.393705    0.000175
      9          1           0        0.803229    1.952897   -0.000025
     10          1           0       -0.004252   -2.281887    0.000109
     11          1           0       -1.595558    2.412362    0.000001
     12          1           0       -2.434911   -1.796005    0.000070
     13          1           0       -3.247185    0.556877    0.000009
     14          1           0        2.817346    1.016215    0.903330
     15          1           0        2.817433    1.016277   -0.902945
     16          1           0        3.825426   -0.146841    0.000180
 ---------------------------------------------------------------------
                    Distance matrix (angstroms):
                    1          2          3          4          5
     1  O    0.000000
     2  C    1.361124   0.000000
     3  C    2.451459   1.401383   0.000000
     4  C    2.328647   1.393538   2.414298   0.000000
     5  C    3.699491   2.419833   1.396424   2.780282   0.000000
     6  C    3.615078   2.412021   2.781290   1.389713   2.399099
     7  C    4.161113   2.803323   2.422780   2.420430   1.390171
     8  C    1.410579   2.386627   2.849040   3.631831   4.243651
     9  H    2.767429   2.181117   1.084915   3.412158   2.134558
    10  H    2.520921   2.144033   3.396029   1.087978   3.868232
    11  H    4.593674   3.403341   2.150948   3.868699   1.088432
    12  H    4.471060   3.392782   3.869419   2.142898   3.388203
    13  H    5.249162   3.891785   3.410433   3.406870   2.157286
    14  H    2.077900   2.719524   2.848286   4.009584   4.184974
    15  H    2.077924   2.719586   2.848290   4.009648   4.184987
    16  H    2.004144   3.258944   3.915512   4.331022   5.302610
                    6          7          8          9         10
     6  C    0.000000
     7  C    1.393838   0.000000
     8  C    4.796375   5.054908   0.000000
     9  H    3.865604   3.389606   2.592770   0.000000
    10  H    2.159894   3.409582   3.930354   4.311080   0.000000
    11  H    3.388090   2.149920   4.904998   2.442393   4.956635
    12  H    1.088164   2.154522   5.743499   4.953768   2.478747
    13  H    2.160050   1.088466   6.124152   4.284241   4.309895
    14  H    5.038422   5.122572   1.098411   2.397935   4.433362
    15  H    5.038481   5.122618   1.098414   2.397820   4.433429
    16  H    5.609291   6.025265   1.093569   3.680024   4.384615
                   11         12         13         14         15
    11  H    0.000000
    12  H    4.291255   0.000000
    13  H    2.484089   2.489145   0.000000
    14  H    4.715819   6.025834   6.148619   0.000000
    15  H    4.715809   6.025902   6.148656   1.806275   0.000000
    16  H    5.994713   6.473914   7.107534   1.784546   1.784525
                   16
    16  H    0.000000
 Stoichiometry    C7H8O
 Framework group  C1[X(C7H8O)]
 Deg. of freedom    42
 Full point group                 C1      NOp   1
 Largest Abelian subgroup         C1      NOp   1
 Largest concise Abelian subgroup C1      NOp   1
                         Standard orientation:                         
 ---------------------------------------------------------------------
 Center     Atomic      Atomic             Coordinates (Angstroms)
 Number     Number       Type             X           Y           Z
 ---------------------------------------------------------------------
      1          8           0        1.760815   -0.658382    0.000022
      2          6           0        0.457921   -0.264520    0.000039
      3          6           0        0.018564    1.066209   -0.000025
      4          6           0       -0.478747   -1.296314    0.000008
      5          6           0       -1.349962    1.343942   -0.000059
      6          6           0       -1.837600   -1.005076   -0.000027
      7          6           0       -2.284833    0.315063   -0.000038
      8          6           0        2.770060    0.327090    0.000079
      9          1           0        0.710373    1.901938   -0.000121
     10          1           0       -0.129179   -2.326605    0.000013
     11          1           0       -1.684862    2.379570   -0.000095
     12          1           0       -2.556086   -1.822316   -0.000027
     13          1           0       -3.350505    0.536655   -0.000087
     14          1           0        2.717334    0.950019    0.903233
     15          1           0        2.717421    0.950079   -0.903042
     16          1           0        3.716570   -0.220645    0.000083
 ---------------------------------------------------------------------
 Rotational constants (GHZ):           5.0713717           1.5609029           1.2028862
 Standard basis: 6-311++G(d,p) (5D, 7F)
 There are   240 symmetry adapted cartesian basis functions of A   symmetry.
 There are   232 symmetry adapted basis functions of A   symmetry.
   232 basis functions,   360 primitive gaussians,   240 cartesian basis functions
    29 alpha electrons       29 beta electrons
       nuclear repulsion energy       345.7673306171 Hartrees.
 NAtoms=   16 NActive=   16 NUniq=   16 SFac= 1.00D+00 NAtFMM=   60 NAOKFM=F Big=F
 Integral buffers will be    131072 words long.
 Raffenetti 2 integral format.
 Two-electron integral symmetry is turned on.
 R6APFD:  NTU= -4 IXU= 1 FactS= 1.050
 Nuclear repulsion after empirical dispersion term =      345.7604940764 Hartrees.
 One-electron integrals computed using PRISM.
 NBasis=   232 RedAO= T EigKep=  6.40D-06  NBF=   232
 NBsUse=   231 1.00D-06 EigRej=  8.93D-07 NBFU=   231
 Initial guess from the checkpoint file:  "AISE0083.chk"
 B after Tr=    -0.000000    0.000000    0.000000
         Rot=    0.999906    0.000008    0.000005   -0.013715 Ang=   1.57 deg.
 ExpMin= 3.60D-02 ExpMax= 8.59D+03 ExpMxC= 1.30D+03 IAcc=3 IRadAn=         5 AccDes= 0.00D+00
 Harris functional with IExCor= 1009 and IRadAn=       5 diagonalized for initial guess.
 HarFok:  IExCor= 1009 AccDes= 0.00D+00 IRadAn=         5 IDoV= 1 UseB2=F ITyADJ=14
 ICtDFT=  3500011 ScaDFX=  1.000000  1.000000  1.000000  1.000000
 FoFCou: FMM=F IPFlag=           0 FMFlag=      100000 FMFlg1=           0
         NFxFlg=           0 DoJE=T BraDBF=F KetDBF=T FulRan=T
         wScrn=  0.000000 ICntrl=       500 IOpCl=  0 I1Cent=   200000004 NGrid=           0
         NMat0=    1 NMatS0=      1 NMatT0=    0 NMatD0=    1 NMtDS0=    0 NMtDT0=    0
 Petite list used in FoFCou.
 Requested convergence on RMS density matrix=1.00D-08 within  32 cycles.
 Requested convergence on MAX density matrix=1.00D-06.
 Requested convergence on             energy=1.00D-06.
 No special actions if energy rises.
 SCF Done:  E(RM08HX) =  -346.762133953     A.U. after   12 cycles
            NFock= 12  Conv=0.74D-08     -V/T= 2.0048
 QCSCF skips out because SCF is already converged.
 R6APFD:  NTU= -4 IXU= 1 FactS= 1.050
 Calling FoFJK, ICntrl=      2127 FMM=F ISym2X=0 I1Cent= 0 IOpClX= 0 NMat=1 NMatS=1 NMatT=0.
 ***** Axes restored to original set *****
 -------------------------------------------------------------------
 Center     Atomic                   Forces (Hartrees/Bohr)
 Number     Number              X              Y              Z
 -------------------------------------------------------------------
      1        8          -0.002864093   -0.000025006    0.000001320
      2        6           0.003799422    0.004573136   -0.000009948
      3        6           0.000475064    0.000088804   -0.000001607
      4        6          -0.006150513   -0.003059559    0.000003439
      5        6          -0.000444159   -0.003161274    0.000002661
      6        6           0.002211293   -0.001665956    0.000002896
      7        6          -0.000412848    0.001929938   -0.000003643
      8        6          -0.000995711   -0.003479104   -0.000001120
      9        1           0.003701681   -0.000549445    0.000003611
     10        1           0.001266866    0.000552423    0.000000211
     11        1           0.000757114    0.000472285   -0.000000846
     12        1          -0.000236464   -0.000493947   -0.000000954
     13        1           0.000488726   -0.000024610    0.000001498
     14        1          -0.000695167    0.001873775   -0.000393002
     15        1          -0.000698531    0.001872297    0.000393694
     16        1          -0.000202679    0.001096241    0.000001792
 -------------------------------------------------------------------
 Cartesian Forces:  Max     0.006150513 RMS     0.001783099

 GradGradGradGradGradGradGradGradGradGradGradGradGradGradGradGradGradGrad
 Berny optimization.
 Using GEDIIS/GDIIS optimizer.
 FormGI is forming the generalized inverse of G from B-inverse, IUseBI=4.
 Internal  Forces:  Max     0.010508137 RMS     0.002078472
 Search for a local minimum.
 Step number   2 out of a maximum of   80
 All quantities printed in internal units (Hartrees-Bohrs-Radians)
 Mixed Optimization -- RFO/linear search
 Update second derivatives using D2CorX and points    1    2
 DE= -2.61D-03 DEPred=-3.08D-03 R= 8.49D-01
 TightC=F SS=  1.41D+00  RLast= 1.62D-01 DXNew= 5.0454D-01 4.8555D-01
 Trust test= 8.49D-01 RLast= 1.62D-01 DXMaxT set to 4.86D-01
 ITU=  1  0
 Use linear search instead of GDIIS.
     Eigenvalues ---    0.01335   0.02156   0.02156   0.02156   0.02157
     Eigenvalues ---    0.02157   0.02157   0.02157   0.02157   0.02167
     Eigenvalues ---    0.02211   0.09259   0.10694   0.14303   0.16000
     Eigenvalues ---    0.16000   0.16000   0.16000   0.16000   0.16000
     Eigenvalues ---    0.16232   0.21673   0.22025   0.23282   0.23976
     Eigenvalues ---    0.33670   0.34197   0.34209   0.34332   0.35203
     Eigenvalues ---    0.35226   0.35254   0.35291   0.35995   0.40765
     Eigenvalues ---    0.42219   0.42993   0.46322   0.46479   0.46485
     Eigenvalues ---    0.48619   0.54871
 RFO step:  Lambda=-8.27187172D-04 EMin= 1.33516194D-02
 Quartic linear search produced a step of -0.12012.
 Iteration  1 RMS(Cart)=  0.03191435 RMS(Int)=  0.00033186
 Iteration  2 RMS(Cart)=  0.00052181 RMS(Int)=  0.00001539
 Iteration  3 RMS(Cart)=  0.00000014 RMS(Int)=  0.00001539
 Variable       Old X    -DE/DX   Delta X   Delta X   Delta X     New X
                                 (Linear)    (Quad)   (Total)
    R1        2.57215  -0.00562  -0.00008  -0.00917  -0.00925   2.56290
    R2        2.66561  -0.00087   0.00372  -0.00986  -0.00614   2.65947
    R3        2.64823  -0.00468  -0.00147  -0.00586  -0.00733   2.64090
    R4        2.63340   0.00360   0.00030   0.00621   0.00650   2.63991
    R5        2.63886  -0.00072  -0.00036  -0.00082  -0.00118   2.63768
    R6        2.05019   0.00191  -0.00006   0.00486   0.00480   2.05499
    R7        2.62618  -0.00216   0.00117  -0.00637  -0.00520   2.62098
    R8        2.05598  -0.00010  -0.00032   0.00044   0.00011   2.05610
    R9        2.62704   0.00035   0.00106  -0.00166  -0.00060   2.62644
   R10        2.05684   0.00021  -0.00049   0.00157   0.00109   2.05792
   R11        2.63397   0.00202   0.00025   0.00348   0.00372   2.63769
   R12        2.05633   0.00053  -0.00046   0.00230   0.00185   2.05818
   R13        2.05690  -0.00048  -0.00054  -0.00004  -0.00058   2.05633
   R14        2.07570   0.00078  -0.00071   0.00354   0.00282   2.07852
   R15        2.07570   0.00078  -0.00071   0.00353   0.00282   2.07852
   R16        2.06655  -0.00072   0.00031  -0.00252  -0.00221   2.06434
    A1        2.07455  -0.01051  -0.00373  -0.02871  -0.03244   2.04211
    A2        2.18325  -0.00626  -0.01066   0.00131  -0.00935   2.17391
    A3        2.01434   0.00366   0.00959  -0.00798   0.00161   2.01595
    A4        2.08559   0.00260   0.00107   0.00667   0.00774   2.09333
    A5        2.08991  -0.00154   0.00053  -0.00798  -0.00745   2.08246
    A6        2.13124  -0.00252   0.00363  -0.02257  -0.01895   2.11229
    A7        2.06203   0.00406  -0.00415   0.03055   0.02640   2.08843
    A8        2.09678  -0.00105  -0.00029  -0.00277  -0.00306   2.09371
    A9        2.07738  -0.00090   0.00276  -0.01213  -0.00937   2.06801
   A10        2.10903   0.00195  -0.00246   0.01490   0.01243   2.12147
   A11        2.10814   0.00084  -0.00164   0.00657   0.00492   2.11306
   A12        2.08378  -0.00131   0.00140  -0.00940  -0.00800   2.07578
   A13        2.09126   0.00046   0.00024   0.00284   0.00308   2.09434
   A14        2.10857  -0.00123  -0.00170  -0.00009  -0.00179   2.10678
   A15        2.08085   0.00046   0.00164  -0.00254  -0.00090   2.07994
   A16        2.09377   0.00077   0.00006   0.00263   0.00269   2.09646
   A17        2.07739   0.00038   0.00203  -0.00238  -0.00036   2.07703
   A18        2.10334  -0.00026  -0.00106   0.00091  -0.00014   2.10321
   A19        2.10245  -0.00012  -0.00098   0.00147   0.00050   2.10295
   A20        1.94109   0.00002   0.00071  -0.00317  -0.00252   1.93857
   A21        1.94112   0.00002   0.00070  -0.00319  -0.00255   1.93858
   A22        1.84351   0.00201   0.00323   0.00710   0.01029   1.85380
   A23        1.93060  -0.00232   0.00348  -0.02601  -0.02259   1.90801
   A24        1.90244   0.00024  -0.00426   0.01392   0.00962   1.91206
   A25        1.90240   0.00024  -0.00426   0.01396   0.00965   1.91205
    D1        0.00012  -0.00000  -0.00002  -0.00002  -0.00005   0.00007
    D2       -3.14157   0.00000   0.00005  -0.00009  -0.00004   3.14158
    D3        1.08006  -0.00149   0.00282  -0.01918  -0.01634   1.06372
    D4       -1.08015   0.00149  -0.00282   0.01914   0.01631  -1.06384
    D5        3.14156  -0.00000   0.00001  -0.00003  -0.00003   3.14154
    D6        3.14154   0.00000   0.00006  -0.00008  -0.00002   3.14152
    D7        0.00003   0.00000   0.00005  -0.00013  -0.00008  -0.00005
    D8        0.00005  -0.00000  -0.00002  -0.00001  -0.00003   0.00002
    D9       -3.14146  -0.00000  -0.00002  -0.00006  -0.00009  -3.14155
   D10       -3.14155  -0.00000  -0.00006   0.00008   0.00003  -3.14152
   D11        0.00004  -0.00000  -0.00004   0.00004   0.00000   0.00004
   D12       -0.00005   0.00000   0.00002   0.00002   0.00003  -0.00002
   D13        3.14155   0.00000   0.00003  -0.00002   0.00001   3.14155
   D14       -0.00001   0.00000   0.00001  -0.00002  -0.00001  -0.00002
   D15        3.14158   0.00000  -0.00000   0.00001   0.00001   3.14159
   D16        3.14151   0.00000   0.00002   0.00002   0.00004   3.14155
   D17       -0.00009   0.00000   0.00000   0.00006   0.00006  -0.00003
   D18        0.00001  -0.00000  -0.00001   0.00002   0.00001   0.00001
   D19       -3.14157  -0.00000   0.00000  -0.00003  -0.00003   3.14159
   D20       -3.14159  -0.00000  -0.00002   0.00005   0.00003  -3.14156
   D21        0.00002  -0.00000  -0.00001   0.00000  -0.00001   0.00002
   D22       -0.00004   0.00000  -0.00001   0.00006   0.00005   0.00001
   D23       -3.14157  -0.00000   0.00000  -0.00003  -0.00003   3.14159
   D24        3.14156   0.00000   0.00001   0.00002   0.00003   3.14159
   D25        0.00003  -0.00000   0.00002  -0.00006  -0.00005  -0.00002
   D26        0.00004  -0.00000   0.00001  -0.00005  -0.00005  -0.00001
   D27        3.14157   0.00000  -0.00000   0.00003   0.00003  -3.14159
   D28       -3.14157  -0.00000  -0.00001  -0.00000  -0.00001  -3.14158
   D29       -0.00004   0.00000  -0.00002   0.00008   0.00007   0.00002
         Item               Value     Threshold  Converged?
 Maximum Force            0.010508     0.000450     NO 
 RMS     Force            0.002078     0.000300     NO 
 Maximum Displacement     0.119172     0.001800     NO 
 RMS     Displacement     0.032214     0.001200     NO 
 Predicted change in Energy=-4.632549D-04
 GradGradGradGradGradGradGradGradGradGradGradGradGradGradGradGradGradGrad

                          Input orientation:                          
 ---------------------------------------------------------------------
 Center     Atomic      Atomic             Coordinates (Angstroms)
 Number     Number       Type             X           Y           Z
 ---------------------------------------------------------------------
      1          8           0        1.871644   -0.617866    0.000138
      2          6           0        0.571995   -0.230222    0.000160
      3          6           0        0.141363    1.099279    0.000108
      4          6           0       -0.364828   -1.266521    0.000129
      5          6           0       -1.227051    1.374421    0.000047
      6          6           0       -1.720707   -0.974536    0.000066
      7          6           0       -2.164915    0.348701    0.000018
      8          6           0        2.842385    0.401072    0.000146
      9          1           0        0.855185    1.919655    0.000091
     10          1           0       -0.003456   -2.292795    0.000133
     11          1           0       -1.555696    2.412654    0.000011
     12          1           0       -2.439897   -1.792458    0.000035
     13          1           0       -3.229559    0.573704   -0.000027
     14          1           0        2.754308    1.031177    0.897366
     15          1           0        2.754370    1.031141   -0.897104
     16          1           0        3.812258   -0.101606    0.000184
 ---------------------------------------------------------------------
                    Distance matrix (angstroms):
                    1          2          3          4          5
     1  O    0.000000
     2  C    1.356228   0.000000
     3  C    2.437716   1.397503   0.000000
     4  C    2.328639   1.396980   2.419346   0.000000
     5  C    3.683900   2.410694   1.395801   2.778129   0.000000
     6  C    3.610014   2.410495   2.787115   1.386962   2.400270
     7  C    4.150670   2.797468   2.425342   2.418523   1.389852
     8  C    1.407329   2.356524   2.789806   3.614842   4.184223
     9  H    2.733533   2.168447   1.087455   3.411765   2.152437
    10  H    2.514237   2.141344   3.395163   1.088039   3.865961
    11  H    4.575009   3.392913   2.145918   3.867104   1.089006
    12  H    4.468674   3.392945   3.876214   2.140682   3.391182
    13  H    5.238522   3.885629   3.411648   3.404866   2.156661
    14  H    2.074478   2.675555   2.763548   3.976614   4.095634
    15  H    2.074481   2.675608   2.763592   3.976641   4.095661
    16  H    2.008110   3.242814   3.862330   4.336481   5.251028
                    6          7          8          9         10
     6  C    0.000000
     7  C    1.395807   0.000000
     8  C    4.765932   5.007574   0.000000
     9  H    3.874476   3.404247   2.501011   0.000000
    10  H    2.164892   3.413122   3.918639   4.299069   0.000000
    11  H    3.391207   2.151987   4.836277   2.460771   4.954866
    12  H    1.089141   2.158744   5.719622   4.963602   2.487284
    13  H    2.161870   1.088161   6.074398   4.300781   4.315618
    14  H    4.985358   5.046757   1.099905   2.280606   4.411245
    15  H    4.985376   5.046773   1.099905   2.280640   4.411257
    16  H    5.601402   5.994111   1.092400   3.581867   4.400112
                   11         12         13         14         15
    11  H    0.000000
    12  H    4.297065   0.000000
    13  H    2.486675   2.494451   0.000000
    14  H    4.614094   5.979789   6.068053   0.000000
    15  H    4.614116   5.979798   6.068065   1.794470   0.000000
    16  H    5.927599   6.476760   7.074124   1.790919   1.790912
                   16
    16  H    0.000000
 Stoichiometry    C7H8O
 Framework group  C1[X(C7H8O)]
 Deg. of freedom    42
 Full point group                 C1      NOp   1
 Largest Abelian subgroup         C1      NOp   1
 Largest concise Abelian subgroup C1      NOp   1
                         Standard orientation:                         
 ---------------------------------------------------------------------
 Center     Atomic      Atomic             Coordinates (Angstroms)
 Number     Number       Type             X           Y           Z
 ---------------------------------------------------------------------
      1          8           0        1.754077   -0.677863    0.000037
      2          6           0        0.458796   -0.275862    0.000059
      3          6           0        0.042901    1.058322    0.000007
      4          6           0       -0.489436   -1.301731    0.000028
      5          6           0       -1.322385    1.348589   -0.000053
      6          6           0       -1.842001   -0.994763   -0.000035
      7          6           0       -2.271540    0.333309   -0.000082
      8          6           0        2.736033    0.330272    0.000046
      9          1           0        0.765757    1.870749   -0.000010
     10          1           0       -0.139442   -2.331941    0.000032
     11          1           0       -1.639522    2.390394   -0.000090
     12          1           0       -2.570197   -1.804676   -0.000065
     13          1           0       -3.333630    0.570078   -0.000127
     14          1           0        2.654933    0.961312    0.897265
     15          1           0        2.654995    0.961276   -0.897204
     16          1           0        3.700284   -0.183107    0.000083
 ---------------------------------------------------------------------
 Rotational constants (GHZ):           5.0484698           1.5844282           1.2153610
 Standard basis: 6-311++G(d,p) (5D, 7F)
 There are   240 symmetry adapted cartesian basis functions of A   symmetry.
 There are   232 symmetry adapted basis functions of A   symmetry.
   232 basis functions,   360 primitive gaussians,   240 cartesian basis functions
    29 alpha electrons       29 beta electrons
       nuclear repulsion energy       346.7340597999 Hartrees.
 NAtoms=   16 NActive=   16 NUniq=   16 SFac= 1.00D+00 NAtFMM=   60 NAOKFM=F Big=F
 Integral buffers will be    131072 words long.
 Raffenetti 2 integral format.
 Two-electron integral symmetry is turned on.
 R6APFD:  NTU= -4 IXU= 1 FactS= 1.050
 Nuclear repulsion after empirical dispersion term =      346.7272892759 Hartrees.
 One-electron integrals computed using PRISM.
 NBasis=   232 RedAO= T EigKep=  6.54D-06  NBF=   232
 NBsUse=   231 1.00D-06 EigRej=  8.86D-07 NBFU=   231
 Initial guess from the checkpoint file:  "AISE0083.chk"
 B after Tr=     0.000000   -0.000000   -0.000000
         Rot=    0.999997    0.000001    0.000001    0.002614 Ang=   0.30 deg.
 ExpMin= 3.60D-02 ExpMax= 8.59D+03 ExpMxC= 1.30D+03 IAcc=3 IRadAn=         5 AccDes= 0.00D+00
 Harris functional with IExCor= 1009 and IRadAn=       5 diagonalized for initial guess.
 HarFok:  IExCor= 1009 AccDes= 0.00D+00 IRadAn=         5 IDoV= 1 UseB2=F ITyADJ=14
 ICtDFT=  3500011 ScaDFX=  1.000000  1.000000  1.000000  1.000000
 FoFCou: FMM=F IPFlag=           0 FMFlag=      100000 FMFlg1=           0
         NFxFlg=           0 DoJE=T BraDBF=F KetDBF=T FulRan=T
         wScrn=  0.000000 ICntrl=       500 IOpCl=  0 I1Cent=   200000004 NGrid=           0
         NMat0=    1 NMatS0=      1 NMatT0=    0 NMatD0=    1 NMtDS0=    0 NMtDT0=    0
 Petite list used in FoFCou.
 Requested convergence on RMS density matrix=1.00D-08 within  32 cycles.
 Requested convergence on MAX density matrix=1.00D-06.
 Requested convergence on             energy=1.00D-06.
 No special actions if energy rises.
 SCF Done:  E(RM08HX) =  -346.762527951     A.U. after   12 cycles
            NFock= 12  Conv=0.56D-08     -V/T= 2.0048
 QCSCF skips out because SCF is already converged.
 R6APFD:  NTU= -4 IXU= 1 FactS= 1.050
 Calling FoFJK, ICntrl=      2127 FMM=F ISym2X=0 I1Cent= 0 IOpClX= 0 NMat=1 NMatS=1 NMatT=0.
 ***** Axes restored to original set *****
 -------------------------------------------------------------------
 Center     Atomic                   Forces (Hartrees/Bohr)
 Number     Number              X              Y              Z
 -------------------------------------------------------------------
      1        8          -0.000222826    0.000377940    0.000003588
      2        6          -0.000383329   -0.000317651   -0.000009243
      3        6           0.001018250    0.000177628    0.000001149
      4        6          -0.002638185   -0.000726412    0.000001126
      5        6          -0.001105431   -0.000055197   -0.000000231
      6        6           0.000436035   -0.001784786   -0.000000537
      7        6           0.000629565    0.001408157    0.000002433
      8        6           0.001159021   -0.000515834    0.000000604
      9        1          -0.000873424   -0.000184464    0.000000807
     10        1           0.000258708    0.000236751    0.000000683
     11        1           0.000025456   -0.000028081   -0.000000121
     12        1          -0.000108456    0.000240518    0.000000199
     13        1           0.000384924    0.000022555   -0.000000489
     14        1           0.000650237    0.000150410    0.000035649
     15        1           0.000648728    0.000150775   -0.000035977
     16        1           0.000120727    0.000847691    0.000000357
 -------------------------------------------------------------------
 Cartesian Forces:  Max     0.002638185 RMS     0.000651123

 GradGradGradGradGradGradGradGradGradGradGradGradGradGradGradGradGradGrad
 Berny optimization.
 Using GEDIIS/GDIIS optimizer.
 FormGI is forming the generalized inverse of G from B-inverse, IUseBI=4.
 Internal  Forces:  Max     0.003654106 RMS     0.000706110
 Search for a local minimum.
 Step number   3 out of a maximum of   80
 All quantities printed in internal units (Hartrees-Bohrs-Radians)
 Mixed Optimization -- En-DIIS/RFO-DIIS
 Update second derivatives using D2CorX and points    1    2    3
 DE= -3.94D-04 DEPred=-4.63D-04 R= 8.50D-01
 TightC=F SS=  1.41D+00  RLast= 6.58D-02 DXNew= 8.1659D-01 1.9750D-01
 Trust test= 8.50D-01 RLast= 6.58D-02 DXMaxT set to 4.86D-01
 ITU=  1  1  0
 Use linear search instead of GDIIS.
     Eigenvalues ---    0.01335   0.02156   0.02156   0.02156   0.02157
     Eigenvalues ---    0.02157   0.02157   0.02157   0.02157   0.02167
     Eigenvalues ---    0.02211   0.09202   0.10605   0.13912   0.16000
     Eigenvalues ---    0.16000   0.16000   0.16000   0.16000   0.16104
     Eigenvalues ---    0.16556   0.21769   0.22141   0.23426   0.26045
     Eigenvalues ---    0.33914   0.34209   0.34245   0.34507   0.35214
     Eigenvalues ---    0.35226   0.35258   0.35306   0.37080   0.41414
     Eigenvalues ---    0.42453   0.43868   0.45661   0.46485   0.46687
     Eigenvalues ---    0.47691   0.58451
 RFO step:  Lambda=-6.64670135D-05 EMin= 1.33516200D-02
 Quartic linear search produced a step of -0.14294.
 Iteration  1 RMS(Cart)=  0.00640925 RMS(Int)=  0.00001479
 Iteration  2 RMS(Cart)=  0.00001893 RMS(Int)=  0.00000144
 Iteration  3 RMS(Cart)=  0.00000000 RMS(Int)=  0.00000144
 Variable       Old X    -DE/DX   Delta X   Delta X   Delta X     New X
                                 (Linear)    (Quad)   (Total)
    R1        2.56290   0.00196   0.00132   0.00115   0.00247   2.56537
    R2        2.65947   0.00225   0.00088   0.00351   0.00439   2.66386
    R3        2.64090   0.00031   0.00105  -0.00102   0.00003   2.64092
    R4        2.63991   0.00200  -0.00093   0.00500   0.00407   2.64398
    R5        2.63768   0.00031   0.00017   0.00022   0.00038   2.63807
    R6        2.05499  -0.00071  -0.00069  -0.00067  -0.00135   2.05364
    R7        2.62098  -0.00061   0.00074  -0.00200  -0.00125   2.61972
    R8        2.05610  -0.00013  -0.00002  -0.00032  -0.00033   2.05576
    R9        2.62644  -0.00084   0.00009  -0.00164  -0.00156   2.62488
   R10        2.05792  -0.00004  -0.00016   0.00010  -0.00006   2.05787
   R11        2.63769   0.00092  -0.00053   0.00236   0.00183   2.63952
   R12        2.05818  -0.00011  -0.00026   0.00009  -0.00017   2.05801
   R13        2.05633  -0.00037   0.00008  -0.00103  -0.00095   2.05538
   R14        2.07852   0.00007  -0.00040   0.00069   0.00028   2.07880
   R15        2.07852   0.00007  -0.00040   0.00069   0.00028   2.07880
   R16        2.06434  -0.00029   0.00032  -0.00112  -0.00080   2.06353
    A1        2.04211   0.00365   0.00464   0.00488   0.00951   2.05162
    A2        2.17391  -0.00005   0.00134  -0.00318  -0.00184   2.17206
    A3        2.01595   0.00058  -0.00023   0.00288   0.00265   2.01860
    A4        2.09333  -0.00052  -0.00111   0.00030  -0.00081   2.09252
    A5        2.08246   0.00010   0.00107  -0.00119  -0.00012   2.08234
    A6        2.11229   0.00051   0.00271  -0.00113   0.00158   2.11387
    A7        2.08843  -0.00060  -0.00377   0.00232  -0.00146   2.08698
    A8        2.09371   0.00027   0.00044   0.00066   0.00110   2.09481
    A9        2.06801  -0.00047   0.00134  -0.00420  -0.00286   2.06514
   A10        2.12147   0.00020  -0.00178   0.00354   0.00177   2.12323
   A11        2.11306   0.00005  -0.00070   0.00070  -0.00001   2.11306
   A12        2.07578  -0.00003   0.00114  -0.00155  -0.00041   2.07538
   A13        2.09434  -0.00001  -0.00044   0.00085   0.00041   2.09475
   A14        2.10678  -0.00049   0.00026  -0.00241  -0.00216   2.10462
   A15        2.07994   0.00049   0.00013   0.00211   0.00224   2.08218
   A16        2.09646   0.00001  -0.00038   0.00030  -0.00008   2.09638
   A17        2.07703   0.00061   0.00005   0.00194   0.00200   2.07903
   A18        2.10321  -0.00040   0.00002  -0.00154  -0.00152   2.10169
   A19        2.10295  -0.00021  -0.00007  -0.00041  -0.00048   2.10247
   A20        1.93857   0.00061   0.00036   0.00284   0.00320   1.94177
   A21        1.93858   0.00061   0.00036   0.00282   0.00319   1.94177
   A22        1.85380   0.00082  -0.00147   0.00641   0.00493   1.85873
   A23        1.90801  -0.00035   0.00323  -0.00587  -0.00263   1.90538
   A24        1.91206  -0.00086  -0.00138  -0.00302  -0.00440   1.90767
   A25        1.91205  -0.00086  -0.00138  -0.00301  -0.00439   1.90767
    D1        0.00007  -0.00000   0.00001  -0.00005  -0.00005   0.00003
    D2        3.14158   0.00000   0.00001   0.00006   0.00007  -3.14154
    D3        1.06372   0.00020   0.00234  -0.00176   0.00057   1.06429
    D4       -1.06384  -0.00020  -0.00233   0.00180  -0.00052  -1.06437
    D5        3.14154   0.00000   0.00000   0.00001   0.00002   3.14156
    D6        3.14152   0.00000   0.00000   0.00008   0.00008  -3.14158
    D7       -0.00005   0.00000   0.00001   0.00004   0.00005   0.00000
    D8        0.00002  -0.00000   0.00000  -0.00004  -0.00003  -0.00001
    D9       -3.14155  -0.00000   0.00001  -0.00008  -0.00007   3.14157
   D10       -3.14152  -0.00000  -0.00000  -0.00007  -0.00008   3.14159
   D11        0.00004  -0.00000  -0.00000  -0.00006  -0.00006  -0.00001
   D12       -0.00002   0.00000  -0.00000   0.00004   0.00003   0.00001
   D13        3.14155   0.00000  -0.00000   0.00005   0.00005  -3.14158
   D14       -0.00002   0.00000   0.00000   0.00001   0.00002  -0.00000
   D15        3.14159   0.00000  -0.00000   0.00001   0.00000  -3.14159
   D16        3.14155   0.00000  -0.00001   0.00006   0.00005  -3.14158
   D17       -0.00003   0.00000  -0.00001   0.00005   0.00004   0.00001
   D18        0.00001  -0.00000  -0.00000  -0.00001  -0.00001  -0.00000
   D19        3.14159   0.00000   0.00000  -0.00001  -0.00000   3.14158
   D20       -3.14156  -0.00000  -0.00000  -0.00003  -0.00003  -3.14159
   D21        0.00002  -0.00000   0.00000  -0.00002  -0.00002  -0.00000
   D22        0.00001  -0.00000  -0.00001   0.00001  -0.00000   0.00001
   D23        3.14159  -0.00000   0.00000  -0.00001  -0.00000   3.14159
   D24        3.14159   0.00000  -0.00000   0.00002   0.00001  -3.14158
   D25       -0.00002   0.00000   0.00001   0.00000   0.00001  -0.00001
   D26       -0.00001   0.00000   0.00001  -0.00001  -0.00000  -0.00001
   D27       -3.14159  -0.00000  -0.00000   0.00001   0.00000  -3.14158
   D28       -3.14158  -0.00000   0.00000  -0.00001  -0.00001   3.14159
   D29        0.00002  -0.00000  -0.00001   0.00000  -0.00001   0.00002
         Item               Value     Threshold  Converged?
 Maximum Force            0.003654     0.000450     NO 
 RMS     Force            0.000706     0.000300     NO 
 Maximum Displacement     0.028763     0.001800     NO 
 RMS     Displacement     0.006412     0.001200     NO 
 Predicted change in Energy=-4.528079D-05
 GradGradGradGradGradGradGradGradGradGradGradGradGradGradGradGradGradGrad

                          Input orientation:                          
 ---------------------------------------------------------------------
 Center     Atomic      Atomic             Coordinates (Angstroms)
 Number     Number       Type             X           Y           Z
 ---------------------------------------------------------------------
      1          8           0        1.870917   -0.613779    0.000119
      2          6           0        0.568980   -0.229248    0.000083
      3          6           0        0.137229    1.099904    0.000059
      4          6           0       -0.369256   -1.267171    0.000098
      5          6           0       -1.231648    1.373772    0.000035
      6          6           0       -1.724815   -0.976856    0.000071
      7          6           0       -2.167965    0.347755    0.000033
      8          6           0        2.850215    0.400172    0.000166
      9          1           0        0.848597    1.921462    0.000068
     10          1           0       -0.004976   -2.292228    0.000124
     11          1           0       -1.560860    2.411793    0.000016
     12          1           0       -2.444855   -1.793909    0.000074
     13          1           0       -3.231994    0.573241    0.000021
     14          1           0        2.769486    1.032535    0.896671
     15          1           0        2.769591    1.032510   -0.896367
     16          1           0        3.818753   -0.104153    0.000229
 ---------------------------------------------------------------------
                    Distance matrix (angstroms):
                    1          2          3          4          5
     1  O    0.000000
     2  C    1.357536   0.000000
     3  C    2.437701   1.397517   0.000000
     4  C    2.333516   1.399132   2.420655   0.000000
     5  C    3.684599   2.410795   1.396004   2.778182   0.000000
     6  C    3.614016   2.412553   2.789290   1.386298   2.401805
     7  C    4.151761   2.797106   2.424799   2.417300   1.389029
     8  C    1.409653   2.366475   2.801771   3.625607   4.196368
     9  H    2.733603   2.168811   1.086739   3.413290   2.151136
    10  H    2.517174   2.141335   3.395112   1.087862   3.865784
    11  H    4.575061   3.392833   2.145824   3.867130   1.088976
    12  H    4.474214   3.395786   3.878313   2.141393   3.392061
    13  H    5.239152   3.884764   3.410137   3.403290   2.154585
    14  H    2.078841   2.690389   2.781588   3.993018   4.114544
    15  H    2.078839   2.690417   2.781628   3.993062   4.114597
    16  H    2.013401   3.252180   3.873419   4.346497   5.262207
                    6          7          8          9         10
     6  C    0.000000
     7  C    1.396773   0.000000
     8  C    4.777772   5.018454   0.000000
     9  H    3.875912   3.402382   2.514120   0.000000
    10  H    2.165191   3.412922   3.924428   4.299276   0.000000
    11  H    3.392613   2.151472   4.848114   2.458843   4.954654
    12  H    1.089052   2.159489   5.731645   4.964958   2.490247
    13  H    2.162033   1.087658   6.084671   4.297549   4.315618
    14  H    5.004027   5.064713   1.100055   2.298674   4.422158
    15  H    5.004082   5.064769   1.100055   2.298706   4.422194
    16  H    5.611841   6.003751   1.091975   3.595128   4.405516
                   11         12         13         14         15
    11  H    0.000000
    12  H    4.297601   0.000000
    13  H    2.484545   2.494591   0.000000
    14  H    4.632305   5.998502   6.085450   0.000000
    15  H    4.632357   5.998558   6.085513   1.793038   0.000000
    16  H    5.938874   6.487531   7.083213   1.787912   1.787912
                   16
    16  H    0.000000
 Stoichiometry    C7H8O
 Framework group  C1[X(C7H8O)]
 Deg. of freedom    42
 Full point group                 C1      NOp   1
 Largest Abelian subgroup         C1      NOp   1
 Largest concise Abelian subgroup C1      NOp   1
                         Standard orientation:                         
 ---------------------------------------------------------------------
 Center     Atomic      Atomic             Coordinates (Angstroms)
 Number     Number       Type             X           Y           Z
 ---------------------------------------------------------------------
      1          8           0        1.754160   -0.675653    0.000032
      2          6           0        0.456946   -0.275476   -0.000005
      3          6           0        0.041228    1.058778   -0.000028
      4          6           0       -0.493718   -1.302028    0.000010
      5          6           0       -1.324252    1.349106   -0.000052
      6          6           0       -1.845683   -0.995414   -0.000016
      7          6           0       -2.272854    0.334435   -0.000054
      8          6           0        2.745594    0.326435    0.000079
      9          1           0        0.762436    1.871712   -0.000019
     10          1           0       -0.141804   -2.331397    0.000037
     11          1           0       -1.640944    2.391015   -0.000071
     12          1           0       -2.575507   -1.803740   -0.000013
     13          1           0       -3.334091    0.572715   -0.000066
     14          1           0        2.672484    0.959723    0.896584
     15          1           0        2.672589    0.959697   -0.896454
     16          1           0        3.707990   -0.189515    0.000142
 ---------------------------------------------------------------------
 Rotational constants (GHZ):           5.0494794           1.5783494           1.2118242
 Standard basis: 6-311++G(d,p) (5D, 7F)
 There are   240 symmetry adapted cartesian basis functions of A   symmetry.
 There are   232 symmetry adapted basis functions of A   symmetry.
   232 basis functions,   360 primitive gaussians,   240 cartesian basis functions
    29 alpha electrons       29 beta electrons
       nuclear repulsion energy       346.4185593306 Hartrees.
 NAtoms=   16 NActive=   16 NUniq=   16 SFac= 1.00D+00 NAtFMM=   60 NAOKFM=F Big=F
 Integral buffers will be    131072 words long.
 Raffenetti 2 integral format.
 Two-electron integral symmetry is turned on.
 R6APFD:  NTU= -4 IXU= 1 FactS= 1.050
 Nuclear repulsion after empirical dispersion term =      346.4117853574 Hartrees.
 One-electron integrals computed using PRISM.
 NBasis=   232 RedAO= T EigKep=  6.59D-06  NBF=   232
 NBsUse=   231 1.00D-06 EigRej=  8.89D-07 NBFU=   231
 Initial guess from the checkpoint file:  "AISE0083.chk"
 B after Tr=    -0.000000   -0.000000    0.000000
         Rot=    1.000000   -0.000001   -0.000001    0.000355 Ang=  -0.04 deg.
 ExpMin= 3.60D-02 ExpMax= 8.59D+03 ExpMxC= 1.30D+03 IAcc=3 IRadAn=         5 AccDes= 0.00D+00
 Harris functional with IExCor= 1009 and IRadAn=       5 diagonalized for initial guess.
 HarFok:  IExCor= 1009 AccDes= 0.00D+00 IRadAn=         5 IDoV= 1 UseB2=F ITyADJ=14
 ICtDFT=  3500011 ScaDFX=  1.000000  1.000000  1.000000  1.000000
 FoFCou: FMM=F IPFlag=           0 FMFlag=      100000 FMFlg1=           0
         NFxFlg=           0 DoJE=T BraDBF=F KetDBF=T FulRan=T
         wScrn=  0.000000 ICntrl=       500 IOpCl=  0 I1Cent=   200000004 NGrid=           0
         NMat0=    1 NMatS0=      1 NMatT0=    0 NMatD0=    1 NMtDS0=    0 NMtDT0=    0
 Petite list used in FoFCou.
 Requested convergence on RMS density matrix=1.00D-08 within  32 cycles.
 Requested convergence on MAX density matrix=1.00D-06.
 Requested convergence on             energy=1.00D-06.
 No special actions if energy rises.
 SCF Done:  E(RM08HX) =  -346.762572461     A.U. after   10 cycles
            NFock= 10  Conv=0.90D-08     -V/T= 2.0048
 QCSCF skips out because SCF is already converged.
[...]
   aniso      0.479218D+02      0.710128D+01      0.790124D+01
   xx         0.108265D+03      0.160432D+02      0.178504D+02
   yx         0.104555D+01      0.154934D+00      0.172388D+00
   yy         0.882863D+02      0.130827D+02      0.145564D+02
   zx         0.123254D-02      0.182643D-03      0.203218D-03
   zy        -0.634908D-03     -0.940837D-04     -0.104682D-03
   zz         0.536227D+02      0.794607D+01      0.884119D+01

 ----------------------------------------------------------------------

 Dipole orientation:
     8          3.12182330         -1.85561051          0.80944279
     6          0.98490535         -0.58556650          0.17649420
     6         -0.72043980          0.42807910          1.91898184
     6          0.53631342         -0.31903070         -2.41585650
     6         -2.86018728          1.69981494          1.04288506
     6         -1.59723149          0.94901946         -3.25240296
     6         -3.31543513          1.97029607         -1.52708211
     6          3.64618645         -2.16725544          3.40179668
     1         -0.41017322          0.24374850          3.94033742
     1          1.89689842         -1.12774688         -3.72781535
     1         -4.18169406          2.48531221          2.41080872
     1         -1.92640901          1.14459443         -5.27416044
     1         -4.98848464          2.96465320         -2.18790068
     1          2.14467199         -3.24674656          4.35158211
     1          3.87683314         -0.33240505          4.35156859
     1          5.41725008         -3.21990108          3.51531714

 Electric dipole moment (dipole orientation):
 (Debye = 10**-18 statcoulomb cm , SI units = C m)
                  (au)            (Debye)         (10**-30 SI)
   Tot        0.530043D+00      0.134724D+01      0.449389D+01
   x          0.000000D+00      0.000000D+00      0.000000D+00
   y          0.000000D+00      0.000000D+00      0.000000D+00
   z          0.530043D+00      0.134724D+01      0.449389D+01

 Dipole polarizability, Alpha (dipole orientation).
 (esu units = cm**3 , SI units = C**2 m**2 J**-1)
 Alpha(0;0):
               (au)            (10**-24 esu)      (10**-40 SI)
   iso        0.833912D+02      0.123573D+02      0.137494D+02
   aniso      0.479218D+02      0.710128D+01      0.790124D+01
   xx         0.894689D+02      0.132579D+02      0.147514D+02
   yx        -0.213051D+02     -0.315709D+01     -0.351274D+01
   yy         0.662854D+02      0.982248D+01      0.109290D+02
   zx         0.797278D+01      0.118144D+01      0.131453D+01
   zy        -0.473729D+01     -0.701994D+00     -0.781074D+00
   zz         0.944194D+02      0.139915D+02      0.155677D+02

 ----------------------------------------------------------------------
 1\1\GINC-PITOMBA\Freq\RM08HX\6-311++G(d,p)\C7H8O1\VALTER\18-Sep-2025\0
 \\#N Geom=AllCheck Guess=TCheck SCRF=Check GenChk RM08HX/6-311++G(d,p)
  Freq\\AISE0083\\0,1\O,1.8708955752,-0.613628404,0.0001280055\C,0.5689
 57031,-0.2294945504,0.0001026638\C,0.1375891397,1.0995143074,0.0000660
 426\C,-0.3692691756,-1.267688809,0.0001008326\C,-1.2315856932,1.373930
 7864,0.0000329068\C,-1.7244692186,-0.9772314116,0.0000679313\C,-2.1672
 801183,0.3480106874,0.0000360918\C,2.8492369413,0.4007266999,0.0001648
 732\H,0.8482456079,1.9214642107,0.00006223\H,-0.0039520023,-2.29241791
 48,0.0001281883\H,-1.5610945096,2.4118291754,0.0000035728\H,-2.4452428
 094,-1.7934159457,0.000069337\H,-3.2312843971,0.5735800172,0.000011319
 9\H,2.7697185124,1.0326286729,0.897183789\H,2.7697838231,1.0326327276,
 -0.8968571914\H,3.8171512933,-0.1046402495,0.0001994067\\Version=ES64L
 -G16RevB.01\State=1-A\HF=-346.7625749\RMSD=2.334e-09\RMSF=8.676e-05\Ze
 roPoint=0.1330516\Thermal=0.1398239\Dipole=0.2707985,0.4556467,0.00001
 3\DipoleDeriv=-1.9324097,-0.0639523,-0.0000411,0.0394481,-0.4961516,0.
 0000004,-0.0000292,-0.0000067,-0.2830959,1.6261658,-0.1685374,0.000033
 2,-0.3991801,0.1096513,-0.0000119,0.0000249,-0.0000033,0.0993845,-0.28
 88357,-0.0591208,-0.0000011,0.3243679,-0.0969501,0.0000048,-0.0000064,
 -0.0000028,-0.1720665,-0.3479937,0.0799795,-0.0000063,-0.2098484,0.033
 1745,-0.0000072,-0.0000032,-0.0000023,-0.1708647,0.1742914,0.1114578,0
 .0000046,-0.0317388,0.1320448,-0.0000074,0.0000085,-0.0000043,-0.15123
 09,0.1374645,-0.0741303,0.0000077,0.0131746,0.175208,-0.0000058,0.0000
 05,-0.0000082,-0.143518,-0.0743404,-0.0722533,0.0000019,-0.0344582,-0.
 2474176,0.0000018,0.0000037,0.0000011,-0.1590161,0.7241202,0.1867449,0
 .0000134,0.4613532,0.4393849,0.0000126,0.0000113,0.0000064,0.3134183,0
 .0134069,-0.062482,-0.0000015,-0.0874771,0.0163638,0.0000009,-0.000000
 6,0.0000018,0.1499827,0.0603915,0.0451617,-0.0000027,0.0418651,-0.0220
 089,0.0000041,-0.000003,0.0000046,0.1521126,0.0484098,0.0396005,-0.000
 0027,0.0535584,-0.0729588,0.0000055,-0.0000039,0.0000052,0.1384033,-0.
 0020068,-0.0807411,-0.0000014,-0.0821635,-0.017832,0.0000012,-0.000000
 6,0.0000017,0.1384295,-0.0803961,0.0319429,-0.0000051,0.030438,0.05942
 59,0.0000024,-0.0000061,0.0000024,0.1515252,0.0249406,0.0289805,0.0579
 864,-0.1107986,-0.0257419,-0.070828,-0.015411,-0.0919266,-0.0815711,0.
 0249414,0.0289732,-0.057978,-0.1108046,-0.0257441,0.0708228,0.0154178,
 0.0919297,-0.0815743,-0.1081496,0.0283762,-0.0000074,0.1022642,0.03955
 2,0.0000037,-0.0000072,0.0000015,0.0996813\Polar=108.2646408,1.0455486
 ,88.2863249,0.0012325,-0.0006349,53.6227319\Quadrupole=3.7092032,0.928
 5777,-4.6377808,2.3658609,0.0002152,-0.0000827\PG=C01 [X(C7H8O1)]\NIma
 g=0\\0.56623141,0.04809547,0.34850269,0.00001279,0.00000320,0.06894493
 ,-0.27710297,0.03868254,-0.00000516,0.68349485,0.07714806,-0.13122558,
 0.00000135,0.01020492,0.70785898,-0.00000447,0.00000086,-0.04587938,0.
 00001031,-0.00000844,0.16426876,-0.03103377,0.05083749,-0.00000220,-0.
 14645008,-0.00165436,-0.00000111,0.71330426,0.02347794,-0.01311544,0.0
 0000095,0.07472802,-0.30794333,0.00000611,0.03353899,0.70814502,-0.000
 00096,0.00000101,0.00912430,-0.00000314,0.00000491,-0.06687389,0.00001
 007,-0.00001145,0.12243995,-0.06447590,-0.03511160,-0.00000054,-0.1873
 7356,-0.05336570,-0.00000186,0.06359611,-0.04565399,0.00000216,0.72134
 026,-0.00087297,0.01777981,0.00000011,-0.13143164,-0.24889045,0.000000
 13,0.00272949,-0.04420009,0.00000116,-0.04096264,0.72643852,-0.0000011
 8,-0.00000072,0.00706668,-0.00000027,0.00000185,-0.06915564,0.00000121
 ,0.00000014,0.00765464,0.00001254,-0.00001199,0.12583899,0.00088469,-0
 .00687711,0.00000039,0.00398282,0.10155202,-0.00000216,-0.32976230,0.0
 0402586,-0.00000493,-0.06916433,-0.02120614,-0.00000108,0.67785260,-0.
 00157250,-0.00725399,0.00000044,0.04213771,0.01753478,0.00000034,0.076
 90146,-0.13380373,0.00000329,-0.02458121,-0.01239659,-0.00000038,-0.00
 865388,0.74165541,-0.00000002,0.00000011,0.00676826,-0.00000087,0.0000
 0166,0.00166329,-0.00000666,0.00000185,-0.05843318,-0.00000078,-0.0000
 0025,-0.00315103,0.00001039,-0.00001311,0.13701485,0.00807193,-0.00038
 936,-0.00000035,-0.05053037,-0.06749767,0.00000040,-0.04319509,0.03352
 939,-0.00000163,-0.35623892,0.08396277,-0.00000708,0.06618697,0.002710
 19,0.00000117,0.71646452,-0.00639072,-0.00839855,0.00000022,-0.0062679
 6,0.06898601,-0.00000136,0.04087165,-0.03524430,0.00000148,0.01136548,
 -0.14189964,0.00000180,-0.05615022,-0.05612884,0.00000003,0.03343818,0
 .70547473,0.00000011,0.00000026,0.00483534,-0.00000096,-0.00000257,0.0
 0145201,-0.00000153,0.00000121,-0.00387371,-0.00000575,0.00000322,-0.0
 5780908,0.00000226,0.00000134,0.00642332,0.00001014,-0.00000978,0.1372
 2842,-0.00648135,0.00251300,-0.00000013,0.00088761,-0.02084906,0.00000
 046,-0.04710988,-0.00872412,-0.00000082,-0.00230238,0.03683294,-0.0000
 0084,-0.23246075,-0.14922421,-0.00000016,-0.14940476,0.09859341,-0.000
 00331,0.75150211,0.00628606,0.00392943,-0.00000036,-0.02271355,-0.0829
 5403,0.00000124,-0.06594885,0.05668463,-0.00000242,0.09183889,0.015234
 19,0.00000181,-0.07525395,-0.25107400,0.00000254,0.02456052,-0.3130590
 9,0.00000481,-0.00872374,0.66782080,-0.00000021,-0.00000006,-0.0011684
 4,0.00000057,0.00000107,-0.00597333,0.00000012,-0.00000110,0.00780714,
 -0.00000196,0.00000062,0.00690828,-0.00000159,0.00000104,-0.06269379,-
 0.00000185,0.00000625,-0.06201011,0.00001158,-0.00001054,0.12857545,-0
 .15232682,-0.06138536,-0.00000292,-0.05203700,-0.02635854,-0.00000159,
 0.00293853,-0.00009157,0.00000005,0.00023060,0.00476322,-0.00000020,-0
 .00100460,-0.00215285,-0.00000003,-0.00136020,-0.00145261,0.,0.0014988
 0,-0.00034393,0.00000004,0.56592702,-0.09398919,-0.18516826,-0.0000036
 3,-0.00485856,0.01325813,0.,0.00931160,0.00052461,0.00000031,0.0047552
 2,-0.00060800,0.,-0.00132230,-0.00099566,-0.00000004,0.00031766,-0.000
 07789,0.00000002,0.00160766,0.00039331,0.00000001,-0.07070618,0.535316
 25,-0.00000396,-0.00000306,-0.06058260,-0.00000086,-0.00000034,-0.0041
 3312,0.00000022,-0.00000016,-0.00123728,-0.00000003,0.,0.00224897,-0.0
 0000015,-0.00000007,0.00055451,0.00000009,-0.00000005,0.00182185,0.000
 00005,0.00000012,0.00007606,-0.00000021,-0.00000210,0.56305900,-0.0009
 8212,-0.00198260,0.00000005,0.01082756,0.00632730,0.,-0.17516387,-0.13
 992174,0.00000012,0.00016271,0.00240234,-0.00000015,-0.01471169,-0.024
 92992,0.00000023,-0.00040476,0.00109380,-0.00000002,-0.00485598,0.0026
 9660,-0.00000028,-0.00281657,0.00249478,-0.00000012,0.19113825,-0.0001
 2554,0.00169008,-0.00000008,-0.02280344,-0.01484308,-0.00000006,-0.139
 09574,-0.22322734,0.00000146,0.00308235,-0.00487185,0.00000028,0.00540
 335,0.00840637,-0.00000003,0.00154865,-0.00042272,0.00000002,0.0020810
 6,0.00167913,0.00000016,-0.00057474,-0.00101933,0.00000001,0.15028721,
 0.23168816,0.,-0.00000011,-0.00275436,0.00000055,0.00000052,0.00315283
 ,0.00000015,0.00000134,-0.03162055,-0.00000016,0.00000025,0.00596870,-
 0.00000040,-0.00000061,0.00184926,-0.00000003,0.00000003,-0.00102105,-
 0.00000029,0.00000014,0.00702454,-0.00000004,0.00000014,-0.00022769,0.
 00000015,-0.00000163,0.02304050,0.00124529,0.00098576,0.00000009,0.010
 54840,-0.01993554,0.00000049,-0.00250354,-0.00315604,-0.00000011,-0.08
 685566,0.08764528,-0.00000282,-0.00124821,-0.00059190,0.00000001,-0.00
 357349,0.02927034,-0.00000065,-0.00547541,0.00020346,-0.00000028,-0.00
 018554,-0.00005500,-0.00000001,0.00034564,-0.00114248,0.00000003,0.087
 15530,0.00112696,0.00140353,-0.00000006,0.01209231,-0.01799279,0.00000
 070,-0.00401504,-0.00235831,0.00000005,0.08545742,-0.31022859,0.000007
 02,-0.00121669,0.00063912,-0.00000006,-0.00038963,-0.00088196,0.000000
 04,0.00082723,0.00232432,0.00000012,-0.00043574,0.00008663,-0.00000003
 ,0.00058998,-0.00094200,0.00000003,-0.09456873,0.32738095,0.00000008,-
 0.00000004,-0.00333132,-0.00000005,-0.00000009,0.00481171,-0.00000013,
 0.00000008,0.00541207,-0.00000278,0.00000717,-0.03446365,0.00000002,-0
 .00000004,-0.00132298,-0.00000010,0.00000064,0.00222675,-0.00000027,0.
 00000012,0.00793914,0.,-0.00000001,-0.00054192,0.00000001,-0.00000002,
 -0.00012394,0.00000315,-0.00000773,0.02425434,-0.00097128,0.00180116,-
 0.00000006,-0.00536083,0.00006126,-0.00000024,-0.00484794,0.02965383,-
 0.00000082,-0.00124992,-0.00050585,0.00000002,-0.08383393,0.08006349,-
 0.00000257,-0.00224593,-0.00376622,-0.00000012,0.01104779,-0.02036783,
 0.00000055,0.00051843,0.00037116,0.00000002,0.00062743,-0.00026691,0.0
 0000010,0.00007042,0.00004509,0.00000002,0.08544264,0.00042463,-0.0003
 2273,0.00000003,0.00048135,0.00228715,0.00000013,-0.00072976,-0.002346
 71,0.00000010,-0.00068726,0.00076067,-0.00000006,0.08031251,-0.3113334
 3,0.00000760,-0.00434801,-0.00204244,0.00000014,0.01052445,-0.01641699
 ,0.00000063,-0.00021428,-0.00022432,-0.00000001,0.00035878,0.00068929,
 -0.00000010,0.00006955,-0.00007541,-0.00000001,-0.08625758,0.32935620,
 -0.00000003,0.00000007,-0.00000234,-0.00000028,0.00000004,0.00726871,-
 0.00000019,0.00000074,0.00339576,0.00000006,-0.00000005,-0.00132748,-0
 .00000253,0.00000762,-0.03767275,-0.00000011,0.00000015,0.00740566,-0.
 00000013,-0.00000005,0.00391467,0.00000002,0.00000002,-0.00008354,0.00
 000008,-0.00000011,-0.00399271,0.00000002,0.,-0.00071402,0.00000300,-0
 .00000834,0.02589455,-0.00151002,-0.00152377,-0.00000005,-0.00388027,0
 .00269471,-0.00000027,-0.00065673,0.00102780,-0.00000001,-0.01484446,-
 0.02484610,0.00000010,0.00084466,0.00258310,-0.00000017,-0.18036573,-0
 .13751053,-0.00000016,0.01026421,0.00856970,-0.00000003,-0.00009374,0.
 00046161,0.00000002,0.00000605,-0.00008459,0.00000002,0.00065027,0.000
 42904,0.00000009,0.00034572,0.00051159,0.,0.18884567,-0.00010067,0.000
 36640,0.,0.00244951,0.00108077,0.00000017,0.00116821,0.00007191,0.,0.0
 0603539,0.00817132,0.00000003,0.00313353,-0.00503626,0.00000028,-0.138
 09370,-0.21507603,0.00000061,-0.02208418,-0.01529320,-0.00000007,0.000
 19446,0.00003625,0.,-0.00009517,-0.00001596,-0.00000002,-0.00035116,0.
 00057742,-0.00000010,-0.00109112,-0.00099592,0.,0.14838154,0.22554148,
 -0.00000005,-0.00000004,0.00015860,-0.00000029,0.00000024,0.00843031,0
 .00000001,-0.00000002,-0.00113110,-0.00000053,-0.00000058,0.00355309,-
 0.00000017,0.00000025,0.00687713,-0.00000010,0.00000066,-0.03828470,0.
 00000051,0.00000051,0.00360330,0.00000002,0.00000002,-0.00029377,0.000
 00002,-0.00000002,-0.00081193,0.00000012,-0.00000009,-0.00444632,0.000
 00002,0.00000002,0.00000674,0.00000037,-0.00000085,0.02601755,0.000184
 25,-0.00002965,0.,0.00050240,-0.00042560,0.00000004,-0.00055023,-0.003
 91702,-0.00000006,0.00164560,0.00190378,-0.00000012,-0.01540257,0.0076
 1753,-0.00000050,-0.00524915,-0.00121246,-0.00000013,-0.32748861,0.056
 96137,-0.00000661,-0.00005658,-0.00003445,0.00000001,-0.00081427,0.000
 35181,-0.00000003,-0.00033986,-0.00012629,0.,0.00053620,-0.00044885,0.
 00000010,0.00052382,0.00045808,0.00000007,0.34650724,0.00014302,0.0003
 8874,-0.00000002,-0.00056062,-0.00185727,0.00000002,-0.00315696,-0.002
 94508,0.00000014,0.00108797,-0.00534371,0.00000024,-0.02367194,0.00915
 076,-0.00000061,0.02992174,-0.00068578,0.00000064,0.05715071,-0.069855
 78,0.00000187,-0.00009090,-0.00005516,0.,-0.00114380,0.00024376,-0.000
 00002,0.00142003,-0.00013130,0.00000004,0.00042900,0.00058383,-0.00000
 008,-0.00047629,0.00058177,-0.00000008,-0.06113526,0.06984060,0.,-0.00
 000002,-0.00066404,0.00000003,0.00000003,-0.00044809,-0.00000005,0.000
 00013,0.00715539,-0.00000014,0.00000025,0.00666654,0.00000010,-0.00000
 005,0.00206276,-0.00000066,0.,0.00181532,-0.00000666,0.00000194,-0.033
 95848,0.00000002,0.,-0.00028303,0.,0.00000001,0.00044670,-0.00000004,0
 .,0.00030625,0.00000009,-0.00000012,-0.00415766,0.00000009,-0.00000007
 ,-0.00366991,0.00000724,-0.00000212,0.02473391,-0.00481720,-0.02029804
 ,-0.02074812,0.00569914,-0.00182980,-0.00162666,0.00062404,0.00095027,
 -0.00001520,-0.00165474,-0.00050092,0.00044901,-0.00109405,-0.00021435
 ,0.00066177,0.00094777,-0.00074287,0.00033848,0.00022478,0.00109353,-0
 .00008187,-0.05367237,0.01825996,0.02590190,-0.00178097,0.00066103,-0.
 00169849,0.00007929,0.00011318,-0.00011628,-0.00001560,-0.00001088,-0.
 00006858,-0.00000519,-0.00001058,-0.00005961,0.00000538,0.00003574,-0.
 00009446,0.05477273,-0.00938427,-0.01938676,-0.01712107,0.00519561,-0.
 00078136,0.00009083,-0.00047718,0.00053877,0.00031626,-0.00098385,-0.0
 0026579,0.00024470,0.00002835,0.00006058,-0.00002153,0.00030319,-0.000
 02564,0.00019450,-0.00035107,0.00019886,-0.00007759,0.01484600,-0.1227
 4589,-0.11176542,0.00063473,0.00010909,0.00047229,0.00009001,0.0001095
 9,-0.00014604,-0.00005960,0.00004359,0.00001302,-0.00005784,-0.0000196
 2,-0.00002884,-0.00000161,0.00001670,0.00000033,-0.01068679,0.13746716
 ,-0.00461225,0.00129963,0.00872427,0.00195405,-0.00057821,0.00045631,-
 0.00043023,-0.00112878,-0.00010397,-0.00047940,0.00007576,-0.00019611,
 0.00022338,0.00050584,-0.00005590,0.00016853,0.00004606,-0.00003123,-0
 .00009566,0.00001341,-0.00003663,0.02167030,-0.11439931,-0.22526081,-0
 .00034629,0.00074612,-0.00022375,0.00006168,0.00007239,-0.00000371,-0.
 00005025,0.00000379,0.00001109,-0.00002613,0.00000337,0.00000775,0.000
 05125,0.00004575,0.00001670,-0.02202025,0.12572314,0.23477132,-0.00481
 864,-0.02029773,0.02074711,0.00569905,-0.00182985,0.00162680,0.0006239
 4,0.00095027,0.00001526,-0.00165475,-0.00050087,-0.00044908,-0.0010939
 4,-0.00021434,-0.00066180,0.00094775,-0.00074285,-0.00033839,0.0002247
 5,0.00109350,0.00008182,-0.05366902,0.01825180,-0.02588952,-0.00178129
 ,0.00066118,0.00169843,0.00007929,0.00011320,0.00011628,-0.00001561,-0
 .00001088,0.00006858,-0.00000520,-0.00001058,0.00005961,0.00000538,0.0
 0003575,0.00009446,0.00082925,-0.00059996,0.00399564,0.05476975,-0.009
 38537,-0.01938638,0.01712003,0.00519563,-0.00078152,-0.00009050,-0.000
 47717,0.00053876,-0.00031637,-0.00098386,-0.00026577,-0.00024470,0.000
 02836,0.00006061,0.00002155,0.00030318,-0.00002565,-0.00019450,-0.0003
 5107,0.00019884,0.00007757,0.01483818,-0.12274675,0.11176682,0.0006348
 6,0.00010912,-0.00047224,0.00009001,0.00010960,0.00014605,-0.00005961,
 0.00004359,-0.00001303,-0.00005785,-0.00001962,0.00002883,-0.00000161,
 0.00001671,-0.00000033,-0.00059888,0.01138474,-0.01448783,-0.01067828,
 0.13746778,0.00461131,-0.00130131,0.00872633,-0.00195368,0.00057810,0.
 00045627,0.00043029,0.00112894,-0.00010403,0.00047925,-0.00007581,-0.0
 0019612,-0.00022349,-0.00050590,-0.00005595,-0.00016843,-0.00004613,-0
 .00003125,0.00009567,-0.00001330,-0.00003662,-0.02165797,0.11440073,-0
 .22526319,0.00034617,-0.00074610,-0.00022347,-0.00006168,-0.00007238,-
 0.00000370,0.00005025,-0.00000379,0.00001110,0.00002613,-0.00000337,0.
 00000776,-0.00005125,-0.00004575,0.00001671,-0.00399416,0.01448786,-0.
 01966576,0.02200736,-0.12572391,0.23477318,-0.03209750,0.00497980,-0.0
 0000091,0.00109325,-0.00424215,-0.00000014,0.00018656,-0.00041789,0.00
 000002,-0.00116066,0.00058733,-0.00000006,0.00002464,0.00012168,-0.000
 00001,-0.00005055,-0.00039643,0.00000002,-0.00007093,0.00004822,0.,-0.
 25389094,0.11513424,-0.00000747,0.00020387,0.00001680,0.00000003,0.000
 00780,-0.00004231,0.,-0.00004759,0.00002463,0.,-0.00011908,0.00001643,
 0.,-0.00000900,0.00001180,0.,-0.00014226,0.00150429,-0.00006438,-0.000
 14071,0.00150347,0.00006424,0.28621309,-0.03488091,0.01019702,-0.00000
 111,-0.00253182,-0.00373641,-0.00000016,0.00019618,-0.00131937,0.00000
 006,-0.00129262,0.00058597,-0.00000003,-0.00013175,0.00051487,0.,0.000
 12290,-0.00049220,0.00000003,0.00017699,0.00018959,0.,0.12916484,-0.11
 597392,0.00000430,0.00055286,0.00072729,-0.00000002,0.00002642,-0.0000
 2079,0.,-0.00005029,-0.00000637,0.,-0.00010213,0.00002929,0.,0.0000402
 5,0.00005119,0.,0.01377937,-0.00670401,0.00205886,0.01377963,-0.006704
 08,-0.00205786,-0.11884993,0.12266193,-0.00000117,0.00000021,0.0000337
 7,0.00000006,-0.00000012,0.00050325,0.00000002,0.00000001,0.00038846,-
 0.00000007,0.00000001,0.00039323,-0.00000003,0.,0.00017222,0.00000002,
 -0.00000003,-0.00014755,0.,0.00000002,0.00002881,-0.00000749,0.0000038
 5,-0.04985343,0.00000003,-0.00000003,-0.00048309,0.,0.,0.00000130,0.,0
 .,0.00004222,0.,0.,-0.00002448,0.,0.,-0.00003907,0.02317252,-0.0123824
 4,0.00159044,-0.02317256,0.01238255,0.00158875,0.00000867,-0.00000404,
 0.04580516\\-0.00002951,-0.00004327,-0.00000067,0.00003553,-0.00024411
 ,0.00000120,-0.00024829,0.00022740,-0.00000030,0.00017455,0.00002165,-
 0.00000031,0.00021068,-0.00000214,-0.00000015,-0.00016048,0.00014895,-
 0.00000032,-0.00006097,-0.00017653,0.00000031,0.00008177,0.00002863,0.
 00000016,0.00000908,-0.00003743,-0.00000003,-0.00003795,-0.00000515,0.
 00000011,-0.00000739,0.00000872,-0.00000010,0.00003877,-0.00004474,0.0
 0000004,0.00003791,0.00002172,0.00000003,0.00001627,0.00004359,-0.0000
 0393,0.00001610,0.00004374,0.00000388,-0.00007608,0.00000897,0.0000001
 0\\\@


 COMMON SENSE IS NOT SO COMMON.   -- VOLTAIRE
 Job cpu time:       0 days  1 hours 18 minutes 42.7 seconds.
 Elapsed time:       0 days  0 hours  4 minutes 57.0 seconds.
 File lengths (MBytes):  RWF=     84 Int=      0 D2E=      0 Chk=      6 Scr=      1
 Normal termination of Gaussian 16 at Thu Sep 18 01:24:57 2025.
