 Entering Gaussian System, Link 0=g16
 Input=ALDG0084.gjf
 Output=ALDG0084.log
 Initial command:
 /usr/local/g16/l1.exe "/dados_01/scratch/Gau-1896445.inp" -scrdir="/dados_01/scratch/"
 Entering Link 1 = /usr/local/g16/l1.exe PID=   1896446.
  
 Copyright (c) 1988-2017, Gaussian, Inc.  All Rights Reserved.
  
 This is part of the Gaussian(R) 16 program.  It is based on
 the Gaussian(R) 09 system (copyright 2009, Gaussian, Inc.),
 the Gaussian(R) 03 system (copyright 2003, Gaussian, Inc.),
 the Gaussian(R) 98 system (copyright 1998, Gaussian, Inc.),
 the Gaussian(R) 94 system (copyright 1995, Gaussian, Inc.),
 the Gaussian 92(TM) system (copyright 1992, Gaussian, Inc.),
 the Gaussian 90(TM) system (copyright 1990, Gaussian, Inc.),
 the Gaussian 88(TM) system (copyright 1988, Gaussian, Inc.),
 the Gaussian 86(TM) system (copyright 1986, Carnegie Mellon
 University), and the Gaussian 82(TM) system (copyright 1983,
 Carnegie Mellon University). Gaussian is a federally registered
 trademark of Gaussian, Inc.
  
 This software contains proprietary and confidential information,
 including trade secrets, belonging to Gaussian, Inc.
  
 This software is provided under written license and may be
 used, copied, transmitted, or stored only in accord with that
 written license.
  
 The following legend is applicable only to US Government
 contracts under FAR:
  
                    RESTRICTED RIGHTS LEGEND
  
 Use, reproduction and disclosure by the US Government is
 subject to restrictions as set forth in subparagraphs (a)
 and (c) of the Commercial Computer Software - Restricted
 Rights clause in FAR 52.227-19.
  
 Gaussian, Inc.
 340 Quinnipiac St., Bldg. 40, Wallingford CT 06492
  
  
 ---------------------------------------------------------------
 Warning -- This program may not be used in any manner that
 competes with the business of Gaussian, Inc. or will provide
 assistance to any competitor of Gaussian, Inc.  The licensee
 of this program is prohibited from giving any competitor of
 Gaussian, Inc. access to this program.  By using this program,
 the user acknowledges that Gaussian, Inc. is engaged in the
 business of creating and licensing software in the field of
 computational chemistry and represents and warrants to the
 licensee that it is not a competitor of Gaussian, Inc. and that
 it will not use this program in any manner prohibited above.
 ---------------------------------------------------------------
  

 Cite this work as:
 Gaussian 16, Revision B.01,
 M. J. Frisch, G. W. Trucks, H. B. Schlegel, G. E. Scuseria, 
 M. A. Robb, J. R. Cheeseman, G. Scalmani, V. Barone, 
 G. A. Petersson, H. Nakatsuji, X. Li, M. Caricato, A. V. Marenich, 
 J. Bloino, B. G. Janesko, R. Gomperts, B. Mennucci, H. P. Hratchian, 
 J. V. Ortiz, A. F. Izmaylov, J. L. Sonnenberg, D. Williams-Young, 
 F. Ding, F. Lipparini, F. Egidi, J. Goings, B. Peng, A. Petrone, 
 T. Henderson, D. Ranasinghe, V. G. Zakrzewski, J. Gao, N. Rega, 
 G. Zheng, W. Liang, M. Hada, M. Ehara, K. Toyota, R. Fukuda, 
 J. Hasegawa, M. Ishida, T. Nakajima, Y. Honda, O. Kitao, H. Nakai, 
 T. Vreven, K. Throssell, J. A. Montgomery, Jr., J. E. Peralta, 
 F. Ogliaro, M. J. Bearpark, J. J. Heyd, E. N. Brothers, K. N. Kudin, 
 V. N. Staroverov, T. A. Keith, R. Kobayashi, J. Normand, 
 K. Raghavachari, A. P. Rendell, J. C. Burant, S. S. Iyengar, 
 J. Tomasi, M. Cossi, J. M. Millam, M. Klene, C. Adamo, R. Cammi, 
 J. W. Ochterski, R. L. Martin, K. Morokuma, O. Farkas, 
 J. B. Foresman, and D. J. Fox, Gaussian, Inc., Wallingford CT, 2016.
 
 ******************************************
 Gaussian 16:  ES64L-G16RevB.01 20-Dec-2017
                18-Sep-2025 
 ******************************************
 %nprocs=16
 Will use up to   16 processors via shared memory.
 %mem=40GB
 %chk=ALDG0084.chk
 ----------------------------------------------------------------------
 # opt freq=noraman M08HX/6-311++G** scf=xqc Empiricaldispersion=pfd In
 t(Grid=ultraFine)
 ----------------------------------------------------------------------
 1/18=20,19=15,26=4,38=1/1,3;
 2/9=110,12=2,17=6,18=5,40=1/2;
 3/5=4,6=6,7=1111,11=2,25=1,30=1,71=1,74=-74,75=-5,124=11/1,2,3;
 4//1;
 5/5=2,8=3,13=1,38=5/2,8;
 6/7=2,8=2,9=2,10=2,28=1/1;
 7//1,2,3,16;
 1/18=20,19=15,26=4/3(2);
 2/9=110/2;
 99//99;
 2/9=110/2;
 3/5=4,6=6,7=1111,11=2,25=1,30=1,71=1,74=-74,75=-5,124=11/1,2,3;
 4/5=5,16=3,69=1/1;
 5/5=2,8=3,13=1,38=5/2,8;
 7//1,2,3,16;
 1/18=20,19=15,26=4/3(-5);
 2/9=110/2;
 6/7=2,8=2,9=2,10=2,19=2,28=1/1;
 99/9=1/99;
 --------
 ALDG0084
 --------
 Symbolic Z-matrix:
 Charge =  0 Multiplicity = 1
 O                     0.8627    0.8621   -0.6327 
 O                     0.2925   -1.9663   -0.8431 
 O                    -2.1731   -1.7723    0.415 
 O                    -2.7847    0.9572   -0.2571 
 O                    -0.5222    2.1941    0.7489 
 O                     3.4819    0.5566    0.0936 
 C                     0.1933   -1.2536    0.3924 
 C                    -1.23     -0.7139    0.5587 
 C                     1.202    -0.0975    0.3804 
 C                    -1.5137    0.3601   -0.4915 
 C                    -0.4326    1.4435   -0.4613 
 C                     2.6239   -0.5701    0.0968 
 H                     0.421    -1.9703    1.1885 
 H                    -1.3604   -0.3038    1.5675 
 H                     1.1965    0.4199    1.3483 
 H                    -1.5569   -0.1048   -1.4837 
 H                    -0.6018    2.1429   -1.2877 
 H                     2.7109   -1.0472   -0.8844 
 H                     2.9691   -1.2718    0.8618 
 H                     0.2818   -1.3222   -1.5709 
 H                    -3.0611   -1.3844    0.4979 
 H                    -2.9241    1.6305   -0.9449 
 H                    -0.1522    3.0746    0.5672 
 H                     3.1588    1.1706   -0.588 
 

 GradGradGradGradGradGradGradGradGradGradGradGradGradGradGradGradGradGrad
 Berny optimization.
 Initialization pass.
                           ----------------------------
                           !    Initial Parameters    !
                           ! (Angstroms and Degrees)  !
 --------------------------                            --------------------------
 ! Name  Definition              Value          Derivative Info.                !
 --------------------------------------------------------------------------------
 ! R1    R(1,9)                  1.4361         estimate D2E/DX2                !
 ! R2    R(1,11)                 1.4301         estimate D2E/DX2                !
 ! R3    R(2,7)                  1.4298         estimate D2E/DX2                !
 ! R4    R(2,20)                 0.9719         estimate D2E/DX2                !
 ! R5    R(3,8)                  1.4249         estimate D2E/DX2                !
 ! R6    R(3,21)                 0.9726         estimate D2E/DX2                !
 ! R7    R(4,10)                 1.4237         estimate D2E/DX2                !
 ! R8    R(4,22)                 0.9725         estimate D2E/DX2                !
 ! R9    R(5,11)                 1.4269         estimate D2E/DX2                !
 ! R10   R(5,23)                 0.9722         estimate D2E/DX2                !
 ! R11   R(6,12)                 1.4162         estimate D2E/DX2                !
 ! R12   R(6,24)                 0.9726         estimate D2E/DX2                !
 ! R13   R(7,8)                  1.5312         estimate D2E/DX2                !
 ! R14   R(7,9)                  1.5343         estimate D2E/DX2                !
 ! R15   R(7,13)                 1.0951         estimate D2E/DX2                !
 ! R16   R(8,10)                 1.5287         estimate D2E/DX2                !
 ! R17   R(8,14)                 1.0968         estimate D2E/DX2                !
 ! R18   R(9,12)                 1.525          estimate D2E/DX2                !
 ! R19   R(9,15)                 1.0975         estimate D2E/DX2                !
 ! R20   R(10,11)                1.5308         estimate D2E/DX2                !
 ! R21   R(10,16)                1.0966         estimate D2E/DX2                !
 ! R22   R(11,17)                1.0958         estimate D2E/DX2                !
 ! R23   R(12,18)                1.0945         estimate D2E/DX2                !
 ! R24   R(12,19)                1.094          estimate D2E/DX2                !
 ! A1    A(9,1,11)             113.647          estimate D2E/DX2                !
 ! A2    A(7,2,20)             108.4192         estimate D2E/DX2                !
 ! A3    A(8,3,21)             107.4259         estimate D2E/DX2                !
 ! A4    A(10,4,22)            107.5706         estimate D2E/DX2                !
 ! A5    A(11,5,23)            107.098          estimate D2E/DX2                !
 ! A6    A(12,6,24)            107.6117         estimate D2E/DX2                !
 ! A7    A(2,7,8)              109.5135         estimate D2E/DX2                !
 ! A8    A(2,7,9)              108.8578         estimate D2E/DX2                !
 ! A9    A(2,7,13)             106.71           estimate D2E/DX2                !
 ! A10   A(8,7,9)              110.2642         estimate D2E/DX2                !
 ! A11   A(8,7,13)             110.1807         estimate D2E/DX2                !
 ! A12   A(9,7,13)             111.23           estimate D2E/DX2                !
 ! A13   A(3,8,7)              110.0269         estimate D2E/DX2                !
 ! A14   A(3,8,10)             109.2533         estimate D2E/DX2                !
 ! A15   A(3,8,14)             106.9667         estimate D2E/DX2                !
 ! A16   A(7,8,10)             110.2132         estimate D2E/DX2                !
 ! A17   A(7,8,14)             110.0111         estimate D2E/DX2                !
 ! A18   A(10,8,14)            110.3121         estimate D2E/DX2                !
 ! A19   A(1,9,7)              110.7123         estimate D2E/DX2                !
 ! A20   A(1,9,12)             107.2285         estimate D2E/DX2                !
 ! A21   A(1,9,15)             107.8152         estimate D2E/DX2                !
 ! A22   A(7,9,12)             112.3909         estimate D2E/DX2                !
 ! A23   A(7,9,15)             110.183          estimate D2E/DX2                !
 ! A24   A(12,9,15)            108.3472         estimate D2E/DX2                !
 ! A25   A(4,10,8)             110.3178         estimate D2E/DX2                !
 ! A26   A(4,10,11)            109.2934         estimate D2E/DX2                !
 ! A27   A(4,10,16)            106.9544         estimate D2E/DX2                !
 ! A28   A(8,10,11)            110.6466         estimate D2E/DX2                !
 ! A29   A(8,10,16)            109.3333         estimate D2E/DX2                !
 ! A30   A(11,10,16)           110.2256         estimate D2E/DX2                !
 ! A31   A(1,11,5)             111.8626         estimate D2E/DX2                !
 ! A32   A(1,11,10)            110.4606         estimate D2E/DX2                !
 ! A33   A(1,11,17)            107.9961         estimate D2E/DX2                !
 ! A34   A(5,11,10)            110.1619         estimate D2E/DX2                !
 ! A35   A(5,11,17)            107.1089         estimate D2E/DX2                !
 ! A36   A(10,11,17)           109.1347         estimate D2E/DX2                !
 ! A37   A(6,12,9)             108.5879         estimate D2E/DX2                !
 ! A38   A(6,12,18)            107.2543         estimate D2E/DX2                !
 ! A39   A(6,12,19)            108.7059         estimate D2E/DX2                !
 ! A40   A(9,12,18)            112.0812         estimate D2E/DX2                !
 ! A41   A(9,12,19)            111.2816         estimate D2E/DX2                !
 ! A42   A(18,12,19)           108.7968         estimate D2E/DX2                !
 ! D1    D(11,1,9,7)            59.7289         estimate D2E/DX2                !
 ! D2    D(11,1,9,12)         -177.3401         estimate D2E/DX2                !
 ! D3    D(11,1,9,15)          -60.8648         estimate D2E/DX2                !
 ! D4    D(9,1,11,5)            63.348          estimate D2E/DX2                !
 ! D5    D(9,1,11,10)          -59.7516         estimate D2E/DX2                !
 ! D6    D(9,1,11,17)         -179.0302         estimate D2E/DX2                !
 ! D7    D(20,2,7,8)            72.5599         estimate D2E/DX2                !
 ! D8    D(20,2,7,9)           -48.06           estimate D2E/DX2                !
 ! D9    D(20,2,7,13)         -168.1963         estimate D2E/DX2                !
 ! D10   D(21,3,8,7)          -178.1766         estimate D2E/DX2                !
 ! D11   D(21,3,8,10)          -57.0553         estimate D2E/DX2                !
 ! D12   D(21,3,8,14)           62.3507         estimate D2E/DX2                !
 ! D13   D(22,4,10,8)         -179.9581         estimate D2E/DX2                !
 ! D14   D(22,4,10,11)          58.1723         estimate D2E/DX2                !
 ! D15   D(22,4,10,16)         -61.1455         estimate D2E/DX2                !
 ! D16   D(23,5,11,1)           82.9814         estimate D2E/DX2                !
 ! D17   D(23,5,11,10)        -153.75           estimate D2E/DX2                !
 ! D18   D(23,5,11,17)         -35.1706         estimate D2E/DX2                !
 ! D19   D(24,6,12,9)          -58.5393         estimate D2E/DX2                !
 ! D20   D(24,6,12,18)          62.7762         estimate D2E/DX2                !
 ! D21   D(24,6,12,19)        -179.7477         estimate D2E/DX2                !
 ! D22   D(2,7,8,3)             53.5705         estimate D2E/DX2                !
 ! D23   D(2,7,8,10)           -66.9739         estimate D2E/DX2                !
 ! D24   D(2,7,8,14)           171.1708         estimate D2E/DX2                !
 ! D25   D(9,7,8,3)            173.3313         estimate D2E/DX2                !
 ! D26   D(9,7,8,10)            52.7869         estimate D2E/DX2                !
 ! D27   D(9,7,8,14)           -69.0683         estimate D2E/DX2                !
 ! D28   D(13,7,8,3)           -63.5107         estimate D2E/DX2                !
 ! D29   D(13,7,8,10)          175.9448         estimate D2E/DX2                !
 ! D30   D(13,7,8,14)           54.0896         estimate D2E/DX2                !
 ! D31   D(2,7,9,1)             64.9742         estimate D2E/DX2                !
 ! D32   D(2,7,9,12)           -54.9098         estimate D2E/DX2                !
 ! D33   D(2,7,9,15)          -175.8508         estimate D2E/DX2                !
 ! D34   D(8,7,9,1)            -55.1825         estimate D2E/DX2                !
 ! D35   D(8,7,9,12)          -175.0665         estimate D2E/DX2                !
 ! D36   D(8,7,9,15)            63.9925         estimate D2E/DX2                !
 ! D37   D(13,7,9,1)          -177.7262         estimate D2E/DX2                !
 ! D38   D(13,7,9,12)           62.3898         estimate D2E/DX2                !
 ! D39   D(13,7,9,15)          -58.5512         estimate D2E/DX2                !
 ! D40   D(3,8,10,4)            64.7788         estimate D2E/DX2                !
 ! D41   D(3,8,10,11)         -174.155          estimate D2E/DX2                !
 ! D42   D(3,8,10,16)          -52.5726         estimate D2E/DX2                !
 ! D43   D(7,8,10,4)          -174.2132         estimate D2E/DX2                !
 ! D44   D(7,8,10,11)          -53.147          estimate D2E/DX2                !
 ! D45   D(7,8,10,16)           68.4354         estimate D2E/DX2                !
 ! D46   D(14,8,10,4)          -52.5364         estimate D2E/DX2                !
 ! D47   D(14,8,10,11)          68.5297         estimate D2E/DX2                !
 ! D48   D(14,8,10,16)        -169.8879         estimate D2E/DX2                !
 ! D49   D(1,9,12,6)            57.6459         estimate D2E/DX2                !
 ! D50   D(1,9,12,18)          -60.6572         estimate D2E/DX2                !
 ! D51   D(1,9,12,19)          177.2575         estimate D2E/DX2                !
 ! D52   D(7,9,12,6)           179.5325         estimate D2E/DX2                !
 ! D53   D(7,9,12,18)           61.2294         estimate D2E/DX2                !
 ! D54   D(7,9,12,19)          -60.8559         estimate D2E/DX2                !
 ! D55   D(15,9,12,6)          -58.478          estimate D2E/DX2                !
 ! D56   D(15,9,12,18)        -176.7811         estimate D2E/DX2                !
 ! D57   D(15,9,12,19)          61.1336         estimate D2E/DX2                !
 ! D58   D(4,10,11,1)          177.3263         estimate D2E/DX2                !
 ! D59   D(4,10,11,5)           53.2431         estimate D2E/DX2                !
 ! D60   D(4,10,11,17)         -64.0869         estimate D2E/DX2                !
 ! D61   D(8,10,11,1)           55.655          estimate D2E/DX2                !
 ! D62   D(8,10,11,5)          -68.4282         estimate D2E/DX2                !
 ! D63   D(8,10,11,17)         174.2419         estimate D2E/DX2                !
 ! D64   D(16,10,11,1)         -65.4            estimate D2E/DX2                !
 ! D65   D(16,10,11,5)         170.5168         estimate D2E/DX2                !
 ! D66   D(16,10,11,17)         53.1869         estimate D2E/DX2                !
 --------------------------------------------------------------------------------
 Trust Radius=3.00D-01 FncErr=1.00D-07 GrdErr=1.00D-06 EigMax=2.50D+02 EigMin=1.00D-04
 Number of steps in this run=    142 maximum allowed number of steps=    144.
 GradGradGradGradGradGradGradGradGradGradGradGradGradGradGradGradGradGrad

                          Input orientation:                          
 ---------------------------------------------------------------------
 Center     Atomic      Atomic             Coordinates (Angstroms)
 Number     Number       Type             X           Y           Z
 ---------------------------------------------------------------------
      1          8           0        0.862700    0.862100   -0.632700
      2          8           0        0.292500   -1.966300   -0.843100
      3          8           0       -2.173100   -1.772300    0.415000
      4          8           0       -2.784700    0.957200   -0.257100
      5          8           0       -0.522200    2.194100    0.748900
      6          8           0        3.481900    0.556600    0.093600
      7          6           0        0.193300   -1.253600    0.392400
      8          6           0       -1.230000   -0.713900    0.558700
      9          6           0        1.202000   -0.097500    0.380400
     10          6           0       -1.513700    0.360100   -0.491500
     11          6           0       -0.432600    1.443500   -0.461300
     12          6           0        2.623900   -0.570100    0.096800
     13          1           0        0.421000   -1.970300    1.188500
     14          1           0       -1.360400   -0.303800    1.567500
     15          1           0        1.196500    0.419900    1.348300
     16          1           0       -1.556900   -0.104800   -1.483700
     17          1           0       -0.601800    2.142900   -1.287700
     18          1           0        2.710900   -1.047200   -0.884400
     19          1           0        2.969100   -1.271800    0.861800
     20          1           0        0.281800   -1.322200   -1.570900
     21          1           0       -3.061100   -1.384400    0.497900
     22          1           0       -2.924100    1.630500   -0.944900
     23          1           0       -0.152200    3.074600    0.567200
     24          1           0        3.158800    1.170600   -0.588000
 ---------------------------------------------------------------------
                    Distance matrix (angstroms):
                    1          2          3          4          5
     1  O    0.000000
     2  O    2.892964   0.000000
     3  O    4.153772   2.774822   0.000000
     4  O    3.667921   4.284788   2.876794   0.000000
     5  O    2.366641   4.528480   4.309210   2.767827   0.000000
     6  O    2.735151   4.173093   6.124222   6.289177   4.375345
     7  C    2.444404   1.429770   2.422686   3.765365   3.539162
     8  C    2.877951   2.418999   1.424885   2.423881   2.998937
     9  C    1.436081   2.411754   3.767951   4.172838   2.891382
    10  C    2.432944   2.966162   2.409083   1.423697   2.425947
    11  C    1.430107   3.506890   3.760135   2.410510   1.426889
    12  C    2.384364   2.875450   4.955577   5.631238   4.238394
    13  H    3.396227   2.035664   2.714196   4.575645   4.292447
    14  H    3.338020   3.362585   2.035984   2.635890   2.759020
    15  H    2.057018   3.363540   4.126862   4.326194   2.541849
    16  H    2.741088   2.701080   2.601023   2.034671   3.367499
    17  H    2.052860   4.228826   4.549391   2.689437   2.038798
    18  H    2.669199   2.587491   5.105650   5.883260   4.860723
    19  H    3.350221   3.248569   5.185784   6.271092   4.920811
    20  H    2.447209   0.971942   3.189502   4.040440   4.288619
    21  H    4.660604   3.658350   0.972565   2.475785   4.394847
    22  H    3.876566   4.826370   3.740639   0.972540   2.992612
    23  H    2.713842   5.253321   5.253536   3.477486   0.972211
    24  H    2.317163   4.256864   6.172182   5.956528   4.047791
                    6          7          8          9         10
     6  O    0.000000
     7  C    3.765766   0.000000
     8  C    4.902294   1.531246   0.000000
     9  C    2.389152   1.534336   2.515226   0.000000
    10  C    5.033585   2.509812   1.528686   2.888708   0.000000
    11  C    4.051890   2.897396   2.516073   2.398970   1.530831
    12  C    1.416202   2.542119   3.884144   1.524985   4.281484
    13  H    4.117419   1.095117   2.168177   2.184117   3.463557
    14  H    5.134252   2.167248   1.096751   2.831547   2.168812
    15  H    2.610749   2.172730   2.792288   1.097526   3.276221
    16  H    5.321168   2.811173   2.156215   3.329632   1.096567
    17  H    4.593576   3.871838   3.459066   3.325003   2.154964
    18  H    2.030542   2.830394   4.210026   2.185962   4.470135
    19  H    2.048449   2.815268   4.246830   2.175631   4.958832
    20  H    4.067074   1.966491   2.681560   2.480772   2.686830
    21  H    6.836797   3.258736   1.950947   4.454654   2.533109
    22  H    6.577886   4.452481   3.259908   4.665523   1.951593
    23  H    4.446493   4.345485   3.938840   3.454124   3.216059
    24  H    0.972609   3.953748   4.912008   2.524865   4.743256
                   11         12         13         14         15
    11  C    0.000000
    12  C    3.702466   0.000000
    13  H    3.886451   2.829335   0.000000
    14  H    2.833708   4.255411   2.468653   0.000000
    15  H    2.641283   2.140986   2.517934   2.666370   0.000000
    16  H    2.169467   4.493726   3.812195   3.063990   3.984563
    17  H    1.095776   4.436479   4.908778   3.835881   3.626446
    18  H    4.032889   1.094508   3.223766   4.810399   3.070951
    19  H    4.549177   1.093970   2.662226   4.492172   2.498128
    20  H    3.064421   2.971920   2.837904   3.685582   3.520414
    21  H    3.978203   5.757012   3.597948   2.281254   4.701684
    22  H    2.544879   6.058720   5.357877   3.535368   4.868641
    23  H    1.948570   4.605632   5.115231   3.724773   3.078399
    24  H    3.603981   1.945535   4.529542   5.219502   2.857172
                   16         17         18         19         20
    16  H    0.000000
    17  H    2.450059   0.000000
    18  H    4.411507   4.616641   0.000000
    19  H    5.229525   5.388121   1.779418   0.000000
    20  H    2.206917   3.587181   2.539180   3.625210   0.000000
    21  H    2.797630   4.656004   5.944783   6.042219   3.931766
    22  H    2.273941   2.402737   6.239148   6.813025   4.403193
    23  H    4.035834   2.123878   5.224339   5.359151   4.908327
    24  H    4.966563   3.946778   2.281908   2.846616   3.931574
                   21         22         23         24
    21  H    0.000000
    22  H    3.345155   0.000000
    23  H    5.324395   3.472074   0.000000
    24  H    6.811341   6.110692   3.990291   0.000000
 Stoichiometry    C6H12O6
 Framework group  C1[X(C6H12O6)]
 Deg. of freedom    66
 Full point group                 C1      NOp   1
 Largest Abelian subgroup         C1      NOp   1
 Largest concise Abelian subgroup C1      NOp   1
                         Standard orientation:                         
 ---------------------------------------------------------------------
 Center     Atomic      Atomic             Coordinates (Angstroms)
 Number     Number       Type             X           Y           Z
 ---------------------------------------------------------------------
      1          8           0       -0.863817    0.841415    0.612421
      2          8           0       -0.311249   -1.989777    0.832107
      3          8           0        2.155578   -1.815245   -0.426439
      4          8           0        2.784124    0.912577    0.236780
      5          8           0        0.529422    2.160244   -0.773423
      6          8           0       -3.484830    0.549855   -0.113068
      7          6           0       -0.207548   -1.281751   -0.405709
      8          6           0        1.219094   -0.751469   -0.573667
      9          6           0       -1.209031   -0.119361   -0.397561
     10          6           0        1.509419    0.324171    0.473037
     11          6           0        0.435087    1.414176    0.439217
     12          6           0       -2.633861   -0.582169   -0.112523
     13          1           0       -0.439663   -1.999618   -1.199478
     14          1           0        1.352098   -0.345489   -1.583793
     15          1           0       -1.200259    0.394828   -1.367147
     16          1           0        1.549671   -0.137743    1.466755
     17          1           0        0.608594    2.115207    1.263339
     18          1           0       -2.723882   -1.055508    0.870225
     19          1           0       -2.983382   -1.284204   -0.875250
     20          1           0       -0.296577   -1.343380    1.557799
     21          1           0        3.045980   -1.433154   -0.510542
     22          1           0        2.927677    1.587241    0.922386
     23          1           0        0.164902    3.043620   -0.594629
     24          1           0       -3.157949    1.164056    0.566545
 ---------------------------------------------------------------------
 Rotational constants (GHZ):           1.3890160           0.7551905           0.5522615
 Standard basis: 6-311++G(d,p) (5D, 7F)
 There are   360 symmetry adapted cartesian basis functions of A   symmetry.
 There are   348 symmetry adapted basis functions of A   symmetry.
   348 basis functions,   540 primitive gaussians,   360 cartesian basis functions
    48 alpha electrons       48 beta electrons
       nuclear repulsion energy       838.5118447232 Hartrees.
 NAtoms=   24 NActive=   24 NUniq=   24 SFac= 1.00D+00 NAtFMM=   60 NAOKFM=F Big=F
 Integral buffers will be    131072 words long.
 Raffenetti 2 integral format.
 Two-electron integral symmetry is turned on.
 R6APFD:  NTU= -4 IXU= 1 FactS= 1.050
 Nuclear repulsion after empirical dispersion term =      838.4868063323 Hartrees.
 One-electron integrals computed using PRISM.
 NBasis=   348 RedAO= T EigKep=  3.80D-06  NBF=   348
 NBsUse=   348 1.00D-06 EigRej= -1.00D+00 NBFU=   348
 ExpMin= 3.60D-02 ExpMax= 8.59D+03 ExpMxC= 1.30D+03 IAcc=3 IRadAn=         5 AccDes= 0.00D+00
 Harris functional with IExCor= 1009 and IRadAn=       5 diagonalized for initial guess.
 HarFok:  IExCor= 1009 AccDes= 0.00D+00 IRadAn=         5 IDoV= 1 UseB2=F ITyADJ=14
 ICtDFT=  3500011 ScaDFX=  1.000000  1.000000  1.000000  1.000000
 FoFCou: FMM=F IPFlag=           0 FMFlag=      100000 FMFlg1=           0
         NFxFlg=           0 DoJE=T BraDBF=F KetDBF=T FulRan=T
         wScrn=  0.000000 ICntrl=       500 IOpCl=  0 I1Cent=   200000004 NGrid=           0
         NMat0=    1 NMatS0=      1 NMatT0=    0 NMatD0=    1 NMtDS0=    0 NMtDT0=    0
 Petite list used in FoFCou.
 Requested convergence on RMS density matrix=1.00D-08 within  32 cycles.
 Requested convergence on MAX density matrix=1.00D-06.
 Requested convergence on             energy=1.00D-06.
 No special actions if energy rises.
 SCF Done:  E(RM08HX) =  -687.174111668     A.U. after   14 cycles
            NFock= 14  Conv=0.22D-08     -V/T= 2.0040
 QCSCF skips out because SCF is already converged.

 **********************************************************************

            Population analysis using the SCF Density.

 **********************************************************************

 Orbital symmetries:
       Occupied  (A) (A) (A) (A) (A) (A) (A) (A) (A) (A) (A) (A)
                 (A) (A) (A) (A) (A) (A) (A) (A) (A) (A) (A) (A)
                 (A) (A) (A) (A) (A) (A) (A) (A) (A) (A) (A) (A)
                 (A) (A) (A) (A) (A) (A) (A) (A) (A) (A) (A) (A)
       Virtual   (A) (A) (A) (A) (A) (A) (A) (A) (A) (A) (A) (A)
                 (A) (A) (A) (A) (A) (A) (A) (A) (A) (A) (A) (A)
                 (A) (A) (A) (A) (A) (A) (A) (A) (A) (A) (A) (A)
                 (A) (A) (A) (A) (A) (A) (A) (A) (A) (A) (A) (A)
                 (A) (A) (A) (A) (A) (A) (A) (A) (A) (A) (A) (A)
                 (A) (A) (A) (A) (A) (A) (A) (A) (A) (A) (A) (A)
                 (A) (A) (A) (A) (A) (A) (A) (A) (A) (A) (A) (A)
                 (A) (A) (A) (A) (A) (A) (A) (A) (A) (A) (A) (A)
                 (A) (A) (A) (A) (A) (A) (A) (A) (A) (A) (A) (A)
                 (A) (A) (A) (A) (A) (A) (A) (A) (A) (A) (A) (A)
                 (A) (A) (A) (A) (A) (A) (A) (A) (A) (A) (A) (A)
                 (A) (A) (A) (A) (A) (A) (A) (A) (A) (A) (A) (A)
                 (A) (A) (A) (A) (A) (A) (A) (A) (A) (A) (A) (A)
                 (A) (A) (A) (A) (A) (A) (A) (A) (A) (A) (A) (A)
                 (A) (A) (A) (A) (A) (A) (A) (A) (A) (A) (A) (A)
                 (A) (A) (A) (A) (A) (A) (A) (A) (A) (A) (A) (A)
                 (A) (A) (A) (A) (A) (A) (A) (A) (A) (A) (A) (A)
                 (A) (A) (A) (A) (A) (A) (A) (A) (A) (A) (A) (A)
                 (A) (A) (A) (A) (A) (A) (A) (A) (A) (A) (A) (A)
                 (A) (A) (A) (A) (A) (A) (A) (A) (A) (A) (A) (A)
                 (A) (A) (A) (A) (A) (A) (A) (A) (A) (A) (A) (A)
                 (A) (A) (A) (A) (A) (A) (A) (A) (A) (A) (A) (A)
                 (A) (A) (A) (A) (A) (A) (A) (A) (A) (A) (A) (A)
                 (A) (A) (A) (A) (A) (A) (A) (A) (A) (A) (A) (A)
                 (A) (A) (A) (A) (A) (A) (A) (A) (A) (A) (A) (A)
 The electronic state is 1-A.
 Alpha  occ. eigenvalues --  -19.65135 -19.64289 -19.63717 -19.61409 -19.61190
 Alpha  occ. eigenvalues --  -19.60716 -10.66502 -10.60842 -10.59987 -10.59938
 Alpha  occ. eigenvalues --  -10.59685 -10.58235  -1.22128  -1.17425  -1.16348
 Alpha  occ. eigenvalues --   -1.14777  -1.13597  -1.13206  -0.90078  -0.89359
 Alpha  occ. eigenvalues --   -0.80092  -0.76256  -0.72309  -0.68256  -0.64611
 Alpha  occ. eigenvalues --   -0.63098  -0.62848  -0.61082  -0.58065  -0.56492
 Alpha  occ. eigenvalues --   -0.56055  -0.54568  -0.52872  -0.52288  -0.50351
 Alpha  occ. eigenvalues --   -0.48863  -0.47661  -0.47054  -0.44509  -0.43394
 Alpha  occ. eigenvalues --   -0.41856  -0.40872  -0.39924  -0.38795  -0.38097
 Alpha  occ. eigenvalues --   -0.36389  -0.35422  -0.34260
 Alpha virt. eigenvalues --   -0.05025  -0.02779  -0.02363  -0.01897  -0.00274
 Alpha virt. eigenvalues --    0.00318   0.00717   0.01023   0.01654   0.03170
 Alpha virt. eigenvalues --    0.04359   0.04727   0.05459   0.05895   0.06272
 Alpha virt. eigenvalues --    0.07043   0.07464   0.08151   0.09224   0.09552
 Alpha virt. eigenvalues --    0.10048   0.10297   0.10812   0.10922   0.11661
 Alpha virt. eigenvalues --    0.11933   0.12063   0.12744   0.13461   0.13915
 Alpha virt. eigenvalues --    0.14605   0.15196   0.15662   0.16269   0.17231
 Alpha virt. eigenvalues --    0.17402   0.18079   0.18453   0.19244   0.19575
 Alpha virt. eigenvalues --    0.20118   0.21122   0.21640   0.22244   0.22604
 Alpha virt. eigenvalues --    0.22926   0.24003   0.24535   0.25314   0.26108
 Alpha virt. eigenvalues --    0.26501   0.26911   0.27657   0.28136   0.29484
 Alpha virt. eigenvalues --    0.29678   0.30136   0.30357   0.30699   0.31071
 Alpha virt. eigenvalues --    0.31242   0.32228   0.32511   0.32980   0.33737
 Alpha virt. eigenvalues --    0.34381   0.34516   0.35019   0.35698   0.36138
 Alpha virt. eigenvalues --    0.36937   0.37037   0.37514   0.38401   0.39318
 Alpha virt. eigenvalues --    0.39621   0.40762   0.41050   0.41403   0.42361
 Alpha virt. eigenvalues --    0.43826   0.44181   0.45368   0.46336   0.50187
 Alpha virt. eigenvalues --    0.53031   0.53925   0.55884   0.56638   0.57052
 Alpha virt. eigenvalues --    0.58399   0.60449   0.60533   0.61621   0.62713
 Alpha virt. eigenvalues --    0.63105   0.65343   0.68286   0.68394   0.69084
 Alpha virt. eigenvalues --    0.70219   0.71512   0.72000   0.72604   0.73780
 Alpha virt. eigenvalues --    0.75295   0.77053   0.78088   0.78575   0.80182
 Alpha virt. eigenvalues --    0.80443   0.81504   0.86001   0.93436   0.94539
 Alpha virt. eigenvalues --    0.96668   1.00793   1.01766   1.06540   1.07691
 Alpha virt. eigenvalues --    1.08108   1.10223   1.13067   1.14448   1.15287
 Alpha virt. eigenvalues --    1.15965   1.17567   1.17709   1.19814   1.20930
 Alpha virt. eigenvalues --    1.22720   1.23206   1.24400   1.26075   1.26808
 Alpha virt. eigenvalues --    1.27051   1.28435   1.28886   1.32688   1.33630
 Alpha virt. eigenvalues --    1.35607   1.36168   1.38663   1.39861   1.40820
 Alpha virt. eigenvalues --    1.43087   1.45329   1.47544   1.50085   1.51201
 Alpha virt. eigenvalues --    1.52357   1.53400   1.55540   1.56054   1.58260
 Alpha virt. eigenvalues --    1.58693   1.60803   1.61404   1.61830   1.63339
 Alpha virt. eigenvalues --    1.65660   1.66821   1.67759   1.68515   1.70448
 Alpha virt. eigenvalues --    1.72577   1.72929   1.73224   1.75715   1.77563
 Alpha virt. eigenvalues --    1.78082   1.79399   1.80387   1.81339   1.83538
 Alpha virt. eigenvalues --    1.86837   1.87812   1.90183   1.92058   1.94013
 Alpha virt. eigenvalues --    1.95929   1.97318   1.99254   2.02868   2.04307
 Alpha virt. eigenvalues --    2.04635   2.06552   2.07565   2.09382   2.12165
 Alpha virt. eigenvalues --    2.13206   2.16071   2.16851   2.18378   2.20270
 Alpha virt. eigenvalues --    2.21324   2.24936   2.26192   2.28617   2.30852
 Alpha virt. eigenvalues --    2.33393   2.37566   2.40832   2.50986   2.52734
 Alpha virt. eigenvalues --    2.53711   2.55986   2.58616   2.59458   2.61509
 Alpha virt. eigenvalues --    2.63647   2.65525   2.68120   2.68223   2.71162
 Alpha virt. eigenvalues --    2.73514   2.77520   2.78584   2.86142   2.86699
 Alpha virt. eigenvalues --    2.87390   2.92372   2.94269   2.95730   2.97869
 Alpha virt. eigenvalues --    3.01035   3.03824   3.05274   3.06322   3.10794
 Alpha virt. eigenvalues --    3.12335   3.14520   3.16010   3.18747   3.19036
 Alpha virt. eigenvalues --    3.21932   3.22794   3.24048   3.26009   3.27579
 Alpha virt. eigenvalues --    3.28107   3.30416   3.33455   3.34266   3.36423
 Alpha virt. eigenvalues --    3.38955   3.40322   3.41010   3.42896   3.46419
 Alpha virt. eigenvalues --    3.53596   3.58424   3.81383   3.87612   3.88891
 Alpha virt. eigenvalues --    3.90703   3.94739   3.95782   3.97522   3.98329
 Alpha virt. eigenvalues --    4.02863   4.06270   4.06589   4.09449   4.19446
 Alpha virt. eigenvalues --    4.24316   4.26449   4.29694   4.37441   4.39704
 Alpha virt. eigenvalues --    5.19646   5.23370   5.24582   5.25187   5.27211
 Alpha virt. eigenvalues --    5.27528   5.44203   5.51674   5.52077   5.55112
 Alpha virt. eigenvalues --    5.55363   5.56027   5.66658   5.71988   5.73607
 Alpha virt. eigenvalues --    5.74541   5.77882   5.83846  23.79086  23.82711
 Alpha virt. eigenvalues --   23.86983  23.88220  23.90521  23.95263  49.92593
 Alpha virt. eigenvalues --   49.94514  49.95162  49.96762  49.96893  50.02667
          Condensed to atoms (all electrons):
               1          2          3          4          5          6
     1  O    8.205606  -0.006160  -0.010417   0.007132  -0.022436  -0.009898
     2  O   -0.006160   7.813453  -0.013709  -0.002857   0.000053   0.000900
     3  O   -0.010417  -0.013709   7.892906  -0.002645  -0.002809   0.000256
     4  O    0.007132  -0.002857  -0.002645   7.897886   0.001492   0.000012
     5  O   -0.022436   0.000053  -0.002809   0.001492   7.869392  -0.006830
     6  O   -0.009898   0.000900   0.000256   0.000012  -0.006830   7.929193
     7  C   -0.363953   0.264962  -0.157922   0.225796  -0.051904   0.073272
     8  C    0.052012  -0.080697   0.428220  -0.494902  -0.026620  -0.011577
     9  C    0.406921   0.134763   0.052688  -0.005393  -0.039645  -0.105849
    10  C    0.090900  -0.048781  -0.353592   0.472882   0.038924  -0.015716
    11  C   -0.118492   0.004979   0.168888  -0.095979   0.172704   0.023402
    12  C   -0.088220  -0.149364  -0.015867   0.005606   0.054284   0.186428
    13  H    0.005196  -0.083064  -0.016395   0.002742  -0.001114   0.001485
    14  H   -0.002208   0.003967  -0.059755  -0.033126  -0.007243  -0.001764
    15  H   -0.026876   0.021204   0.006017  -0.000246  -0.008768   0.009527
    16  H    0.036732   0.002399  -0.030851  -0.041389   0.013755  -0.000475
    17  H   -0.116527   0.000852   0.001422  -0.012541  -0.043653   0.002456
    18  H   -0.024727   0.018495   0.000002   0.000016  -0.003730  -0.045105
    19  H    0.018709  -0.011556  -0.000420  -0.000092   0.003324  -0.096307
    20  H   -0.003377   0.252083   0.000821  -0.002596  -0.002050   0.000856
    21  H    0.000355  -0.002826   0.227620   0.008469   0.000285   0.000077
    22  H    0.002792  -0.000099   0.001036   0.240817  -0.008695  -0.000081
    23  H   -0.024153  -0.000266  -0.000271   0.000422   0.207809  -0.000302
    24  H    0.029643   0.000092   0.000302   0.000209  -0.002895   0.232683
               7          8          9         10         11         12
     1  O   -0.363953   0.052012   0.406921   0.090900  -0.118492  -0.088220
     2  O    0.264962  -0.080697   0.134763  -0.048781   0.004979  -0.149364
     3  O   -0.157922   0.428220   0.052688  -0.353592   0.168888  -0.015867
     4  O    0.225796  -0.494902  -0.005393   0.472882  -0.095979   0.005606
     5  O   -0.051904  -0.026620  -0.039645   0.038924   0.172704   0.054284
     6  O    0.073272  -0.011577  -0.105849  -0.015716   0.023402   0.186428
     7  C   17.387106  -6.847185  -5.502498  -1.751462   2.195143   0.879827
     8  C   -6.847185  13.530615   1.864816  -0.947028  -0.661043  -0.644039
     9  C   -5.502498   1.864816  12.052748   0.793320  -1.681734  -2.292641
    10  C   -1.751462  -0.947028   0.793320  11.001220  -3.808042   0.408828
    11  C    2.195143  -0.661043  -1.681734  -3.808042  10.579727  -0.251550
    12  C    0.879827  -0.644039  -2.292641   0.408828  -0.251550   8.124501
    13  H    0.547816  -0.247064  -0.108667   0.063505  -0.052945   0.059406
    14  H   -0.222018   0.778106  -0.163009  -0.058162  -0.063297   0.014432
    15  H   -0.486966   0.101482   0.909110  -0.017181  -0.049910  -0.224406
    16  H   -0.082319  -0.286405   0.083621   0.897079  -0.456071   0.029595
    17  H    0.058198   0.038812  -0.120954  -0.114391   0.436410   0.009649
    18  H    0.023924  -0.017943   0.235040  -0.029871  -0.031972   0.118131
    19  H    0.009901  -0.011285  -0.226675   0.032900   0.013970   0.560898
    20  H   -0.188235   0.176725   0.048166   0.014366   0.004873  -0.025150
    21  H   -0.048080   0.052191   0.010530  -0.006168   0.017706  -0.003440
    22  H    0.011350   0.063249  -0.021507  -0.052461   0.021308   0.002899
    23  H    0.041781  -0.027450  -0.014937  -0.077989   0.140476   0.001166
    24  H   -0.009306  -0.012535   0.018754  -0.002586   0.009552  -0.024290
              13         14         15         16         17         18
     1  O    0.005196  -0.002208  -0.026876   0.036732  -0.116527  -0.024727
     2  O   -0.083064   0.003967   0.021204   0.002399   0.000852   0.018495
     3  O   -0.016395  -0.059755   0.006017  -0.030851   0.001422   0.000002
     4  O    0.002742  -0.033126  -0.000246  -0.041389  -0.012541   0.000016
     5  O   -0.001114  -0.007243  -0.008768   0.013755  -0.043653  -0.003730
     6  O    0.001485  -0.001764   0.009527  -0.000475   0.002456  -0.045105
     7  C    0.547816  -0.222018  -0.486966  -0.082319   0.058198   0.023924
     8  C   -0.247064   0.778106   0.101482  -0.286405   0.038812  -0.017943
     9  C   -0.108667  -0.163009   0.909110   0.083621  -0.120954   0.235040
    10  C    0.063505  -0.058162  -0.017181   0.897079  -0.114391  -0.029871
    11  C   -0.052945  -0.063297  -0.049910  -0.456071   0.436410  -0.031972
    12  C    0.059406   0.014432  -0.224406   0.029595   0.009649   0.118131
    13  H    0.500595  -0.048897  -0.001575  -0.001255   0.000609   0.004790
    14  H   -0.048897   0.548048  -0.038559  -0.003210   0.000286   0.000032
    15  H   -0.001575  -0.038559   0.509241   0.006283  -0.006732   0.028575
    16  H   -0.001255  -0.003210   0.006283   0.639749  -0.068778   0.005047
    17  H    0.000609   0.000286  -0.006732  -0.068778   0.672339  -0.004272
    18  H    0.004790   0.000032   0.028575   0.005047  -0.004272   0.638847
    19  H   -0.008591   0.003623  -0.046757  -0.000915   0.001623  -0.115339
    20  H    0.010506   0.003825  -0.002323  -0.048402   0.006063  -0.018641
    21  H    0.001920  -0.012548   0.000265  -0.012132   0.000738  -0.000229
    22  H    0.000544   0.006522  -0.002241  -0.031526  -0.001754  -0.000248
    23  H    0.000616  -0.001123  -0.004833  -0.002222  -0.029245   0.000217
    24  H   -0.001210  -0.001613  -0.009723   0.000089  -0.002260  -0.032359
              19         20         21         22         23         24
     1  O    0.018709  -0.003377   0.000355   0.002792  -0.024153   0.029643
     2  O   -0.011556   0.252083  -0.002826  -0.000099  -0.000266   0.000092
     3  O   -0.000420   0.000821   0.227620   0.001036  -0.000271   0.000302
     4  O   -0.000092  -0.002596   0.008469   0.240817   0.000422   0.000209
     5  O    0.003324  -0.002050   0.000285  -0.008695   0.207809  -0.002895
     6  O   -0.096307   0.000856   0.000077  -0.000081  -0.000302   0.232683
     7  C    0.009901  -0.188235  -0.048080   0.011350   0.041781  -0.009306
     8  C   -0.011285   0.176725   0.052191   0.063249  -0.027450  -0.012535
     9  C   -0.226675   0.048166   0.010530  -0.021507  -0.014937   0.018754
    10  C    0.032900   0.014366  -0.006168  -0.052461  -0.077989  -0.002586
    11  C    0.013970   0.004873   0.017706   0.021308   0.140476   0.009552
    12  C    0.560898  -0.025150  -0.003440   0.002899   0.001166  -0.024290
    13  H   -0.008591   0.010506   0.001920   0.000544   0.000616  -0.001210
    14  H    0.003623   0.003825  -0.012548   0.006522  -0.001123  -0.001613
    15  H   -0.046757  -0.002323   0.000265  -0.002241  -0.004833  -0.009723
    16  H   -0.000915  -0.048402  -0.012132  -0.031526  -0.002222   0.000089
    17  H    0.001623   0.006063   0.000738  -0.001754  -0.029245  -0.002260
    18  H   -0.115339  -0.018641  -0.000229  -0.000248   0.000217  -0.032359
    19  H    0.562070   0.005591  -0.000075   0.000195  -0.000216   0.030768
    20  H    0.005591   0.484978   0.003340   0.002390  -0.000360   0.000163
    21  H   -0.000075   0.003340   0.492857   0.000300  -0.000190   0.000051
    22  H    0.000195   0.002390   0.000300   0.477946   0.001071   0.000012
    23  H   -0.000216  -0.000360  -0.000190   0.001071   0.488976  -0.000457
    24  H    0.030768   0.000163   0.000051   0.000012  -0.000457   0.508494
 Mulliken charges:
               1
     1  O   -0.038555
     2  O   -0.118821
     3  O   -0.115525
     4  O   -0.171716
     5  O   -0.133629
     6  O   -0.166642
     7  C   -0.007228
     8  C   -0.770455
     9  C   -0.326968
    10  C   -0.530494
    11  C   -0.518103
    12  C   -0.736684
    13  H    0.371049
    14  H    0.357692
    15  H    0.335394
    16  H    0.351601
    17  H    0.291651
    18  H    0.251319
    19  H    0.274656
    20  H    0.276387
    21  H    0.268985
    22  H    0.286179
    23  H    0.301482
    24  H    0.268422
 Sum of Mulliken charges =  -0.00000
 Mulliken charges with hydrogens summed into heavy atoms:
               1
     1  O   -0.038555
     2  O    0.157567
     3  O    0.153460
     4  O    0.114463
     5  O    0.167853
     6  O    0.101780
     7  C    0.363821
     8  C   -0.412763
     9  C    0.008426
    10  C   -0.178892
    11  C   -0.226452
    12  C   -0.210709
 Electronic spatial extent (au):  <R**2>=           2071.3405
 Charge=             -0.0000 electrons
 Dipole moment (field-independent basis, Debye):
    X=              1.3698    Y=              3.9030    Z=              1.8906  Tot=              4.5480
 Quadrupole moment (field-independent basis, Debye-Ang):
   XX=            -81.3051   YY=            -72.0296   ZZ=            -68.0693
   XY=              5.5983   XZ=              2.5799   YZ=              8.1230
 Traceless Quadrupole moment (field-independent basis, Debye-Ang):
   XX=             -7.5038   YY=              1.7718   ZZ=              5.7320
   XY=              5.5983   XZ=              2.5799   YZ=              8.1230
 Octapole moment (field-independent basis, Debye-Ang**2):
  XXX=             61.3739  YYY=             71.3209  ZZZ=              9.3374  XYY=             -7.7261
  XXY=             -5.2117  XXZ=             18.1248  XZZ=              3.5452  YZZ=             -0.1032
  YYZ=              2.0127  XYZ=              4.1451
 Hexadecapole moment (field-independent basis, Debye-Ang**3):
 XXXX=          -1689.5377 YYYY=           -725.7574 ZZZZ=           -217.1046 XXXY=             20.1154
 XXXZ=            -24.8122 YYYX=             20.4436 YYYZ=             18.8233 ZZZX=              2.2487
 ZZZY=             -3.2619 XXYY=           -365.5493 XXZZ=           -271.6812 YYZZ=           -166.7710
 XXYZ=             46.6993 YYXZ=             20.7734 ZZXY=              7.8775
 N-N= 8.384868063323D+02 E-N=-3.290297633931D+03  KE= 6.844060749854D+02
 R6APFD:  NTU= -4 IXU= 1 FactS= 1.050
 Calling FoFJK, ICntrl=      2127 FMM=F ISym2X=0 I1Cent= 0 IOpClX= 0 NMat=1 NMatS=1 NMatT=0.
 ***** Axes restored to original set *****
 -------------------------------------------------------------------
 Center     Atomic                   Forces (Hartrees/Bohr)
 Number     Number              X              Y              Z
 -------------------------------------------------------------------
      1        8          -0.010842671    0.002344262   -0.006205242
      2        8           0.001529039    0.003970695   -0.002416456
      3        8          -0.004093341    0.004924306    0.000228261
      4        8           0.000256512    0.001418234   -0.005144087
      5        8           0.005623865   -0.001833668   -0.015891823
      6        8           0.002062312    0.007963974   -0.002108347
      7        6          -0.003116137    0.000352117   -0.022671126
      8        6          -0.018062417   -0.005290412    0.003019925
      9        6          -0.004231690   -0.004680218    0.011048945
     10        6          -0.004607472    0.012174024    0.007145332
     11        6           0.012762602    0.006056068    0.014143974
     12        6           0.001057504    0.016904439   -0.010152792
     13        1           0.000397621   -0.000430732    0.000193626
     14        1           0.005034901    0.009063950    0.002078122
     15        1          -0.000582643    0.001377462    0.002775776
     16        1           0.007424508   -0.003857732   -0.003089580
     17        1           0.006414449   -0.002004055   -0.007238537
     18        1          -0.006690468   -0.007334948   -0.000985509
     19        1          -0.000716293    0.001113274    0.001737100
     20        1           0.001001459   -0.006746576    0.009153782
     21        1           0.011501210   -0.003778417   -0.001209616
     22        1          -0.001201027   -0.009481278    0.010568872
     23        1          -0.003735184   -0.013442935    0.005588625
     24        1           0.002813363   -0.008781833    0.009430772
 -------------------------------------------------------------------
 Cartesian Forces:  Max     0.022671126 RMS     0.007414972

 GradGradGradGradGradGradGradGradGradGradGradGradGradGradGradGradGradGrad
 Berny optimization.
 FormGI is forming the generalized inverse of G from B-inverse, IUseBI=4.
 Internal  Forces:  Max     0.016882677 RMS     0.004708800
 Search for a local minimum.
 Step number   1 out of a maximum of  142
 All quantities printed in internal units (Hartrees-Bohrs-Radians)
 Mixed Optimization -- RFO/linear search
 Second derivative matrix not updated -- first step.
 ITU=  0
     Eigenvalues ---    0.00435   0.00597   0.00633   0.01298   0.01327
     Eigenvalues ---    0.01336   0.01363   0.01378   0.01477   0.02884
     Eigenvalues ---    0.03276   0.04361   0.04522   0.04655   0.04842
     Eigenvalues ---    0.05223   0.05286   0.05405   0.05596   0.06082
     Eigenvalues ---    0.06682   0.06995   0.07153   0.07265   0.08013
     Eigenvalues ---    0.09081   0.10263   0.11271   0.11485   0.13701
     Eigenvalues ---    0.14375   0.16000   0.16000   0.16000   0.16000
     Eigenvalues ---    0.16000   0.16388   0.17198   0.18654   0.19534
     Eigenvalues ---    0.19807   0.21994   0.27177   0.28502   0.28710
     Eigenvalues ---    0.29200   0.29891   0.33957   0.34044   0.34065
     Eigenvalues ---    0.34154   0.34228   0.34297   0.34358   0.38629
     Eigenvalues ---    0.39493   0.41022   0.41440   0.41733   0.41908
     Eigenvalues ---    0.43038   0.52847   0.52856   0.52861   0.52928
     Eigenvalues ---    0.52982
 RFO step:  Lambda=-1.55466971D-02 EMin= 4.35443529D-03
 Linear search not attempted -- first point.
 Iteration  1 RMS(Cart)=  0.05946939 RMS(Int)=  0.00165854
 Iteration  2 RMS(Cart)=  0.00221147 RMS(Int)=  0.00051268
 Iteration  3 RMS(Cart)=  0.00000242 RMS(Int)=  0.00051268
 Iteration  4 RMS(Cart)=  0.00000000 RMS(Int)=  0.00051268
 Variable       Old X    -DE/DX   Delta X   Delta X   Delta X     New X
                                 (Linear)    (Quad)   (Total)
    R1        2.71380  -0.00143   0.00000  -0.00745  -0.00757   2.70623
    R2        2.70251  -0.01685   0.00000  -0.04012  -0.04023   2.66228
    R3        2.70187  -0.00426   0.00000  -0.01000  -0.01000   2.69187
    R4        1.83671  -0.01133   0.00000  -0.02078  -0.02078   1.81593
    R5        2.69264  -0.00565   0.00000  -0.01306  -0.01306   2.67959
    R6        1.83788  -0.01211   0.00000  -0.02226  -0.02226   1.81562
    R7        2.69040  -0.00164   0.00000  -0.00378  -0.00378   2.68662
    R8        1.83783  -0.01387   0.00000  -0.02548  -0.02548   1.81235
    R9        2.69643  -0.01688   0.00000  -0.03927  -0.03927   2.65716
   R10        1.83721  -0.01464   0.00000  -0.02688  -0.02688   1.81033
   R11        2.67623   0.00229   0.00000   0.00513   0.00513   2.68136
   R12        1.83796  -0.01309   0.00000  -0.02406  -0.02406   1.81390
   R13        2.89364  -0.00030   0.00000  -0.00061  -0.00050   2.89313
   R14        2.89947  -0.00031   0.00000  -0.00640  -0.00647   2.89300
   R15        2.06947   0.00050   0.00000   0.00141   0.00141   2.07088
   R16        2.88880  -0.00677   0.00000  -0.01615  -0.01603   2.87277
   R17        2.07256   0.00470   0.00000   0.01320   0.01320   2.08576
   R18        2.88180  -0.00404   0.00000  -0.01286  -0.01286   2.86894
   R19        2.07402   0.00310   0.00000   0.00873   0.00873   2.08275
   R20        2.89285   0.00143   0.00000   0.00970   0.00976   2.90261
   R21        2.07221   0.00414   0.00000   0.01162   0.01162   2.08383
   R22        2.07072   0.00319   0.00000   0.00893   0.00893   2.07964
   R23        2.06832   0.00355   0.00000   0.00990   0.00990   2.07822
   R24        2.06730   0.00027   0.00000   0.00076   0.00076   2.06807
    A1        1.98352  -0.00478   0.00000  -0.02688  -0.02760   1.95591
    A2        1.89227  -0.00174   0.00000  -0.00988  -0.00988   1.88239
    A3        1.87494  -0.00203   0.00000  -0.01157  -0.01157   1.86336
    A4        1.87746   0.00583   0.00000   0.03321   0.03321   1.91067
    A5        1.86921   0.00426   0.00000   0.02425   0.02425   1.89347
    A6        1.87818  -0.00259   0.00000  -0.01474  -0.01474   1.86344
    A7        1.91137   0.00494   0.00000   0.05059   0.05065   1.96202
    A8        1.89993   0.00271   0.00000   0.03325   0.03301   1.93294
    A9        1.86244  -0.00275   0.00000  -0.01951  -0.01894   1.84350
   A10        1.92447  -0.00392   0.00000  -0.02396  -0.02521   1.89926
   A11        1.92302  -0.00037   0.00000  -0.01866  -0.01924   1.90377
   A12        1.94133  -0.00036   0.00000  -0.01922  -0.01966   1.92167
   A13        1.92033  -0.00328   0.00000  -0.01669  -0.01663   1.90370
   A14        1.90683   0.00341   0.00000   0.02095   0.02115   1.92798
   A15        1.86692   0.00320   0.00000   0.05187   0.05215   1.91907
   A16        1.92358  -0.00156   0.00000  -0.01135  -0.01166   1.91192
   A17        1.92006   0.00105   0.00000  -0.00874  -0.00921   1.91085
   A18        1.92531  -0.00269   0.00000  -0.03429  -0.03506   1.89024
   A19        1.93229   0.00238   0.00000  -0.01533  -0.01600   1.91630
   A20        1.87149  -0.00530   0.00000  -0.03242  -0.03217   1.83932
   A21        1.88173   0.00117   0.00000   0.01757   0.01786   1.89959
   A22        1.96159   0.00163   0.00000   0.01128   0.01101   1.97260
   A23        1.92306  -0.00056   0.00000   0.01078   0.01084   1.93390
   A24        1.89101   0.00055   0.00000   0.00795   0.00774   1.89875
   A25        1.92541  -0.01002   0.00000  -0.06178  -0.06125   1.86416
   A26        1.90753   0.00982   0.00000   0.05952   0.05916   1.96669
   A27        1.86671   0.00314   0.00000   0.04573   0.04479   1.91150
   A28        1.93115  -0.00009   0.00000  -0.00365  -0.00359   1.92755
   A29        1.90823   0.00081   0.00000  -0.01695  -0.01685   1.89137
   A30        1.92380  -0.00364   0.00000  -0.02176  -0.02276   1.90104
   A31        1.95237  -0.00163   0.00000  -0.02055  -0.02096   1.93141
   A32        1.92790   0.00514   0.00000   0.00361   0.00297   1.93087
   A33        1.88489  -0.00536   0.00000  -0.04639  -0.04602   1.83887
   A34        1.92269  -0.00746   0.00000  -0.03585  -0.03651   1.88618
   A35        1.86940   0.00690   0.00000   0.07011   0.07018   1.93958
   A36        1.90476   0.00261   0.00000   0.03241   0.03271   1.93747
   A37        1.89522   0.00725   0.00000   0.03746   0.03724   1.93245
   A38        1.87194   0.00558   0.00000   0.07455   0.07474   1.94668
   A39        1.89728  -0.00444   0.00000  -0.03178  -0.03116   1.86611
   A40        1.95619  -0.00707   0.00000  -0.03596  -0.03794   1.91824
   A41        1.94223  -0.00268   0.00000  -0.03280  -0.03334   1.90889
   A42        1.89886   0.00168   0.00000  -0.00766  -0.00886   1.89000
    D1        1.04247   0.00327   0.00000   0.06872   0.06855   1.11102
    D2       -3.09517   0.00329   0.00000   0.05209   0.05255  -3.04262
    D3       -1.06229   0.00180   0.00000   0.05362   0.05373  -1.00856
    D4        1.10563  -0.00607   0.00000  -0.08539  -0.08517   1.02047
    D5       -1.04286   0.00099   0.00000  -0.02727  -0.02667  -1.06954
    D6       -3.12467  -0.00191   0.00000  -0.04046  -0.04005   3.11847
    D7        1.26641   0.00029   0.00000   0.02867   0.02953   1.29594
    D8       -0.83880   0.00043   0.00000   0.00685   0.00602  -0.83279
    D9       -2.93558   0.00094   0.00000   0.02267   0.02263  -2.91294
   D10       -3.10977   0.00124   0.00000   0.01401   0.01399  -3.09578
   D11       -0.99580  -0.00058   0.00000   0.00284   0.00236  -0.99344
   D12        1.08823  -0.00008   0.00000   0.00314   0.00364   1.09186
   D13       -3.14086   0.00135   0.00000   0.02413   0.02394  -3.11692
   D14        1.01530   0.00148   0.00000   0.02945   0.03137   1.04667
   D15       -1.06719  -0.00135   0.00000  -0.00331  -0.00505  -1.07224
   D16        1.44830  -0.00254   0.00000  -0.04682  -0.04739   1.40091
   D17       -2.68344  -0.00245   0.00000  -0.08245  -0.08220  -2.76564
   D18       -0.61384   0.00061   0.00000  -0.02226  -0.02195  -0.63579
   D19       -1.02170   0.00034   0.00000  -0.00310  -0.00449  -1.02619
   D20        1.09565  -0.00077   0.00000   0.01852   0.02018   1.11583
   D21       -3.13719   0.00191   0.00000   0.03325   0.03297  -3.10422
   D22        0.93498  -0.00132   0.00000  -0.01196  -0.01196   0.92302
   D23       -1.16892  -0.00245   0.00000  -0.02002  -0.02024  -1.18915
   D24        2.98749   0.00125   0.00000   0.03615   0.03613   3.02363
   D25        3.02520   0.00269   0.00000   0.04596   0.04555   3.07075
   D26        0.92130   0.00156   0.00000   0.03790   0.03727   0.95858
   D27       -1.20547   0.00526   0.00000   0.09408   0.09364  -1.11183
   D28       -1.10847  -0.00069   0.00000  -0.00735  -0.00713  -1.11560
   D29        3.07082  -0.00181   0.00000  -0.01541  -0.01541   3.05541
   D30        0.94404   0.00189   0.00000   0.04076   0.04096   0.98501
   D31        1.13401   0.00019   0.00000  -0.00525  -0.00527   1.12874
   D32       -0.95836   0.00419   0.00000   0.03907   0.03908  -0.91928
   D33       -3.06918   0.00278   0.00000   0.01376   0.01361  -3.05557
   D34       -0.96312  -0.00518   0.00000  -0.07356  -0.07322  -1.03633
   D35       -3.05549  -0.00118   0.00000  -0.02924  -0.02887  -3.08435
   D36        1.11688  -0.00259   0.00000  -0.05455  -0.05434   1.06254
   D37       -3.10191  -0.00173   0.00000  -0.01993  -0.02014  -3.12205
   D38        1.08891   0.00228   0.00000   0.02439   0.02421   1.11311
   D39       -1.02191   0.00087   0.00000  -0.00092  -0.00127  -1.02318
   D40        1.13060  -0.00073   0.00000  -0.01629  -0.01625   1.11435
   D41       -3.03958   0.00491   0.00000   0.01508   0.01495  -3.02462
   D42       -0.91757   0.00084   0.00000  -0.02557  -0.02602  -0.94358
   D43       -3.04059  -0.00359   0.00000  -0.03067  -0.03082  -3.07142
   D44       -0.92759   0.00204   0.00000   0.00070   0.00038  -0.92721
   D45        1.19442  -0.00203   0.00000  -0.03995  -0.04059   1.15383
   D46       -0.91693  -0.00508   0.00000  -0.07182  -0.07135  -0.98828
   D47        1.19607   0.00055   0.00000  -0.04045  -0.04015   1.15592
   D48       -2.96510  -0.00352   0.00000  -0.08110  -0.08112  -3.04622
   D49        1.00611   0.00295   0.00000   0.06666   0.06674   1.07285
   D50       -1.05867  -0.00435   0.00000  -0.02785  -0.02694  -1.08561
   D51        3.09373   0.00047   0.00000   0.03145   0.03113   3.12486
   D52        3.13343   0.00333   0.00000   0.03256   0.03217  -3.11758
   D53        1.06865  -0.00396   0.00000  -0.06195  -0.06151   1.00714
   D54       -1.06214   0.00085   0.00000  -0.00265  -0.00344  -1.06558
   D55       -1.02063   0.00406   0.00000   0.05898   0.05886  -0.96177
   D56       -3.08541  -0.00323   0.00000  -0.03554  -0.03483  -3.12024
   D57        1.06698   0.00158   0.00000   0.02376   0.02325   1.09023
   D58        3.09493  -0.00548   0.00000  -0.03829  -0.03826   3.05667
   D59        0.92927  -0.00176   0.00000   0.01044   0.01043   0.93970
   D60       -1.11853  -0.00735   0.00000  -0.07300  -0.07293  -1.19146
   D61        0.97136   0.00061   0.00000   0.00194   0.00213   0.97349
   D62       -1.19430   0.00433   0.00000   0.05067   0.05081  -1.14348
   D63        3.04109  -0.00127   0.00000  -0.03278  -0.03254   3.00855
   D64       -1.14144   0.00206   0.00000   0.04000   0.03977  -1.10168
   D65        2.97608   0.00578   0.00000   0.08873   0.08845   3.06453
   D66        0.92829   0.00019   0.00000   0.00528   0.00509   0.93338
         Item               Value     Threshold  Converged?
 Maximum Force            0.016883     0.000450     NO 
 RMS     Force            0.004709     0.000300     NO 
 Maximum Displacement     0.222612     0.001800     NO 
 RMS     Displacement     0.059601     0.001200     NO 
 Predicted change in Energy=-9.049016D-03
 GradGradGradGradGradGradGradGradGradGradGradGradGradGradGradGradGradGrad

                          Input orientation:                          
 ---------------------------------------------------------------------
 Center     Atomic      Atomic             Coordinates (Angstroms)
 Number     Number       Type             X           Y           Z
 ---------------------------------------------------------------------
      1          8           0        0.852208    0.840708   -0.685055
      2          8           0        0.296731   -1.999965   -0.857253
      3          8           0       -2.173610   -1.750583    0.436804
      4          8           0       -2.799432    0.914646   -0.210493
      5          8           0       -0.462329    2.114318    0.732612
      6          8           0        3.482329    0.586394    0.149172
      7          6           0        0.173984   -1.246729    0.345538
      8          6           0       -1.238349   -0.690210    0.544279
      9          6           0        1.169724   -0.083998    0.361339
     10          6           0       -1.518100    0.373648   -0.504993
     11          6           0       -0.410263    1.437574   -0.498831
     12          6           0        2.598215   -0.521943    0.092112
     13          1           0        0.400316   -1.947524    1.157063
     14          1           0       -1.312649   -0.221984    1.541013
     15          1           0        1.136998    0.446312    1.326960
     16          1           0       -1.541835   -0.112149   -1.494647
     17          1           0       -0.529460    2.136168   -1.340768
     18          1           0        2.655922   -1.034820   -0.879007
     19          1           0        2.915702   -1.223017    0.870155
     20          1           0        0.310135   -1.381151   -1.592311
     21          1           0       -3.046913   -1.359776    0.524673
     22          1           0       -3.024746    1.577821   -0.865641
     23          1           0       -0.034399    2.965244    0.629941
     24          1           0        3.181421    1.214917   -0.510963
 ---------------------------------------------------------------------
                    Distance matrix (angstroms):
                    1          2          3          4          5
     1  O    0.000000
     2  O    2.899591   0.000000
     3  O    4.138712   2.799886   0.000000
     4  O    3.683090   4.301103   2.813200   0.000000
     5  O    2.315140   4.475619   4.237151   2.791184   0.000000
     6  O    2.770946   4.224947   6.126487   6.300606   4.270279
     7  C    2.424769   1.424478   2.402790   3.717784   3.442580
     8  C    2.867996   2.456872   1.417976   2.362673   2.916000
     9  C    1.432074   2.432697   3.736454   4.132611   2.762975
    10  C    2.422588   3.008611   2.414339   1.421696   2.382489
    11  C    1.408816   3.527745   3.761536   2.462666   1.406110
    12  C    2.347199   2.895284   4.939503   5.593742   4.089870
    13  H    3.372216   2.017659   2.680048   4.505621   4.174072
    14  H    3.281966   3.391608   2.072956   2.563245   2.614357
    15  H    2.069990   3.385426   4.071714   4.251891   2.386072
    16  H    2.700893   2.711171   2.610385   2.070002   3.329140
    17  H    2.004291   4.245465   4.579283   2.814677   2.074581
    18  H    2.609330   2.549070   5.056487   5.831656   4.715705
    19  H    3.306908   3.232119   5.134902   6.196786   4.750560
    20  H    2.460409   0.960948   3.228433   4.104816   4.268521
    21  H    4.637749   3.674169   0.960785   2.403063   4.335048
    22  H    3.950534   4.881888   3.674108   0.959054   3.067283
    23  H    2.651215   5.193717   5.181945   3.543542   0.957988
    24  H    2.365496   4.333222   6.194256   5.995919   3.953772
                    6          7          8          9         10
     6  O    0.000000
     7  C    3.787354   0.000000
     8  C    4.906183   1.530979   0.000000
     9  C    2.417144   1.530912   2.489935   0.000000
    10  C    5.047523   2.492423   1.520206   2.860833   0.000000
    11  C    4.036915   2.873984   2.510233   2.356147   1.535995
    12  C    1.418917   2.542919   3.866781   1.518179   4.254723
    13  H    4.115263   1.095862   2.154430   2.167463   3.439563
    14  H    5.057916   2.165488   1.103737   2.751880   2.140824
    15  H    2.628191   2.181048   2.747098   1.102145   3.226589
    16  H    5.332198   2.759998   2.140906   3.286036   1.102714
    17  H    4.551502   3.844796   3.470496   3.273152   2.186872
    18  H    2.090080   2.775686   4.160510   2.156689   4.421100
    19  H    2.028510   2.791559   4.200740   2.145856   4.909070
    20  H    4.119079   1.947272   2.727677   2.497649   2.757539
    21  H    6.823458   3.227854   1.928627   4.408436   2.530264
    22  H    6.659940   4.435866   3.212951   4.675542   1.962162
    23  H    4.272873   4.226704   3.849569   3.289366   3.194655
    24  H    0.959877   3.979695   4.927211   2.548532   4.774230
                   11         12         13         14         15
    11  C    0.000000
    12  C    3.638661   0.000000
    13  H    3.854596   2.827925   0.000000
    14  H    2.780179   4.181405   2.461536   0.000000
    15  H    2.590391   2.144183   2.510382   2.548178   0.000000
    16  H    2.161886   4.452612   3.764588   3.046280   3.930585
    17  H    1.100500   4.347533   4.876493   3.805119   3.570640
    18  H    3.957114   1.099748   3.172754   4.718766   3.060584
    19  H    4.473802   1.094374   2.633323   4.396711   2.481757
    20  H    3.108035   2.968304   2.808553   3.714138   3.541958
    21  H    3.978021   5.723333   3.553696   2.309802   4.627172
    22  H    2.643812   6.078156   5.315114   3.458693   4.838174
    23  H    1.936279   4.402316   4.960053   3.552802   2.864092
    24  H    3.598599   1.928862   4.529667   5.145090   2.854537
                   16         17         18         19         20
    16  H    0.000000
    17  H    2.470529   0.000000
    18  H    4.341831   4.518301   0.000000
    19  H    5.166813   5.295417   1.778334   0.000000
    20  H    2.247153   3.624876   2.476179   3.588555   0.000000
    21  H    2.810602   4.694578   5.882026   5.974180   3.968860
    22  H    2.334667   2.600760   6.252684   6.793129   4.517189
    23  H    4.031946   2.194572   5.051264   5.128579   4.893696
    24  H    5.003788   3.912533   2.339428   2.814536   4.019100
                   21         22         23         24
    21  H    0.000000
    22  H    3.250067   0.000000
    23  H    5.271823   3.619929   0.000000
    24  H    6.818630   6.226878   3.834945   0.000000
 Stoichiometry    C6H12O6
 Framework group  C1[X(C6H12O6)]
 Deg. of freedom    66
 Full point group                 C1      NOp   1
 Largest Abelian subgroup         C1      NOp   1
 Largest concise Abelian subgroup C1      NOp   1
                         Standard orientation:                         
 ---------------------------------------------------------------------
 Center     Atomic      Atomic             Coordinates (Angstroms)
 Number     Number       Type             X           Y           Z
 ---------------------------------------------------------------------
      1          8           0       -0.874133    0.798638    0.665841
      2          8           0       -0.266184   -2.031758    0.829811
      3          8           0        2.199066   -1.732962   -0.463490
      4          8           0        2.775494    0.941503    0.191537
      5          8           0        0.416555    2.100456   -0.748114
      6          8           0       -3.499133    0.498122   -0.169149
      7          6           0       -0.157445   -1.272897   -0.370791
      8          6           0        1.244341   -0.689768   -0.567902
      9          6           0       -1.174528   -0.128748   -0.383233
     10          6           0        1.504404    0.376038    0.484453
     11          6           0        0.377071    1.419298    0.481361
     12          6           0       -2.594661   -0.593827   -0.115292
     13          1           0       -0.370807   -1.975406   -1.184346
     14          1           0        1.309923   -0.217361   -1.563274
     15          1           0       -1.151661    0.404873   -1.347312
     16          1           0        1.537166   -0.112102    1.472695
     17          1           0        0.483357    2.117535    1.325321
     18          1           0       -2.642827   -1.110497    0.854336
     19          1           0       -2.899155   -1.298398   -0.895367
     20          1           0       -0.291003   -1.415431    1.566660
     21          1           0        3.064984   -1.325810   -0.550216
     22          1           0        2.988527    1.606832    0.848606
     23          1           0       -0.027043    2.943017   -0.642982
     24          1           0       -3.209878    1.130189    0.492808
 ---------------------------------------------------------------------
 Rotational constants (GHZ):           1.4183261           0.7567200           0.5588003
 Standard basis: 6-311++G(d,p) (5D, 7F)
 There are   360 symmetry adapted cartesian basis functions of A   symmetry.
 There are   348 symmetry adapted basis functions of A   symmetry.
   348 basis functions,   540 primitive gaussians,   360 cartesian basis functions
    48 alpha electrons       48 beta electrons
       nuclear repulsion energy       842.7237784502 Hartrees.
 NAtoms=   24 NActive=   24 NUniq=   24 SFac= 1.00D+00 NAtFMM=   60 NAOKFM=F Big=F
 Integral buffers will be    131072 words long.
 Raffenetti 2 integral format.
 Two-electron integral symmetry is turned on.
 R6APFD:  NTU= -4 IXU= 1 FactS= 1.050
 Nuclear repulsion after empirical dispersion term =      842.6984990925 Hartrees.
 One-electron integrals computed using PRISM.
 NBasis=   348 RedAO= T EigKep=  3.81D-06  NBF=   348
 NBsUse=   348 1.00D-06 EigRej= -1.00D+00 NBFU=   348
 Initial guess from the checkpoint file:  "ALDG0084.chk"
 B after Tr=    -0.000000    0.000000    0.000000
         Rot=    0.999926   -0.003492   -0.000469   -0.011657 Ang=  -1.40 deg.
 ExpMin= 3.60D-02 ExpMax= 8.59D+03 ExpMxC= 1.30D+03 IAcc=3 IRadAn=         5 AccDes= 0.00D+00
 Harris functional with IExCor= 1009 and IRadAn=       5 diagonalized for initial guess.
 HarFok:  IExCor= 1009 AccDes= 0.00D+00 IRadAn=         5 IDoV= 1 UseB2=F ITyADJ=14
 ICtDFT=  3500011 ScaDFX=  1.000000  1.000000  1.000000  1.000000
 FoFCou: FMM=F IPFlag=           0 FMFlag=      100000 FMFlg1=           0
         NFxFlg=           0 DoJE=T BraDBF=F KetDBF=T FulRan=T
         wScrn=  0.000000 ICntrl=       500 IOpCl=  0 I1Cent=   200000004 NGrid=           0
         NMat0=    1 NMatS0=      1 NMatT0=    0 NMatD0=    1 NMtDS0=    0 NMtDT0=    0
 Petite list used in FoFCou.
 Requested convergence on RMS density matrix=1.00D-08 within  32 cycles.
 Requested convergence on MAX density matrix=1.00D-06.
 Requested convergence on             energy=1.00D-06.
 No special actions if energy rises.
 SCF Done:  E(RM08HX) =  -687.182341363     A.U. after   12 cycles
            NFock= 12  Conv=0.60D-08     -V/T= 2.0037
 QCSCF skips out because SCF is already converged.
 R6APFD:  NTU= -4 IXU= 1 FactS= 1.050
 Calling FoFJK, ICntrl=      2127 FMM=F ISym2X=0 I1Cent= 0 IOpClX= 0 NMat=1 NMatS=1 NMatT=0.
 ***** Axes restored to original set *****
 -------------------------------------------------------------------
 Center     Atomic                   Forces (Hartrees/Bohr)
 Number     Number              X              Y              Z
 -------------------------------------------------------------------
      1        8          -0.002514467   -0.001342549   -0.005448200
      2        8          -0.001233410    0.004674671    0.004473366
      3        8           0.002796648    0.004796520    0.001470504
      4        8           0.006516428   -0.002160741   -0.001211329
      5        8          -0.005030693    0.000589893   -0.007030393
      6        8          -0.002012946   -0.002924252   -0.001330201
      7        6           0.001682915   -0.004384915   -0.005010740
      8        6          -0.005001247   -0.006750043    0.000243830
      9        6           0.003500221   -0.003501289    0.004438539
     10        6          -0.006794931    0.004751771   -0.000220266
     11        6           0.001824888    0.004763292    0.007800626
     12        6           0.002848723    0.004013118    0.001607622
     13        1           0.000224844   -0.000474151    0.000997182
     14        1           0.002729683    0.001791623   -0.000288190
     15        1          -0.001477702   -0.000858013   -0.000870407
     16        1           0.001775945   -0.000264974   -0.001027213
     17        1          -0.000577986   -0.000051330   -0.000710343
     18        1           0.000148344   -0.000364554   -0.000271431
     19        1           0.000347608   -0.001270493    0.000283856
     20        1           0.000236230   -0.000312603   -0.000620683
     21        1          -0.000403573   -0.000603517   -0.000549667
     22        1          -0.001329221   -0.000736288    0.000577096
     23        1           0.001571031   -0.000070293    0.002559400
     24        1           0.000172667    0.000689119    0.000137042
 -------------------------------------------------------------------
 Cartesian Forces:  Max     0.007800626 RMS     0.002965395

 GradGradGradGradGradGradGradGradGradGradGradGradGradGradGradGradGradGrad
 Berny optimization.
 Using GEDIIS/GDIIS optimizer.
 FormGI is forming the generalized inverse of G from B-inverse, IUseBI=4.
 Internal  Forces:  Max     0.005908613 RMS     0.001449332
 Search for a local minimum.
 Step number   2 out of a maximum of  142
 All quantities printed in internal units (Hartrees-Bohrs-Radians)
 Mixed Optimization -- RFO/linear search
 Update second derivatives using D2CorX and points    1    2
 DE= -8.23D-03 DEPred=-9.05D-03 R= 9.09D-01
 TightC=F SS=  1.41D+00  RLast= 4.10D-01 DXNew= 5.0454D-01 1.2313D+00
 Trust test= 9.09D-01 RLast= 4.10D-01 DXMaxT set to 5.05D-01
 ITU=  1  0
 Use linear search instead of GDIIS.
     Eigenvalues ---    0.00436   0.00617   0.00640   0.01299   0.01319
     Eigenvalues ---    0.01362   0.01376   0.01395   0.01478   0.02942
     Eigenvalues ---    0.03267   0.04320   0.04705   0.04784   0.04933
     Eigenvalues ---    0.05124   0.05282   0.05422   0.05903   0.06034
     Eigenvalues ---    0.06522   0.06950   0.07045   0.07781   0.08275
     Eigenvalues ---    0.09113   0.09877   0.11128   0.11507   0.13732
     Eigenvalues ---    0.14029   0.15505   0.16000   0.16000   0.16000
     Eigenvalues ---    0.16052   0.16391   0.17873   0.18268   0.19307
     Eigenvalues ---    0.20271   0.21991   0.27159   0.28436   0.28823
     Eigenvalues ---    0.29222   0.29976   0.33874   0.33992   0.34060
     Eigenvalues ---    0.34137   0.34232   0.34280   0.34371   0.38293
     Eigenvalues ---    0.39497   0.40624   0.41264   0.41761   0.42465
     Eigenvalues ---    0.43495   0.52802   0.52853   0.52884   0.52964
     Eigenvalues ---    0.53369
 RFO step:  Lambda=-2.46887089D-03 EMin= 4.36296884D-03
 Quartic linear search produced a step of  0.05622.
 Iteration  1 RMS(Cart)=  0.03560111 RMS(Int)=  0.00094257
 Iteration  2 RMS(Cart)=  0.00104233 RMS(Int)=  0.00011258
 Iteration  3 RMS(Cart)=  0.00000266 RMS(Int)=  0.00011255
 Iteration  4 RMS(Cart)=  0.00000000 RMS(Int)=  0.00011255
 Variable       Old X    -DE/DX   Delta X   Delta X   Delta X     New X
                                 (Linear)    (Quad)   (Total)
    R1        2.70623   0.00531  -0.00043   0.01412   0.01379   2.72002
    R2        2.66228   0.00301  -0.00226   0.00739   0.00523   2.66751
    R3        2.69187  -0.00564  -0.00056  -0.01497  -0.01553   2.67634
    R4        1.81593   0.00028  -0.00117  -0.00082  -0.00199   1.81394
    R5        2.67959  -0.00478  -0.00073  -0.01278  -0.01351   2.66607
    R6        1.81562   0.00007  -0.00125  -0.00133  -0.00258   1.81304
    R7        2.68662  -0.00591  -0.00021  -0.01492  -0.01513   2.67149
    R8        1.81235  -0.00059  -0.00143  -0.00284  -0.00428   1.80807
    R9        2.65716  -0.00353  -0.00221  -0.01144  -0.01365   2.64352
   R10        1.81033   0.00036  -0.00151  -0.00106  -0.00257   1.80777
   R11        2.68136  -0.00294   0.00029  -0.00678  -0.00649   2.67488
   R12        1.81390   0.00030  -0.00135  -0.00099  -0.00235   1.81156
   R13        2.89313   0.00141  -0.00003   0.00174   0.00162   2.89475
   R14        2.89300  -0.00101  -0.00036  -0.00336  -0.00377   2.88924
   R15        2.07088   0.00109   0.00008   0.00339   0.00347   2.07435
   R16        2.87277   0.00273  -0.00090   0.00729   0.00629   2.87907
   R17        2.08576   0.00031   0.00074   0.00182   0.00256   2.08832
   R18        2.86894   0.00130  -0.00072   0.00368   0.00296   2.87190
   R19        2.08275  -0.00113   0.00049  -0.00290  -0.00241   2.08035
   R20        2.90261  -0.00016   0.00055  -0.00025   0.00035   2.90296
   R21        2.08383   0.00100   0.00065   0.00381   0.00446   2.08829
   R22        2.07964   0.00057   0.00050   0.00232   0.00282   2.08247
   R23        2.07822   0.00042   0.00056   0.00191   0.00247   2.08069
   R24        2.06807   0.00112   0.00004   0.00343   0.00347   2.07154
    A1        1.95591   0.00175  -0.00155   0.02263   0.02075   1.97666
    A2        1.88239   0.00119  -0.00056   0.00707   0.00651   1.88890
    A3        1.86336   0.00140  -0.00065   0.00832   0.00767   1.87103
    A4        1.91067   0.00237   0.00187   0.01734   0.01920   1.92987
    A5        1.89347   0.00389   0.00136   0.02655   0.02792   1.92138
    A6        1.86344   0.00107  -0.00083   0.00599   0.00516   1.86860
    A7        1.96202  -0.00098   0.00285   0.00161   0.00447   1.96649
    A8        1.93294   0.00021   0.00186   0.00439   0.00631   1.93924
    A9        1.84350   0.00053  -0.00106   0.01168   0.01057   1.85407
   A10        1.89926   0.00018  -0.00142  -0.01995  -0.02169   1.87757
   A11        1.90377   0.00045  -0.00108   0.00302   0.00193   1.90570
   A12        1.92167  -0.00038  -0.00111   0.00031  -0.00084   1.92083
   A13        1.90370  -0.00055  -0.00094   0.00696   0.00620   1.90990
   A14        1.92798  -0.00026   0.00119   0.00569   0.00705   1.93503
   A15        1.91907   0.00081   0.00293   0.01644   0.01939   1.93847
   A16        1.91192   0.00060  -0.00066  -0.00024  -0.00152   1.91040
   A17        1.91085  -0.00020  -0.00052  -0.01695  -0.01750   1.89335
   A18        1.89024  -0.00040  -0.00197  -0.01229  -0.01435   1.87589
   A19        1.91630  -0.00101  -0.00090  -0.01183  -0.01281   1.90349
   A20        1.83932   0.00070  -0.00181   0.00304   0.00137   1.84069
   A21        1.89959  -0.00008   0.00100   0.00032   0.00117   1.90076
   A22        1.97260   0.00079   0.00062   0.00954   0.01017   1.98276
   A23        1.93390  -0.00062   0.00061  -0.00952  -0.00902   1.92487
   A24        1.89875   0.00026   0.00043   0.00896   0.00940   1.90815
   A25        1.86416  -0.00065  -0.00344  -0.01274  -0.01593   1.84824
   A26        1.96669   0.00002   0.00333   0.01223   0.01543   1.98212
   A27        1.91150   0.00070   0.00252   0.01511   0.01750   1.92900
   A28        1.92755   0.00059  -0.00020  -0.00836  -0.00867   1.91888
   A29        1.89137  -0.00076  -0.00095  -0.00144  -0.00245   1.88892
   A30        1.90104   0.00006  -0.00128  -0.00507  -0.00652   1.89452
   A31        1.93141   0.00387  -0.00118   0.03647   0.03512   1.96653
   A32        1.93087  -0.00231   0.00017  -0.01749  -0.01730   1.91357
   A33        1.83887   0.00026  -0.00259  -0.00794  -0.01064   1.82823
[...]
 2024442,0.03302028,-0.00385367,-0.00479982,-0.00025617,-0.00000927,0.0
 0005179,0.00004761,0.00009499,-0.00067325,-0.00081684,0.00049098,-0.00
 400276,-0.00655192,-0.00013404,0.00004275,-0.00011520,-0.04980467,-0.0
 0719605,-0.01264576,0.00248367,-0.00712016,-0.02021130,0.00003570,-0.0
 0006702,-0.00005738,0.00011284,0.00003507,0.00014723,-0.00004657,0.001
 34677,-0.00085808,0.00012707,-0.00000159,0.00015014,0.06310928,0.00038
 708,0.00083348,0.00143548,0.00083852,-0.00088490,-0.00072980,0.0004883
 4,0.00195428,-0.00248238,0.00768464,-0.00436817,-0.01008107,-0.0042345
 1,-0.00422911,0.00012782,0.00000387,0.00002041,0.00000007,-0.00000311,
 0.00062513,-0.00014168,0.00072012,0.01086216,0.02206592,-0.00009665,-0
 .00024592,-0.00013680,-0.00760613,-0.09681388,-0.09263731,-0.00071843,
 -0.00871410,-0.02347650,-0.00002014,0.00003254,0.00002989,-0.00028677,
 0.00000992,-0.00013255,0.00093756,-0.00314168,0.00308046,-0.00000787,-
 0.00013111,0.00006324,0.00007587,0.10477958,-0.00092215,0.00065472,0.0
 0082381,0.00172252,-0.00083481,0.00233160,0.00037586,-0.00051614,0.003
 52983,0.00548938,-0.00362782,-0.00020723,0.00021226,0.00055331,0.00146
 865,-0.00003322,0.00007107,0.00007556,0.00091627,-0.00114841,-0.002585
 57,-0.00393739,-0.01026072,-0.02416967,-0.00014044,0.00020022,-0.00027
 783,-0.00965771,-0.09477378,-0.24563290,0.00193397,0.00156229,-0.00092
 760,0.00002477,-0.00013593,-0.00008095,-0.00007654,0.00006853,0.000198
 73,-0.00079809,0.00335351,-0.00209465,0.00018582,0.00013064,0.00011269
 ,0.00558257,0.10451263,0.26555334,-0.01607402,0.03222417,-0.02736810,0
 .00049630,0.00005096,-0.00006760,-0.00045508,-0.00222889,0.00135742,0.
 00222046,0.00133510,-0.00102106,0.00555443,0.00019369,0.00274905,-0.00
 013105,-0.00029065,0.00013607,-0.00103390,0.00030068,-0.00035974,-0.00
 382396,-0.00067772,-0.00207941,-0.00394413,0.00005202,0.00393308,0.004
 77252,-0.01690858,0.01909406,-0.04978925,-0.00058377,-0.01019645,0.000
 21771,0.00144374,-0.00160982,0.00026118,0.00014317,0.00005730,0.000114
 18,0.00012016,0.00011349,-0.00007754,0.00002692,-0.00021268,0.00064808
 ,0.00072836,-0.00050904,0.06226672,0.00970361,-0.01242940,0.01248569,0
 .00003087,-0.00018599,-0.00042735,-0.00060667,-0.00178960,0.00114030,-
 0.00095407,0.00140641,-0.00102258,-0.00094952,0.01215167,-0.02427089,0
 .00023685,0.00028141,-0.00011358,-0.00028032,0.00059866,0.00020942,-0.
 00324365,0.00008846,-0.00275672,0.00203962,0.00139765,-0.00243196,0.00
 271249,-0.01473536,0.01865088,0.00823230,-0.15032699,0.12143961,-0.000
 30431,-0.00069238,0.00094436,0.00008857,-0.00014731,-0.00004895,0.0000
 9029,0.00010121,0.00014729,0.00005986,-0.00010526,0.00005643,0.0000495
 1,0.00011666,-0.00051452,-0.01702336,0.16276869,-0.00108003,0.00082411
 ,0.00461508,0.00007912,0.00011188,0.00013668,0.00014606,-0.00009507,0.
 00015127,0.00116273,-0.00080393,0.00031748,-0.00070512,0.00533576,-0.0
 3708377,-0.00014819,-0.00003612,0.00007413,-0.00002507,-0.00002125,-0.
 00012394,-0.00075917,-0.00060609,0.00082985,0.00084791,-0.00107952,0.0
 0188962,-0.00104415,-0.00004579,0.00264500,-0.01821040,0.11928684,-0.1
 9280250,0.00015755,0.00005028,0.00002422,0.00000005,-0.00001296,-0.000
 00982,-0.00003305,-0.00022109,0.00027214,0.00027593,-0.00033312,0.0001
 2713,0.00058576,0.00045373,0.00055174,0.01715587,-0.12415236,0.2188426
 6,0.00278826,-0.00206126,-0.00042322,-0.00031488,-0.00126123,-0.001374
 71,-0.00018308,-0.00015400,-0.00016357,0.00004279,-0.00005982,-0.00006
 035,-0.00038045,0.00029482,-0.00070200,-0.00132058,-0.01725137,-0.0180
 9598,0.00074423,0.00113251,0.00148596,0.00008175,0.00000560,0.00006009
 ,-0.00393865,0.01555044,0.03125143,0.00011476,0.00000634,0.00012605,-0
 .00012617,0.00017229,0.00064255,-0.05138711,0.01286852,0.01855270,-0.0
 0005647,-0.00016577,-0.00014405,0.00020668,-0.00010642,-0.00018971,-0.
 00557337,0.00134606,0.00011013,-0.00002929,-0.00000786,-0.00008137,0.0
 0000076,0.00001707,-0.00003223,0.05919409,-0.00126061,0.00100554,-0.00
 034604,-0.00195146,-0.00067352,0.00040162,0.00008933,0.00000157,0.0000
 6640,-0.00006106,0.00000134,0.00004694,-0.00000347,0.00011843,0.000363
 23,-0.00723749,-0.01775606,-0.01923679,0.00007290,-0.00075053,-0.00033
 455,0.00004553,0.00012384,-0.00002803,0.00387074,-0.00310003,-0.009751
 28,0.00001630,0.00002353,-0.00007516,0.00029052,-0.00017784,-0.0001899
 6,0.01398882,-0.10099610,-0.09609007,0.00004740,-0.00006346,0.00001044
 ,-0.00000642,0.00003281,0.00004773,0.00095120,0.00012370,-0.00024410,0
 .00002339,0.00001653,0.00003252,-0.00002627,-0.00000935,0.00000281,-0.
 00715318,0.11136530,0.00026978,0.00013083,0.00163814,-0.00295975,-0.00
 012311,0.00125014,0.00016066,0.00010857,0.00008652,0.00004585,0.000070
 72,0.00004094,0.00005487,0.00012799,0.00023671,-0.00128336,0.00146688,
 0.01068162,0.00053525,-0.00151479,-0.00179202,-0.00004208,0.00007607,0
 .00004191,0.00053209,-0.00161910,-0.00732960,-0.00004260,-0.00007865,-
 0.00010312,-0.00008387,-0.00012471,-0.00002945,0.01927447,-0.09864569,
 -0.24637574,0.00006133,-0.00013103,0.00005692,-0.00006254,0.00007865,0
 .00010968,0.00097388,-0.00005314,0.00104902,0.00003939,-0.00000925,0.0
 0006457,0.00004830,-0.00003823,0.00001626,-0.02052069,0.11047528,0.257
 99888,-0.00844771,0.00395223,0.00103345,0.00001888,-0.00038939,0.00027
 407,0.00004844,-0.00013843,0.00010236,-0.00023353,-0.00019596,0.000129
 90,-0.00008588,0.00021672,0.00067034,0.00587943,-0.02126974,0.01882167
 ,0.00083863,0.00051521,-0.00081992,0.00009307,0.00001788,0.00025797,-0
 .00468088,0.01613047,-0.02435221,0.00033195,0.00033886,-0.00007609,0.0
 0114224,0.00013684,-0.00215347,-0.07822294,0.05681255,-0.06397209,-0.0
 0050040,-0.00069651,0.00038475,-0.00002188,0.00002530,0.00002038,0.000
 90589,0.00020120,0.00065415,-0.00001068,0.00000026,0.00000841,-0.00061
 521,0.00027838,0.00000278,0.00188831,-0.00198841,0.00333412,0.08427219
 ,0.00162745,0.00045847,-0.00068138,0.00018437,-0.00024554,0.00017296,0
 .00002799,0.00004320,-0.00004925,0.00005603,0.00006672,-0.00003641,-0.
 00002365,0.00003321,-0.00011198,0.00350848,-0.02691446,0.02259249,-0.0
 0015894,0.00009035,0.00002333,0.00005081,0.00004690,-0.00010745,0.0039
 2156,-0.00555621,0.00736296,-0.00010381,-0.00003558,-0.00002016,-0.000
 35156,0.00018215,0.00057098,0.04940605,-0.13774656,0.10911326,0.000044
 97,0.00024360,-0.00004183,0.00001844,-0.00001790,-0.00001044,-0.000110
 26,-0.00019698,-0.00007386,0.00000824,-0.00000147,-0.00000190,0.000105
 07,-0.00007444,-0.00001788,-0.00430277,0.01041653,-0.01018093,-0.05015
 561,0.16288225,0.00131848,-0.00070902,0.00105707,-0.00042143,-0.000459
 08,0.00022547,-0.00011141,-0.00002903,0.00001706,-0.00004379,-0.000022
 00,0.00002520,-0.00020379,0.00015904,0.00008914,0.00249625,0.00139599,
 0.00330819,-0.00044585,0.00060762,-0.00026073,-0.00009494,-0.00019099,
 0.00008361,0.00245438,-0.00453191,0.00377793,0.00006894,-0.00001600,-0
 .00001309,0.00062184,-0.00033546,0.00058218,-0.06190165,0.11772993,-0.
 19459225,-0.00024043,-0.00013122,0.00019236,0.00000015,-0.00001160,-0.
 00000379,-0.00052231,-0.00008195,0.00045720,0.00000371,-0.00000103,0.0
 0001105,0.00010680,-0.00009323,-0.00001187,-0.00950627,0.01645896,-0.0
 1845279,0.06532372,-0.12811212,0.20186793,-0.00335055,0.00089566,-0.00
 021753,-0.00782792,-0.03766153,0.04521552,-0.00041649,0.00024264,-0.00
 084138,0.00066641,-0.00146859,-0.00113295,-0.00123667,-0.00003877,0.00
 005948,0.00038138,0.00127920,0.00077759,-0.00132577,-0.00155750,0.0006
 2951,0.00000824,-0.00069030,0.00254695,0.00147275,-0.00031951,-0.00208
 509,-0.00063749,0.00223273,0.00309975,0.00320268,0.00030929,0.00018148
 ,-0.00034680,-0.00193253,-0.00189336,0.00034128,-0.00029943,-0.0021829
 6,-0.00008525,0.00028280,-0.00054855,0.00002650,0.00044723,0.00028427,
 -0.00190887,0.00111497,-0.00140598,-0.00024645,0.00003261,-0.00009131,
 -0.00199849,0.00040566,0.00045694,0.00014613,0.00024555,0.00053081,0.0
 1310455,-0.00023337,0.00148534,0.00232071,-0.04109071,-0.27844952,0.26
 196638,-0.00026657,-0.00048942,0.00012645,-0.00073537,0.00003048,0.000
 35399,-0.00062685,0.00070750,0.00100577,0.00004675,-0.00051785,-0.0000
 3126,0.00302525,0.01433836,-0.01868674,-0.00000385,0.00031585,-0.00150
 615,-0.00227112,0.00103410,-0.00499834,0.00094943,-0.00056427,-0.00053
 502,0.00291637,-0.00272623,-0.00136926,-0.00006527,0.00013702,0.000417
 11,-0.00032027,-0.00078576,-0.00341196,0.00042756,-0.00036994,0.000124
 58,0.00015280,-0.00030131,0.00066115,0.00118668,-0.00012963,0.00029671
 ,-0.00014598,-0.00005551,0.00000958,0.00021255,0.00032752,-0.00002123,
 0.00024553,-0.00002909,0.00003861,0.03675876,0.26609631,-0.00000148,0.
 00114304,0.00115018,0.04052491,0.21325784,-0.28403176,-0.00058117,-0.0
 0016798,0.00006191,-0.00058397,0.00022477,0.00008058,-0.00042952,0.000
 50941,0.00019866,0.00072985,0.00047399,-0.00004836,0.00262703,0.025365
 33,-0.03479175,0.00071692,0.00025756,-0.00046579,-0.00070550,0.0008249
 2,-0.00088332,0.00071061,-0.00029546,0.00007583,0.00119801,-0.00144428
 ,-0.00010285,-0.00103676,-0.00024652,-0.00001764,0.00099539,-0.0042149
 8,-0.00439158,-0.00025922,0.00004354,0.00023629,0.00050139,0.00077838,
 0.00011077,-0.00030305,0.00020523,0.00078639,-0.00009833,0.00023859,-0
 .00011098,-0.00076487,-0.00000389,0.00014043,0.00018814,-0.00003309,0.
 00011777,-0.04350125,-0.23669813,0.32153407,0.00026584,-0.00011050,0.0
 0006573,0.00113369,-0.00014356,-0.00046687,-0.42744251,0.17169718,0.01
 379825,-0.00087691,0.00078868,-0.00053124,0.00019974,0.00037085,0.0001
 0639,-0.00005294,0.00003548,0.00002013,-0.00214200,-0.00505814,-0.0011
 0054,-0.03162532,0.01039317,0.00206486,-0.00123105,0.00108523,0.000273
 74,0.00089666,0.00053772,0.00084971,-0.00115062,0.00052067,-0.00047437
 ,-0.00002195,-0.00045094,-0.00005222,0.00026921,-0.00006102,-0.0000253
 2,0.00070765,0.00071215,-0.00031014,-0.00003117,-0.00000091,-0.0000448
 8,-0.00013271,-0.00017990,0.00013690,0.00032132,0.00024363,-0.00000400
 ,0.00000081,0.00001783,0.00001775,0.00000361,0.00000524,-0.00000584,-0
 .00016700,0.00003176,0.00008715,0.46060707,0.00124350,-0.00031449,0.00
 026779,0.00042156,0.00022638,0.00026743,0.22279164,-0.14454729,-0.0088
 1381,0.00084600,-0.00021557,-0.00073171,0.00041955,-0.00004113,0.00008
 123,-0.00026298,-0.00015701,0.00007698,-0.00347647,-0.00529977,-0.0004
 1640,-0.03511173,0.01143385,0.00138520,-0.00176071,0.00150261,-0.00023
 392,-0.00504660,0.00035535,0.00181901,-0.00059778,-0.00001101,-0.00022
 846,0.00006692,-0.00045675,0.00001091,0.00007022,-0.00008516,-0.000148
 90,-0.00058363,-0.00019763,-0.00072361,0.00001446,0.00005245,0.0000336
 9,0.00048429,-0.00009701,-0.00018887,-0.00001078,-0.00001028,0.0000392
 9,-0.00001857,0.00002493,0.00001522,0.00004162,-0.00001436,-0.00001081
 ,-0.00005671,0.00014923,0.00003090,-0.18064580,0.13725224,-0.00065857,
 0.00016022,-0.00033636,-0.00006098,0.00027181,-0.00016094,0.01501986,-
 0.00727081,-0.00507125,-0.00168190,-0.00136610,-0.00121375,-0.00031563
 ,-0.00024099,-0.00052560,0.00001221,0.00003290,-0.00004446,0.00068325,
 -0.00002540,-0.00050724,-0.00227583,-0.00002989,-0.00019277,0.00012361
 ,-0.00051140,0.00067350,0.00319307,0.00012768,0.00108424,0.00086666,0.
 00010806,0.00060001,-0.00002473,0.00010098,0.00001949,0.00011111,0.000
 01550,0.00000567,-0.00110405,0.00010787,0.00009584,-0.00003897,0.00000
 036,-0.00004524,0.00015270,0.00026270,-0.00063245,-0.00011037,-0.00009
 780,-0.00006856,0.00000945,-0.00000743,-0.00000874,-0.00004162,0.00001
 134,-0.00000663,0.00030567,-0.00003985,0.00008222,-0.01436649,0.007868
 53,0.00648172,0.00144229,-0.00109483,0.00104093,0.00012820,-0.00023762
 ,0.00019622,0.00071152,-0.00120442,0.00012060,-0.08883028,0.09142047,-
 0.09844325,0.00063740,-0.00029324,0.00074765,0.00012285,-0.00006501,0.
 00000004,0.00047259,0.00108918,-0.00165181,-0.00687955,0.00158110,0.00
 291740,0.00016966,0.00063532,-0.00053766,-0.01471978,0.02204476,-0.031
 00231,-0.00198300,0.00155787,-0.00214137,-0.00007991,-0.00011049,0.000
 12361,-0.00048937,0.00007211,0.00009362,0.00010599,-0.00031377,0.00018
 395,-0.00002804,-0.00003721,0.00005398,0.00160259,0.00020013,0.0006876
 5,-0.00059363,-0.00087174,0.00064219,0.00000817,0.00001038,-0.00001812
 ,0.00008963,-0.00002451,0.00001372,-0.00005223,0.00015891,0.00007201,0
 .00054617,0.00129776,0.00011376,0.10793994,-0.00044676,-0.00097398,0.0
 0010300,-0.00052223,0.00013492,-0.00035830,0.00037028,0.00045965,-0.00
 055954,0.10983476,-0.16267692,0.21397509,0.00032019,-0.00130591,0.0000
 0393,-0.00005225,-0.00008734,-0.00002299,-0.00007571,-0.00054892,0.001
 52620,0.00374067,-0.00169130,-0.00149820,0.00004566,0.00003831,-0.0000
 3488,0.00341275,-0.00959024,0.01155070,-0.00077187,0.00386916,-0.00093
 328,0.00003737,0.00001791,0.00006538,0.00032931,-0.00007268,-0.0001371
 1,-0.00011267,0.00020676,-0.00018916,-0.00000914,0.00001102,-0.0000252
 6,-0.00096778,-0.00005127,0.00051023,0.00025749,-0.00016540,0.00058518
 ,0.00002034,-0.00000995,-0.00002276,0.00000587,-0.00000492,-0.00000397
 ,0.00036001,-0.00000185,-0.00000608,0.00025146,0.00042174,0.00050357,-
 0.11571023,0.17189767,0.00094396,-0.00006392,-0.00023926,-0.00020247,0
 .00001175,0.00002254,-0.00037704,-0.00039997,0.00006229,-0.13870471,0.
 23733671,-0.33743612,0.00034999,-0.00054716,-0.00047887,0.00005984,-0.
 00002894,-0.00002440,0.00049586,-0.00017539,0.00056635,0.00179401,-0.0
 0025243,0.00022819,-0.00016562,0.00013217,-0.00015384,0.00888508,-0.00
 927136,0.00812950,-0.00093832,-0.00062343,0.00116975,-0.00002872,-0.00
 000532,0.00004481,0.00013130,-0.00012476,-0.00002100,0.00022492,-0.000
 13812,0.00039778,-0.00000579,-0.00000560,0.00000428,0.00097502,-0.0010
 9599,0.00087192,-0.00027574,0.00035317,-0.00043505,0.00001191,-0.00000
 521,-0.00001566,0.00002031,0.00000110,-0.00000279,0.00004983,0.0000899
 5,0.00009278,0.00000944,-0.00033331,-0.00021095,0.12695092,-0.22487963
 ,0.32737865,-0.00072500,-0.00008683,-0.00037235,-0.00026137,-0.0002107
 8,-0.00008031,-0.00015196,0.00014358,0.00001719,0.00044744,0.00021212,
 -0.00034689,-0.24127010,-0.26965916,0.00528551,0.00022696,-0.00073919,
 -0.00029418,0.00022273,0.00004383,-0.00015208,0.00033702,-0.00005211,-
 0.00009399,-0.00032292,0.00044890,0.00029645,0.00032241,0.00039071,-0.
 00018778,0.00334748,0.00382213,0.00302853,0.00016378,0.00050088,-0.000
 01451,-0.00003593,-0.00000027,0.00000466,-0.00000461,0.00015363,-0.000
 00074,0.00003566,0.00048346,-0.00033351,0.00002668,-0.00002806,0.00028
 072,-0.00017245,0.00048123,0.00101380,-0.00000149,-0.00008329,-0.00005
 916,-0.00002632,-0.00004447,0.00002045,0.00014836,0.00002706,0.0000907
 5,-0.00001127,-0.00005680,0.00003081,-0.00015446,-0.00032432,-0.000140
 74,0.23814743,-0.00008619,0.00274998,0.00214266,0.00041641,0.00040192,
 0.00021340,0.00029065,0.00010710,-0.00006889,0.00061914,0.00045506,0.0
 0058304,-0.25088455,-0.30199161,-0.01225540,-0.00058979,0.00012368,0.0
 0018494,-0.00056763,-0.00018116,0.00008637,0.00006141,0.00042771,0.000
 09931,0.00050366,-0.00185631,0.00019463,0.00086111,0.00036468,-0.00412
 728,-0.01565253,-0.01922348,-0.00177820,0.00032048,0.00002441,-0.00004
 182,0.00007526,0.00007123,-0.00000160,-0.00004875,-0.00007341,-0.00012
 141,0.00029233,-0.00092450,0.00040056,-0.00055923,-0.00042717,0.000075
 86,0.00080185,0.00189474,0.00063985,-0.00009343,0.00002043,0.00007485,
 -0.00009438,0.00002337,-0.00003283,-0.00020345,-0.00021494,-0.00017473
 ,-0.00004000,-0.00000337,0.00002687,-0.00011473,0.00007971,0.00002097,
 0.26421364,0.31810039,0.00086081,0.00268739,0.00035444,-0.00005952,-0.
 00001000,0.00003735,0.00015838,0.00031210,0.00032840,0.00037920,0.0009
 4493,0.00046981,0.03632437,0.02169977,-0.03821314,-0.00002251,-0.00014
 855,-0.00021847,0.00013050,0.00001110,-0.00032598,-0.00006189,0.000043
 34,-0.00079127,0.00024350,-0.00051520,0.00129318,0.00185434,-0.0030059
 7,-0.00683112,-0.02942599,-0.03511108,-0.00304676,0.00006469,0.0001014
 3,-0.00004972,0.00006773,0.00010119,0.00000229,0.00007746,-0.00019497,
 0.00060307,-0.00010750,0.00046360,-0.00025637,-0.00117930,-0.00128847,
 0.00026704,-0.00071068,0.00019019,0.00026001,0.00003549,-0.00004144,-0
 .00003594,-0.00005340,0.00003899,-0.00001276,-0.00008440,-0.00009358,-
 0.00000924,-0.00005154,-0.00004626,-0.00003442,-0.00018546,-0.00016334
 ,0.00001513,-0.00843442,0.01412558,0.04604372,0.00148576,0.00014862,-0
 .00041831,-0.00023574,0.00044669,0.00027361,0.00030509,0.00033787,-0.0
 0010624,0.00083366,0.00019003,-0.00009713,0.00071506,-0.00075459,-0.00
 075153,-0.09168593,0.11658929,-0.14782496,-0.00010428,-0.00008559,-0.0
 0063032,-0.00026554,-0.00022225,0.00011878,0.00036144,-0.00421079,0.00
 346440,-0.00019863,-0.00062997,-0.00018589,-0.00220833,0.00281013,0.00
 024717,0.00658997,-0.02237342,0.01968937,0.00021681,0.00032884,-0.0000
 4806,-0.00000645,0.00001599,0.00001233,-0.00024662,0.00023813,-0.00011
 328,0.00001928,0.00000973,0.00000484,0.00008301,-0.00006323,0.00006297
 ,0.00023942,-0.00005835,-0.00073256,-0.00281300,-0.00393466,0.00053849
 ,0.00010169,-0.00038005,-0.00017705,-0.00006631,-0.00006898,0.00005697
 ,-0.00016676,0.00000681,-0.00006324,-0.00028807,0.00047873,0.00018012,
 0.08733447,0.00097960,-0.00138189,-0.00033488,0.00053535,0.00007538,-0
 .00017909,0.00021258,-0.00006313,-0.00000619,0.00017264,-0.00012262,-0
 .00001592,0.00000702,-0.00052573,-0.00037570,0.08139352,-0.22715424,0.
 20792273,0.00033480,-0.00047987,0.00039744,-0.00009153,0.00024236,0.00
 000973,-0.00014309,0.00131728,0.00083563,0.00005820,-0.00003681,0.0000
 1702,-0.00027035,0.00134647,0.00008279,0.00853132,-0.02858832,0.027126
 75,-0.00003772,-0.00000075,-0.00006673,0.00001008,-0.00000777,-0.00001
 187,0.00002359,-0.00001285,-0.00009020,-0.00002321,-0.00001527,-0.0000
 1933,0.00011261,-0.00007829,0.00008584,0.00100914,-0.00006516,-0.00006
 246,-0.00399048,-0.00364924,-0.00161792,-0.00037877,0.00001363,-0.0000
 6834,-0.00000026,0.00003206,-0.00000870,0.00000980,0.00004384,0.000004
 71,0.00036413,0.00005152,-0.00010074,-0.08881899,0.25905941,-0.0007572
 7,-0.00130929,-0.00100517,-0.00002927,-0.00027767,-0.00048417,-0.00028
 842,-0.00005203,-0.00003832,-0.00011518,0.00000456,-0.00007353,-0.0003
 1030,-0.00008545,-0.00059182,-0.12511565,0.23737940,-0.26143966,-0.000
 23711,0.00088602,0.00007863,0.00014315,-0.00022663,-0.00000719,-0.0006
 9205,0.00055627,0.00011357,0.00004193,-0.00001514,0.00008741,0.0003116
 7,0.00027795,0.00038779,-0.00017387,-0.00150071,0.00063021,0.00007411,
 0.00000598,0.00001787,0.00002455,-0.00001286,-0.00004601,0.00044598,0.
 00006206,-0.00039700,-0.00001873,-0.00002435,-0.00003805,-0.00013242,0
 .00011224,-0.00010677,-0.00022676,-0.00155195,0.00073133,0.00024227,-0
 .00040873,0.00154452,-0.00015303,-0.00001948,0.00018538,0.00000339,-0.
 00002013,0.00001669,0.00002173,0.00001122,0.00003397,0.00044177,-0.000
 26671,0.00015075,0.12649951,-0.23352457,0.26024956\\0.00001627,-0.0000
 0249,-0.00001252,-0.00000294,-0.00000519,-0.00000632,-0.00000244,-0.00
 000092,0.00000067,0.00000246,0.00000412,0.00000191,0.00000428,-0.00000
 444,0.00000094,-0.00000402,0.00000205,0.00000494,-0.00000247,0.0000018
 0,0.00000051,0.00000228,0.00000169,-0.00000300,0.00000207,-0.00000491,
 0.00001462,0.00000265,-0.00000045,0.00000216,-0.00002289,0.00001326,0.
 00001075,0.00000159,0.00000028,-0.00000168,-0.00000311,-0.00000197,-0.
 00000207,-0.00000124,-0.00000092,0.00000049,0.00000132,-0.00000087,-0.
 00000241,0.00000095,0.00000278,0.00000043,0.00000203,0.00000103,0.0000
 0024,-0.00000299,-0.00000143,-0.00000164,0.00000154,-0.00000294,-0.000
 00350,-0.00000063,0.00000270,-0.00000084,0.00000079,0.00000034,-0.0000
 0153,-0.00000202,0.00000264,-0.00000014,0.00000174,-0.00000086,-0.0000
 0037,0.00000479,-0.00000533,-0.00000162\\\@


 ONE BIG VICE IN A MAN IS APT TO KEEP OUT MANY SMALLER ONES.

                           -- BRET HARTE
 Job cpu time:       0 days  4 hours 17 minutes 25.9 seconds.
 Elapsed time:       0 days  0 hours 16 minutes  9.7 seconds.
 File lengths (MBytes):  RWF=    273 Int=      0 D2E=      0 Chk=     11 Scr=      1
 Normal termination of Gaussian 16 at Thu Sep 18 02:04:09 2025.
