 Entering Gaussian System, Link 0=g16
 Input=ALNA0085.gjf
 Output=ALNA0085.log
 Initial command:
 /usr/local/g16/l1.exe "/dados_01/scratch/Gau-1899459.inp" -scrdir="/dados_01/scratch/"
 Entering Link 1 = /usr/local/g16/l1.exe PID=   1899460.
  
 Copyright (c) 1988-2017, Gaussian, Inc.  All Rights Reserved.
  
 This is part of the Gaussian(R) 16 program.  It is based on
 the Gaussian(R) 09 system (copyright 2009, Gaussian, Inc.),
 the Gaussian(R) 03 system (copyright 2003, Gaussian, Inc.),
 the Gaussian(R) 98 system (copyright 1998, Gaussian, Inc.),
 the Gaussian(R) 94 system (copyright 1995, Gaussian, Inc.),
 the Gaussian 92(TM) system (copyright 1992, Gaussian, Inc.),
 the Gaussian 90(TM) system (copyright 1990, Gaussian, Inc.),
 the Gaussian 88(TM) system (copyright 1988, Gaussian, Inc.),
 the Gaussian 86(TM) system (copyright 1986, Carnegie Mellon
 University), and the Gaussian 82(TM) system (copyright 1983,
 Carnegie Mellon University). Gaussian is a federally registered
 trademark of Gaussian, Inc.
  
 This software contains proprietary and confidential information,
 including trade secrets, belonging to Gaussian, Inc.
  
 This software is provided under written license and may be
 used, copied, transmitted, or stored only in accord with that
 written license.
  
 The following legend is applicable only to US Government
 contracts under FAR:
  
                    RESTRICTED RIGHTS LEGEND
  
 Use, reproduction and disclosure by the US Government is
 subject to restrictions as set forth in subparagraphs (a)
 and (c) of the Commercial Computer Software - Restricted
 Rights clause in FAR 52.227-19.
  
 Gaussian, Inc.
 340 Quinnipiac St., Bldg. 40, Wallingford CT 06492
  
  
 ---------------------------------------------------------------
 Warning -- This program may not be used in any manner that
 competes with the business of Gaussian, Inc. or will provide
 assistance to any competitor of Gaussian, Inc.  The licensee
 of this program is prohibited from giving any competitor of
 Gaussian, Inc. access to this program.  By using this program,
 the user acknowledges that Gaussian, Inc. is engaged in the
 business of creating and licensing software in the field of
 computational chemistry and represents and warrants to the
 licensee that it is not a competitor of Gaussian, Inc. and that
 it will not use this program in any manner prohibited above.
 ---------------------------------------------------------------
  

 Cite this work as:
 Gaussian 16, Revision B.01,
 M. J. Frisch, G. W. Trucks, H. B. Schlegel, G. E. Scuseria, 
 M. A. Robb, J. R. Cheeseman, G. Scalmani, V. Barone, 
 G. A. Petersson, H. Nakatsuji, X. Li, M. Caricato, A. V. Marenich, 
 J. Bloino, B. G. Janesko, R. Gomperts, B. Mennucci, H. P. Hratchian, 
 J. V. Ortiz, A. F. Izmaylov, J. L. Sonnenberg, D. Williams-Young, 
 F. Ding, F. Lipparini, F. Egidi, J. Goings, B. Peng, A. Petrone, 
 T. Henderson, D. Ranasinghe, V. G. Zakrzewski, J. Gao, N. Rega, 
 G. Zheng, W. Liang, M. Hada, M. Ehara, K. Toyota, R. Fukuda, 
 J. Hasegawa, M. Ishida, T. Nakajima, Y. Honda, O. Kitao, H. Nakai, 
 T. Vreven, K. Throssell, J. A. Montgomery, Jr., J. E. Peralta, 
 F. Ogliaro, M. J. Bearpark, J. J. Heyd, E. N. Brothers, K. N. Kudin, 
 V. N. Staroverov, T. A. Keith, R. Kobayashi, J. Normand, 
 K. Raghavachari, A. P. Rendell, J. C. Burant, S. S. Iyengar, 
 J. Tomasi, M. Cossi, J. M. Millam, M. Klene, C. Adamo, R. Cammi, 
 J. W. Ochterski, R. L. Martin, K. Morokuma, O. Farkas, 
 J. B. Foresman, and D. J. Fox, Gaussian, Inc., Wallingford CT, 2016.
 
 ******************************************
 Gaussian 16:  ES64L-G16RevB.01 20-Dec-2017
                18-Sep-2025 
 ******************************************
 %nprocs=16
 Will use up to   16 processors via shared memory.
 %mem=40GB
 %chk=ALNA0085.chk
 ----------------------------------------------------------------------
 # opt freq=noraman M08HX/6-311++G** scf=xqc Empiricaldispersion=pfd In
 t(Grid=ultraFine)
 ----------------------------------------------------------------------
 1/18=20,19=15,26=4,38=1/1,3;
 2/9=110,12=2,17=6,18=5,40=1/2;
 3/5=4,6=6,7=1111,11=2,25=1,30=1,71=1,74=-74,75=-5,124=11/1,2,3;
 4//1;
 5/5=2,8=3,13=1,38=5/2,8;
 6/7=2,8=2,9=2,10=2,28=1/1;
 7//1,2,3,16;
 1/18=20,19=15,26=4/3(2);
 2/9=110/2;
 99//99;
 2/9=110/2;
 3/5=4,6=6,7=1111,11=2,25=1,30=1,71=1,74=-74,75=-5,124=11/1,2,3;
 4/5=5,16=3,69=1/1;
 5/5=2,8=3,13=1,38=5/2,8;
 7//1,2,3,16;
 1/18=20,19=15,26=4/3(-5);
 2/9=110/2;
 6/7=2,8=2,9=2,10=2,19=2,28=1/1;
 99/9=1/99;
 --------
 ALNA0085
 --------
 Symbolic Z-matrix:
 Charge =  0 Multiplicity = 1
 O                    -1.6808   -2.1934   -0.0001 
 C                     0.0129   -0.4711    0.0002 
 C                     0.3232    0.9098    0.0002 
 C                    -1.3329   -0.8725    0.0001 
 C                    -0.7214    1.8484    0.0001 
 C                     1.0576   -1.4097    0.0001 
 C                     1.669     1.3113    0. 
 C                    -2.358     0.0737   -0.0001 
 C                    -2.0529    1.4316   -0.0002 
 C                     2.3891   -0.993    -0.0001 
 C                     2.6942    0.3649   -0.0002 
 H                    -0.5063    2.9149    0. 
 H                     0.8798   -2.4811   -0.0161 
 H                     1.9309    2.3673   -0.0003 
 H                    -3.3977   -0.2427   -0.0003 
 H                    -2.8514    2.1678   -0.0003 
 H                     3.1881   -1.7287   -0.0039 
 H                     3.7309    0.6887   -0.0013 
 H                    -0.9902   -2.7253    0.4246 
 

 GradGradGradGradGradGradGradGradGradGradGradGradGradGradGradGradGradGrad
 Berny optimization.
 Initialization pass.
                           ----------------------------
                           !    Initial Parameters    !
                           ! (Angstroms and Degrees)  !
 --------------------------                            --------------------------
 ! Name  Definition              Value          Derivative Info.                !
 --------------------------------------------------------------------------------
 ! R1    R(1,4)                  1.3659         estimate D2E/DX2                !
 ! R2    R(1,19)                 0.9696         estimate D2E/DX2                !
 ! R3    R(2,3)                  1.4153         estimate D2E/DX2                !
 ! R4    R(2,4)                  1.4044         estimate D2E/DX2                !
 ! R5    R(2,6)                  1.4044         estimate D2E/DX2                !
 ! R6    R(3,5)                  1.4043         estimate D2E/DX2                !
 ! R7    R(3,7)                  1.4044         estimate D2E/DX2                !
 ! R8    R(4,8)                  1.395          estimate D2E/DX2                !
 ! R9    R(5,9)                  1.3952         estimate D2E/DX2                !
 ! R10   R(5,12)                 1.088          estimate D2E/DX2                !
 ! R11   R(6,10)                 1.3952         estimate D2E/DX2                !
 ! R12   R(6,13)                 1.0862         estimate D2E/DX2                !
 ! R13   R(7,11)                 1.3952         estimate D2E/DX2                !
 ! R14   R(7,14)                 1.088          estimate D2E/DX2                !
 ! R15   R(8,9)                  1.3918         estimate D2E/DX2                !
 ! R16   R(8,15)                 1.0868         estimate D2E/DX2                !
 ! R17   R(9,16)                 1.0861         estimate D2E/DX2                !
 ! R18   R(10,11)                1.3918         estimate D2E/DX2                !
 ! R19   R(10,17)                1.0861         estimate D2E/DX2                !
 ! R20   R(11,18)                1.0861         estimate D2E/DX2                !
 ! A1    A(4,1,19)             110.426          estimate D2E/DX2                !
 ! A2    A(3,2,4)              119.2723         estimate D2E/DX2                !
 ! A3    A(3,2,6)              119.2733         estimate D2E/DX2                !
 ! A4    A(4,2,6)              121.4544         estimate D2E/DX2                !
 ! A5    A(2,3,5)              119.276          estimate D2E/DX2                !
 ! A6    A(2,3,7)              119.2762         estimate D2E/DX2                !
 ! A7    A(5,3,7)              121.4478         estimate D2E/DX2                !
 ! A8    A(1,4,2)              121.3633         estimate D2E/DX2                !
 ! A9    A(1,4,8)              117.9525         estimate D2E/DX2                !
 ! A10   A(2,4,8)              120.6842         estimate D2E/DX2                !
 ! A11   A(3,5,9)              120.6778         estimate D2E/DX2                !
 ! A12   A(3,5,12)             120.5376         estimate D2E/DX2                !
 ! A13   A(9,5,12)             118.7846         estimate D2E/DX2                !
 ! A14   A(2,6,10)             120.6844         estimate D2E/DX2                !
 ! A15   A(2,6,13)             122.5114         estimate D2E/DX2                !
 ! A16   A(10,6,13)            116.7969         estimate D2E/DX2                !
 ! A17   A(3,7,11)             120.677          estimate D2E/DX2                !
 ! A18   A(3,7,14)             120.5407         estimate D2E/DX2                !
 ! A19   A(11,7,14)            118.7823         estimate D2E/DX2                !
 ! A20   A(4,8,9)              120.0448         estimate D2E/DX2                !
 ! A21   A(4,8,15)             120.366          estimate D2E/DX2                !
 ! A22   A(9,8,15)             119.5892         estimate D2E/DX2                !
 ! A23   A(5,9,8)              120.0449         estimate D2E/DX2                !
 ! A24   A(5,9,16)             119.9429         estimate D2E/DX2                !
 ! A25   A(8,9,16)             120.0122         estimate D2E/DX2                !
 ! A26   A(6,10,11)            120.041          estimate D2E/DX2                !
 ! A27   A(6,10,17)            119.9839         estimate D2E/DX2                !
 ! A28   A(11,10,17)           119.9747         estimate D2E/DX2                !
 ! A29   A(7,11,10)            120.048          estimate D2E/DX2                !
 ! A30   A(7,11,18)            119.9432         estimate D2E/DX2                !
 ! A31   A(10,11,18)           120.0087         estimate D2E/DX2                !
 ! D1    D(19,1,4,2)            27.8683         estimate D2E/DX2                !
 ! D2    D(19,1,4,8)          -152.1458         estimate D2E/DX2                !
 ! D3    D(4,2,3,5)              0.0            estimate D2E/DX2                !
 ! D4    D(4,2,3,7)           -179.986          estimate D2E/DX2                !
 ! D5    D(6,2,3,5)            179.9906         estimate D2E/DX2                !
 ! D6    D(6,2,3,7)              0.0047         estimate D2E/DX2                !
 ! D7    D(3,2,4,1)            179.9904         estimate D2E/DX2                !
 ! D8    D(3,2,4,8)              0.0048         estimate D2E/DX2                !
 ! D9    D(6,2,4,1)             -0.0001         estimate D2E/DX2                !
 ! D10   D(6,2,4,8)           -179.9856         estimate D2E/DX2                !
 ! D11   D(3,2,6,10)            -0.0048         estimate D2E/DX2                !
 ! D12   D(3,2,6,13)          -178.9869         estimate D2E/DX2                !
 ! D13   D(4,2,6,10)           179.9856         estimate D2E/DX2                !
 ! D14   D(4,2,6,13)             1.0035         estimate D2E/DX2                !
 ! D15   D(2,3,5,9)             -0.0096         estimate D2E/DX2                !
 ! D16   D(2,3,5,12)          -179.994          estimate D2E/DX2                !
 ! D17   D(7,3,5,9)            179.976          estimate D2E/DX2                !
 ! D18   D(7,3,5,12)            -0.0084         estimate D2E/DX2                !
 ! D19   D(2,3,7,11)             0.0001         estimate D2E/DX2                !
 ! D20   D(2,3,7,14)           179.9819         estimate D2E/DX2                !
 ! D21   D(5,3,7,11)          -179.9855         estimate D2E/DX2                !
 ! D22   D(5,3,7,14)            -0.0038         estimate D2E/DX2                !
 ! D23   D(1,4,8,9)           -179.9861         estimate D2E/DX2                !
 ! D24   D(1,4,8,15)             0.0064         estimate D2E/DX2                !
 ! D25   D(2,4,8,9)             -0.0001         estimate D2E/DX2                !
 ! D26   D(2,4,8,15)           179.9925         estimate D2E/DX2                !
 ! D27   D(3,5,9,8)              0.0144         estimate D2E/DX2                !
 ! D28   D(3,5,9,16)          -179.9984         estimate D2E/DX2                !
 ! D29   D(12,5,9,8)           179.9991         estimate D2E/DX2                !
 ! D30   D(12,5,9,16)           -0.0138         estimate D2E/DX2                !
 ! D31   D(2,6,10,11)            0.0001         estimate D2E/DX2                !
 ! D32   D(2,6,10,17)         -179.7732         estimate D2E/DX2                !
 ! D33   D(13,6,10,11)         179.0384         estimate D2E/DX2                !
 ! D34   D(13,6,10,17)          -0.7349         estimate D2E/DX2                !
 ! D35   D(3,7,11,10)           -0.0049         estimate D2E/DX2                !
 ! D36   D(3,7,11,18)          179.9424         estimate D2E/DX2                !
 ! D37   D(14,7,11,10)        -179.987          estimate D2E/DX2                !
 ! D38   D(14,7,11,18)          -0.0397         estimate D2E/DX2                !
 ! D39   D(4,8,9,5)             -0.0095         estimate D2E/DX2                !
 ! D40   D(4,8,9,16)          -179.9966         estimate D2E/DX2                !
 ! D41   D(15,8,9,5)           179.9978         estimate D2E/DX2                !
 ! D42   D(15,8,9,16)            0.0107         estimate D2E/DX2                !
 ! D43   D(6,10,11,7)            0.0048         estimate D2E/DX2                !
 ! D44   D(6,10,11,18)        -179.9425         estimate D2E/DX2                !
 ! D45   D(17,10,11,7)         179.7781         estimate D2E/DX2                !
 ! D46   D(17,10,11,18)         -0.1692         estimate D2E/DX2                !
 --------------------------------------------------------------------------------
 Trust Radius=3.00D-01 FncErr=1.00D-07 GrdErr=1.00D-06 EigMax=2.50D+02 EigMin=1.00D-04
 Number of steps in this run=    107 maximum allowed number of steps=    114.
 GradGradGradGradGradGradGradGradGradGradGradGradGradGradGradGradGradGrad

                          Input orientation:                          
 ---------------------------------------------------------------------
 Center     Atomic      Atomic             Coordinates (Angstroms)
 Number     Number       Type             X           Y           Z
 ---------------------------------------------------------------------
      1          8           0       -1.680800   -2.193400   -0.000100
      2          6           0        0.012900   -0.471100    0.000200
      3          6           0        0.323200    0.909800    0.000200
      4          6           0       -1.332900   -0.872500    0.000100
      5          6           0       -0.721400    1.848400    0.000100
      6          6           0        1.057600   -1.409700    0.000100
      7          6           0        1.669000    1.311300    0.000000
      8          6           0       -2.358000    0.073700   -0.000100
      9          6           0       -2.052900    1.431600   -0.000200
     10          6           0        2.389100   -0.993000   -0.000100
     11          6           0        2.694200    0.364900   -0.000200
     12          1           0       -0.506300    2.914900    0.000000
     13          1           0        0.879800   -2.481100   -0.016100
     14          1           0        1.930900    2.367300   -0.000300
     15          1           0       -3.397700   -0.242700   -0.000300
     16          1           0       -2.851400    2.167800   -0.000300
     17          1           0        3.188100   -1.728700   -0.003900
     18          1           0        3.730900    0.688700   -0.001300
     19          1           0       -0.990200   -2.725300    0.424600
 ---------------------------------------------------------------------
                    Distance matrix (angstroms):
                    1          2          3          4          5
     1  O    0.000000
     2  C    2.415561   0.000000
     3  C    3.694031   1.415334   0.000000
     4  C    1.365947   1.404386   2.432953   0.000000
     5  C    4.154106   2.432956   1.404336   2.788768   0.000000
     6  C    2.848336   1.404410   2.432987   2.450117   3.712150
     7  C    4.848101   2.433026   1.404414   3.712194   2.449998
     8  C    2.366082   2.432689   2.808540   1.395036   2.414129
     9  C    3.644048   2.808522   2.432720   2.413975   1.395211
    10  C    4.243235   2.432839   2.808664   3.723950   4.212928
    11  C    5.068089   2.808606   2.432808   4.212920   3.723855
    12  H    5.241582   3.425575   2.169907   3.876553   1.087975
    13  H    2.576761   2.189037   3.436317   2.735671   4.616132
    14  H    5.817591   3.425673   2.170024   4.598771   2.702583
    15  H    2.598649   3.418239   3.895299   2.158714   3.396363
    16  H    4.515570   3.894613   3.414769   3.398421   2.153814
    17  H    4.891027   3.415182   3.894785   4.601362   5.299042
    18  H    6.131313   3.894697   3.414866   5.299002   4.600857
    19  H    0.969647   2.503546   3.888327   1.931453   4.601216
                    6          7          8          9         10
     6  C    0.000000
     7  C    2.788844   0.000000
     8  C    3.723815   4.212883   0.000000
     9  C    4.212861   3.723844   1.391754   0.000000
    10  C    1.395181   2.414196   4.865471   5.060637   0.000000
    11  C    2.414056   1.395245   5.060585   4.865471   1.391754
    12  H    4.598690   2.702492   3.391343   2.142930   4.863643
    13  H    1.086174   3.873680   4.124392   4.889806   2.119595
    14  H    3.876646   1.087993   4.863668   4.092212   3.391395
    15  H    4.605604   5.299657   1.086777   2.147503   5.835238
    16  H    5.298942   4.600827   2.151441   1.086091   6.119926
    17  H    2.154253   3.398423   5.831628   6.120097   1.086126
    18  H    3.398502   2.153849   6.119880   5.831316   2.151405
    19  H    2.470726   4.852398   3.144145   4.311566   3.821113
                   11         12         13         14         15
    11  C    0.000000
    12  H    4.092151   0.000000
    13  H    3.375206   5.571207   0.000000
    14  H    2.142950   2.497961   4.961053   0.000000
    15  H    6.122126   4.281429   4.827804   5.933471   0.000000
    16  H    5.831306   2.461230   5.961072   4.786459   2.471630
    17  H    2.151072   5.933939   2.427860   4.284598   6.751368
    18  H    1.086091   4.786422   4.263405   2.461239   7.189189
    19  H    4.827483   5.676821   1.936685   5.886250   3.484236
                   16         17         18         19
    16  H    0.000000
    17  H    7.187370   0.000000
    18  H    6.746437   2.477592   0.000000
    19  H    5.252336   4.316829   5.841710   0.000000
 Stoichiometry    C10H8O
 Framework group  C1[X(C10H8O)]
 Deg. of freedom    51
 Full point group                 C1      NOp   1
 Largest Abelian subgroup         C1      NOp   1
 Largest concise Abelian subgroup C1      NOp   1
                         Standard orientation:                         
 ---------------------------------------------------------------------
 Center     Atomic      Atomic             Coordinates (Angstroms)
 Number     Number       Type             X           Y           Z
 ---------------------------------------------------------------------
      1          8           0        1.718717    2.103623   -0.024206
      2          6           0       -0.019793    0.426643   -0.008202
      3          6           0       -0.366388   -0.945554    0.002586
      4          6           0        1.336118    0.792396   -0.013598
      5          6           0        0.653104   -1.911355    0.007660
      6          6           0       -1.039385    1.392445   -0.013476
      7          6           0       -1.722302   -1.311410    0.007683
      8          6           0        2.335916   -0.180488   -0.008535
      9          6           0        1.995126   -1.529832    0.001974
     10          6           0       -2.381405    1.011018   -0.008291
     11          6           0       -2.722196   -0.338326    0.002218
     12          1           0        0.409964   -2.971782    0.015850
     13          1           0       -0.833434    2.458634   -0.037937
     14          1           0       -2.011949   -2.360108    0.015675
     15          1           0        3.383593    0.108370   -0.012873
     16          1           0        2.773939   -2.286817    0.005968
     17          1           0       -3.160739    1.767488   -0.016180
     18          1           0       -3.767072   -0.634670    0.005306
     19          1           0        1.043194    2.656672    0.397720
 ---------------------------------------------------------------------
 Rotational constants (GHZ):           1.9612220           1.1378137           0.7204253
 Standard basis: 6-311++G(d,p) (5D, 7F)
 There are   309 symmetry adapted cartesian basis functions of A   symmetry.
 There are   298 symmetry adapted basis functions of A   symmetry.
   298 basis functions,   468 primitive gaussians,   309 cartesian basis functions
    38 alpha electrons       38 beta electrons
       nuclear repulsion energy       553.4655980843 Hartrees.
 NAtoms=   19 NActive=   19 NUniq=   19 SFac= 1.00D+00 NAtFMM=   60 NAOKFM=F Big=F
 Integral buffers will be    131072 words long.
 Raffenetti 2 integral format.
 Two-electron integral symmetry is turned on.
 R6APFD:  NTU= -4 IXU= 1 FactS= 1.050
 Nuclear repulsion after empirical dispersion term =      553.4545946939 Hartrees.
 One-electron integrals computed using PRISM.
 NBasis=   298 RedAO= T EigKep=  1.10D-06  NBF=   298
 NBsUse=   296 1.00D-06 EigRej=  5.78D-07 NBFU=   296
 ExpMin= 3.60D-02 ExpMax= 8.59D+03 ExpMxC= 1.30D+03 IAcc=3 IRadAn=         5 AccDes= 0.00D+00
 Harris functional with IExCor= 1009 and IRadAn=       5 diagonalized for initial guess.
 HarFok:  IExCor= 1009 AccDes= 0.00D+00 IRadAn=         5 IDoV= 1 UseB2=F ITyADJ=14
 ICtDFT=  3500011 ScaDFX=  1.000000  1.000000  1.000000  1.000000
 FoFCou: FMM=F IPFlag=           0 FMFlag=      100000 FMFlg1=           0
         NFxFlg=           0 DoJE=T BraDBF=F KetDBF=T FulRan=T
         wScrn=  0.000000 ICntrl=       500 IOpCl=  0 I1Cent=   200000004 NGrid=           0
         NMat0=    1 NMatS0=      1 NMatT0=    0 NMatD0=    1 NMtDS0=    0 NMtDT0=    0
 Petite list used in FoFCou.
 Requested convergence on RMS density matrix=1.00D-08 within  32 cycles.
 Requested convergence on MAX density matrix=1.00D-06.
 Requested convergence on             energy=1.00D-06.
 No special actions if energy rises.
 SCF Done:  E(RM08HX) =  -461.100517980     A.U. after   15 cycles
            NFock= 15  Conv=0.92D-08     -V/T= 2.0046
 QCSCF skips out because SCF is already converged.

 **********************************************************************

            Population analysis using the SCF Density.

 **********************************************************************

 Orbital symmetries:
       Occupied  (A) (A) (A) (A) (A) (A) (A) (A) (A) (A) (A) (A)
                 (A) (A) (A) (A) (A) (A) (A) (A) (A) (A) (A) (A)
                 (A) (A) (A) (A) (A) (A) (A) (A) (A) (A) (A) (A)
                 (A) (A)
       Virtual   (A) (A) (A) (A) (A) (A) (A) (A) (A) (A) (A) (A)
                 (A) (A) (A) (A) (A) (A) (A) (A) (A) (A) (A) (A)
                 (A) (A) (A) (A) (A) (A) (A) (A) (A) (A) (A) (A)
                 (A) (A) (A) (A) (A) (A) (A) (A) (A) (A) (A) (A)
                 (A) (A) (A) (A) (A) (A) (A) (A) (A) (A) (A) (A)
                 (A) (A) (A) (A) (A) (A) (A) (A) (A) (A) (A) (A)
                 (A) (A) (A) (A) (A) (A) (A) (A) (A) (A) (A) (A)
                 (A) (A) (A) (A) (A) (A) (A) (A) (A) (A) (A) (A)
                 (A) (A) (A) (A) (A) (A) (A) (A) (A) (A) (A) (A)
                 (A) (A) (A) (A) (A) (A) (A) (A) (A) (A) (A) (A)
                 (A) (A) (A) (A) (A) (A) (A) (A) (A) (A) (A) (A)
                 (A) (A) (A) (A) (A) (A) (A) (A) (A) (A) (A) (A)
                 (A) (A) (A) (A) (A) (A) (A) (A) (A) (A) (A) (A)
                 (A) (A) (A) (A) (A) (A) (A) (A) (A) (A) (A) (A)
                 (A) (A) (A) (A) (A) (A) (A) (A) (A) (A) (A) (A)
                 (A) (A) (A) (A) (A) (A) (A) (A) (A) (A) (A) (A)
                 (A) (A) (A) (A) (A) (A) (A) (A) (A) (A) (A) (A)
                 (A) (A) (A) (A) (A) (A) (A) (A) (A) (A) (A) (A)
                 (A) (A) (A) (A) (A) (A) (A) (A) (A) (A) (A) (A)
                 (A) (A) (A) (A) (A) (A) (A) (A) (A) (A) (A) (A)
                 (A) (A) (A) (A) (A) (A) (A) (A) (A) (A) (A) (A)
                 (A) (A) (A) (A) (A) (A)
 The electronic state is 1-A.
 Alpha  occ. eigenvalues --  -19.64452 -10.60461 -10.55256 -10.55204 -10.55150
 Alpha  occ. eigenvalues --  -10.54654 -10.54619 -10.54418 -10.54184 -10.53548
 Alpha  occ. eigenvalues --  -10.53519  -1.18854  -0.99981  -0.93949  -0.88378
 Alpha  occ. eigenvalues --   -0.85929  -0.82315  -0.73298  -0.71885  -0.69495
 Alpha  occ. eigenvalues --   -0.64385  -0.60234  -0.58276  -0.56658  -0.53404
 Alpha  occ. eigenvalues --   -0.51862  -0.50900  -0.50192  -0.47593  -0.46442
 Alpha  occ. eigenvalues --   -0.45263  -0.44197  -0.41360  -0.40430  -0.39562
 Alpha  occ. eigenvalues --   -0.34203  -0.31285  -0.26074
 Alpha virt. eigenvalues --   -0.03653  -0.02978  -0.02017  -0.01444  -0.00250
 Alpha virt. eigenvalues --   -0.00072   0.00476   0.01727   0.02575   0.02976
 Alpha virt. eigenvalues --    0.03578   0.03878   0.04748   0.05374   0.06355
 Alpha virt. eigenvalues --    0.07405   0.07504   0.07653   0.08027   0.09447
 Alpha virt. eigenvalues --    0.09882   0.10731   0.10975   0.11286   0.11429
 Alpha virt. eigenvalues --    0.11796   0.12006   0.12315   0.12610   0.12886
 Alpha virt. eigenvalues --    0.13415   0.14133   0.14593   0.15113   0.15535
 Alpha virt. eigenvalues --    0.17086   0.17793   0.18017   0.18187   0.18654
 Alpha virt. eigenvalues --    0.19526   0.21271   0.21740   0.22070   0.22263
 Alpha virt. eigenvalues --    0.23632   0.24131   0.24192   0.24412   0.25166
 Alpha virt. eigenvalues --    0.25400   0.26778   0.27035   0.27540   0.27999
 Alpha virt. eigenvalues --    0.28173   0.29901   0.30152   0.31154   0.32258
 Alpha virt. eigenvalues --    0.33318   0.33472   0.33538   0.34837   0.35168
 Alpha virt. eigenvalues --    0.37540   0.38504   0.39333   0.41324   0.42382
 Alpha virt. eigenvalues --    0.45907   0.50346   0.51757   0.53606   0.54771
 Alpha virt. eigenvalues --    0.56285   0.57128   0.57392   0.57751   0.58585
 Alpha virt. eigenvalues --    0.59919   0.61138   0.61937   0.62115   0.62778
 Alpha virt. eigenvalues --    0.63186   0.63365   0.63988   0.66354   0.66621
 Alpha virt. eigenvalues --    0.67415   0.68497   0.68976   0.72550   0.74102
 Alpha virt. eigenvalues --    0.75130   0.76343   0.77100   0.77769   0.79854
 Alpha virt. eigenvalues --    0.81115   0.82246   0.83223   0.83660   0.84998
 Alpha virt. eigenvalues --    0.87861   0.88878   0.89730   0.91436   0.92386
 Alpha virt. eigenvalues --    0.93090   0.94437   0.95070   0.95922   0.97613
 Alpha virt. eigenvalues --    0.99582   1.00722   1.02072   1.02904   1.07773
 Alpha virt. eigenvalues --    1.08071   1.09335   1.09624   1.10755   1.13184
 Alpha virt. eigenvalues --    1.13766   1.14765   1.16911   1.18766   1.19662
 Alpha virt. eigenvalues --    1.20694   1.26162   1.29084   1.33965   1.35133
 Alpha virt. eigenvalues --    1.37760   1.49186   1.50529   1.52668   1.53060
 Alpha virt. eigenvalues --    1.54217   1.54359   1.56022   1.57130   1.59557
 Alpha virt. eigenvalues --    1.60395   1.62788   1.65023   1.66334   1.66822
 Alpha virt. eigenvalues --    1.67673   1.69881   1.71831   1.75984   1.76676
 Alpha virt. eigenvalues --    1.77532   1.78496   1.79717   1.81384   1.82751
 Alpha virt. eigenvalues --    1.89138   1.91141   1.92364   1.93184   1.94708
 Alpha virt. eigenvalues --    1.95331   1.97637   1.97711   1.98329   2.00163
 Alpha virt. eigenvalues --    2.01944   2.02232   2.03534   2.04180   2.07488
 Alpha virt. eigenvalues --    2.12111   2.14541   2.18237   2.18763   2.22766
 Alpha virt. eigenvalues --    2.23166   2.23672   2.31350   2.39469   2.42417
 Alpha virt. eigenvalues --    2.44452   2.46679   2.47484   2.49303   2.50457
 Alpha virt. eigenvalues --    2.57546   2.58786   2.61262   2.68566   2.68951
 Alpha virt. eigenvalues --    2.69676   2.70482   2.70859   2.72348   2.72755
 Alpha virt. eigenvalues --    2.73720   2.74515   2.76042   2.76412   2.78704
 Alpha virt. eigenvalues --    2.82422   2.84355   2.88367   2.89433   2.90674
 Alpha virt. eigenvalues --    2.91850   2.97384   2.98542   2.99176   3.00364
 Alpha virt. eigenvalues --    3.14457   3.17078   3.18572   3.19806   3.28320
 Alpha virt. eigenvalues --    3.29773   3.30976   3.39795   3.43602   3.46079
 Alpha virt. eigenvalues --    3.46559   3.50449   3.52738   3.57566   3.58707
 Alpha virt. eigenvalues --    3.62274   3.69103   3.73979   3.86562   3.93776
 Alpha virt. eigenvalues --    4.07667   4.08412   4.11249   4.15619   4.25242
 Alpha virt. eigenvalues --    4.27501   4.43614   4.90372   4.92924   5.16129
 Alpha virt. eigenvalues --    5.54201   5.85206  23.58355  23.87412  23.98401
 Alpha virt. eigenvalues --   24.04457  24.05126  24.11234  24.12416  24.13522
 Alpha virt. eigenvalues --   24.22795  24.23043  49.96800
          Condensed to atoms (all electrons):
               1          2          3          4          5          6
     1  O    8.058735   0.073245  -0.374975   0.266943  -0.007273   0.360515
     2  C    0.073245  45.265952 -14.420494  -6.665737  -8.315922  -2.086900
     3  C   -0.374975 -14.420494  42.225807  -4.845607   0.503618  -9.858860
     4  C    0.266943  -6.665737  -4.845607  15.992695   3.857504  -0.311577
     5  C   -0.007273  -8.315922   0.503618   3.857504  13.266927  -1.552794
     6  C    0.360515  -2.086900  -9.858860  -0.311577  -1.552794  17.792436
     7  C   -0.032768  -3.972843  -6.900855   0.016384  -0.699594   4.832768
     8  C   -0.653036  -4.337217   0.914087   0.294289  -1.431820  -0.554524
     9  C    0.037674   2.757974  -1.757468  -1.693390  -0.197518   0.685324
    10  C    0.265532  -1.638657  -0.205311  -1.011847   0.407038  -0.942263
    11  C    0.010329  -0.754656   1.085080   0.447798   0.078024  -2.602647
    12  H   -0.000485  -0.152387   0.079911   0.092879   0.484621  -0.095056
    13  H    0.004956  -0.267898  -0.091795  -0.045495  -0.009214   0.516182
    14  H    0.000336   0.098711  -0.169706  -0.076658  -0.058222   0.132718
    15  H   -0.030415  -0.158675   0.044301  -0.071119   0.024919  -0.030842
    16  H    0.002428   0.184646  -0.067472  -0.007131  -0.078579   0.007302
    17  H    0.000022   0.056105  -0.030979   0.006170  -0.025792   0.004361
    18  H   -0.000026  -0.024515   0.074375  -0.015458   0.015829  -0.048996
    19  H    0.189591  -0.260390   0.059744   0.246544   0.005808  -0.139495
               7          8          9         10         11         12
     1  O   -0.032768  -0.653036   0.037674   0.265532   0.010329  -0.000485
     2  C   -3.972843  -4.337217   2.757974  -1.638657  -0.754656  -0.152387
     3  C   -6.900855   0.914087  -1.757468  -0.205311   1.085080   0.079911
     4  C    0.016384   0.294289  -1.693390  -1.011847   0.447798   0.092879
     5  C   -0.699594  -1.431820  -0.197518   0.407038   0.078024   0.484621
     6  C    4.832768  -0.554524   0.685324  -0.942263  -2.602647  -0.095056
     7  C   14.221393   0.392744  -0.183138  -1.457553  -0.478480  -0.025390
     8  C    0.392744  12.336636  -1.095836  -0.708572   0.314525   0.031743
     9  C   -0.183138  -1.095836   7.855831   0.294609  -0.659687  -0.124289
    10  C   -1.457553  -0.708572   0.294609  11.106471  -0.124078  -0.006030
    11  C   -0.478480   0.314525  -0.659687  -0.124078   8.738966   0.065993
    12  H   -0.025390   0.031743  -0.124289  -0.006030   0.065993   0.427770
    13  H    0.083002  -0.008633  -0.006808   0.155710   0.015404   0.000060
    14  H    0.504965  -0.010629   0.064533   0.011266  -0.151522  -0.003047
    15  H   -0.031895   0.620789  -0.092052   0.003744   0.006157   0.003463
    16  H    0.004021  -0.179021   0.436782   0.002837  -0.006865  -0.010090
    17  H   -0.020185   0.003918   0.004350   0.389026  -0.083448  -0.000314
    18  H   -0.034884   0.002460  -0.004367  -0.074111   0.420532   0.001324
    19  H   -0.022370   0.252222  -0.008159  -0.096844   0.003132   0.000739
              13         14         15         16         17         18
     1  O    0.004956   0.000336  -0.030415   0.002428   0.000022  -0.000026
     2  C   -0.267898   0.098711  -0.158675   0.184646   0.056105  -0.024515
     3  C   -0.091795  -0.169706   0.044301  -0.067472  -0.030979   0.074375
     4  C   -0.045495  -0.076658  -0.071119  -0.007131   0.006170  -0.015458
     5  C   -0.009214  -0.058222   0.024919  -0.078579  -0.025792   0.015829
     6  C    0.516182   0.132718  -0.030842   0.007302   0.004361  -0.048996
     7  C    0.083002   0.504965  -0.031895   0.004021  -0.020185  -0.034884
     8  C   -0.008633  -0.010629   0.620789  -0.179021   0.003918   0.002460
     9  C   -0.006808   0.064533  -0.092052   0.436782   0.004350  -0.004367
    10  C    0.155710   0.011266   0.003744   0.002837   0.389026  -0.074111
    11  C    0.015404  -0.151522   0.006157  -0.006865  -0.083448   0.420532
    12  H    0.000060  -0.003047   0.003463  -0.010090  -0.000314   0.001324
    13  H    0.539374   0.001413   0.000673  -0.000462  -0.012036   0.000858
    14  H    0.001413   0.426876  -0.000766   0.002060   0.001879  -0.008223
    15  H    0.000673  -0.000766   0.424225  -0.014320  -0.000164   0.000039
    16  H   -0.000462   0.002060  -0.014320   0.430860   0.000049  -0.000289
    17  H   -0.012036   0.001879  -0.000164   0.000049   0.423710  -0.007538
    18  H    0.000858  -0.008223   0.000039  -0.000289  -0.007538   0.420339
    19  H   -0.018133  -0.000306   0.003439  -0.000702   0.000863   0.000157
              19
     1  O    0.189591
     2  C   -0.260390
     3  C    0.059744
     4  C    0.246544
     5  C    0.005808
     6  C   -0.139495
     7  C   -0.022370
     8  C    0.252222
     9  C   -0.008159
    10  C   -0.096844
    11  C    0.003132
    12  H    0.000739
    13  H   -0.018133
    14  H   -0.000306
    15  H    0.003439
    16  H   -0.000702
    17  H    0.000863
    18  H    0.000157
    19  H    0.498048
 Mulliken charges:
               1
     1  O   -0.171328
     2  C    0.619660
     3  C   -0.263401
     4  C   -0.477189
     5  C   -0.267561
     6  C   -0.107651
     7  C   -0.195320
     8  C   -0.184123
     9  C   -0.314365
    10  C   -0.370965
    11  C   -0.324559
    12  H    0.228584
    13  H    0.142842
    14  H    0.234321
    15  H    0.298498
    16  H    0.293947
    17  H    0.290003
    18  H    0.282495
    19  H    0.286111
 Sum of Mulliken charges =  -0.00000
 Mulliken charges with hydrogens summed into heavy atoms:
               1
     1  O    0.114783
     2  C    0.619660
     3  C   -0.263401
     4  C   -0.477189
     5  C   -0.038977
     6  C    0.035191
     7  C    0.039001
     8  C    0.114375
     9  C   -0.020419
    10  C   -0.080962
    11  C   -0.042063
 Electronic spatial extent (au):  <R**2>=           1543.4635
 Charge=              0.0000 electrons
 Dipole moment (field-independent basis, Debye):
    X=             -1.3913    Y=             -0.0248    Z=              0.6315  Tot=              1.5281
 Quadrupole moment (field-independent basis, Debye-Ang):
   XX=            -59.8709   YY=            -56.3212   ZZ=            -70.1352
   XY=             -3.8274   XZ=              0.7091   YZ=              2.0180
 Traceless Quadrupole moment (field-independent basis, Debye-Ang):
   XX=              2.2382   YY=              5.7879   ZZ=             -8.0261
   XY=             -3.8274   XZ=              0.7091   YZ=              2.0180
 Octapole moment (field-independent basis, Debye-Ang**2):
  XXX=             -5.4134  YYY=             12.8241  ZZZ=              0.2699  XYY=             -7.3625
  XXY=            -10.5332  XXZ=              0.1866  XZZ=              4.3259  YZZ=              6.1761
  YYZ=              6.1741  XYZ=              2.3960
 Hexadecapole moment (field-independent basis, Debye-Ang**3):
 XXXX=          -1163.9477 YYYY=           -666.8127 ZZZZ=            -82.5988 XXXY=            -24.1612
 XXXZ=             -0.2073 YYYX=             -4.3998 YYYZ=             17.2565 ZZZX=              0.4244
 ZZZY=              1.4538 XXYY=           -337.0667 XXZZ=           -255.1187 YYZZ=           -153.4332
 XXYZ=              1.5512 YYXZ=              6.9896 ZZXY=              9.5203
 N-N= 5.534545946939D+02 E-N=-2.178772733825D+03  KE= 4.589682714493D+02
 R6APFD:  NTU= -4 IXU= 1 FactS= 1.050
 Calling FoFJK, ICntrl=      2127 FMM=F ISym2X=0 I1Cent= 0 IOpClX= 0 NMat=1 NMatS=1 NMatT=0.
 ***** Axes restored to original set *****
 -------------------------------------------------------------------
 Center     Atomic                   Forces (Hartrees/Bohr)
 Number     Number              X              Y              Z
 -------------------------------------------------------------------
      1        8           0.005244374   -0.002593620    0.005072799
      2        6           0.006604414   -0.005197555    0.000226213
      3        6          -0.002946996    0.006897255    0.000043356
      4        6          -0.029775449    0.003759514    0.003249348
      5        6          -0.027076661    0.005740052   -0.000014050
      6        6           0.029783647    0.000109928   -0.000388330
      7        6           0.026517328   -0.012290866    0.000138612
      8        6           0.006450381   -0.020908385   -0.001404337
      9        6           0.025806816    0.013674653   -0.001327117
     10        6          -0.020523661   -0.016958917    0.000576998
     11        6          -0.011529085    0.025533662    0.000014606
     12        1           0.003238299   -0.000037901    0.000109876
     13        1          -0.003126025   -0.001653657   -0.001028216
     14        1          -0.003003166    0.001532393   -0.000000406
     15        1           0.000798734   -0.004437312    0.000492700
     16        1          -0.001041335    0.000848195    0.000090303
     17        1           0.000497826   -0.001743823   -0.000069332
     18        1           0.001422180    0.001071212   -0.000030258
     19        1          -0.007341622    0.006655173   -0.005752764
 -------------------------------------------------------------------
 Cartesian Forces:  Max     0.029783647 RMS     0.010785672

 GradGradGradGradGradGradGradGradGradGradGradGradGradGradGradGradGradGrad
 Berny optimization.
 FormGI is forming the generalized inverse of G from B-inverse, IUseBI=4.
 Internal  Forces:  Max     0.017681040 RMS     0.005387638
 Search for a local minimum.
 Step number   1 out of a maximum of  107
 All quantities printed in internal units (Hartrees-Bohrs-Radians)
 Mixed Optimization -- RFO/linear search
 Second derivative matrix not updated -- first step.
 ITU=  0
     Eigenvalues ---    0.01979   0.01995   0.02000   0.02082   0.02087
     Eigenvalues ---    0.02089   0.02090   0.02093   0.02099   0.02142
     Eigenvalues ---    0.02162   0.02165   0.02168   0.02169   0.02180
     Eigenvalues ---    0.02180   0.15998   0.16000   0.16000   0.16000
     Eigenvalues ---    0.16000   0.16000   0.16000   0.16000   0.22000
     Eigenvalues ---    0.22081   0.22572   0.23527   0.24498   0.24930
     Eigenvalues ---    0.25000   0.35046   0.35048   0.35188   0.35259
     Eigenvalues ---    0.35264   0.35268   0.35268   0.38375   0.41183
     Eigenvalues ---    0.41822   0.43622   0.44528   0.45664   0.45774
     Eigenvalues ---    0.45801   0.45842   0.46681   0.46698   0.51763
     Eigenvalues ---    0.53449
 RFO step:  Lambda=-6.91718624D-03 EMin= 1.97916761D-02
 Linear search not attempted -- first point.
 Iteration  1 RMS(Cart)=  0.02285079 RMS(Int)=  0.00023452
 Iteration  2 RMS(Cart)=  0.00030676 RMS(Int)=  0.00009312
 Iteration  3 RMS(Cart)=  0.00000006 RMS(Int)=  0.00009312
 Variable       Old X    -DE/DX   Delta X   Delta X   Delta X     New X
                                 (Linear)    (Quad)   (Total)
    R1        2.58127  -0.00339   0.00000  -0.00646  -0.00646   2.57480
    R2        1.83237  -0.01139   0.00000  -0.02105  -0.02105   1.81132
    R3        2.67459   0.01130   0.00000   0.02966   0.02959   2.70418
    R4        2.65390   0.01748   0.00000   0.03970   0.03969   2.69360
    R5        2.65395   0.01020   0.00000   0.02337   0.02335   2.67731
    R6        2.65381   0.00820   0.00000   0.01863   0.01859   2.67240
    R7        2.65396   0.00899   0.00000   0.02040   0.02040   2.67435
    R8        2.63624  -0.01768   0.00000  -0.03816  -0.03812   2.59812
    R9        2.63657  -0.01668   0.00000  -0.03674  -0.03673   2.59984
   R10        2.05598   0.00060   0.00000   0.00168   0.00168   2.05766
   R11        2.63651  -0.01611   0.00000  -0.03486  -0.03486   2.60166
   R12        2.05257   0.00216   0.00000   0.00600   0.00600   2.05857
   R13        2.63663  -0.01702   0.00000  -0.03711  -0.03709   2.59954
   R14        2.05601   0.00077   0.00000   0.00215   0.00215   2.05815
   R15        2.63003   0.01610   0.00000   0.03179   0.03184   2.66188
   R16        2.05371   0.00053   0.00000   0.00147   0.00147   2.05519
   R17        2.05241   0.00134   0.00000   0.00373   0.00373   2.05614
   R18        2.63003   0.01702   0.00000   0.03405   0.03407   2.66410
   R19        2.05248   0.00155   0.00000   0.00430   0.00430   2.05678
   R20        2.05242   0.00168   0.00000   0.00467   0.00467   2.05708
    A1        1.92730  -0.00115   0.00000  -0.00688  -0.00688   1.92042
    A2        2.08169  -0.00449   0.00000  -0.01339  -0.01345   2.06825
    A3        2.08171  -0.00215   0.00000  -0.00612  -0.00616   2.07555
    A4        2.11978   0.00664   0.00000   0.01951   0.01960   2.13938
    A5        2.08176   0.00076   0.00000   0.00605   0.00594   2.08770
    A6        2.08176  -0.00259   0.00000  -0.00774  -0.00775   2.07401
    A7        2.11966   0.00183   0.00000   0.00169   0.00179   2.12146
    A8        2.11819   0.00373   0.00000   0.01356   0.01343   2.13162
    A9        2.05866  -0.00283   0.00000  -0.01201  -0.01212   2.04654
   A10        2.10634  -0.00090   0.00000  -0.00155  -0.00167   2.10467
   A11        2.10622  -0.00251   0.00000  -0.01165  -0.01173   2.09450
   A12        2.10378  -0.00201   0.00000  -0.01374  -0.01370   2.09007
   A13        2.07318   0.00452   0.00000   0.02539   0.02542   2.09860
   A14        2.10634  -0.00021   0.00000   0.00053   0.00047   2.10681
   A15        2.13823  -0.00278   0.00000  -0.01759  -0.01756   2.12067
   A16        2.03849   0.00299   0.00000   0.01700   0.01702   2.05551
   A17        2.10621   0.00089   0.00000   0.00416   0.00412   2.11033
   A18        2.10383  -0.00382   0.00000  -0.02233  -0.02232   2.08151
   A19        2.07314   0.00294   0.00000   0.01818   0.01819   2.09133
   A20        2.09518   0.00188   0.00000   0.00352   0.00357   2.09875
   A21        2.10078  -0.00555   0.00000  -0.02935  -0.02938   2.07141
   A22        2.08723   0.00367   0.00000   0.02583   0.02580   2.11302
   A23        2.09518   0.00526   0.00000   0.01703   0.01701   2.11219
   A24        2.09340  -0.00254   0.00000  -0.00796  -0.00800   2.08539
   A25        2.09461  -0.00272   0.00000  -0.00906  -0.00910   2.08550
   A26        2.09511   0.00221   0.00000   0.00568   0.00566   2.10077
   A27        2.09411  -0.00207   0.00000  -0.00862  -0.00861   2.08550
   A28        2.09395  -0.00014   0.00000   0.00292   0.00292   2.09687
   A29        2.09523   0.00186   0.00000   0.00351   0.00349   2.09872
   A30        2.09340  -0.00155   0.00000  -0.00548  -0.00549   2.08792
   A31        2.09455  -0.00031   0.00000   0.00197   0.00196   2.09651
    D1        0.48639  -0.00045   0.00000  -0.01545  -0.01540   0.47099
    D2       -2.65544  -0.00124   0.00000  -0.04391  -0.04396  -2.69940
    D3       -0.00000  -0.00053   0.00000  -0.01968  -0.01969  -0.01969
    D4       -3.14135  -0.00037   0.00000  -0.01370  -0.01368   3.12815
    D5        3.14143  -0.00067   0.00000  -0.02494  -0.02494   3.11649
    D6        0.00008  -0.00051   0.00000  -0.01895  -0.01894  -0.01886
    D7        3.14142  -0.00012   0.00000  -0.00406  -0.00439   3.13703
    D8        0.00008   0.00069   0.00000   0.02518   0.02510   0.02518
    D9       -0.00000   0.00002   0.00000   0.00131   0.00107   0.00107
   D10       -3.14134   0.00083   0.00000   0.03056   0.03056  -3.11078
   D11       -0.00008   0.00055   0.00000   0.02018   0.02021   0.02013
   D12       -3.12391   0.00065   0.00000   0.02456   0.02452  -3.09939
   D13        3.14134   0.00040   0.00000   0.01481   0.01473  -3.12712
   D14        0.01751   0.00051   0.00000   0.01918   0.01904   0.03655
   D15       -0.00017  -0.00003   0.00000  -0.00069  -0.00052  -0.00069
   D16       -3.14149   0.00010   0.00000   0.00384   0.00388  -3.13761
   D17        3.14117  -0.00020   0.00000  -0.00680  -0.00669   3.13448
   D18       -0.00015  -0.00007   0.00000  -0.00227  -0.00229  -0.00244
   D19        0.00000   0.00016   0.00000   0.00621   0.00624   0.00624
   D20        3.14128   0.00006   0.00000   0.00249   0.00254  -3.13937
   D21       -3.14134   0.00032   0.00000   0.01232   0.01236  -3.12898
   D22       -0.00007   0.00023   0.00000   0.00861   0.00866   0.00860
   D23       -3.14135   0.00051   0.00000   0.01824   0.01790  -3.12345
   D24        0.00011   0.00062   0.00000   0.02212   0.02180   0.02192
   D25       -0.00000  -0.00027   0.00000  -0.01003  -0.01018  -0.01019
   D26        3.14146  -0.00016   0.00000  -0.00614  -0.00628   3.13518
   D27        0.00025   0.00046   0.00000   0.01604   0.01610   0.01636
   D28       -3.14157   0.00004   0.00000   0.00141   0.00132  -3.14025
   D29        3.14158   0.00032   0.00000   0.01159   0.01168  -3.12993
   D30       -0.00024  -0.00009   0.00000  -0.00304  -0.00311  -0.00335
   D31        0.00000  -0.00023   0.00000  -0.00834  -0.00842  -0.00842
   D32       -3.13763  -0.00006   0.00000  -0.00249  -0.00254  -3.14018
   D33        3.12481  -0.00038   0.00000  -0.01281  -0.01291   3.11190
   D34       -0.01283  -0.00021   0.00000  -0.00695  -0.00703  -0.01986
   D35       -0.00009   0.00016   0.00000   0.00574   0.00574   0.00566
   D36        3.14059  -0.00006   0.00000  -0.00231  -0.00234   3.13824
   D37       -3.14137   0.00026   0.00000   0.00940   0.00947  -3.13189
   D38       -0.00069   0.00003   0.00000   0.00135   0.00138   0.00069
   D39       -0.00017  -0.00030   0.00000  -0.01072  -0.01088  -0.01105
   D40       -3.14153   0.00011   0.00000   0.00392   0.00391  -3.13763
   D41        3.14156  -0.00041   0.00000  -0.01457  -0.01487   3.12668
   D42        0.00019   0.00000   0.00000   0.00007  -0.00008   0.00010
   D43        0.00008  -0.00013   0.00000  -0.00474  -0.00480  -0.00471
   D44       -3.14059   0.00009   0.00000   0.00331   0.00334  -3.13725
   D45        3.13772  -0.00030   0.00000  -0.01063  -0.01073   3.12699
   D46       -0.00295  -0.00008   0.00000  -0.00257  -0.00260  -0.00555
         Item               Value     Threshold  Converged?
 Maximum Force            0.017681     0.000450     NO 
 RMS     Force            0.005388     0.000300     NO 
 Maximum Displacement     0.097697     0.001800     NO 
 RMS     Displacement     0.022839     0.001200     NO 
 Predicted change in Energy=-3.553035D-03
 GradGradGradGradGradGradGradGradGradGradGradGradGradGradGradGradGradGrad

                          Input orientation:                          
 ---------------------------------------------------------------------
 Center     Atomic      Atomic             Coordinates (Angstroms)
 Number     Number       Type             X           Y           Z
 ---------------------------------------------------------------------
      1          8           0       -1.727446   -2.189420    0.022391
      2          6           0        0.017806   -0.484094    0.010220
      3          6           0        0.324702    0.913598    0.007939
      4          6           0       -1.351485   -0.879791    0.024570
      5          6           0       -0.726179    1.859844   -0.004358
      6          6           0        1.081942   -1.419239   -0.008541
      7          6           0        1.681992    1.314311    0.010384
      8          6           0       -2.352320    0.062674    0.006134
      9          6           0       -2.034614    1.434822   -0.014864
     10          6           0        2.391478   -0.994380   -0.004845
     11          6           0        2.693957    0.382515    0.007509
     12          1           0       -0.495156    2.923904   -0.009885
     13          1           0        0.896456   -2.491997   -0.046783
     14          1           0        1.923538    2.376316    0.010785
     15          1           0       -3.386460   -0.273935    0.011735
     16          1           0       -2.836487    2.170188   -0.025562
     17          1           0        3.193481   -1.730011   -0.020848
     18          1           0        3.730795    0.714071    0.006304
     19          1           0       -1.041899   -2.728476    0.420117
 ---------------------------------------------------------------------
                    Distance matrix (angstroms):
                    1          2          3          4          5
     1  O    0.000000
     2  C    2.440121   0.000000
     3  C    3.720248   1.430991   0.000000
     4  C    1.362527   1.425392   2.454817   0.000000
     5  C    4.171306   2.459222   1.414173   2.810239   0.000000
     6  C    2.913211   1.416769   2.452716   2.492723   3.744557
     7  C    4.888818   2.450260   1.415207   3.743831   2.469233
     8  C    2.337234   2.432380   2.809008   1.374864   2.423688
     9  C    3.637426   2.809856   2.416313   2.413639   1.375774
    10  C    4.288869   2.427949   2.812847   3.744832   4.226864
    11  C    5.115064   2.812970   2.428048   4.237843   3.725583
    12  H    5.259816   3.446445   2.171132   3.899049   1.088865
    13  H    2.642195   2.192475   3.453690   2.767225   4.644703
    14  H    5.846005   3.437115   2.166986   4.618247   2.699625
    15  H    2.534073   3.410747   3.896534   2.123287   3.410332
    16  H    4.498717   3.897882   3.401949   3.392656   2.133111
    17  H    4.942514   3.411479   3.901204   4.624030   5.315173
    18  H    6.182468   3.901525   3.411932   5.326378   4.601904
    19  H    0.958510   2.515600   3.911802   1.915708   4.618716
                    6          7          8          9         10
     6  C    0.000000
     7  C    2.798699   0.000000
     8  C    3.740380   4.224013   0.000000
     9  C    4.225946   3.718644   1.408605   0.000000
    10  C    1.376737   2.415297   4.860155   5.048902   0.000000
    11  C    2.417678   1.375618   5.056403   4.844299   1.409782
    12  H    4.620621   2.707614   3.411151   2.141803   4.866789
    13  H    1.089347   3.886942   4.133242   4.900213   2.116532
    14  H    3.887789   1.089128   4.861680   4.068665   3.403059
    15  H    4.612890   5.311472   1.087558   2.179001   5.822704
    16  H    5.313978   4.598964   2.162645   1.088062   6.111182
    17  H    2.134321   3.399040   5.828410   6.111397   1.088402
    18  H    3.401126   2.134923   6.117893   5.810324   2.170875
    19  H    2.531511   4.891992   3.111126   4.302062   3.869852
                   11         12         13         14         15
    11  C    0.000000
    12  H    4.077916   0.000000
    13  H    3.390690   5.591952   0.000000
    14  H    2.137475   2.479992   4.975810   0.000000
    15  H    6.115751   4.311181   4.823545   5.934637   0.000000
    16  H    5.812287   2.459709   5.972544   4.764625   2.505513
    17  H    2.170967   5.938442   2.420252   4.298335   6.739202
    18  H    1.088560   4.768887   4.279623   2.455454   7.185506
    19  H    4.879050   5.695018   2.007769   5.917793   3.418847
                   16         17         18         19
    16  H    0.000000
    17  H    7.181371   0.000000
    18  H    6.726848   2.502595   0.000000
    19  H    5.236037   4.373766   5.899235   0.000000
 Stoichiometry    C10H8O
 Framework group  C1[X(C10H8O)]
 Deg. of freedom    51
 Full point group                 C1      NOp   1
 Largest Abelian subgroup         C1      NOp   1
 Largest concise Abelian subgroup C1      NOp   1
                         Standard orientation:                         
 ---------------------------------------------------------------------
 Center     Atomic      Atomic             Coordinates (Angstroms)
 Number     Number       Type             X           Y           Z
 ---------------------------------------------------------------------
      1          8           0        1.795520    2.071841   -0.013559
      2          6           0       -0.018935    0.440324   -0.003709
      3          6           0       -0.383497   -0.943391    0.008951
      4          6           0        1.365617    0.779017    0.002864
      5          6           0        0.627223   -1.932481    0.003289
      6          6           0       -1.043456    1.418564   -0.028954
      7          6           0       -1.756212   -1.287425    0.019190
      8          6           0        2.326471   -0.204281   -0.008836
      9          6           0        1.952107   -1.562213   -0.015120
     10          6           0       -2.369456    1.048437   -0.017353
     11          6           0       -2.728696   -0.314537    0.009718
     12          1           0        0.352284   -2.986047    0.009129
     13          1           0       -0.813794    2.482272   -0.078524
     14          1           0       -2.041561   -2.338443    0.030966
     15          1           0        3.373685    0.089189   -0.009490
     16          1           0        2.722778   -2.330272   -0.020621
     17          1           0       -3.140331    1.816500   -0.038555
     18          1           0       -3.778382   -0.602804    0.014724
     19          1           0        1.134171    2.642798    0.380607
 ---------------------------------------------------------------------
 Rotational constants (GHZ):           1.9517468           1.1287464           0.7155186
 Standard basis: 6-311++G(d,p) (5D, 7F)
 There are   309 symmetry adapted cartesian basis functions of A   symmetry.
 There are   298 symmetry adapted basis functions of A   symmetry.
   298 basis functions,   468 primitive gaussians,   309 cartesian basis functions
    38 alpha electrons       38 beta electrons
       nuclear repulsion energy       552.1004061398 Hartrees.
 NAtoms=   19 NActive=   19 NUniq=   19 SFac= 1.00D+00 NAtFMM=   60 NAOKFM=F Big=F
 Integral buffers will be    131072 words long.
 Raffenetti 2 integral format.
 Two-electron integral symmetry is turned on.
 R6APFD:  NTU= -4 IXU= 1 FactS= 1.050
 Nuclear repulsion after empirical dispersion term =      552.0893814968 Hartrees.
 One-electron integrals computed using PRISM.
 NBasis=   298 RedAO= T EigKep=  1.20D-06  NBF=   298
 NBsUse=   296 1.00D-06 EigRej=  6.09D-07 NBFU=   296
 Initial guess from the checkpoint file:  "ALNA0085.chk"
 B after Tr=    -0.000000   -0.000000    0.000000
         Rot=    0.999966   -0.000025   -0.000071    0.008208 Ang=  -0.94 deg.
 ExpMin= 3.60D-02 ExpMax= 8.59D+03 ExpMxC= 1.30D+03 IAcc=3 IRadAn=         5 AccDes= 0.00D+00
 Harris functional with IExCor= 1009 and IRadAn=       5 diagonalized for initial guess.
 HarFok:  IExCor= 1009 AccDes= 0.00D+00 IRadAn=         5 IDoV= 1 UseB2=F ITyADJ=14
 ICtDFT=  3500011 ScaDFX=  1.000000  1.000000  1.000000  1.000000
 FoFCou: FMM=F IPFlag=           0 FMFlag=      100000 FMFlg1=           0
         NFxFlg=           0 DoJE=T BraDBF=F KetDBF=T FulRan=T
         wScrn=  0.000000 ICntrl=       500 IOpCl=  0 I1Cent=   200000004 NGrid=           0
         NMat0=    1 NMatS0=      1 NMatT0=    0 NMatD0=    1 NMtDS0=    0 NMtDT0=    0
 Petite list used in FoFCou.
 Requested convergence on RMS density matrix=1.00D-08 within  32 cycles.
 Requested convergence on MAX density matrix=1.00D-06.
 Requested convergence on             energy=1.00D-06.
 No special actions if energy rises.
 SCF Done:  E(RM08HX) =  -461.104331709     A.U. after   14 cycles
            NFock= 14  Conv=0.40D-08     -V/T= 2.0047
 QCSCF skips out because SCF is already converged.
 R6APFD:  NTU= -4 IXU= 1 FactS= 1.050
 Calling FoFJK, ICntrl=      2127 FMM=F ISym2X=0 I1Cent= 0 IOpClX= 0 NMat=1 NMatS=1 NMatT=0.
 ***** Axes restored to original set *****
 -------------------------------------------------------------------
 Center     Atomic                   Forces (Hartrees/Bohr)
 Number     Number              X              Y              Z
 -------------------------------------------------------------------
      1        8           0.002566845    0.000150930    0.001640051
      2        6           0.001691393    0.002122699    0.000299243
      3        6          -0.002204508   -0.004056337    0.000179097
      4        6          -0.005511952    0.002503873   -0.000468878
      5        6          -0.006882928    0.000351140   -0.000351422
      6        6           0.005818943    0.000991944    0.000157864
      7        6           0.006029523   -0.003741535    0.000014231
      8        6           0.000806045   -0.001785974   -0.000724003
      9        6           0.004463264    0.003771666    0.000287195
     10        6          -0.003596821   -0.004209895   -0.000000622
     11        6          -0.001318008    0.005829369    0.000015033
     12        1           0.001377574   -0.000416277    0.000065181
     13        1          -0.002233124   -0.000159485   -0.000195866
     14        1          -0.001446469    0.000630874    0.000023502
     15        1           0.000194747   -0.000419027    0.000201920
     16        1          -0.000966442   -0.000435394   -0.000155920
     17        1           0.000470246    0.000475116   -0.000117232
     18        1           0.000279876   -0.000809137    0.000115668
     19        1           0.000461798   -0.000794549   -0.000985042
 -------------------------------------------------------------------
 Cartesian Forces:  Max     0.006882928 RMS     0.002394553

 GradGradGradGradGradGradGradGradGradGradGradGradGradGradGradGradGradGrad
 Berny optimization.
 Using GEDIIS/GDIIS optimizer.
 FormGI is forming the generalized inverse of G from B-inverse, IUseBI=4.
 Internal  Forces:  Max     0.004066483 RMS     0.001174793
 Search for a local minimum.
 Step number   2 out of a maximum of  107
 All quantities printed in internal units (Hartrees-Bohrs-Radians)
 Mixed Optimization -- RFO/linear search
 Update second derivatives using D2CorX and points    1    2
 DE= -3.81D-03 DEPred=-3.55D-03 R= 1.07D+00
 TightC=F SS=  1.41D+00  RLast= 1.65D-01 DXNew= 5.0454D-01 4.9351D-01
 Trust test= 1.07D+00 RLast= 1.65D-01 DXMaxT set to 4.94D-01
 ITU=  1  0
 Use linear search instead of GDIIS.
     Eigenvalues ---    0.01978   0.01996   0.02001   0.02079   0.02087
     Eigenvalues ---    0.02091   0.02092   0.02094   0.02103   0.02128
     Eigenvalues ---    0.02163   0.02166   0.02168   0.02172   0.02180
     Eigenvalues ---    0.02181   0.14691   0.15997   0.15999   0.15999
     Eigenvalues ---    0.16000   0.16000   0.16000   0.16257   0.21997
     Eigenvalues ---    0.22106   0.22499   0.23549   0.24429   0.24790
     Eigenvalues ---    0.25590   0.35030   0.35049   0.35188   0.35194
     Eigenvalues ---    0.35265   0.35266   0.35274   0.39647   0.40212
     Eigenvalues ---    0.41842   0.42142   0.43648   0.45348   0.45653
     Eigenvalues ---    0.45791   0.45832   0.46629   0.47935   0.51774
     Eigenvalues ---    0.54138
 RFO step:  Lambda=-5.98004772D-04 EMin= 1.97764295D-02
 Quartic linear search produced a step of  0.11428.
 Iteration  1 RMS(Cart)=  0.01283674 RMS(Int)=  0.00024141
 Iteration  2 RMS(Cart)=  0.00023522 RMS(Int)=  0.00001771
 Iteration  3 RMS(Cart)=  0.00000010 RMS(Int)=  0.00001771
 Variable       Old X    -DE/DX   Delta X   Delta X   Delta X     New X
                                 (Linear)    (Quad)   (Total)
    R1        2.57480  -0.00022  -0.00074  -0.00026  -0.00100   2.57380
    R2        1.81132   0.00037  -0.00241   0.00144  -0.00097   1.81036
    R3        2.70418  -0.00398   0.00338  -0.01177  -0.00840   2.69578
    R4        2.69360   0.00029   0.00454  -0.00075   0.00378   2.69738
    R5        2.67731   0.00079   0.00267   0.00097   0.00364   2.68095
    R6        2.67240   0.00290   0.00212   0.00650   0.00862   2.68102
    R7        2.67435   0.00265   0.00233   0.00586   0.00819   2.68254
    R8        2.59812  -0.00140  -0.00436  -0.00205  -0.00640   2.59172
    R9        2.59984  -0.00308  -0.00420  -0.00600  -0.01019   2.58965
   R10        2.05766  -0.00011   0.00019  -0.00042  -0.00022   2.05743
   R11        2.60166  -0.00277  -0.00398  -0.00545  -0.00943   2.59222
   R12        2.05857   0.00055   0.00069   0.00152   0.00221   2.06077
   R13        2.59954  -0.00263  -0.00424  -0.00488  -0.00912   2.59042
   R14        2.05815   0.00029   0.00025   0.00086   0.00111   2.05926
   R15        2.66188   0.00207   0.00364   0.00412   0.00776   2.66964
   R16        2.05519  -0.00006   0.00017  -0.00022  -0.00005   2.05513
   R17        2.05614   0.00042   0.00043   0.00120   0.00163   2.05777
   R18        2.66410   0.00287   0.00389   0.00594   0.00983   2.67393
   R19        2.05678   0.00003   0.00049  -0.00005   0.00044   2.05722
   R20        2.05708   0.00002   0.00053  -0.00009   0.00044   2.05752
    A1        1.92042   0.00099  -0.00079   0.00710   0.00631   1.92673
    A2        2.06825  -0.00044  -0.00154  -0.00188  -0.00343   2.06481
    A3        2.07555   0.00095  -0.00070   0.00380   0.00310   2.07865
    A4        2.13938  -0.00051   0.00224  -0.00191   0.00034   2.13972
    A5        2.08770   0.00039   0.00068   0.00119   0.00185   2.08955
    A6        2.07401  -0.00108  -0.00089  -0.00496  -0.00584   2.06817
    A7        2.12146   0.00069   0.00021   0.00377   0.00398   2.12544
    A8        2.13162  -0.00407   0.00153  -0.01835  -0.01683   2.11479
    A9        2.04654   0.00329  -0.00139   0.01522   0.01383   2.06037
   A10        2.10467   0.00078  -0.00019   0.00325   0.00304   2.10770
   A11        2.09450   0.00031  -0.00134   0.00208   0.00073   2.09523
   A12        2.09007  -0.00163  -0.00157  -0.01059  -0.01215   2.07792
   A13        2.09860   0.00132   0.00291   0.00852   0.01143   2.11004
   A14        2.10681   0.00051   0.00005   0.00201   0.00206   2.10887
   A15        2.12067  -0.00249  -0.00201  -0.01595  -0.01796   2.10271
   A16        2.05551   0.00198   0.00195   0.01387   0.01582   2.07133
   A17        2.11033   0.00086   0.00047   0.00436   0.00482   2.11515
   A18        2.08151  -0.00202  -0.00255  -0.01250  -0.01505   2.06646
   A19        2.09133   0.00116   0.00208   0.00815   0.01023   2.10157
   A20        2.09875  -0.00026   0.00041  -0.00089  -0.00049   2.09826
   A21        2.07141  -0.00034  -0.00336  -0.00185  -0.00521   2.06619
   A22        2.11302   0.00060   0.00295   0.00273   0.00567   2.11869
   A23        2.11219  -0.00079   0.00194  -0.00381  -0.00187   2.11032
   A24        2.08539   0.00139  -0.00091   0.00882   0.00790   2.09329
   A25        2.08550  -0.00060  -0.00104  -0.00498  -0.00602   2.07948
   A26        2.10077  -0.00064   0.00065  -0.00297  -0.00234   2.09843
   A27        2.08550   0.00101  -0.00098   0.00644   0.00546   2.09096
   A28        2.09687  -0.00036   0.00033  -0.00346  -0.00313   2.09375
   A29        2.09872  -0.00059   0.00040  -0.00230  -0.00192   2.09681
   A30        2.08792   0.00118  -0.00063   0.00740   0.00678   2.09469
   A31        2.09651  -0.00059   0.00022  -0.00510  -0.00487   2.09164
    D1        0.47099  -0.00104  -0.00176  -0.05103  -0.05278   0.41822
    D2       -2.69940  -0.00096  -0.00502  -0.04626  -0.05129  -2.75069
    D3       -0.01969  -0.00012  -0.00225  -0.00569  -0.00793  -0.02762
    D4        3.12815  -0.00012  -0.00156  -0.00548  -0.00703   3.12112
    D5        3.11649  -0.00010  -0.00285  -0.00434  -0.00720   3.10929
    D6       -0.01886  -0.00010  -0.00216  -0.00413  -0.00629  -0.02515
    D7        3.13703   0.00022  -0.00050   0.00900   0.00844  -3.13771
    D8        0.02518   0.00010   0.00287   0.00390   0.00676   0.03194
    D9        0.00107   0.00019   0.00012   0.00758   0.00767   0.00874
   D10       -3.11078   0.00008   0.00349   0.00248   0.00598  -3.10480
   D11        0.02013   0.00006   0.00231   0.00168   0.00401   0.02414
   D12       -3.09939   0.00011   0.00280   0.00499   0.00776  -3.09162
   D13       -3.12712   0.00009   0.00168   0.00309   0.00477  -3.12235
   D14        0.03655   0.00014   0.00218   0.00639   0.00852   0.04508
   D15       -0.00069   0.00008  -0.00006   0.00473   0.00471   0.00402
   D16       -3.13761   0.00001   0.00044   0.00106   0.00154  -3.13607
   D17        3.13448   0.00008  -0.00076   0.00448   0.00374   3.13822
   D18       -0.00244   0.00001  -0.00026   0.00081   0.00056  -0.00187
   D19        0.00624   0.00005   0.00071   0.00236   0.00307   0.00931
   D20       -3.13937   0.00006   0.00029   0.00266   0.00296  -3.13641
   D21       -3.12898   0.00005   0.00141   0.00259   0.00400  -3.12498
   D22        0.00860   0.00006   0.00099   0.00289   0.00389   0.01249
   D23       -3.12345  -0.00002   0.00205  -0.00534  -0.00335  -3.12679
   D24        0.02192   0.00006   0.00249  -0.00071   0.00172   0.02364
   D25       -0.01019  -0.00004  -0.00116  -0.00103  -0.00221  -0.01240
   D26        3.13518   0.00005  -0.00072   0.00360   0.00285   3.13803
   D27        0.01636  -0.00002   0.00184  -0.00185   0.00001   0.01636
   D28       -3.14025   0.00001   0.00015   0.00047   0.00060  -3.13965
   D29       -3.12993   0.00004   0.00133   0.00180   0.00317  -3.12676
   D30       -0.00335   0.00007  -0.00036   0.00411   0.00377   0.00042
   D31       -0.00842   0.00006  -0.00096   0.00275   0.00179  -0.00663
   D32       -3.14018   0.00007  -0.00029   0.00270   0.00242  -3.13776
   D33        3.11190  -0.00004  -0.00148  -0.00080  -0.00231   3.10959
   D34       -0.01986  -0.00003  -0.00080  -0.00085  -0.00168  -0.02154
   D35        0.00566   0.00005   0.00066   0.00196   0.00262   0.00828
   D36        3.13824   0.00002  -0.00027   0.00150   0.00123   3.13947
   D37       -3.13189   0.00005   0.00108   0.00170   0.00279  -3.12910
   D38        0.00069   0.00002   0.00016   0.00124   0.00140   0.00209
   D39       -0.01105  -0.00000  -0.00124  -0.00003  -0.00130  -0.01234
   D40       -3.13763  -0.00005   0.00045  -0.00246  -0.00200  -3.13963
   D41        3.12668  -0.00009  -0.00170  -0.00479  -0.00654   3.12014
   D42        0.00010  -0.00014  -0.00001  -0.00722  -0.00725  -0.00715
   D43       -0.00471  -0.00009  -0.00055  -0.00456  -0.00511  -0.00983
   D44       -3.13725  -0.00008   0.00038  -0.00417  -0.00378  -3.14104
   D45        3.12699  -0.00010  -0.00123  -0.00445  -0.00570   3.12129
   D46       -0.00555  -0.00009  -0.00030  -0.00406  -0.00437  -0.00992
         Item               Value     Threshold  Converged?
 Maximum Force            0.004066     0.000450     NO 
 RMS     Force            0.001175     0.000300     NO 
 Maximum Displacement     0.075464     0.001800     NO 
 RMS     Displacement     0.012761     0.001200     NO 
 Predicted change in Energy=-3.418819D-04
 GradGradGradGradGradGradGradGradGradGradGradGradGradGradGradGradGradGrad

                          Input orientation:                          
 ---------------------------------------------------------------------
 Center     Atomic      Atomic             Coordinates (Angstroms)
 Number     Number       Type             X           Y           Z
 ---------------------------------------------------------------------
      1          8           0       -1.711430   -2.188350    0.041140
      2          6           0        0.016938   -0.480499    0.012107
      3          6           0        0.321041    0.913251    0.008216
      4          6           0       -1.355048   -0.873838    0.031929
      5          6           0       -0.732674    1.863071   -0.010111
      6          6           0        1.080785   -1.418826   -0.009544
      7          6           0        1.684273    1.309045    0.014060
      8          6           0       -2.354396    0.065171    0.009197
      9          6           0       -2.036524    1.441363   -0.019226
     10          6           0        2.387216   -1.000607   -0.005527
     11          6           0        2.692980    0.380831    0.012326
     12          1           0       -0.488169    2.923976   -0.018166
     13          1           0        0.873891   -2.488611   -0.054019
     14          1           0        1.914733    2.374108    0.016041
     15          1           0       -3.386376   -0.277715    0.022123
     16          1           0       -2.843853    2.171925   -0.035126
     17          1           0        3.190516   -1.735052   -0.026003
     18          1           0        3.732162    0.705739    0.014895
     19          1           0       -1.001965   -2.724082    0.398090
 ---------------------------------------------------------------------
                    Distance matrix (angstroms):
                    1          2          3          4          5
     1  O    0.000000
     2  C    2.429990   0.000000
     3  C    3.708363   1.426546   0.000000
     4  C    1.361998   1.427393   2.450208   0.000000
     5  C    4.168286   2.460637   1.418735   2.807096   0.000000
     6  C    2.896757   1.418696   2.452776   2.496400   3.749598
     7  C    4.874763   2.445911   1.419538   3.742027   2.479751
     8  C    2.343669   2.433308   2.806636   1.371478   2.421322
     9  C    3.644743   2.812693   2.416148   2.413956   1.370382
    10  C    4.267530   2.426735   2.816401   3.744597   4.234901
    11  C    5.099054   2.811244   2.430963   4.238054   3.732645
    12  H    5.256973   3.441875   2.167610   3.895816   1.088746
    13  H    2.604439   2.184320   3.447054   2.753734   4.638978
    14  H    5.828011   3.427889   2.161947   4.608781   2.696406
    15  H    2.540932   3.409364   3.894038   2.117016   3.409712
    16  H    4.505574   3.901501   3.406273   3.390827   2.133798
    17  H    4.923319   3.412764   3.904941   4.626791   5.323360
    18  H    6.165156   3.900008   3.417434   5.326824   4.612462
    19  H    0.957999   2.494155   3.890056   1.918892   4.613146
                    6          7          8          9         10
     6  C    0.000000
     7  C    2.793929   0.000000
     8  C    3.742068   4.225884   0.000000
     9  C    4.230650   3.723299   1.412712   0.000000
    10  C    1.371745   2.414333   4.859937   5.053007   0.000000
    11  C    2.416281   1.370793   5.057238   4.847054   1.414984
    12  H    4.617534   2.707129   3.414136   2.143723   4.865218
    13  H    1.090514   3.883754   4.116751   4.890443   2.122889
    14  H    3.883616   1.089713   4.853524   4.060011   3.407698
    15  H    4.610712   5.313131   1.087529   2.186101   5.818737
    16  H    5.319486   4.609871   2.163318   1.088923   6.117999
    17  H    2.133362   3.396601   5.829931   6.116504   1.088633
    18  H    3.397672   2.134907   6.120176   5.815501   2.172767
    19  H    2.491527   4.861016   3.124138   4.312239   3.823588
                   11         12         13         14         15
    11  C    0.000000
    12  H    4.072864   0.000000
    13  H    3.398114   5.581451   0.000000
    14  H    2.139821   2.465250   4.973358   0.000000
    15  H    6.114928   4.318802   4.800390   5.927390   0.000000
    16  H    5.819518   2.472877   5.961759   4.763154   2.509650
    17  H    2.173930   5.936272   2.436265   4.302858   6.736591
    18  H    1.088794   4.767899   4.286996   2.467084   7.186155
    19  H    4.841685   5.686635   1.943885   5.885969   3.436784
                   16         17         18         19
    16  H    0.000000
    17  H    7.188753   0.000000
    18  H    6.737669   2.500503   0.000000
    19  H    5.248915   4.328387   5.858539   0.000000
 Stoichiometry    C10H8O
 Framework group  C1[X(C10H8O)]
 Deg. of freedom    51
 Full point group                 C1      NOp   1
 Largest Abelian subgroup         C1      NOp   1
 Largest concise Abelian subgroup C1      NOp   1
                         Standard orientation:                         
 ---------------------------------------------------------------------
 Center     Atomic      Atomic             Coordinates (Angstroms)
 Number     Number       Type             X           Y           Z
 ---------------------------------------------------------------------
      1          8           0        1.763743    2.085729   -0.003046
      2          6           0       -0.021532    0.437202   -0.005155
      3          6           0       -0.372645   -0.945384    0.009322
      4          6           0        1.363043    0.784035    0.005293
      5          6           0        0.648246   -1.930521   -0.000592
      6          6           0       -1.053085    1.410702   -0.035040
      7          6           0       -1.748461   -1.294652    0.024539
      8          6           0        2.329948   -0.188509   -0.008983
      9          6           0        1.965579   -1.553385   -0.019210
     10          6           0       -2.372898    1.037076   -0.021554
     11          6           0       -2.725174   -0.332880    0.014517
     12          1           0        0.367946   -2.982549    0.005377
     13          1           0       -0.810268    2.472230   -0.093522
     14          1           0       -2.014826   -2.351187    0.040550
     15          1           0        3.372982    0.119342   -0.003693
     16          1           0        2.747656   -2.311026   -0.028629
     17          1           0       -3.150951    1.798013   -0.048570
     18          1           0       -3.774741   -0.622330    0.024520
     19          1           0        1.074133    2.649563    0.349505
 ---------------------------------------------------------------------
 Rotational constants (GHZ):           1.9499455           1.1313507           0.7163070
 Standard basis: 6-311++G(d,p) (5D, 7F)
 There are   309 symmetry adapted cartesian basis functions of A   symmetry.
 There are   298 symmetry adapted basis functions of A   symmetry.
   298 basis functions,   468 primitive gaussians,   309 cartesian basis functions
    38 alpha electrons       38 beta electrons
       nuclear repulsion energy       552.3060135754 Hartrees.
 NAtoms=   19 NActive=   19 NUniq=   19 SFac= 1.00D+00 NAtFMM=   60 NAOKFM=F Big=F
 Integral buffers will be    131072 words long.
 Raffenetti 2 integral format.
 Two-electron integral symmetry is turned on.
 R6APFD:  NTU= -4 IXU= 1 FactS= 1.050
 Nuclear repulsion after empirical dispersion term =      552.2950071705 Hartrees.
 One-electron integrals computed using PRISM.
 NBasis=   298 RedAO= T EigKep=  1.14D-06  NBF=   298
 NBsUse=   296 1.00D-06 EigRej=  6.19D-07 NBFU=   296
 Initial guess from the checkpoint file:  "ALNA0085.chk"
 B after Tr=     0.000000   -0.000000   -0.000000
         Rot=    0.999993    0.000004    0.000066   -0.003771 Ang=   0.43 deg.
 ExpMin= 3.60D-02 ExpMax= 8.59D+03 ExpMxC= 1.30D+03 IAcc=3 IRadAn=         5 AccDes= 0.00D+00
 Harris functional with IExCor= 1009 and IRadAn=       5 diagonalized for initial guess.
 HarFok:  IExCor= 1009 AccDes= 0.00D+00 IRadAn=         5 IDoV= 1 UseB2=F ITyADJ=14
 ICtDFT=  3500011 ScaDFX=  1.000000  1.000000  1.000000  1.000000
 FoFCou: FMM=F IPFlag=           0 FMFlag=      100000 FMFlg1=           0
         NFxFlg=           0 DoJE=T BraDBF=F KetDBF=T FulRan=T
         wScrn=  0.000000 ICntrl=       500 IOpCl=  0 I1Cent=   200000004 NGrid=           0
         NMat0=    1 NMatS0=      1 NMatT0=    0 NMatD0=    1 NMtDS0=    0 NMtDT0=    0
 Petite list used in FoFCou.
 Requested convergence on RMS density matrix=1.00D-08 within  32 cycles.
 Requested convergence on MAX density matrix=1.00D-06.
 Requested convergence on             energy=1.00D-06.
 No special actions if energy rises.
 SCF Done:  E(RM08HX) =  -461.104693670     A.U. after   12 cycles
            NFock= 12  Conv=0.91D-08     -V/T= 2.0047
 QCSCF skips out because SCF is already converged.
 R6APFD:  NTU= -4 IXU= 1 FactS= 1.050
 Calling FoFJK, ICntrl=      2127 FMM=F ISym2X=0 I1Cent= 0 IOpClX= 0 NMat=1 NMatS=1 NMatT=0.
 ***** Axes restored to original set *****
 -------------------------------------------------------------------
 Center     Atomic                   Forces (Hartrees/Bohr)
 Number     Number              X              Y              Z
 -------------------------------------------------------------------
      1        8          -0.001277781    0.000715069    0.000938585
      2        6           0.000721957    0.002908105    0.000391664
      3        6          -0.000463818   -0.002604647   -0.000036836
      4        6           0.000414065   -0.001368459   -0.000417897
      5        6           0.000641701    0.000181972    0.000041567
      6        6          -0.000212514   -0.000140625   -0.000033013
      7        6          -0.000230192    0.000568102   -0.000029807
      8        6          -0.000539229   -0.000197199   -0.000357714
      9        6          -0.000579163    0.000240357    0.000190302
     10        6           0.000423397   -0.000763422    0.000068967
     11        6           0.000443316    0.000335461   -0.000076661
     12        1           0.000285740   -0.000030394   -0.000016175
     13        1           0.000225918    0.000221644   -0.000113903
     14        1          -0.000126035    0.000136684    0.000022867
     15        1          -0.000091598    0.000363534   -0.000012718
     16        1          -0.000117223   -0.000438222   -0.000074258
     17        1           0.000151292    0.000421873   -0.000040409
     18        1          -0.000097375   -0.000420553    0.000059898
     19        1           0.000427540   -0.000129280   -0.000504459
 -------------------------------------------------------------------
 Cartesian Forces:  Max     0.002908105 RMS     0.000670999

 GradGradGradGradGradGradGradGradGradGradGradGradGradGradGradGradGradGrad
 Berny optimization.
 Using GEDIIS/GDIIS optimizer.
 FormGI is forming the generalized inverse of G from B-inverse, IUseBI=4.
 Internal  Forces:  Max     0.001830177 RMS     0.000374308
 Search for a local minimum.
 Step number   3 out of a maximum of  107
 All quantities printed in internal units (Hartrees-Bohrs-Radians)
 Mixed Optimization -- En-DIIS/RFO-DIIS
 Update second derivatives using D2CorX and points    1    2    3
 DE= -3.62D-04 DEPred=-3.42D-04 R= 1.06D+00
 TightC=F SS=  1.41D+00  RLast= 9.58D-02 DXNew= 8.2998D-01 2.8751D-01
 Trust test= 1.06D+00 RLast= 9.58D-02 DXMaxT set to 4.94D-01
 ITU=  1  1  0
 Use linear search instead of GDIIS.
     Eigenvalues ---    0.01721   0.01997   0.02000   0.02008   0.02088
     Eigenvalues ---    0.02091   0.02093   0.02094   0.02099   0.02119
     Eigenvalues ---    0.02163   0.02167   0.02168   0.02173   0.02180
     Eigenvalues ---    0.02181   0.14055   0.15999   0.15999   0.15999
     Eigenvalues ---    0.16000   0.16000   0.16135   0.16438   0.22004
     Eigenvalues ---    0.22138   0.22452   0.23550   0.24574   0.24747
     Eigenvalues ---    0.29112   0.34997   0.35051   0.35188   0.35255
[...]
 0.00488520,-0.00074652,0.05509884,0.02626232,-0.00111478,-0.18190140,0
 .07305872,-0.00091636,-0.07018365,0.02215080,-0.00004633,0.70958650,-0
 .00195275,-0.00597950,-0.00032143,0.00932627,-0.03320775,0.00050612,0.
 10585112,-0.21160791,0.00244604,0.01434788,0.00172223,0.00008268,0.062
 58796,0.71607198,-0.00005651,0.00014683,-0.00136665,-0.00003766,0.0003
 3898,0.00309552,-0.00207249,0.00282394,-0.06383491,-0.00026542,-0.0000
 8909,-0.00069728,0.00257044,-0.00893432,0.12707515,0.00293020,0.008051
 51,-0.00042920,-0.18759470,0.06856827,0.00192744,0.05734555,0.03295334
 ,0.00026584,-0.06752711,0.02106665,0.00043118,-0.01923920,0.00255343,0
 .00001952,0.70545643,0.00037397,-0.00492721,-0.00038299,0.09963431,-0.
 20497013,-0.00116805,0.01305924,-0.03488915,-0.00040715,0.01143659,0.0
 1864513,-0.00009716,0.00121060,-0.00572618,0.00015617,0.05194839,0.702
 55566,-0.00028854,-0.00115604,-0.00070196,0.00224006,-0.00209193,-0.05
 800069,0.00009851,0.00005797,0.00089442,0.00084041,0.00109705,0.000413
 83,-0.00021916,0.00004494,0.00654266,-0.00245996,0.00882142,0.13125023
 ,0.00204218,0.00067915,-0.00050291,0.02513350,-0.05689555,-0.00071393,
 -0.25904649,-0.04891229,0.00081995,-0.02148413,0.00367664,0.00019632,-
 0.06775730,0.00893437,-0.00045078,-0.06362146,0.00975418,0.00043393,0.
 66988524,-0.00258366,0.00027487,0.00034806,-0.03848990,-0.00010899,0.0
 0024224,-0.08262804,-0.13797417,0.00026464,0.00492126,-0.00811046,0.00
 000987,0.02901952,0.01186456,-0.00001782,0.01644011,-0.00329168,0.0001
 0569,-0.04233997,0.75989186,0.00010174,-0.00005559,-0.00022382,0.00046
 015,0.00047217,0.00268196,0.00033022,-0.00009432,-0.06484632,-0.000108
 55,0.00012573,0.00654066,-0.00065830,0.00010622,0.00433278,-0.00007129
 ,0.00001336,-0.00212902,0.00027547,-0.00323928,0.13588232,0.01736522,0
 .00080091,0.00150657,-0.04348646,0.01478068,0.00045410,-0.01061120,0.0
 1265033,-0.00048003,-0.28354815,0.16200272,-0.00567751,0.01020357,-0.0
 3632220,0.00060532,0.00485807,-0.00666038,-0.00011916,0.00616875,-0.00
 098023,0.00017298,0.75575146,0.03741235,-0.06262967,0.00216060,0.05184
 816,0.02939208,-0.00118744,0.04069396,-0.04141799,0.00092071,0.0880371
 6,-0.22479921,0.00547739,-0.08646557,-0.00518083,0.00040535,-0.0282144
 0,0.00632921,-0.00007254,-0.02410877,0.00321129,-0.00016474,-0.0048237
 3,0.69578557,-0.00024656,0.00275944,0.00830099,-0.00046999,-0.00068923
 ,0.00411690,-0.00128904,0.00101912,-0.00350321,-0.00402878,0.00489963,
 -0.06381840,0.00209225,0.00032859,0.00690536,0.00067818,-0.00000383,0.
 00533127,0.00069364,-0.00010841,-0.00105960,-0.00116450,-0.01628341,0.
 12146177,-0.00890017,0.00537565,-0.00024317,-0.03483885,-0.01605673,0.
 00052636,-0.06897979,0.03141208,-0.00098807,0.06307645,0.00607647,-0.0
 0058272,-0.37675530,-0.11075679,-0.00091549,0.01424875,-0.00483595,0.0
 0010179,0.02162872,0.00139736,0.00004233,-0.13659480,-0.00586205,0.000
 71194,0.75831496,-0.00157759,0.00874844,0.00160974,-0.03624985,-0.0144
 6137,0.00113741,-0.01473357,0.04559413,-0.00089162,0.06144197,-0.05470
 820,0.00069667,-0.04367802,-0.15367178,0.00072206,0.01697232,-0.004670
 41,0.00020141,0.02566997,-0.00733257,0.00023646,-0.07659755,-0.2973987
 7,0.00529298,-0.02414315,0.66731966,0.00039892,0.00068298,0.00639576,0
 .00078661,0.00001661,-0.00164253,0.00048850,-0.00080765,0.00478322,-0.
 00156019,0.00127659,-0.00095119,-0.00227406,0.00087952,-0.06008533,-0.
 00052671,0.00015581,-0.00106658,-0.00070003,0.00024320,0.00567976,0.00
 197175,0.00512989,-0.05600764,0.00444293,-0.01118726,0.13609845,-0.001
 09581,-0.00317148,0.00026026,-0.06778686,0.03397594,0.00076936,-0.0350
 5688,-0.01936768,-0.00049116,0.02450423,0.00443386,-0.00012713,0.01387
 722,-0.00516852,0.00029823,-0.37510360,-0.11238369,0.00001087,0.055220
 18,0.01053949,-0.00006702,-0.00549226,0.01629264,-0.00029970,-0.010920
 94,-0.01149364,0.00032511,0.75541436,-0.00309061,0.00199603,0.00067229
 ,-0.01145032,0.04696204,0.00049350,-0.04337938,-0.01698499,-0.00022924
 ,0.02653945,-0.01069567,-0.00031723,0.02041789,-0.00676656,0.00021605,
 -0.04320459,-0.15031926,-0.00074608,0.06142046,-0.04865362,-0.00020024
 ,-0.00618544,0.01977759,-0.00059771,-0.01324657,-0.01576952,0.00040658
 ,-0.02897047,0.66428107,0.00016581,-0.00006199,0.00003664,0.00080383,-
 0.00011221,0.00526876,0.00008492,0.00009061,-0.00492122,-0.00010207,-0
 .00010558,0.00665837,-0.00006205,0.00002640,-0.00125721,0.00074718,-0.
 00002009,-0.06158562,-0.00038517,0.00004333,0.00679876,0.00016286,-0.0
 0014496,-0.00019454,0.00006077,0.00003631,0.00031067,-0.00352625,0.003
 97656,0.13369616,-0.00069697,0.00047925,0.00023188,-0.00784200,0.01257
 368,0.00012039,-0.05203196,0.01607995,-0.00010375,0.00563594,-0.001148
 67,-0.00021375,0.00692084,-0.00794810,0.00015662,0.00921934,-0.0354783
 9,-0.00030281,-0.28203348,0.17057911,-0.00058183,-0.00259910,0.0065710
 1,-0.00024298,-0.00625282,-0.00623034,0.00016905,-0.13457162,-0.072146
 25,0.00023450,0.76538027,0.00202399,0.00091752,-0.00044408,0.03978043,
 -0.04488128,-0.00035499,0.05947116,0.03466324,0.00013025,-0.02706507,0
 .00236049,0.00018669,-0.03138321,0.00890356,-0.00028427,-0.08788374,-0
 .00430940,0.00021565,0.10198862,-0.25557517,0.00105278,0.00659210,-0.0
 2314068,0.00052141,0.01801564,0.01961234,-0.00051412,-0.00027065,-0.28
 647643,-0.00104380,-0.01798343,0.65896682,-0.00016705,0.00004619,-0.00
 007152,0.00014339,0.00007176,-0.00544681,-0.00019606,-0.00007134,0.004
 96202,-0.00009497,0.00002338,-0.00162509,-0.00001905,0.00009319,0.0062
 8749,-0.00016216,0.00017246,0.00759852,-0.00015837,0.00052854,-0.06091
 971,-0.00004787,0.00002170,0.00059641,0.00002576,0.00003592,0.00006935
 ,0.00037919,-0.00013822,-0.06292350,-0.00013093,-0.00021482,0.13430494
 ,0.00035444,-0.00025551,0.00001743,-0.00335543,0.00234853,-0.00006639,
 0.00812328,0.02245992,-0.00035382,-0.00137336,0.00059628,-0.00004019,-
 0.07157777,-0.06152244,0.00066297,0.00044019,0.00109899,0.00000457,0.0
 0113553,0.00145794,-0.00000898,-0.00519616,-0.00062380,-0.00005237,-0.
 00141688,-0.03023979,0.00046304,0.00024241,0.00023455,-0.00000505,0.00
 017164,-0.00058191,0.00001621,0.07309405,-0.00009094,0.00031902,0.0000
 4234,0.00379043,-0.00048700,0.00010090,-0.00737029,-0.01653798,0.00031
 179,0.00056044,0.00014826,-0.00003495,-0.06147465,-0.32251991,0.004300
 24,-0.00100255,-0.00077234,-0.00000022,-0.00182096,0.00075344,-0.00007
 567,-0.00181018,0.00192197,0.00004621,0.00089693,-0.00504493,0.0001805
 0,0.00017641,0.00023261,-0.00000156,0.00030294,-0.00001152,0.00000403,
 0.06658783,0.34161036,0.00004022,-0.00008343,-0.00074391,0.00004741,0.
 00008998,0.00511617,0.00015792,0.00029765,0.00174503,-0.00019309,0.000
 04904,-0.00080752,0.00056561,0.00435892,-0.03321543,0.00002017,0.00005
 016,0.00012063,0.00007650,-0.00002737,-0.00297822,-0.00003760,0.000184
 21,0.00800131,0.00000744,-0.00004738,0.00300961,0.00000691,-0.00000650
 ,-0.00009781,-0.00000583,-0.00000422,-0.00019099,-0.00072606,-0.004745
 34,0.02405897,-0.00203578,-0.00099390,-0.00023082,0.01090275,0.0204191
 4,-0.00001299,-0.00350482,0.00233729,0.00013803,0.00007906,0.00028775,
 0.00020569,0.00036601,0.00119203,-0.00007553,-0.06632494,-0.04405406,-
 0.00064507,-0.00129031,0.00042321,0.00000446,0.00051085,-0.00060041,0.
 00002382,0.00035543,0.00037995,-0.00001871,-0.00123691,-0.03182059,-0.
 00050931,-0.00552442,-0.00110485,0.00003816,-0.00028248,0.00027062,-0.
 00000852,0.07247265,-0.00228673,0.00378775,0.00030324,-0.00570348,-0.0
 1524520,-0.00018109,0.00379173,0.00009340,-0.00026172,-0.00212680,-0.0
 0456343,0.00011111,-0.00056281,-0.00074898,0.00001713,-0.04880527,-0.3
 1993231,-0.00656352,0.00060746,0.00063089,0.00003637,-0.00003532,0.000
 80914,-0.00006005,-0.00011338,-0.00040195,0.00002006,0.00084475,-0.008
 06237,-0.00017971,-0.00250483,0.00179085,-0.00029144,0.00027457,-0.000
 23720,0.00000848,0.05480731,0.34041667,0.00019014,0.00013004,-0.000858
 24,-0.00067864,0.00021088,0.00207958,-0.00009446,-0.00001972,0.0051483
 8,0.00004886,-0.00010285,-0.00228065,0.00006589,-0.00001664,0.00005128
 ,-0.00078968,-0.00816885,-0.03414364,0.00005815,-0.00001606,-0.0011729
 1,-0.00007598,0.00018200,0.00002492,-0.00006712,-0.00007406,-0.0004167
 7,0.00015012,0.00037682,0.00445350,0.00023380,0.00003099,0.00855876,0.
 00000416,0.00000720,0.00028516,-0.00025384,0.00735955,0.02230994,-0.00
 060544,-0.00011745,0.00006538,-0.00512750,-0.00046717,0.00006504,-0.00
 197472,-0.02947637,0.00021663,0.00039646,-0.00166361,-0.00003136,0.001
 09054,-0.00155716,0.00002192,-0.00121084,0.00050454,-0.00001209,-0.070
 35266,-0.05729756,0.00013405,-0.00004187,-0.00007650,-0.00001042,0.000
 21551,0.00039748,0.00000627,-0.00307917,0.00315647,-0.00001570,0.00923
 677,0.02356445,-0.00013678,-0.00069969,0.00112546,-0.00002470,0.000119
 88,-0.00004740,0.00001015,0.07120229,-0.00026185,-0.00007846,0.0000406
 3,-0.00151569,0.00135535,0.00010253,0.00040535,-0.00638840,0.00003757,
 0.00064355,-0.00043993,-0.00004228,0.00160189,0.00082341,0.00000071,0.
 00021142,0.00080775,-0.00002760,-0.05722511,-0.32190532,0.00186260,-0.
 00012030,0.00024961,-0.00000433,-0.00032946,-0.00002379,-0.00000024,0.
 00411345,-0.00065153,0.00006515,-0.00769307,-0.01545755,0.00010704,-0.
 00065564,0.00029825,-0.00001937,-0.00004843,-0.00011939,-0.00000490,0.
 06085677,0.34176159,0.00000486,-0.00005414,0.00020783,0.00002067,-0.00
 021510,0.00548108,0.00039088,0.00019944,0.00350658,0.00001385,0.000055
 98,-0.00012466,-0.00008027,-0.00005259,-0.00310502,-0.00012049,0.00001
 091,-0.00115187,-0.00013457,0.00198191,-0.03758755,0.00000773,-0.00003
 916,-0.00001877,0.00004551,0.00005154,-0.00011768,-0.00002594,0.000081
 18,0.00866226,0.00017992,-0.00005431,0.00456571,-0.00000731,0.00000248
 ,0.00032192,-0.00000963,0.00004184,-0.00103969,-0.00026448,-0.00203812
 ,0.02530504,0.00121589,-0.00100093,-0.00002421,-0.00191022,0.00395140,
 -0.00014199,0.00027561,0.00079397,0.00000460,-0.01797595,-0.01122318,0
 .00054330,0.00210772,-0.00073671,0.00003092,-0.00031349,-0.00106964,-0
 .00003242,0.00018249,-0.00012315,-0.00000539,-0.31568707,-0.07963391,0
 .00361085,-0.00122661,0.00052483,-0.00004409,-0.00045451,0.00029309,0.
 00001712,0.00007721,0.00028753,0.00000445,-0.00015435,0.00011114,0.000
 01700,0.00001299,0.00014229,-0.00000412,-0.00000095,-0.00001935,0.0000
 0272,0.33326256,-0.00088529,0.00111153,-0.00024936,0.00292013,-0.00343
 516,0.00033313,0.00090653,-0.00084545,-0.00003013,0.02112446,0.0106543
 4,-0.00036589,-0.00018822,-0.00557988,0.00028257,0.00059553,0.00092446
 ,-0.00002743,-0.00049414,0.00017851,-0.00000223,-0.08246358,-0.0831241
 7,0.00204982,-0.02911220,-0.00297660,0.00019658,0.00041732,0.00002521,
 -0.00003170,0.00009694,-0.00038068,-0.00001321,-0.00139284,-0.00033515
 ,-0.00002285,-0.00004496,-0.00004758,0.00001139,0.00007378,0.00003366,
 -0.00000012,0.08814233,0.08298367,0.00014922,-0.00029345,-0.00442789,-
 0.00036552,0.00035867,0.00747292,-0.00014916,0.00017040,-0.00102379,-0
 .00028558,-0.00079077,0.00569492,0.00025224,0.00025455,0.00562000,0.00
 004456,-0.00010082,-0.00001373,0.00012464,-0.00004335,-0.00056805,0.00
 364594,0.00270536,-0.03443032,0.00065368,-0.00023356,0.00124600,-0.000
 11578,-0.00003411,-0.00072787,-0.00000302,0.00012399,0.00007558,0.0000
 4492,0.00001115,0.00036302,0.00001316,-0.00000875,0.00026390,-0.000000
 92,-0.00000368,0.00003375,-0.00398561,-0.00208633,0.02401442,0.0003370
 4,-0.00008332,0.00005670,-0.00023035,-0.00069923,0.00004804,-0.0047841
 2,-0.00331503,-0.00005917,0.00086999,-0.00252596,-0.00001348,-0.015997
 46,0.02260763,-0.00051539,0.00038062,0.00007072,0.00000869,-0.00007396
 ,0.00136477,-0.00001197,0.00846552,-0.00650666,0.00015588,-0.21199614,
 0.13883135,-0.00374048,-0.00013637,-0.00038605,-0.00001119,-0.00065409
 ,0.00004657,0.00000779,0.00056029,-0.00045039,0.00004360,-0.00001096,0
 .00003853,0.00000013,-0.00001002,-0.00006485,0.00000067,0.00049712,0.0
 0041435,-0.00001894,0.22290474,0.00139629,-0.00145891,0.00023152,-0.00
 113885,-0.00018456,0.00002590,-0.00288963,0.00047185,0.00012305,-0.002
 83168,-0.00381303,0.00021777,-0.00828791,0.01023565,-0.00015051,0.0004
 1891,-0.00006933,-0.00001923,0.00010205,0.00037804,-0.00000148,0.02396
 010,-0.01480460,0.00039212,0.13921735,-0.18401970,0.00356577,-0.000228
 01,-0.00026516,-0.00000423,-0.00017808,0.00031280,-0.00000520,0.000339
 52,0.00059738,-0.00009413,-0.00002483,0.00003822,0.00000359,0.00000988
 ,-0.00001732,0.00000395,-0.00039793,0.00069860,-0.00012674,-0.14929329
 ,0.19225560,-0.00002702,-0.00006912,-0.00001540,0.00000112,-0.00003642
 ,-0.00106799,-0.00001037,-0.00000821,0.00927782,0.00015406,0.00029603,
 0.00596447,-0.00009622,0.00003721,0.00452774,-0.00000769,-0.00000940,-
 0.00068168,0.00000279,0.00000979,0.00008762,-0.00039926,0.00049177,0.0
 0316814,-0.00367551,0.00355882,-0.03869335,-0.00000808,0.00000583,0.00
 015839,-0.00000017,0.00000258,-0.00071569,0.00003374,-0.00009694,-0.00
 505496,0.00000489,0.00000143,0.00005117,-0.00000050,0.00000373,0.00013
 419,-0.00001502,-0.00009937,-0.00293238,0.00404995,-0.00406882,0.02584
 256,-0.00009646,-0.00016029,0.00002824,-0.00429792,-0.00350574,0.00011
 271,-0.00036222,-0.00067826,0.00000198,0.00004866,0.00152662,-0.000024
 12,0.00044128,0.00002651,-0.00001468,-0.01686264,0.02207871,0.00043061
 ,0.00094357,-0.00207096,0.00006453,-0.00065863,-0.00003361,-0.00000830
 ,-0.00015206,-0.00038482,0.00001829,-0.21114693,0.13916839,0.00269504,
 0.00862889,-0.00651754,-0.00009466,-0.00001977,0.00004158,-0.00000157,
 0.00043426,-0.00030260,-0.00004507,0.00026729,-0.00039713,0.00001544,-
 0.00011117,0.00011674,-0.00001364,-0.00001520,0.00001498,0.00000173,0.
 22246828,0.00005185,-0.00004235,-0.00000164,-0.00294438,0.00031219,-0.
 00008626,-0.00121681,-0.00019065,0.00000595,0.00012825,0.00049345,-0.0
 0000374,0.00042039,-0.00003307,0.00002311,-0.00923104,0.00974629,0.000
 17370,-0.00273811,-0.00519460,-0.00005775,-0.00015779,0.00028824,0.000
 00978,-0.00023172,-0.00022453,-0.00000270,0.14024267,-0.18536317,-0.00
 263902,0.02438895,-0.01395212,-0.00038116,-0.00005312,0.00005277,-0.00
 000047,0.00021176,0.00086438,0.00004998,0.00119043,-0.00087287,0.00003
 902,-0.00004469,0.00004163,-0.00000762,0.00001786,-0.00000465,-0.00000
 102,-0.14955070,0.19346902,0.00005316,0.00007367,0.00012510,-0.0000939
 1,0.00012002,0.00892075,-0.00020008,-0.00001688,-0.00078473,0.00011226
 ,-0.00011078,0.00050434,0.00013236,-0.00005751,-0.00090760,0.00038090,
 -0.00026128,0.00366776,0.00017229,-0.00009951,0.00544700,-0.00005905,0
 .00010630,-0.00080187,-0.00008432,-0.00010529,0.00017161,0.00263353,-0
 .00303236,-0.03684802,0.00011082,0.00031252,0.00289103,-0.00000131,0.0
 0000021,0.00004974,-0.00001070,0.00020795,-0.00523468,0.00002481,-0.00
 000924,0.00007080,0.00000048,0.00000552,-0.00000291,-0.00000088,0.0000
 0023,0.00009466,-0.00310313,0.00282143,0.02526358,-0.00010652,-0.00020
 143,0.00000942,0.00029856,0.00056780,-0.00000276,-0.00101034,0.0039639
 5,-0.00004494,0.00025700,0.00004834,0.00000502,-0.00063392,-0.00090419
 ,0.00002153,0.00178277,-0.00108050,-0.00001429,-0.01699953,-0.00994479
 ,0.00006208,0.00007422,0.00014133,0.00000268,-0.00037063,0.00037462,-0
 .00001199,-0.00224745,0.00113863,0.00002793,-0.31332066,-0.07920969,0.
 00033933,0.00000788,0.00005496,0.00000031,-0.00025339,0.00006632,0.000
 01099,0.00058785,0.00046759,-0.00000238,-0.00002164,-0.00000668,-0.000
 00186,-0.00011311,-0.00003977,-0.00000212,0.00048997,-0.00042121,-0.00
 000588,0.33153020,-0.00006511,0.00029501,0.00002910,0.00106318,-0.0007
 8882,-0.00002164,0.00343152,-0.00306381,0.00008824,-0.00052568,-0.0001
 2742,-0.00000832,0.00032214,0.00089214,-0.00002033,-0.00051826,-0.0057
 2753,-0.00003137,0.02150232,0.01066369,-0.00006886,0.00004499,-0.00036
 144,0.00000662,0.00049713,0.00004016,0.00000017,-0.02987549,-0.0033128
 0,0.00006812,-0.07983072,-0.08355261,0.00008793,-0.00001692,-0.0000340
 3,0.00000086,-0.00150799,-0.00054306,0.00003350,-0.00027574,0.00056999
 ,-0.00002004,-0.00000227,0.00000784,0.00000025,0.00011227,0.00003760,0
 .00000078,0.00046967,0.00060478,0.00002474,0.08493356,0.08435180,-0.00
 001214,0.00003427,-0.00008402,0.00000992,-0.00003501,-0.00059510,0.000
 04157,0.00015768,0.00928579,-0.00000796,-0.00003428,-0.00087320,0.0000
 3072,-0.00000108,0.00009926,0.00000124,-0.00005726,0.00540641,-0.00012
 966,0.00005288,0.00404353,0.00000036,0.00000942,0.00014954,-0.00000827
 ,-0.00002276,-0.00070336,0.00000665,-0.00001217,0.00274165,0.00044306,
 0.00001740,-0.03803141,-0.00000264,0.00000221,0.00017000,0.00001128,-0
 .00001768,0.00011705,-0.00000285,-0.00003654,-0.00510163,-0.00000109,0
 .00000458,0.00010278,0.00000097,-0.00000121,-0.00001341,-0.00003693,0.
 00004219,-0.00273289,-0.00037470,-0.00009969,0.02595301,-0.36224547,0.
 24457666,-0.09375176,-0.00099723,-0.00220742,0.00007690,-0.00001793,-0
 .00026324,0.00025448,0.01246723,-0.00466227,0.00355546,-0.00062021,-0.
 00055836,0.00001648,0.00113606,-0.00560763,-0.00007593,0.00031915,0.00
 031551,-0.00013469,0.00051806,-0.00404721,-0.00015661,0.00056517,0.000
 73582,-0.00019422,-0.00092908,0.00151133,-0.00038317,0.00025622,0.0002
 2960,0.00025364,-0.00005380,0.00010121,0.00001428,-0.00478986,0.001915
 67,0.00123652,-0.00001373,0.00003084,-0.00003717,0.00022435,-0.0002201
 9,0.00001166,0.00000647,-0.00014911,-0.00000632,0.00000081,-0.00006259
 ,-0.00006135,0.00004875,0.00024142,0.00003047,0.35412505,0.19709527,-0
 .19945956,0.05752945,0.00129264,0.00157627,0.00004619,0.00074753,-0.00
 076174,-0.00040408,0.03655421,-0.03306957,0.00879937,-0.00012662,0.000
 50881,0.00006321,-0.00092006,0.00059641,0.00001814,0.00019969,0.000299
 44,0.00005447,-0.00467511,-0.00490734,0.00042126,0.00179939,-0.0006106
 2,-0.00024226,-0.00010690,0.00004653,0.00003838,0.00007003,0.00020982,
 -0.00007674,-0.00005616,0.00004600,0.00001176,-0.00012906,0.00147016,0
 .00000715,0.00009970,0.00005495,0.00000534,0.00000518,0.00006521,0.000
 10481,-0.00017927,-0.00038846,-0.00001867,0.00015845,0.00000528,0.0000
 2025,0.00005115,0.00004849,-0.00000295,-0.23188005,0.23426992,-0.08951
 992,0.07025502,-0.02605692,-0.00007245,-0.00030985,0.00031475,-0.00069
 492,0.00033124,-0.00003272,-0.00025068,-0.00289177,-0.00360172,0.00052
 360,0.00021921,-0.00006783,0.00005096,0.00129661,-0.00175096,0.0003217
 3,-0.00027833,-0.00000918,-0.00046664,0.00009757,0.00177774,-0.0000538
 4,-0.00101739,0.00192000,-0.00017919,-0.00091496,-0.00022936,-0.000294
 94,0.00032036,0.00001491,0.00001710,-0.00005457,-0.00015273,0.00133564
 ,-0.00054320,0.00180294,-0.00004445,-0.00003366,-0.00004229,0.00002249
 ,0.00004503,-0.00076035,-0.00000091,-0.00009235,-0.00013191,-0.0000264
 9,0.00001620,0.00010634,-0.00001838,-0.00007004,0.00006600,0.08935131,
 -0.06637510,0.02683328\\-0.00002913,0.00003413,0.00000037,-0.00005931,
 0.00007251,0.00000027,0.00000870,-0.00002507,0.00000688,0.00008321,-0.
 00012338,0.00000152,0.00011618,0.00003656,-0.00001296,-0.00005799,-0.0
 0007221,-0.00000182,-0.00006165,0.00010214,-0.00000112,0.00001722,0.00
 000041,-0.00000116,-0.00006349,-0.00005519,0.00000650,0.00000684,0.000
 04265,0.00001101,-0.00000029,-0.00005334,-0.00000564,-0.00003126,0.000
 00372,0.00000337,0.00004498,0.00000410,-0.00000470,0.00002776,-0.00002
 290,0.00000147,-0.00001195,0.00002894,-0.00000676,0.00001106,0.0000032
 0,-0.00000544,0.00000247,-0.00000405,-0.00000396,0.00000361,0.00000537
 ,0.00000840,-0.00000696,0.00002241,0.00000377\\\@


 IF YOU BELIEVE CERTAIN WORDS, YOU BELIEVE THEIR HIDDEN ARGUMENTS.
 WHEN YOU BELIEVE SOMETHING IS RIGHT OR WRONG, TRUE OR FALSE, 
 YOU BELIEVE THE ASSUMPTIONS IN THE WORDS WHICH EXPRESS THE ARGUMENTS.
 SUCH ASSUMPTIONS ARE OFTEN FULL OF HOLES, BUT REMAIN MOST PRECIOUS 
 TO THE CONVINCED.

                 -- THE OPEN-ENDED PROOF FROM THE PANOPLIA PROPHETICA
                    CHILDREN OF DUNE BY FRANK HERBERT
 Job cpu time:       0 days  2 hours 52 minutes 29.2 seconds.
 Elapsed time:       0 days  0 hours 10 minutes 50.1 seconds.
 File lengths (MBytes):  RWF=    157 Int=      0 D2E=      0 Chk=      9 Scr=      1
 Normal termination of Gaussian 16 at Thu Sep 18 02:26:37 2025.
