 Entering Gaussian System, Link 0=g16
 Input=ALNQ0086.gjf
 Output=ALNQ0086.log
 Initial command:
 /usr/local/g16/l1.exe "/dados_01/scratch/Gau-1901531.inp" -scrdir="/dados_01/scratch/"
 Entering Link 1 = /usr/local/g16/l1.exe PID=   1901532.
  
 Copyright (c) 1988-2017, Gaussian, Inc.  All Rights Reserved.
  
 This is part of the Gaussian(R) 16 program.  It is based on
 the Gaussian(R) 09 system (copyright 2009, Gaussian, Inc.),
 the Gaussian(R) 03 system (copyright 2003, Gaussian, Inc.),
 the Gaussian(R) 98 system (copyright 1998, Gaussian, Inc.),
 the Gaussian(R) 94 system (copyright 1995, Gaussian, Inc.),
 the Gaussian 92(TM) system (copyright 1992, Gaussian, Inc.),
 the Gaussian 90(TM) system (copyright 1990, Gaussian, Inc.),
 the Gaussian 88(TM) system (copyright 1988, Gaussian, Inc.),
 the Gaussian 86(TM) system (copyright 1986, Carnegie Mellon
 University), and the Gaussian 82(TM) system (copyright 1983,
 Carnegie Mellon University). Gaussian is a federally registered
 trademark of Gaussian, Inc.
  
 This software contains proprietary and confidential information,
 including trade secrets, belonging to Gaussian, Inc.
  
 This software is provided under written license and may be
 used, copied, transmitted, or stored only in accord with that
 written license.
  
 The following legend is applicable only to US Government
 contracts under FAR:
  
                    RESTRICTED RIGHTS LEGEND
  
 Use, reproduction and disclosure by the US Government is
 subject to restrictions as set forth in subparagraphs (a)
 and (c) of the Commercial Computer Software - Restricted
 Rights clause in FAR 52.227-19.
  
 Gaussian, Inc.
 340 Quinnipiac St., Bldg. 40, Wallingford CT 06492
  
  
 ---------------------------------------------------------------
 Warning -- This program may not be used in any manner that
 competes with the business of Gaussian, Inc. or will provide
 assistance to any competitor of Gaussian, Inc.  The licensee
 of this program is prohibited from giving any competitor of
 Gaussian, Inc. access to this program.  By using this program,
 the user acknowledges that Gaussian, Inc. is engaged in the
 business of creating and licensing software in the field of
 computational chemistry and represents and warrants to the
 licensee that it is not a competitor of Gaussian, Inc. and that
 it will not use this program in any manner prohibited above.
 ---------------------------------------------------------------
  

 Cite this work as:
 Gaussian 16, Revision B.01,
 M. J. Frisch, G. W. Trucks, H. B. Schlegel, G. E. Scuseria, 
 M. A. Robb, J. R. Cheeseman, G. Scalmani, V. Barone, 
 G. A. Petersson, H. Nakatsuji, X. Li, M. Caricato, A. V. Marenich, 
 J. Bloino, B. G. Janesko, R. Gomperts, B. Mennucci, H. P. Hratchian, 
 J. V. Ortiz, A. F. Izmaylov, J. L. Sonnenberg, D. Williams-Young, 
 F. Ding, F. Lipparini, F. Egidi, J. Goings, B. Peng, A. Petrone, 
 T. Henderson, D. Ranasinghe, V. G. Zakrzewski, J. Gao, N. Rega, 
 G. Zheng, W. Liang, M. Hada, M. Ehara, K. Toyota, R. Fukuda, 
 J. Hasegawa, M. Ishida, T. Nakajima, Y. Honda, O. Kitao, H. Nakai, 
 T. Vreven, K. Throssell, J. A. Montgomery, Jr., J. E. Peralta, 
 F. Ogliaro, M. J. Bearpark, J. J. Heyd, E. N. Brothers, K. N. Kudin, 
 V. N. Staroverov, T. A. Keith, R. Kobayashi, J. Normand, 
 K. Raghavachari, A. P. Rendell, J. C. Burant, S. S. Iyengar, 
 J. Tomasi, M. Cossi, J. M. Millam, M. Klene, C. Adamo, R. Cammi, 
 J. W. Ochterski, R. L. Martin, K. Morokuma, O. Farkas, 
 J. B. Foresman, and D. J. Fox, Gaussian, Inc., Wallingford CT, 2016.
 
 ******************************************
 Gaussian 16:  ES64L-G16RevB.01 20-Dec-2017
                18-Sep-2025 
 ******************************************
 %nprocs=16
 Will use up to   16 processors via shared memory.
 %mem=40GB
 %chk=ALNQ0086.chk
 ----------------------------------------------------------------------
 # opt freq=noraman M08HX/6-311++G** scf=xqc Empiricaldispersion=pfd In
 t(Grid=ultraFine)
 ----------------------------------------------------------------------
 1/18=20,19=15,26=4,38=1/1,3;
 2/9=110,12=2,17=6,18=5,40=1/2;
 3/5=4,6=6,7=1111,11=2,25=1,30=1,71=1,74=-74,75=-5,124=11/1,2,3;
 4//1;
 5/5=2,8=3,13=1,38=5/2,8;
 6/7=2,8=2,9=2,10=2,28=1/1;
 7//1,2,3,16;
 1/18=20,19=15,26=4/3(2);
 2/9=110/2;
 99//99;
 2/9=110/2;
 3/5=4,6=6,7=1111,11=2,25=1,30=1,71=1,74=-74,75=-5,124=11/1,2,3;
 4/5=5,16=3,69=1/1;
 5/5=2,8=3,13=1,38=5/2,8;
 7//1,2,3,16;
 1/18=20,19=15,26=4/3(-5);
 2/9=110/2;
 6/7=2,8=2,9=2,10=2,19=2,28=1/1;
 99/9=1/99;
 --------
 ALNQ0086
 --------
 Symbolic Z-matrix:
 Charge =  0 Multiplicity = 1
 O                    -1.0551   -2.6722   -0.0003 
 O                    -1.0555    2.672    -0.0014 
 C                     0.2446   -0.6988   -0.0002 
 C                     0.2444    0.6988    0.0002 
 C                    -1.0275   -1.4477   -0.0003 
 C                    -1.0278    1.4475    0.0002 
 C                     1.457    -1.3975   -0.0005 
 C                     1.4566    1.3977    0.0006 
 C                    -2.2818   -0.6671    0.0005 
 C                    -2.282     0.6667    0.0007 
 C                     2.6636   -0.6968   -0.0001 
 C                     2.6634    0.6972    0.0005 
 H                     1.4827   -2.4838   -0.0008 
 H                     1.4822    2.4841    0.001 
 H                    -3.2146   -1.2204    0.0008 
 H                    -3.2149    1.2199    0.0012 
 H                     3.605    -1.2387   -0.0002 
 H                     3.6047    1.2393    0.0007 
 

 GradGradGradGradGradGradGradGradGradGradGradGradGradGradGradGradGradGrad
 Berny optimization.
 Initialization pass.
                           ----------------------------
                           !    Initial Parameters    !
                           ! (Angstroms and Degrees)  !
 --------------------------                            --------------------------
 ! Name  Definition              Value          Derivative Info.                !
 --------------------------------------------------------------------------------
 ! R1    R(1,5)                  1.2248         estimate D2E/DX2                !
 ! R2    R(2,6)                  1.2248         estimate D2E/DX2                !
 ! R3    R(3,4)                  1.3976         estimate D2E/DX2                !
 ! R4    R(3,5)                  1.4762         estimate D2E/DX2                !
 ! R5    R(3,7)                  1.3993         estimate D2E/DX2                !
 ! R6    R(4,6)                  1.4762         estimate D2E/DX2                !
 ! R7    R(4,8)                  1.3992         estimate D2E/DX2                !
 ! R8    R(5,9)                  1.4774         estimate D2E/DX2                !
 ! R9    R(6,10)                 1.4774         estimate D2E/DX2                !
 ! R10   R(7,11)                 1.3953         estimate D2E/DX2                !
 ! R11   R(7,13)                 1.0866         estimate D2E/DX2                !
 ! R12   R(8,12)                 1.3954         estimate D2E/DX2                !
 ! R13   R(8,14)                 1.0867         estimate D2E/DX2                !
 ! R14   R(9,10)                 1.3338         estimate D2E/DX2                !
 ! R15   R(9,15)                 1.0846         estimate D2E/DX2                !
 ! R16   R(10,16)                1.0846         estimate D2E/DX2                !
 ! R17   R(11,12)                1.394          estimate D2E/DX2                !
 ! R18   R(11,17)                1.0862         estimate D2E/DX2                !
 ! R19   R(12,18)                1.0862         estimate D2E/DX2                !
 ! A1    A(4,3,5)              120.4776         estimate D2E/DX2                !
 ! A2    A(4,3,7)              119.9628         estimate D2E/DX2                !
 ! A3    A(5,3,7)              119.5596         estimate D2E/DX2                !
 ! A4    A(3,4,6)              120.4854         estimate D2E/DX2                !
 ! A5    A(3,4,8)              119.9576         estimate D2E/DX2                !
 ! A6    A(6,4,8)              119.557          estimate D2E/DX2                !
 ! A7    A(1,5,3)              121.777          estimate D2E/DX2                !
 ! A8    A(1,5,9)              120.6044         estimate D2E/DX2                !
 ! A9    A(3,5,9)              117.6186         estimate D2E/DX2                !
 ! A10   A(2,6,4)              121.773          estimate D2E/DX2                !
 ! A11   A(2,6,10)             120.6084         estimate D2E/DX2                !
 ! A12   A(4,6,10)             117.6186         estimate D2E/DX2                !
 ! A13   A(3,7,11)             119.9007         estimate D2E/DX2                !
 ! A14   A(3,7,13)             121.3099         estimate D2E/DX2                !
 ! A15   A(11,7,13)            118.7894         estimate D2E/DX2                !
 ! A16   A(4,8,12)             119.9007         estimate D2E/DX2                !
 ! A17   A(4,8,14)             121.3157         estimate D2E/DX2                !
 ! A18   A(12,8,14)            118.7836         estimate D2E/DX2                !
 ! A19   A(5,9,10)             121.9042         estimate D2E/DX2                !
 ! A20   A(5,9,15)             117.4296         estimate D2E/DX2                !
 ! A21   A(10,9,15)            120.6661         estimate D2E/DX2                !
 ! A22   A(6,10,9)             121.8957         estimate D2E/DX2                !
 ! A23   A(6,10,16)            117.4282         estimate D2E/DX2                !
 ! A24   A(9,10,16)            120.6761         estimate D2E/DX2                !
 ! A25   A(7,11,12)            120.1365         estimate D2E/DX2                !
 ! A26   A(7,11,17)            119.9292         estimate D2E/DX2                !
 ! A27   A(12,11,17)           119.9343         estimate D2E/DX2                !
 ! A28   A(8,12,11)            120.1417         estimate D2E/DX2                !
 ! A29   A(8,12,18)            119.9286         estimate D2E/DX2                !
 ! A30   A(11,12,18)           119.9297         estimate D2E/DX2                !
 ! D1    D(5,3,4,6)             -0.0148         estimate D2E/DX2                !
 ! D2    D(5,3,4,8)            179.9854         estimate D2E/DX2                !
 ! D3    D(7,3,4,6)            179.9856         estimate D2E/DX2                !
 ! D4    D(7,3,4,8)             -0.0142         estimate D2E/DX2                !
 ! D5    D(4,3,5,1)           -179.9809         estimate D2E/DX2                !
 ! D6    D(4,3,5,9)             -0.0203         estimate D2E/DX2                !
 ! D7    D(7,3,5,1)              0.0187         estimate D2E/DX2                !
 ! D8    D(7,3,5,9)            179.9793         estimate D2E/DX2                !
 ! D9    D(4,3,7,11)             0.0142         estimate D2E/DX2                !
 ! D10   D(4,3,7,13)           179.9992         estimate D2E/DX2                !
 ! D11   D(5,3,7,11)          -179.9854         estimate D2E/DX2                !
 ! D12   D(5,3,7,13)            -0.0004         estimate D2E/DX2                !
 ! D13   D(3,4,6,2)           -179.8929         estimate D2E/DX2                !
 ! D14   D(3,4,6,10)             0.0409         estimate D2E/DX2                !
 ! D15   D(8,4,6,2)              0.1069         estimate D2E/DX2                !
 ! D16   D(8,4,6,10)          -179.9593         estimate D2E/DX2                !
 ! D17   D(3,4,8,12)             0.0047         estimate D2E/DX2                !
 ! D18   D(3,4,8,14)          -179.9948         estimate D2E/DX2                !
 ! D19   D(6,4,8,12)          -179.9951         estimate D2E/DX2                !
 ! D20   D(6,4,8,14)             0.0054         estimate D2E/DX2                !
 ! D21   D(1,5,9,10)           179.9908         estimate D2E/DX2                !
 ! D22   D(1,5,9,15)            -0.0166         estimate D2E/DX2                !
 ! D23   D(3,5,9,10)             0.0298         estimate D2E/DX2                !
 ! D24   D(3,5,9,15)          -179.9776         estimate D2E/DX2                !
 ! D25   D(2,6,10,9)           179.9023         estimate D2E/DX2                !
 ! D26   D(2,6,10,16)           -0.0952         estimate D2E/DX2                !
 ! D27   D(4,6,10,9)            -0.0323         estimate D2E/DX2                !
 ! D28   D(4,6,10,16)          179.9702         estimate D2E/DX2                !
 ! D29   D(3,7,11,12)           -0.0046         estimate D2E/DX2                !
 ! D30   D(3,7,11,17)          179.9919         estimate D2E/DX2                !
 ! D31   D(13,7,11,12)        -179.99           estimate D2E/DX2                !
 ! D32   D(13,7,11,17)           0.0065         estimate D2E/DX2                !
 ! D33   D(4,8,12,11)            0.0049         estimate D2E/DX2                !
 ! D34   D(4,8,12,18)          179.9933         estimate D2E/DX2                !
 ! D35   D(14,8,12,11)        -179.9957         estimate D2E/DX2                !
 ! D36   D(14,8,12,18)          -0.0073         estimate D2E/DX2                !
 ! D37   D(5,9,10,6)            -0.003          estimate D2E/DX2                !
 ! D38   D(5,9,10,16)          179.9944         estimate D2E/DX2                !
 ! D39   D(15,9,10,6)         -179.9953         estimate D2E/DX2                !
 ! D40   D(15,9,10,16)           0.0021         estimate D2E/DX2                !
 ! D41   D(7,11,12,8)           -0.0049         estimate D2E/DX2                !
 ! D42   D(7,11,12,18)        -179.9933         estimate D2E/DX2                !
 ! D43   D(17,11,12,8)         179.9985         estimate D2E/DX2                !
 ! D44   D(17,11,12,18)          0.0101         estimate D2E/DX2                !
 --------------------------------------------------------------------------------
 Trust Radius=3.00D-01 FncErr=1.00D-07 GrdErr=1.00D-06 EigMax=2.50D+02 EigMin=1.00D-04
 Number of steps in this run=    103 maximum allowed number of steps=    108.
 GradGradGradGradGradGradGradGradGradGradGradGradGradGradGradGradGradGrad

                          Input orientation:                          
 ---------------------------------------------------------------------
 Center     Atomic      Atomic             Coordinates (Angstroms)
 Number     Number       Type             X           Y           Z
 ---------------------------------------------------------------------
      1          8           0       -1.055100   -2.672200   -0.000300
      2          8           0       -1.055500    2.672000   -0.001400
      3          6           0        0.244600   -0.698800   -0.000200
      4          6           0        0.244400    0.698800    0.000200
      5          6           0       -1.027500   -1.447700   -0.000300
      6          6           0       -1.027800    1.447500    0.000200
      7          6           0        1.457000   -1.397500   -0.000500
      8          6           0        1.456600    1.397700    0.000600
      9          6           0       -2.281800   -0.667100    0.000500
     10          6           0       -2.282000    0.666700    0.000700
     11          6           0        2.663600   -0.696800   -0.000100
     12          6           0        2.663400    0.697200    0.000500
     13          1           0        1.482700   -2.483800   -0.000800
     14          1           0        1.482200    2.484100    0.001000
     15          1           0       -3.214600   -1.220400    0.000800
     16          1           0       -3.214900    1.219900    0.001200
     17          1           0        3.605000   -1.238700   -0.000200
     18          1           0        3.604700    1.239300    0.000700
 ---------------------------------------------------------------------
                    Distance matrix (angstroms):
                    1          2          3          4          5
     1  O    0.000000
     2  O    5.344200   0.000000
     3  C    2.362949   3.612832   0.000000
     4  C    3.612802   2.362892   1.397600   0.000000
     5  C    1.224811   4.119795   1.476174   2.495033   0.000000
     6  C    4.119790   1.224814   2.495116   1.476159   2.895200
     7  C    2.817003   4.782623   1.399320   2.421750   2.485007
     8  C    4.782544   2.816823   2.421623   1.399246   3.777176
     9  C    2.350579   3.557162   2.526599   2.871823   1.477364
    10  C    3.557181   2.350646   2.871985   2.526604   2.458548
    11  C    4.210812   5.018020   2.419001   2.792889   3.766705
    12  C    5.017978   4.210707   2.792742   2.419001   4.268880
    13  H    2.544784   5.746715   2.172353   3.415015   2.715623
    14  H    5.746766   2.544648   3.415041   2.172428   4.664509
    15  H    2.602146   4.451123   3.498304   3.955757   2.198880
    16  H    4.451200   2.602232   3.955951   3.498329   3.449755
    17  H    4.875598   6.083900   3.403495   3.879116   4.637212
    18  H    6.083878   4.875459   3.878982   3.403492   5.355114
                    6          7          8          9         10
     6  C    0.000000
     7  C    3.777335   0.000000
     8  C    2.484899   2.795200   0.000000
     9  C    2.458465   3.809476   4.270718   0.000000
    10  C    1.477385   4.270954   3.809395   1.333800   0.000000
    11  C    4.269011   1.395301   2.417391   4.945489   5.130116
    12  C    3.766684   2.417265   1.395373   5.129943   4.945494
    13  H    4.664518   1.086604   3.881588   4.179936   4.909034
    14  H    2.715629   3.881682   1.086702   4.908947   4.179969
    15  H    3.449607   4.674956   5.354863   1.084554   2.104968
    16  H    2.198911   5.355132   4.674882   2.105100   1.084589
    17  H    5.355232   2.153862   3.400916   5.914486   6.187675
    18  H    4.637176   3.400784   2.153932   6.187507   5.914483
                   11         12         13         14         15
    11  C    0.000000
    12  C    1.394000   0.000000
    13  H    2.141937   3.393054   0.000000
    14  H    3.393204   2.142019   4.967900   0.000000
    15  H    5.901474   6.182886   4.864238   5.981910   0.000000
    16  H    6.183082   5.901494   5.982043   4.864252   2.440300
    17  H    1.086227   2.152747   2.460575   4.285501   6.819625
    18  H    2.152708   1.086240   4.285366   2.460596   7.249343
                   16         17         18
    16  H    0.000000
    17  H    7.249535   0.000000
    18  H    6.819628   2.478000   0.000000
 Stoichiometry    C10H6O2
 Framework group  C1[X(C10H6O2)]
 Deg. of freedom    48
 Full point group                 C1      NOp   1
 Largest Abelian subgroup         C1      NOp   1
 Largest concise Abelian subgroup C1      NOp   1
                         Standard orientation:                         
 ---------------------------------------------------------------------
 Center     Atomic      Atomic             Coordinates (Angstroms)
 Number     Number       Type             X           Y           Z
 ---------------------------------------------------------------------
      1          8           0        1.049370    2.672153   -0.000284
      2          8           0        1.049603   -2.672047   -0.001384
      3          6           0       -0.250392    0.698793   -0.000184
      4          6           0       -0.250235   -0.698807    0.000216
      5          6           0        1.021732    1.447653   -0.000284
      6          6           0        1.021941   -1.447547    0.000216
      7          6           0       -1.462770    1.397531   -0.000484
      8          6           0       -1.462457   -1.397669    0.000616
      9          6           0        2.276007    0.667014    0.000516
     10          6           0        2.276166   -0.666786    0.000716
     11          6           0       -2.669392    0.696869   -0.000084
     12          6           0       -2.669235   -0.697131    0.000516
     13          1           0       -1.488436    2.483832   -0.000784
     14          1           0       -1.488091   -2.484068    0.001016
     15          1           0        3.208825    1.220285    0.000816
     16          1           0        3.209049   -1.220015    0.001216
     17          1           0       -3.610775    1.238798   -0.000184
     18          1           0       -3.610552   -1.239202    0.000716
 ---------------------------------------------------------------------
 Rotational constants (GHZ):           1.3363871           1.0989169           0.6030371
 Standard basis: 6-311++G(d,p) (5D, 7F)
 There are   318 symmetry adapted cartesian basis functions of A   symmetry.
 There are   306 symmetry adapted basis functions of A   symmetry.
   306 basis functions,   486 primitive gaussians,   318 cartesian basis functions
    41 alpha electrons       41 beta electrons
       nuclear repulsion energy       624.1109400569 Hartrees.
 NAtoms=   18 NActive=   18 NUniq=   18 SFac= 1.00D+00 NAtFMM=   60 NAOKFM=F Big=F
 Integral buffers will be    131072 words long.
 Raffenetti 2 integral format.
 Two-electron integral symmetry is turned on.
 R6APFD:  NTU= -4 IXU= 1 FactS= 1.050
 Nuclear repulsion after empirical dispersion term =      624.0996403120 Hartrees.
 One-electron integrals computed using PRISM.
 NBasis=   306 RedAO= T EigKep=  1.34D-06  NBF=   306
 NBsUse=   304 1.00D-06 EigRej=  6.76D-07 NBFU=   304
 ExpMin= 3.60D-02 ExpMax= 8.59D+03 ExpMxC= 1.30D+03 IAcc=3 IRadAn=         5 AccDes= 0.00D+00
 Harris functional with IExCor= 1009 and IRadAn=       5 diagonalized for initial guess.
 HarFok:  IExCor= 1009 AccDes= 0.00D+00 IRadAn=         5 IDoV= 1 UseB2=F ITyADJ=14
 ICtDFT=  3500011 ScaDFX=  1.000000  1.000000  1.000000  1.000000
 FoFCou: FMM=F IPFlag=           0 FMFlag=      100000 FMFlg1=           0
         NFxFlg=           0 DoJE=T BraDBF=F KetDBF=T FulRan=T
         wScrn=  0.000000 ICntrl=       500 IOpCl=  0 I1Cent=   200000004 NGrid=           0
         NMat0=    1 NMatS0=      1 NMatT0=    0 NMatD0=    1 NMtDS0=    0 NMtDT0=    0
 Petite list used in FoFCou.
 Requested convergence on RMS density matrix=1.00D-08 within  32 cycles.
 Requested convergence on MAX density matrix=1.00D-06.
 Requested convergence on             energy=1.00D-06.
 No special actions if energy rises.
 SCF Done:  E(RM08HX) =  -535.090340135     A.U. after   15 cycles
            NFock= 15  Conv=0.46D-08     -V/T= 2.0043
 QCSCF skips out because SCF is already converged.

 **********************************************************************

            Population analysis using the SCF Density.

 **********************************************************************

 Orbital symmetries:
       Occupied  (A) (A) (A) (A) (A) (A) (A) (A) (A) (A) (A) (A)
                 (A) (A) (A) (A) (A) (A) (A) (A) (A) (A) (A) (A)
                 (A) (A) (A) (A) (A) (A) (A) (A) (A) (A) (A) (A)
                 (A) (A) (A) (A) (A)
       Virtual   (A) (A) (A) (A) (A) (A) (A) (A) (A) (A) (A) (A)
                 (A) (A) (A) (A) (A) (A) (A) (A) (A) (A) (A) (A)
                 (A) (A) (A) (A) (A) (A) (A) (A) (A) (A) (A) (A)
                 (A) (A) (A) (A) (A) (A) (A) (A) (A) (A) (A) (A)
                 (A) (A) (A) (A) (A) (A) (A) (A) (A) (A) (A) (A)
                 (A) (A) (A) (A) (A) (A) (A) (A) (A) (A) (A) (A)
                 (A) (A) (A) (A) (A) (A) (A) (A) (A) (A) (A) (A)
                 (A) (A) (A) (A) (A) (A) (A) (A) (A) (A) (A) (A)
                 (A) (A) (A) (A) (A) (A) (A) (A) (A) (A) (A) (A)
                 (A) (A) (A) (A) (A) (A) (A) (A) (A) (A) (A) (A)
                 (A) (A) (A) (A) (A) (A) (A) (A) (A) (A) (A) (A)
                 (A) (A) (A) (A) (A) (A) (A) (A) (A) (A) (A) (A)
                 (A) (A) (A) (A) (A) (A) (A) (A) (A) (A) (A) (A)
                 (A) (A) (A) (A) (A) (A) (A) (A) (A) (A) (A) (A)
                 (A) (A) (A) (A) (A) (A) (A) (A) (A) (A) (A) (A)
                 (A) (A) (A) (A) (A) (A) (A) (A) (A) (A) (A) (A)
                 (A) (A) (A) (A) (A) (A) (A) (A) (A) (A) (A) (A)
                 (A) (A) (A) (A) (A) (A) (A) (A) (A) (A) (A) (A)
                 (A) (A) (A) (A) (A) (A) (A) (A) (A) (A) (A) (A)
                 (A) (A) (A) (A) (A) (A) (A) (A) (A) (A) (A) (A)
                 (A) (A) (A) (A) (A) (A) (A) (A) (A) (A) (A) (A)
                 (A) (A) (A) (A) (A) (A) (A) (A) (A) (A) (A)
 The electronic state is 1-A.
 Alpha  occ. eigenvalues --  -19.62615 -19.62614 -10.64843 -10.64842 -10.57786
 Alpha  occ. eigenvalues --  -10.57673 -10.57623 -10.57546 -10.56669 -10.56636
 Alpha  occ. eigenvalues --  -10.56586 -10.56542  -1.19021  -1.18758  -1.01060
 Alpha  occ. eigenvalues --   -0.95735  -0.88871  -0.88685  -0.80332  -0.74985
 Alpha  occ. eigenvalues --   -0.73862  -0.68342  -0.62786  -0.62118  -0.59183
 Alpha  occ. eigenvalues --   -0.56706  -0.54444  -0.53343  -0.53048  -0.52666
 Alpha  occ. eigenvalues --   -0.50621  -0.50505  -0.49092  -0.45597  -0.45330
 Alpha  occ. eigenvalues --   -0.43796  -0.37143  -0.36582  -0.35120  -0.34292
 Alpha  occ. eigenvalues --   -0.33744
 Alpha virt. eigenvalues --   -0.10252  -0.03758  -0.02860  -0.01979  -0.01418
 Alpha virt. eigenvalues --   -0.00965   0.00223   0.00718   0.01638   0.02735
 Alpha virt. eigenvalues --    0.03178   0.03997   0.04235   0.04423   0.05523
 Alpha virt. eigenvalues --    0.06519   0.06596   0.07323   0.07682   0.08174
 Alpha virt. eigenvalues --    0.08730   0.10262   0.10656   0.11088   0.11112
 Alpha virt. eigenvalues --    0.11399   0.12105   0.12313   0.12536   0.12580
 Alpha virt. eigenvalues --    0.12804   0.12873   0.13593   0.13810   0.15146
 Alpha virt. eigenvalues --    0.17103   0.17436   0.17947   0.17957   0.18291
 Alpha virt. eigenvalues --    0.19542   0.20935   0.21533   0.22290   0.23189
 Alpha virt. eigenvalues --    0.23231   0.23629   0.23776   0.24745   0.24934
 Alpha virt. eigenvalues --    0.25907   0.26628   0.27108   0.27509   0.27874
 Alpha virt. eigenvalues --    0.28527   0.30511   0.30850   0.31153   0.32186
 Alpha virt. eigenvalues --    0.33125   0.33157   0.33394   0.34546   0.34713
 Alpha virt. eigenvalues --    0.37596   0.37705   0.39205   0.40813   0.41071
 Alpha virt. eigenvalues --    0.41717   0.45250   0.47437   0.51659   0.51771
 Alpha virt. eigenvalues --    0.53117   0.53261   0.53465   0.55847   0.56604
 Alpha virt. eigenvalues --    0.58143   0.59160   0.61038   0.61431   0.62351
 Alpha virt. eigenvalues --    0.62395   0.62408   0.63872   0.64239   0.64892
 Alpha virt. eigenvalues --    0.66226   0.66862   0.69190   0.70350   0.70568
 Alpha virt. eigenvalues --    0.74460   0.74940   0.75181   0.76290   0.78513
 Alpha virt. eigenvalues --    0.80384   0.80576   0.81209   0.82891   0.85757
 Alpha virt. eigenvalues --    0.86768   0.87088   0.88850   0.89198   0.90850
 Alpha virt. eigenvalues --    0.92358   0.93156   0.94412   0.96664   0.97063
 Alpha virt. eigenvalues --    0.97839   1.00917   1.01857   1.02584   1.05606
 Alpha virt. eigenvalues --    1.05829   1.06984   1.07627   1.09879   1.10401
 Alpha virt. eigenvalues --    1.13157   1.15788   1.15813   1.16538   1.17843
 Alpha virt. eigenvalues --    1.20983   1.24339   1.26012   1.27325   1.29847
 Alpha virt. eigenvalues --    1.31131   1.31513   1.36687   1.37130   1.47710
 Alpha virt. eigenvalues --    1.50179   1.51208   1.51865   1.53518   1.53774
 Alpha virt. eigenvalues --    1.55097   1.57498   1.59077   1.61632   1.65171
 Alpha virt. eigenvalues --    1.66427   1.66775   1.68718   1.70626   1.73798
 Alpha virt. eigenvalues --    1.74393   1.75216   1.77216   1.78908   1.79387
 Alpha virt. eigenvalues --    1.81879   1.83101   1.84403   1.85374   1.91782
 Alpha virt. eigenvalues --    1.94629   1.95607   1.96309   1.96604   1.98101
 Alpha virt. eigenvalues --    1.99866   2.00330   2.00778   2.02248   2.06703
 Alpha virt. eigenvalues --    2.09080   2.09332   2.13577   2.14773   2.18744
 Alpha virt. eigenvalues --    2.21815   2.27031   2.33746   2.34349   2.39171
 Alpha virt. eigenvalues --    2.39646   2.43845   2.46383   2.48018   2.53677
 Alpha virt. eigenvalues --    2.59435   2.65069   2.66682   2.67583   2.67798
 Alpha virt. eigenvalues --    2.68236   2.68985   2.71105   2.72698   2.72907
 Alpha virt. eigenvalues --    2.73045   2.73234   2.80900   2.82010   2.84424
 Alpha virt. eigenvalues --    2.86204   2.87037   2.90723   2.91362   2.91505
 Alpha virt. eigenvalues --    2.94749   2.97105   3.00462   3.01547   3.01889
 Alpha virt. eigenvalues --    3.08827   3.14993   3.15787   3.25521   3.26945
 Alpha virt. eigenvalues --    3.28332   3.30119   3.39942   3.40010   3.41255
 Alpha virt. eigenvalues --    3.42520   3.45731   3.53413   3.55366   3.56871
 Alpha virt. eigenvalues --    3.60743   3.62053   3.67418   3.71101   3.83051
 Alpha virt. eigenvalues --    3.86201   4.05043   4.06875   4.08374   4.17531
 Alpha virt. eigenvalues --    4.23216   4.29657   4.39563   4.79454   4.90362
 Alpha virt. eigenvalues --    5.13102   5.15190   5.34479   5.36665   5.81102
 Alpha virt. eigenvalues --    5.89350  23.61179  23.79304  23.91574  23.96844
 Alpha virt. eigenvalues --   23.97729  24.00605  24.10563  24.11480  24.20899
 Alpha virt. eigenvalues --   24.28826  50.01226  50.05842
          Condensed to atoms (all electrons):
               1          2          3          4          5          6
     1  O    8.065451   0.000250   0.258399  -0.724740   0.330548   0.039009
     2  O    0.000250   8.065445  -0.724766   0.258244   0.038998   0.330598
     3  C    0.258399  -0.724766  47.839963 -24.636920 -10.512802   5.623483
     4  C   -0.724740   0.258244 -24.636920  47.839025   5.625593 -10.511259
     5  C    0.330548   0.038998 -10.512802   5.625593  14.082057   0.010596
     6  C    0.039009   0.330598   5.623483 -10.511259   0.010596  14.080726
     7  C    0.334944  -0.035162  -0.706028  -8.712351  -1.722478   0.887205
     8  C   -0.035157   0.335008  -8.711549  -0.706157   0.886891  -1.721937
     9  C   -0.086690  -0.066813   0.993602  -3.212918  -1.673200  -0.069027
    10  C   -0.066782  -0.086621  -3.213229   0.991914  -0.067697  -1.671332
    11  C    0.091170  -0.009424   1.552099  -2.011589  -0.885453   0.773026
    12  C   -0.009425   0.091204  -2.012382   1.551216   0.773064  -0.885207
    13  H   -0.025063   0.000693  -0.047765   0.268485   0.015298  -0.050804
    14  H    0.000693  -0.025065   0.268510  -0.047726  -0.050825   0.015306
    15  H   -0.021750   0.003377  -0.132406   0.089272  -0.053753   0.021895
    16  H    0.003378  -0.021742   0.089246  -0.132431   0.021951  -0.053679
    17  H    0.002522  -0.000259   0.082072  -0.116921  -0.004123  -0.003680
    18  H   -0.000259   0.002523  -0.116945   0.082039  -0.003669  -0.004107
               7          8          9         10         11         12
     1  O    0.334944  -0.035157  -0.086690  -0.066782   0.091170  -0.009425
     2  O   -0.035162   0.335008  -0.066813  -0.086621  -0.009424   0.091204
     3  C   -0.706028  -8.711549   0.993602  -3.213229   1.552099  -2.012382
     4  C   -8.712351  -0.706157  -3.212918   0.991914  -2.011589   1.551216
     5  C   -1.722478   0.886891  -1.673200  -0.067697  -0.885453   0.773064
     6  C    0.887205  -1.721937  -0.069027  -1.671332   0.773026  -0.885207
     7  C   13.224382   3.533470   0.151840  -0.806685   0.722393  -1.463145
     8  C    3.533470  13.223537  -0.807414   0.152289  -1.463752   0.723233
     9  C    0.151840  -0.807414  11.228563  -1.015496  -0.107102   0.118022
    10  C   -0.806685   0.152289  -1.015496  11.225907   0.118169  -0.107073
    11  C    0.722393  -1.463752  -0.107102   0.118169   8.762075  -1.227854
    12  C   -1.463145   0.723233   0.118022  -0.107073  -1.227854   8.762028
    13  H    0.311036   0.063514  -0.040894   0.012744  -0.211409   0.029264
    14  H    0.063499   0.310973   0.012748  -0.040868   0.029273  -0.211446
    15  H   -0.031648  -0.024065   0.493194  -0.060892  -0.004663   0.007446
    16  H   -0.024036  -0.031619  -0.060919   0.493067   0.007454  -0.004666
    17  H   -0.004659  -0.029142   0.010892  -0.000919   0.464720  -0.093881
    18  H   -0.029135  -0.004645  -0.000923   0.010887  -0.093894   0.464753
              13         14         15         16         17         18
     1  O   -0.025063   0.000693  -0.021750   0.003378   0.002522  -0.000259
     2  O    0.000693  -0.025065   0.003377  -0.021742  -0.000259   0.002523
     3  C   -0.047765   0.268510  -0.132406   0.089246   0.082072  -0.116945
     4  C    0.268485  -0.047726   0.089272  -0.132431  -0.116921   0.082039
     5  C    0.015298  -0.050825  -0.053753   0.021951  -0.004123  -0.003669
     6  C   -0.050804   0.015306   0.021895  -0.053679  -0.003680  -0.004107
     7  C    0.311036   0.063499  -0.031648  -0.024036  -0.004659  -0.029135
     8  C    0.063514   0.310973  -0.024065  -0.031619  -0.029142  -0.004645
     9  C   -0.040894   0.012748   0.493194  -0.060919   0.010892  -0.000923
    10  C    0.012744  -0.040868  -0.060892   0.493067  -0.000919   0.010887
    11  C   -0.211409   0.029273  -0.004663   0.007454   0.464720  -0.093894
    12  C    0.029264  -0.211446   0.007446  -0.004666  -0.093881   0.464753
    13  H    0.397036   0.001069  -0.000488  -0.000037  -0.012085   0.002739
    14  H    0.001069   0.397028  -0.000037  -0.000487   0.002740  -0.012087
    15  H   -0.000488  -0.000037   0.385406  -0.010511  -0.000212   0.000027
    16  H   -0.000037  -0.000487  -0.010511   0.385397   0.000027  -0.000212
    17  H   -0.012085   0.002740  -0.000212   0.000027   0.413334  -0.010085
    18  H    0.002739  -0.012087   0.000027  -0.000212  -0.010085   0.413339
 Mulliken charges:
               1
     1  O   -0.156495
     2  O   -0.156487
     3  C    0.107419
     4  C    0.107224
     5  C   -0.810997
     6  C   -0.810813
     7  C    0.306559
     8  C    0.306522
     9  C    0.132536
    10  C    0.132617
    11  C   -0.505238
    12  C   -0.505152
    13  H    0.286667
    14  H    0.286701
    15  H    0.339807
    16  H    0.339821
    17  H    0.299658
    18  H    0.299652
 Sum of Mulliken charges =  -0.00000
 Mulliken charges with hydrogens summed into heavy atoms:
               1
     1  O   -0.156495
     2  O   -0.156487
     3  C    0.107419
     4  C    0.107224
     5  C   -0.810997
     6  C   -0.810813
     7  C    0.593226
     8  C    0.593223
     9  C    0.472342
    10  C    0.472438
    11  C   -0.205580
    12  C   -0.205500
 Electronic spatial extent (au):  <R**2>=           1774.4277
 Charge=             -0.0000 electrons
 Dipole moment (field-independent basis, Debye):
    X=             -1.4507    Y=             -0.0001    Z=              0.0036  Tot=              1.4507
 Quadrupole moment (field-independent basis, Debye-Ang):
   XX=            -54.0929   YY=            -83.0154   ZZ=            -70.8940
   XY=              0.0004   XZ=              0.0053   YZ=             -0.0103
 Traceless Quadrupole moment (field-independent basis, Debye-Ang):
   XX=             15.2412   YY=            -13.6813   ZZ=             -1.5599
   XY=              0.0004   XZ=              0.0053   YZ=             -0.0103
 Octapole moment (field-independent basis, Debye-Ang**2):
  XXX=              2.6326  YYY=             -0.0051  ZZZ=             -0.0106  XYY=            -29.6543
  XXY=              0.0029  XXZ=              0.0148  XZZ=              6.6279  YZZ=              0.0007
  YYZ=              0.0283  XYZ=             -0.0031
 Hexadecapole moment (field-independent basis, Debye-Ang**3):
 XXXX=          -1120.6993 YYYY=          -1142.1712 ZZZZ=            -77.6007 XXXY=             -0.0067
 XXXZ=              0.0359 YYYX=              0.0064 YYYZ=             -0.0577 ZZZX=             -0.0049
 ZZZY=              0.0173 XXYY=           -371.0943 XXZZ=           -256.2102 YYZZ=           -177.0049
 XXYZ=             -0.0219 YYXZ=              0.0310 ZZXY=             -0.0020
 N-N= 6.240996403120D+02 E-N=-2.494814586217D+03  KE= 5.327758073655D+02
 R6APFD:  NTU= -4 IXU= 1 FactS= 1.050
 Calling FoFJK, ICntrl=      2127 FMM=F ISym2X=0 I1Cent= 0 IOpClX= 0 NMat=1 NMatS=1 NMatT=0.
 ***** Axes restored to original set *****
 -------------------------------------------------------------------
 Center     Atomic                   Forces (Hartrees/Bohr)
 Number     Number              X              Y              Z
 -------------------------------------------------------------------
      1        8           0.000143921    0.021754690   -0.000027677
      2        8           0.000134994   -0.021762146    0.000087878
      3        6           0.011970300   -0.002493633   -0.000026759
      4        6           0.011966933    0.002461533    0.000043552
      5        6          -0.003776068   -0.030102711    0.000073597
      6        6          -0.003801509    0.030107318   -0.000166131
      7        6           0.006013289    0.004250009    0.000022766
      8        6           0.006131220   -0.004188612   -0.000002906
      9        6          -0.002713451    0.002785798   -0.000022785
     10        6          -0.002679858   -0.002757214    0.000047933
     11        6          -0.006083105   -0.000568890    0.000000019
     12        6          -0.006096411    0.000604901   -0.000017408
     13        1          -0.005816782   -0.001045441   -0.000007287
     14        1          -0.005823458    0.000976877   -0.000003041
     15        1          -0.000854870   -0.004528155   -0.000005733
     16        1          -0.000839426    0.004503042   -0.000002086
     17        1           0.001067596   -0.001214059   -0.000002876
     18        1           0.001056684    0.001216694    0.000008945
 -------------------------------------------------------------------
 Cartesian Forces:  Max     0.030107318 RMS     0.007956362

 GradGradGradGradGradGradGradGradGradGradGradGradGradGradGradGradGradGrad
 Berny optimization.
 FormGI is forming the generalized inverse of G from B-inverse, IUseBI=4.
 Internal  Forces:  Max     0.021759733 RMS     0.004044646
 Search for a local minimum.
 Step number   1 out of a maximum of  103
 All quantities printed in internal units (Hartrees-Bohrs-Radians)
 Mixed Optimization -- RFO/linear search
 Second derivative matrix not updated -- first step.
 ITU=  0
     Eigenvalues ---    0.01073   0.01073   0.01073   0.01610   0.01667
     Eigenvalues ---    0.01874   0.01940   0.01983   0.02120   0.02122
     Eigenvalues ---    0.02124   0.02154   0.02157   0.02161   0.02318
     Eigenvalues ---    0.16000   0.16000   0.16000   0.16000   0.16000
     Eigenvalues ---    0.16000   0.22000   0.22422   0.22584   0.24507
     Eigenvalues ---    0.24510   0.25000   0.25000   0.25000   0.33191
     Eigenvalues ---    0.33952   0.34943   0.34949   0.35197   0.35208
     Eigenvalues ---    0.35251   0.35252   0.35446   0.35450   0.40836
     Eigenvalues ---    0.41873   0.45354   0.46050   0.46094   0.46495
     Eigenvalues ---    0.56880   0.93282   0.93283
 RFO step:  Lambda=-3.17492160D-03 EMin= 1.07304007D-02
 Linear search not attempted -- first point.
 Iteration  1 RMS(Cart)=  0.01298122 RMS(Int)=  0.00022052
 Iteration  2 RMS(Cart)=  0.00022457 RMS(Int)=  0.00000239
 Iteration  3 RMS(Cart)=  0.00000002 RMS(Int)=  0.00000239
 Variable       Old X    -DE/DX   Delta X   Delta X   Delta X     New X
                                 (Linear)    (Quad)   (Total)
    R1        2.31456  -0.02175   0.00000  -0.02324  -0.02324   2.29132
    R2        2.31456  -0.02176   0.00000  -0.02325  -0.02325   2.29132
    R3        2.64108   0.00308   0.00000   0.00647   0.00647   2.64755
    R4        2.78956   0.00856   0.00000   0.02418   0.02418   2.81375
    R5        2.64433  -0.00621   0.00000  -0.01352  -0.01352   2.63081
    R6        2.78954   0.00858   0.00000   0.02423   0.02424   2.81377
    R7        2.64419  -0.00614   0.00000  -0.01338  -0.01338   2.63082
    R8        2.79181   0.00495   0.00000   0.01413   0.01413   2.80595
    R9        2.79185   0.00494   0.00000   0.01410   0.01410   2.80595
   R10        2.63674  -0.00388   0.00000  -0.00825  -0.00826   2.62848
   R11        2.05338   0.00091   0.00000   0.00255   0.00255   2.05594
   R12        2.63687  -0.00395   0.00000  -0.00840  -0.00840   2.62847
   R13        2.05357   0.00084   0.00000   0.00236   0.00236   2.05593
   R14        2.52052   0.00541   0.00000   0.00925   0.00925   2.52976
   R15        2.04951   0.00305   0.00000   0.00851   0.00851   2.05802
   R16        2.04958   0.00302   0.00000   0.00844   0.00844   2.05802
   R17        2.63428   0.00267   0.00000   0.00578   0.00578   2.64006
   R18        2.05267   0.00153   0.00000   0.00430   0.00430   2.05698
   R19        2.05270   0.00152   0.00000   0.00428   0.00428   2.05698
    A1        2.10273  -0.00007   0.00000  -0.00049  -0.00049   2.10224
    A2        2.09375   0.00072   0.00000   0.00279   0.00279   2.09654
    A3        2.08671  -0.00065   0.00000  -0.00230  -0.00230   2.08440
    A4        2.10287  -0.00010   0.00000  -0.00060  -0.00060   2.10227
    A5        2.09366   0.00074   0.00000   0.00286   0.00286   2.09652
    A6        2.08666  -0.00064   0.00000  -0.00226  -0.00226   2.08440
    A7        2.12541   0.00044   0.00000   0.00175   0.00175   2.12716
    A8        2.10494  -0.00037   0.00000  -0.00141  -0.00141   2.10353
    A9        2.05283  -0.00007   0.00000  -0.00034  -0.00034   2.05249
   A10        2.12534   0.00045   0.00000   0.00181   0.00180   2.12714
   A11        2.10501  -0.00038   0.00000  -0.00146  -0.00146   2.10355
   A12        2.05283  -0.00007   0.00000  -0.00034  -0.00034   2.05249
   A13        2.09266  -0.00106   0.00000  -0.00470  -0.00470   2.08796
   A14        2.11726  -0.00546   0.00000  -0.03439  -0.03439   2.08286
   A15        2.07327   0.00653   0.00000   0.03910   0.03910   2.11236
   A16        2.09266  -0.00106   0.00000  -0.00470  -0.00469   2.08797
   A17        2.11736  -0.00547   0.00000  -0.03443  -0.03443   2.08293
   A18        2.07317   0.00653   0.00000   0.03913   0.03913   2.11229
   A19        2.12763   0.00014   0.00000   0.00084   0.00084   2.12847
   A20        2.04953  -0.00362   0.00000  -0.02214  -0.02214   2.02740
   A21        2.10602   0.00347   0.00000   0.02130   0.02130   2.12732
   A22        2.12748   0.00017   0.00000   0.00094   0.00094   2.12842
   A23        2.04951  -0.00361   0.00000  -0.02211  -0.02211   2.02740
   A24        2.10620   0.00345   0.00000   0.02117   0.02117   2.12736
   A25        2.09678   0.00034   0.00000   0.00192   0.00192   2.09869
   A26        2.09316  -0.00071   0.00000  -0.00423  -0.00423   2.08893
   A27        2.09325   0.00036   0.00000   0.00231   0.00231   2.09556
   A28        2.09687   0.00032   0.00000   0.00183   0.00183   2.09869
   A29        2.09315  -0.00070   0.00000  -0.00423  -0.00423   2.08892
   A30        2.09317   0.00038   0.00000   0.00240   0.00240   2.09557
    D1       -0.00026  -0.00001   0.00000  -0.00041  -0.00041  -0.00067
    D2        3.14134  -0.00000   0.00000  -0.00016  -0.00017   3.14117
    D3        3.14134  -0.00000   0.00000  -0.00021  -0.00021   3.14113
    D4       -0.00025   0.00000   0.00000   0.00003   0.00003  -0.00021
    D5       -3.14126  -0.00001   0.00000  -0.00097  -0.00097   3.14095
    D6       -0.00035   0.00001   0.00000   0.00029   0.00029  -0.00006
    D7        0.00033  -0.00002   0.00000  -0.00117  -0.00117  -0.00084
    D8        3.14123   0.00000   0.00000   0.00010   0.00010   3.14133
    D9        0.00025  -0.00000   0.00000  -0.00010  -0.00010   0.00015
   D10        3.14158   0.00000   0.00000   0.00007   0.00007  -3.14154
   D11       -3.14134   0.00000   0.00000   0.00010   0.00010  -3.14124
   D12       -0.00001   0.00001   0.00000   0.00027   0.00027   0.00026
   D13       -3.13972  -0.00003   0.00000  -0.00208  -0.00208   3.14138
   D14        0.00071   0.00001   0.00000   0.00066   0.00066   0.00138
   D15        0.00187  -0.00003   0.00000  -0.00232  -0.00232  -0.00046
   D16       -3.14088   0.00001   0.00000   0.00042   0.00042  -3.14046
   D17        0.00008   0.00000   0.00000   0.00005   0.00005   0.00013
   D18       -3.14150  -0.00000   0.00000  -0.00008  -0.00008  -3.14158
   D19       -3.14151   0.00001   0.00000   0.00029   0.00029  -3.14121
   D20        0.00009   0.00000   0.00000   0.00016   0.00016   0.00026
   D21        3.14143   0.00001   0.00000   0.00076   0.00076  -3.14099
   D22       -0.00029   0.00001   0.00000   0.00105   0.00104   0.00075
   D23        0.00052  -0.00001   0.00000  -0.00049  -0.00049   0.00003
   D24       -3.14120  -0.00001   0.00000  -0.00020  -0.00021  -3.14141
   D25        3.13989   0.00002   0.00000   0.00184   0.00184  -3.14146
   D26       -0.00166   0.00003   0.00000   0.00221   0.00220   0.00054
   D27       -0.00056  -0.00002   0.00000  -0.00087  -0.00086  -0.00143
   D28        3.14107  -0.00001   0.00000  -0.00050  -0.00050   3.14057
   D29       -0.00008   0.00000   0.00000   0.00008   0.00008  -0.00000
   D30        3.14145   0.00000   0.00000   0.00009   0.00009   3.14154
   D31       -3.14142  -0.00000   0.00000  -0.00008  -0.00008  -3.14150
   D32        0.00011  -0.00000   0.00000  -0.00007  -0.00007   0.00004
   D33        0.00009  -0.00000   0.00000  -0.00007  -0.00007   0.00001
   D34        3.14148   0.00000   0.00000   0.00009   0.00009   3.14156
   D35       -3.14152   0.00000   0.00000   0.00006   0.00006  -3.14146
   D36       -0.00013   0.00001   0.00000   0.00022   0.00022   0.00009
   D37       -0.00005   0.00002   0.00000   0.00079   0.00079   0.00074
   D38        3.14150   0.00001   0.00000   0.00041   0.00041  -3.14128
   D39       -3.14151   0.00001   0.00000   0.00050   0.00050  -3.14101
   D40        0.00004   0.00000   0.00000   0.00012   0.00012   0.00015
   D41       -0.00009   0.00000   0.00000   0.00001   0.00001  -0.00008
   D42       -3.14148  -0.00000   0.00000  -0.00015  -0.00015   3.14156
   D43        3.14157   0.00000   0.00000  -0.00000  -0.00000   3.14156
   D44        0.00018  -0.00000   0.00000  -0.00016  -0.00016   0.00002
         Item               Value     Threshold  Converged?
 Maximum Force            0.021760     0.000450     NO 
 RMS     Force            0.004045     0.000300     NO 
 Maximum Displacement     0.063835     0.001800     NO 
 RMS     Displacement     0.012982     0.001200     NO 
 Predicted change in Energy=-1.604887D-03
 GradGradGradGradGradGradGradGradGradGradGradGradGradGradGradGradGradGrad

                          Input orientation:                          
 ---------------------------------------------------------------------
 Center     Atomic      Atomic             Coordinates (Angstroms)
 Number     Number       Type             X           Y           Z
 ---------------------------------------------------------------------
      1          8           0       -1.054160   -2.667349   -0.000811
      2          8           0       -1.054629    2.667147   -0.000131
      3          6           0        0.259466   -0.700502   -0.000170
      4          6           0        0.259327    0.700523    0.000010
      5          6           0       -1.024064   -1.455209   -0.000003
      6          6           0       -1.024346    1.455013   -0.000489
      7          6           0        1.463689   -1.399048   -0.000258
      8          6           0        1.463431    1.399284    0.000359
      9          6           0       -2.284026   -0.669555    0.000437
     10          6           0       -2.284173    0.669138    0.000641
     11          6           0        2.665205   -0.698298    0.000011
     12          6           0        2.665075    0.698760    0.000367
     13          1           0        1.448920   -2.486904   -0.000450
     14          1           0        1.448537    2.487135    0.000506
     15          1           0       -3.208678   -1.244942    0.000729
     16          1           0       -3.208926    1.244356    0.001250
     17          1           0        3.607295   -1.243559   -0.000008
     18          1           0        3.607058    1.244207    0.000609
 ---------------------------------------------------------------------
                    Distance matrix (angstroms):
                    1          2          3          4          5
     1  O    0.000000
     2  O    5.334496   0.000000
     3  C    2.365185   3.614956   0.000000
     4  C    3.614943   2.365183   1.401025   0.000000
     5  C    1.212513   4.122470   1.488971   2.508840   0.000000
     6  C    4.122470   1.212512   2.508868   1.488983   2.910223
     7  C    2.819247   4.782872   1.392163   2.420473   2.488387
     8  C    4.782862   2.819237   2.420461   1.392168   3.786260
     9  C    2.346008   3.555981   2.543681   2.888903   1.484843
    10  C    3.555992   2.346022   2.888948   2.543694   2.469965
    11  C    4.208425   5.016312   2.405740   2.782975   3.766115
    12  C    5.016313   4.208413   2.782964   2.405748   4.271924
    13  H    2.509576   5.729921   2.146167   3.402179   2.679560
    14  H    5.729938   2.509630   3.402193   2.146206   4.653583
    15  H    2.581703   4.465912   3.510618   3.976417   2.194709
    16  H    4.465921   2.581731   3.976458   3.510632   3.472934
    17  H    4.874047   6.084994   3.391587   3.871478   4.636193
    18  H    6.085000   4.874021   3.871468   3.391592   5.360424
                    6          7          8          9         10
     6  C    0.000000
     7  C    3.786289   0.000000
     8  C    2.488401   2.798333   0.000000
     9  C    2.469936   3.818053   4.280599   0.000000
    10  C    1.484846   4.280639   3.818069   1.338693   0.000000
    11  C    4.271948   1.390932   2.417460   4.949315   5.134806
    12  C    3.766131   2.417463   1.390929   5.134772   4.949337
    13  H    4.653574   1.087956   3.886215   4.151824   4.888414
    14  H    2.679631   3.886213   1.087952   4.888427   4.151895
    15  H    3.472904   4.674908   5.368475   1.089059   2.125655
    16  H    2.194714   5.368512   4.674924   2.125675   1.089056
    17  H    5.360447   2.149238   3.403054   5.919218   6.194176
    18  H    4.636199   3.403062   2.149230   6.194139   5.919233
                   11         12         13         14         15
    11  C    0.000000
    12  C    1.397058   0.000000
    13  H    2.162975   3.409910   0.000000
    14  H    3.409878   2.162926   4.974039   0.000000
    15  H    5.899264   6.186998   4.820341   5.968085   0.000000
    16  H    6.187028   5.899285   5.968067   4.820421   2.489298
    17  H    1.088505   2.158792   2.490881   4.310257   6.815973
    18  H    2.158800   1.088506   4.310308   2.490800   7.256040
                   16         17         18
    16  H    0.000000
    17  H    7.256072   0.000000
    18  H    6.815984   2.487767   0.000000
 Stoichiometry    C10H6O2
 Framework group  C1[X(C10H6O2)]
 Deg. of freedom    48
 Full point group                 C1      NOp   1
 Largest Abelian subgroup         C1      NOp   1
 Largest concise Abelian subgroup C1      NOp   1
                         Standard orientation:                         
 ---------------------------------------------------------------------
 Center     Atomic      Atomic             Coordinates (Angstroms)
 Number     Number       Type             X           Y           Z
 ---------------------------------------------------------------------
      1          8           0        1.051716    2.667253   -0.000817
      2          8           0        1.051741   -2.667243   -0.000137
      3          6           0       -0.262074    0.700516   -0.000176
      4          6           0       -0.262051   -0.700510    0.000003
      5          6           0        1.021519    1.455116   -0.000010
      6          6           0        1.021559   -1.455106   -0.000495
      7          6           0       -1.466239    1.399162   -0.000264
      8          6           0       -1.466213   -1.399171    0.000352
      9          6           0        2.281416    0.669357    0.000430
     10          6           0        2.281452   -0.669336    0.000634
     11          6           0       -2.667813    0.698512    0.000005
     12          6           0       -2.667799   -0.698546    0.000361
     13          1           0       -1.451379    2.487016   -0.000456
     14          1           0       -1.451409   -2.487022    0.000500
     15          1           0        3.206115    1.244667    0.000723
     16          1           0        3.206156   -1.244631    0.001243
     17          1           0       -3.609857    1.243851   -0.000015
     18          1           0       -3.609828   -1.243915    0.000603
 ---------------------------------------------------------------------
 Rotational constants (GHZ):           1.3358088           1.0973352           0.6024428
 Standard basis: 6-311++G(d,p) (5D, 7F)
 There are   318 symmetry adapted cartesian basis functions of A   symmetry.
 There are   306 symmetry adapted basis functions of A   symmetry.
   306 basis functions,   486 primitive gaussians,   318 cartesian basis functions
    41 alpha electrons       41 beta electrons
       nuclear repulsion energy       623.9869451385 Hartrees.
 NAtoms=   18 NActive=   18 NUniq=   18 SFac= 1.00D+00 NAtFMM=   60 NAOKFM=F Big=F
 Integral buffers will be    131072 words long.
 Raffenetti 2 integral format.
 Two-electron integral symmetry is turned on.
 R6APFD:  NTU= -4 IXU= 1 FactS= 1.050
 Nuclear repulsion after empirical dispersion term =      623.9755967400 Hartrees.
 One-electron integrals computed using PRISM.
 NBasis=   306 RedAO= T EigKep=  1.39D-06  NBF=   306
 NBsUse=   304 1.00D-06 EigRej=  7.05D-07 NBFU=   304
 Initial guess from the checkpoint file:  "ALNQ0086.chk"
 B after Tr=     0.000000    0.000000   -0.000000
         Rot=    1.000000    0.000053    0.000005    0.000025 Ang=   0.01 deg.
 ExpMin= 3.60D-02 ExpMax= 8.59D+03 ExpMxC= 1.30D+03 IAcc=3 IRadAn=         5 AccDes= 0.00D+00
 Harris functional with IExCor= 1009 and IRadAn=       5 diagonalized for initial guess.
 HarFok:  IExCor= 1009 AccDes= 0.00D+00 IRadAn=         5 IDoV= 1 UseB2=F ITyADJ=14
 ICtDFT=  3500011 ScaDFX=  1.000000  1.000000  1.000000  1.000000
 FoFCou: FMM=F IPFlag=           0 FMFlag=      100000 FMFlg1=           0
         NFxFlg=           0 DoJE=T BraDBF=F KetDBF=T FulRan=T
         wScrn=  0.000000 ICntrl=       500 IOpCl=  0 I1Cent=   200000004 NGrid=           0
         NMat0=    1 NMatS0=      1 NMatT0=    0 NMatD0=    1 NMtDS0=    0 NMtDT0=    0
 Petite list used in FoFCou.
 Requested convergence on RMS density matrix=1.00D-08 within  32 cycles.
 Requested convergence on MAX density matrix=1.00D-06.
 Requested convergence on             energy=1.00D-06.
 No special actions if energy rises.
 SCF Done:  E(RM08HX) =  -535.092267059     A.U. after   13 cycles
            NFock= 13  Conv=0.45D-08     -V/T= 2.0043
 QCSCF skips out because SCF is already converged.
 R6APFD:  NTU= -4 IXU= 1 FactS= 1.050
 Calling FoFJK, ICntrl=      2127 FMM=F ISym2X=0 I1Cent= 0 IOpClX= 0 NMat=1 NMatS=1 NMatT=0.
 ***** Axes restored to original set *****
 -------------------------------------------------------------------
 Center     Atomic                   Forces (Hartrees/Bohr)
 Number     Number              X              Y              Z
 -------------------------------------------------------------------
      1        8           0.000245047    0.005096957    0.000037728
      2        8           0.000243575   -0.005096747   -0.000072400
      3        6           0.000895105    0.001700339    0.000015857
      4        6           0.000899180   -0.001693821   -0.000055432
      5        6          -0.000717302   -0.008349641   -0.000108482
      6        6          -0.000713474    0.008347666    0.000222567
      7        6           0.002340184    0.000407559    0.000016347
      8        6           0.002341153   -0.000406592   -0.000018669
      9        6          -0.001680456    0.005150902    0.000028799
     10        6          -0.001663966   -0.005151226   -0.000071462
     11        6          -0.000336215    0.000535063   -0.000003473
     12        6          -0.000337186   -0.000539759    0.000005600
     13        1          -0.001464311   -0.000262660    0.000001118
     14        1          -0.001472028    0.000264558   -0.000001276
     15        1           0.000534274   -0.001017221    0.000016166
     16        1           0.000531363    0.001016289   -0.000013036
     17        1           0.000177628    0.000294028   -0.000002037
     18        1           0.000177430   -0.000295694    0.000002085
 -------------------------------------------------------------------
 Cartesian Forces:  Max     0.008349641 RMS     0.002269044

 GradGradGradGradGradGradGradGradGradGradGradGradGradGradGradGradGradGrad
 Berny optimization.
 Using GEDIIS/GDIIS optimizer.
 FormGI is forming the generalized inverse of G from B-inverse, IUseBI=4.
 Internal  Forces:  Max     0.005101493 RMS     0.000993598
 Search for a local minimum.
 Step number   2 out of a maximum of  103
 All quantities printed in internal units (Hartrees-Bohrs-Radians)
 Mixed Optimization -- En-DIIS/RFO-DIIS
 Update second derivatives using D2CorX and points    1    2
 DE= -1.93D-03 DEPred=-1.60D-03 R= 1.20D+00
 TightC=F SS=  1.41D+00  RLast= 1.05D-01 DXNew= 5.0454D-01 3.1430D-01
 Trust test= 1.20D+00 RLast= 1.05D-01 DXMaxT set to 3.14D-01
 ITU=  1  0
 Use linear search instead of GDIIS.
     Eigenvalues ---    0.01073   0.01073   0.01074   0.01609   0.01672
     Eigenvalues ---    0.01877   0.01958   0.01987   0.02120   0.02124
     Eigenvalues ---    0.02125   0.02154   0.02157   0.02161   0.02333
     Eigenvalues ---    0.13571   0.16000   0.16000   0.16000   0.16000
     Eigenvalues ---    0.16135   0.22000   0.22422   0.22703   0.24485
     Eigenvalues ---    0.24507   0.25000   0.25000   0.25025   0.32720
     Eigenvalues ---    0.33204   0.34015   0.34943   0.35195   0.35207
     Eigenvalues ---    0.35251   0.35273   0.35448   0.35577   0.40832
     Eigenvalues ---    0.41892   0.45658   0.46093   0.46261   0.47396
     Eigenvalues ---    0.58736   0.86198   0.93282
 RFO step:  Lambda=-1.17177405D-04 EMin= 1.07302339D-02
 Quartic linear search produced a step of  0.26558.
 Iteration  1 RMS(Cart)=  0.00445286 RMS(Int)=  0.00002827
 Iteration  2 RMS(Cart)=  0.00002932 RMS(Int)=  0.00000203
 Iteration  3 RMS(Cart)=  0.00000000 RMS(Int)=  0.00000203
 Variable       Old X    -DE/DX   Delta X   Delta X   Delta X     New X
                                 (Linear)    (Quad)   (Total)
    R1        2.29132  -0.00510  -0.00617  -0.00157  -0.00774   2.28358
    R2        2.29132  -0.00510  -0.00617  -0.00156  -0.00774   2.28358
    R3        2.64755  -0.00077   0.00172  -0.00336  -0.00164   2.64591
    R4        2.81375   0.00207   0.00642   0.00196   0.00838   2.82213
    R5        2.63081   0.00042  -0.00359   0.00432   0.00073   2.63154
    R6        2.81377   0.00206   0.00644   0.00193   0.00837   2.82214
    R7        2.63082   0.00041  -0.00355   0.00427   0.00072   2.63153
    R8        2.80595   0.00198   0.00375   0.00377   0.00752   2.81347
    R9        2.80595   0.00198   0.00374   0.00377   0.00751   2.81347
   R10        2.62848  -0.00001  -0.00219   0.00186  -0.00033   2.62815
   R11        2.05594   0.00028   0.00068   0.00042   0.00110   2.05704
   R12        2.62847  -0.00001  -0.00223   0.00191  -0.00032   2.62815
   R13        2.05593   0.00028   0.00063   0.00047   0.00110   2.05703
   R14        2.52976  -0.00221   0.00246  -0.00707  -0.00462   2.52515
   R15        2.05802   0.00008   0.00226  -0.00168   0.00058   2.05860
   R16        2.05802   0.00009   0.00224  -0.00166   0.00058   2.05860
   R17        2.64006  -0.00058   0.00153  -0.00295  -0.00142   2.63864
   R18        2.05698   0.00001   0.00114  -0.00098   0.00016   2.05714
   R19        2.05698   0.00001   0.00114  -0.00098   0.00016   2.05714
    A1        2.10224   0.00015  -0.00013   0.00129   0.00116   2.10340
    A2        2.09654  -0.00012   0.00074  -0.00131  -0.00057   2.09597
    A3        2.08440  -0.00003  -0.00061   0.00002  -0.00059   2.08381
    A4        2.10227   0.00014  -0.00016   0.00130   0.00115   2.10341
    A5        2.09652  -0.00011   0.00076  -0.00131  -0.00055   2.09596
    A6        2.08440  -0.00003  -0.00060   0.00001  -0.00059   2.08381
    A7        2.12716   0.00016   0.00047   0.00043   0.00089   2.12806
    A8        2.10353   0.00043  -0.00038   0.00255   0.00217   2.10570
    A9        2.05249  -0.00059  -0.00009  -0.00297  -0.00307   2.04942
   A10        2.12714   0.00016   0.00048   0.00044   0.00091   2.12805
   A11        2.10355   0.00043  -0.00039   0.00255   0.00215   2.10570
   A12        2.05249  -0.00059  -0.00009  -0.00297  -0.00307   2.04942
   A13        2.08796   0.00018  -0.00125   0.00220   0.00095   2.08891
   A14        2.08286  -0.00159  -0.00913  -0.00422  -0.01336   2.06951
   A15        2.11236   0.00141   0.01038   0.00203   0.01241   2.12477
   A16        2.08797   0.00018  -0.00125   0.00218   0.00094   2.08890
   A17        2.08293  -0.00160  -0.00914  -0.00427  -0.01341   2.06951
   A18        2.11229   0.00142   0.01039   0.00209   0.01248   2.12477
   A19        2.12847   0.00045   0.00022   0.00167   0.00189   2.13036
   A20        2.02740  -0.00140  -0.00588  -0.00499  -0.01087   2.01653
   A21        2.12732   0.00096   0.00566   0.00332   0.00897   2.13630
   A22        2.12842   0.00045   0.00025   0.00169   0.00193   2.13035
   A23        2.02740  -0.00140  -0.00587  -0.00500  -0.01087   2.01654
   A24        2.12736   0.00095   0.00562   0.00331   0.00893   2.13629
   A25        2.09869  -0.00006   0.00051  -0.00089  -0.00038   2.09831
   A26        2.08893   0.00038  -0.00112   0.00402   0.00289   2.09183
   A27        2.09556  -0.00032   0.00061  -0.00312  -0.00251   2.09305
   A28        2.09869  -0.00006   0.00048  -0.00086  -0.00038   2.09832
   A29        2.08892   0.00039  -0.00112   0.00402   0.00290   2.09182
   A30        2.09557  -0.00032   0.00064  -0.00316  -0.00252   2.09305
    D1       -0.00067   0.00002  -0.00011   0.00166   0.00155   0.00088
    D2        3.14117   0.00001  -0.00004   0.00106   0.00101  -3.14100
    D3        3.14113   0.00002  -0.00006   0.00126   0.00120  -3.14085
    D4       -0.00021   0.00001   0.00001   0.00066   0.00067   0.00045
    D5        3.14095   0.00002  -0.00026   0.00222   0.00196  -3.14027
    D6       -0.00006  -0.00001   0.00008  -0.00016  -0.00008  -0.00015
    D7       -0.00084   0.00002  -0.00031   0.00261   0.00230   0.00146
    D8        3.14133  -0.00000   0.00003   0.00023   0.00026   3.14158
    D9        0.00015  -0.00001  -0.00003  -0.00043  -0.00046  -0.00031
   D10       -3.14154  -0.00000   0.00002  -0.00014  -0.00012   3.14153
   D11       -3.14124  -0.00001   0.00003  -0.00083  -0.00080   3.14114
   D12        0.00026  -0.00000   0.00007  -0.00053  -0.00046  -0.00020
   D13        3.14138   0.00003  -0.00055   0.00462   0.00406  -3.13774
   D14        0.00138  -0.00003   0.00018  -0.00323  -0.00305  -0.00167
   D15       -0.00046   0.00004  -0.00062   0.00521   0.00460   0.00414
   D16       -3.14046  -0.00003   0.00011  -0.00264  -0.00252   3.14020
   D17        0.00013  -0.00001   0.00001  -0.00050  -0.00049  -0.00036
   D18       -3.14158  -0.00000  -0.00002  -0.00004  -0.00007   3.14154
   D19       -3.14121  -0.00001   0.00008  -0.00110  -0.00102   3.14095
   D20        0.00026  -0.00001   0.00004  -0.00064  -0.00060  -0.00034
   D21       -3.14099  -0.00001   0.00020  -0.00196  -0.00176   3.14044
   D22        0.00075  -0.00002   0.00028  -0.00248  -0.00220  -0.00145
   D23        0.00003   0.00001  -0.00013   0.00039   0.00026   0.00029
   D24       -3.14141   0.00001  -0.00006  -0.00013  -0.00018   3.14159
   D25       -3.14146  -0.00003   0.00049  -0.00423  -0.00374   3.13799
   D26        0.00054  -0.00004   0.00059  -0.00515  -0.00457  -0.00403
   D27       -0.00143   0.00004  -0.00023   0.00351   0.00328   0.00185
   D28        3.14057   0.00003  -0.00013   0.00258   0.00245  -3.14017
   D29       -0.00000   0.00000   0.00002   0.00006   0.00008   0.00008
   D30        3.14154   0.00000   0.00002   0.00017   0.00020  -3.14145
   D31       -3.14150  -0.00000  -0.00002  -0.00024  -0.00027   3.14142
   D32        0.00004  -0.00000  -0.00002  -0.00013  -0.00015  -0.00011
   D33        0.00001   0.00000  -0.00002   0.00013   0.00011   0.00013
   D34        3.14156   0.00000   0.00002   0.00021   0.00023  -3.14139
   D35       -3.14146  -0.00000   0.00002  -0.00034  -0.00033   3.14140
   D36        0.00009  -0.00000   0.00006  -0.00026  -0.00020  -0.00011
   D37        0.00074  -0.00003   0.00021  -0.00212  -0.00192  -0.00118
   D38       -3.14128  -0.00002   0.00011  -0.00115  -0.00104   3.14086
   D39       -3.14101  -0.00002   0.00013  -0.00158  -0.00145   3.14073
   D40        0.00015  -0.00001   0.00003  -0.00060  -0.00057  -0.00042
   D41       -0.00008   0.00000   0.00000   0.00009   0.00010   0.00002
   D42        3.14156  -0.00000  -0.00004   0.00001  -0.00003   3.14153
   D43        3.14156  -0.00000  -0.00000  -0.00002  -0.00002   3.14154
   D44        0.00002  -0.00000  -0.00004  -0.00010  -0.00015  -0.00013
         Item               Value     Threshold  Converged?
 Maximum Force            0.005101     0.000450     NO 
 RMS     Force            0.000994     0.000300     NO 
 Maximum Displacement     0.020969     0.001800     NO 
 RMS     Displacement     0.004454     0.001200     NO 
 Predicted change in Energy=-1.492094D-04
 GradGradGradGradGradGradGradGradGradGradGradGradGradGradGradGradGradGrad

                          Input orientation:                          
 ---------------------------------------------------------------------
 Center     Atomic      Atomic             Coordinates (Angstroms)
 Number     Number       Type             X           Y           Z
 ---------------------------------------------------------------------
      1          8           0       -1.054525   -2.666559    0.000507
      2          8           0       -1.054993    2.666355   -0.001241
      3          6           0        0.261635   -0.700062    0.000178
      4          6           0        0.261507    0.700094    0.000808
      5          6           0       -1.024845   -1.458505   -0.000300
      6          6           0       -1.025107    1.458313    0.002145
      7          6           0        1.466585   -1.398125   -0.000175
      8          6           0        1.466331    1.398370    0.000536
      9          6           0       -2.286676   -0.668333    0.000115
     10          6           0       -2.286797    0.667916    0.000553
     11          6           0        2.668220   -0.697926   -0.000276
     12          6           0        2.668091    0.698383    0.000070
     13          1           0        1.437883   -2.486283   -0.000599
     14          1           0        1.437440    2.486521    0.000988
     15          1           0       -3.206396   -1.252141   -0.000252
     16          1           0       -3.206623    1.251554    0.000185
     17          1           0        3.611749   -1.240865   -0.000689
     18          1           0        3.611521    1.241494    0.000047
 ---------------------------------------------------------------------
                    Distance matrix (angstroms):
                    1          2          3          4          5
     1  O    0.000000
     2  O    5.332914   0.000000
     3  C    2.366302   3.614731   0.000000
     4  C    3.614732   2.366297   1.400156   0.000000
     5  C    1.208418   4.124971   1.493408   2.512818   0.000000
     6  C    4.124977   1.208417   2.512826   1.493410   2.916819
     7  C    2.822219   4.783133   1.392550   2.419656   2.492161
     8  C    4.783133   2.822210   2.419651   1.392548   3.790474
     9  C    2.347574   3.554883   2.548509   2.892375   1.488822
    10  C    3.554887   2.347573   2.892382   2.548507   2.472690
    11  C    4.211216   5.018038   2.406585   2.783294   3.770571
    12  C    5.018038   4.211208   2.783286   2.406585   4.276674
    13  H    2.498920   5.723995   2.138725   3.396596   2.668587
    14  H    5.723995   2.498914   3.396591   2.138724   4.650385
    15  H    2.575098   4.470251   3.511699   3.979645   2.191290
    16  H    4.470249   2.575107   3.979651   3.511699   3.479163
    17  H    4.879213   6.086449   3.393484   3.871879   4.641699
    18  H    6.086448   4.879199   3.871869   3.393480   5.365248
                    6          7          8          9         10
     6  C    0.000000
     7  C    3.790484   0.000000
     8  C    2.492159   2.796495   0.000000
     9  C    2.472688   3.823554   4.284428   0.000000
    10  C    1.488822   4.284437   3.823549   1.336250   0.000000
    11  C    4.276685   1.390757   2.416401   4.954984   5.139817
    12  C    3.770571   2.416395   1.390758   5.139809   4.954981
    13  H    4.650395   1.088537   3.884758   4.144549   4.880801
    14  H    2.668586   3.884755   1.088535   4.880794   4.144546
    15  H    3.479165   4.675261   5.372112   1.089365   2.128916
    16  H    2.191293   5.372119   4.675259   2.128912   1.089363
    17  H    5.365259   2.150921   3.401233   5.926147   6.199701
    18  H    4.641695   3.401226   2.150918   6.199691   5.926140
                   11         12         13         14         15
    11  C    0.000000
    12  C    1.396310   0.000000
    13  H    2.170702   3.414017   0.000000
    14  H    3.414019   2.170700   4.972805   0.000000
    15  H    5.900700   6.189842   4.805459   5.961779   0.000000
    16  H    6.189850   5.900700   5.961784   4.805462   2.503695
    17  H    1.088591   2.156659   2.505346   4.315209   6.818154
    18  H    2.156656   1.088590   4.315208   2.505338   7.259628
                   16         17         18
    16  H    0.000000
    17  H    7.259638   0.000000
    18  H    6.818151   2.482359   0.000000
 Stoichiometry    C10H6O2
 Framework group  C1[X(C10H6O2)]
 Deg. of freedom    48
 Full point group                 C1      NOp   1
 Largest Abelian subgroup         C1      NOp   1
 Largest concise Abelian subgroup C1      NOp   1
                         Standard orientation:                         
 ---------------------------------------------------------------------
 Center     Atomic      Atomic             Coordinates (Angstroms)
 Number     Number       Type             X           Y           Z
 ---------------------------------------------------------------------
      1          8           0        1.052598    2.666460    0.000315
      2          8           0        1.052605   -2.666454   -0.001433
      3          6           0       -0.263732    0.700078   -0.000014
      4          6           0       -0.263725   -0.700078    0.000616
      5          6           0        1.022814    1.458410   -0.000492
      6          6           0        1.022823   -1.458409    0.001953
      7          6           0       -1.468621    1.398245   -0.000367
      8          6           0       -1.468609   -1.398250    0.000344
      9          6           0        2.284577    0.668128   -0.000077
     10          6           0        2.284582   -0.668122    0.000361
     11          6           0       -2.670317    0.698150   -0.000468
     12          6           0       -2.670309   -0.698159   -0.000122
     13          1           0       -1.439825    2.486401   -0.000791
     14          1           0       -1.439813   -2.486404    0.000796
     15          1           0        3.204347    1.251856   -0.000443
     16          1           0        3.204357   -1.251839   -0.000007
     17          1           0       -3.613799    1.241171   -0.000881
     18          1           0       -3.613786   -1.241188   -0.000145
 ---------------------------------------------------------------------
 Rotational constants (GHZ):           1.3358648           1.0950898           0.6017769
 Standard basis: 6-311++G(d,p) (5D, 7F)
 There are   318 symmetry adapted cartesian basis functions of A   symmetry.
 There are   306 symmetry adapted basis functions of A   symmetry.
   306 basis functions,   486 primitive gaussians,   318 cartesian basis functions
    41 alpha electrons       41 beta electrons
       nuclear repulsion energy       623.7993225121 Hartrees.
 NAtoms=   18 NActive=   18 NUniq=   18 SFac= 1.00D+00 NAtFMM=   60 NAOKFM=F Big=F
 Integral buffers will be    131072 words long.
 Raffenetti 2 integral format.
 Two-electron integral symmetry is turned on.
 R6APFD:  NTU= -4 IXU= 1 FactS= 1.050
 Nuclear repulsion after empirical dispersion term =      623.7879727296 Hartrees.
 One-electron integrals computed using PRISM.
 NBasis=   306 RedAO= T EigKep=  1.40D-06  NBF=   306
 NBsUse=   304 1.00D-06 EigRej=  7.16D-07 NBFU=   304
 Initial guess from the checkpoint file:  "ALNQ0086.chk"
 B after Tr=    -0.000000   -0.000000   -0.000000
         Rot=    1.000000   -0.000053    0.000026    0.000002 Ang=  -0.01 deg.
 ExpMin= 3.60D-02 ExpMax= 8.59D+03 ExpMxC= 1.30D+03 IAcc=3 IRadAn=         5 AccDes= 0.00D+00
 Harris functional with IExCor= 1009 and IRadAn=       5 diagonalized for initial guess.
 HarFok:  IExCor= 1009 AccDes= 0.00D+00 IRadAn=         5 IDoV= 1 UseB2=F ITyADJ=14
 ICtDFT=  3500011 ScaDFX=  1.000000  1.000000  1.000000  1.000000
 FoFCou: FMM=F IPFlag=           0 FMFlag=      100000 FMFlg1=           0
         NFxFlg=           0 DoJE=T BraDBF=F KetDBF=T FulRan=T
         wScrn=  0.000000 ICntrl=       500 IOpCl=  0 I1Cent=   200000004 NGrid=           0
         NMat0=    1 NMatS0=      1 NMatT0=    0 NMatD0=    1 NMtDS0=    0 NMtDT0=    0
 Petite list used in FoFCou.
 Requested convergence on RMS density matrix=1.00D-08 within  32 cycles.
 Requested convergence on MAX density matrix=1.00D-06.
 Requested convergence on             energy=1.00D-06.
 No special actions if energy rises.
 SCF Done:  E(RM08HX) =  -535.092418519     A.U. after   11 cycles
            NFock= 11  Conv=0.62D-08     -V/T= 2.0043
 QCSCF skips out because SCF is already converged.
 R6APFD:  NTU= -4 IXU= 1 FactS= 1.050
 Calling FoFJK, ICntrl=      2127 FMM=F ISym2X=0 I1Cent= 0 IOpClX= 0 NMat=1 NMatS=1 NMatT=0.
 ***** Axes restored to original set *****
 -------------------------------------------------------------------
 Center     Atomic                   Forces (Hartrees/Bohr)
 Number     Number              X              Y              Z
 -------------------------------------------------------------------
      1        8          -0.000075760   -0.000290319   -0.000079023
      2        8          -0.000076604    0.000292998    0.000263658
      3        6          -0.000342102    0.000806494   -0.000009872
      4        6          -0.000341150   -0.000806828    0.000177368
      5        6           0.000412370   -0.000303512    0.000239313
      6        6           0.000413328    0.000300060   -0.000724772
      7        6           0.000398275   -0.000201073   -0.000047982
      8        6           0.000400721    0.000199070    0.000040848
      9        6          -0.000248955    0.000990309   -0.000051946
     10        6          -0.000249119   -0.000991171    0.000225680
     11        6          -0.000235947   -0.000439652    0.000010529
     12        6          -0.000236068    0.000440635   -0.000016878
     13        1           0.000032901   -0.000018482   -0.000002090
     14        1           0.000032747    0.000020076    0.000000399
     15        1           0.000084793   -0.000140957   -0.000045390
     16        1           0.000084086    0.000141950    0.000020032
     17        1          -0.000027164    0.000065221    0.000007042
     18        1          -0.000026351   -0.000064819   -0.000006916
 -------------------------------------------------------------------
 Cartesian Forces:  Max     0.000991171 RMS     0.000334509

 GradGradGradGradGradGradGradGradGradGradGradGradGradGradGradGradGradGrad
 Berny optimization.
 Using GEDIIS/GDIIS optimizer.
 FormGI is forming the generalized inverse of G from B-inverse, IUseBI=4.
 Internal  Forces:  Max     0.000482837 RMS     0.000139220
 Search for a local minimum.
 Step number   3 out of a maximum of  103
 All quantities printed in internal units (Hartrees-Bohrs-Radians)
 Mixed Optimization -- En-DIIS/RFO-DIIS
 Swapping is turned off.
 Update second derivatives using D2CorX and points    1    2    3
 DE= -1.51D-04 DEPred=-1.49D-04 R= 1.02D+00
 TightC=F SS=  1.41D+00  RLast= 4.10D-02 DXNew= 5.2859D-01 1.2290D-01
 Trust test= 1.02D+00 RLast= 4.10D-02 DXMaxT set to 3.14D-01
 ITU=  1  1  0
     Eigenvalues ---    0.01073   0.01073   0.01090   0.01617   0.01674
     Eigenvalues ---    0.01881   0.01967   0.01989   0.02120   0.02124
     Eigenvalues ---    0.02125   0.02154   0.02157   0.02161   0.02343
     Eigenvalues ---    0.12970   0.16000   0.16000   0.16000   0.16044
     Eigenvalues ---    0.16201   0.22000   0.22419   0.22753   0.24166
     Eigenvalues ---    0.24506   0.25000   0.25000   0.25052   0.32217
     Eigenvalues ---    0.33211   0.34206   0.34943   0.35195   0.35207
     Eigenvalues ---    0.35252   0.35281   0.35448   0.35581   0.40838
     Eigenvalues ---    0.41886   0.45619   0.46093   0.46462   0.47375
     Eigenvalues ---    0.58271   0.89197   0.93282
 En-DIIS/RFO-DIIS/Sim-DIIS IScMMF=       -3 using points:     3    2
 RFO step:  Lambda=-1.60158765D-05.
 DidBck=F Rises=F RFO-DIIS coefs:    0.88298    0.11702
 Iteration  1 RMS(Cart)=  0.00201953 RMS(Int)=  0.00001460
 Iteration  2 RMS(Cart)=  0.00001202 RMS(Int)=  0.00000984
 Iteration  3 RMS(Cart)=  0.00000000 RMS(Int)=  0.00000984
 Variable       Old X    -DE/DX   Delta X   Delta X   Delta X     New X
                                 (Linear)    (Quad)   (Total)
    R1        2.28358   0.00029   0.00091  -0.00107  -0.00016   2.28342
    R2        2.28358   0.00029   0.00091  -0.00107  -0.00016   2.28342
    R3        2.64591  -0.00028   0.00019  -0.00083  -0.00064   2.64527
    R4        2.82213  -0.00003  -0.00098   0.00141   0.00043   2.82256
    R5        2.63154   0.00030  -0.00009   0.00070   0.00062   2.63216
    R6        2.82214  -0.00003  -0.00098   0.00140   0.00043   2.82257
    R7        2.63153   0.00030  -0.00008   0.00071   0.00062   2.63216
    R8        2.81347   0.00033  -0.00088   0.00227   0.00138   2.81485
    R9        2.81347   0.00033  -0.00088   0.00226   0.00139   2.81485
   R10        2.62815  -0.00027   0.00004  -0.00069  -0.00065   2.62750
   R11        2.05704   0.00002  -0.00013   0.00024   0.00012   2.05715
   R12        2.62815  -0.00027   0.00004  -0.00069  -0.00065   2.62750
   R13        2.05703   0.00002  -0.00013   0.00025   0.00012   2.05715
   R14        2.52515  -0.00048   0.00054  -0.00155  -0.00101   2.52414
   R15        2.05860   0.00000  -0.00007   0.00015   0.00009   2.05869
   R16        2.05860   0.00001  -0.00007   0.00016   0.00009   2.05869
   R17        2.63864   0.00030   0.00017   0.00045   0.00061   2.63925
   R18        2.05714  -0.00006  -0.00002  -0.00011  -0.00013   2.05701
   R19        2.05714  -0.00006  -0.00002  -0.00011  -0.00013   2.05701
    A1        2.10340   0.00014  -0.00014   0.00079   0.00065   2.10406
    A2        2.09597   0.00006   0.00007   0.00017   0.00023   2.09620
    A3        2.08381  -0.00020   0.00007  -0.00096  -0.00089   2.08292
    A4        2.10341   0.00014  -0.00013   0.00078   0.00065   2.10406
    A5        2.09596   0.00006   0.00006   0.00018   0.00024   2.09620
    A6        2.08381  -0.00020   0.00007  -0.00095  -0.00089   2.08292
    A7        2.12806   0.00020  -0.00010   0.00099   0.00089   2.12895
    A8        2.10570   0.00005  -0.00025   0.00054   0.00029   2.10599
    A9        2.04942  -0.00025   0.00036  -0.00153  -0.00118   2.04824
   A10        2.12805   0.00020  -0.00011   0.00103   0.00087   2.12892
   A11        2.10570   0.00005  -0.00025   0.00057   0.00026   2.10596
   A12        2.04942  -0.00025   0.00036  -0.00151  -0.00119   2.04823
   A13        2.08891  -0.00011  -0.00011  -0.00037  -0.00048   2.08843
[...]
 059676,-0.0581779,-0.0000522,0.269754,1.3505175,0.0003022,0.0001391,0.
 0003225,0.2556001,1.3060033,0.0581699,-0.0000602,-0.269762,1.3504783,-
 0.0000012,-0.0001819,0.0000351,0.2555983,-0.1821315,0.1084726,0.000021
 7,-0.0693346,0.0779513,0.0000448,-0.0001073,0.0000044,-0.1022491,-0.18
 21249,-0.1085181,-0.0000149,0.0692884,0.0779446,0.0000281,0.0000083,0.
 0000457,-0.102249,-0.2009484,0.2721692,0.0000217,0.257575,-0.1088719,-
 0.0000891,-0.000059,-0.000154,-0.1082189,-0.2008535,-0.2721849,-0.0000
 79,-0.2575902,-0.1089661,0.0000999,0.0000868,-0.000051,-0.1082179,0.12
 95754,-0.1168099,-0.0000044,-0.0033671,-0.0393616,0.0000035,0.0000733,
 0.0000183,-0.1182774,0.1295545,0.1168395,0.000031,0.0033971,-0.0393399
 ,0.0000163,-0.0000368,0.0000118,-0.1182775,0.1004687,-0.0209019,-0.000
 0054,0.0208235,0.0188946,-0.0000258,-0.0000183,-0.0000264,0.1370454,0.
 1004686,0.0209162,0.0000041,-0.0208089,0.0188946,-0.0000234,0.0000306,
 -0.0000294,0.1370455,-0.0197302,-0.018214,0.0000281,-0.0408643,0.04485
 17,-0.0000024,0.0000656,-0.0000117,0.1360069,-0.0197404,0.0182022,0.00
 00531,0.0408521,0.0448626,-0.0000238,0.0000243,0.0000118,0.1360071,-0.
 0356736,0.0551028,0.000004,0.0605795,0.0462205,-0.0000131,0.0000107,-0
 .000008,0.1387388,-0.035653,-0.0551173,-0.0000141,-0.060594,0.0462,-0.
 0000182,-0.0000209,-0.0000199,0.1387388\Polar=139.4599311,-0.00059,146
 .0229563,-0.0025659,0.0101403,59.6096919\Quadrupole=10.8643657,-9.6695
 446,-1.1948211,0.0018368,-0.0005622,0.0010092\PG=C01 [X(C10H6O2)]\NIma
 g=0\\0.10013906,0.01383213,0.86237787,-0.00001356,-0.00018552,0.025439
 41,0.00369627,-0.00042356,-0.00000085,0.10014405,0.00042445,-0.0012912
 5,-0.00000124,-0.01396740,0.86236732,-0.00000042,-0.00000050,0.0000612
 0,-0.00000890,0.00000800,0.02543992,0.00646355,-0.03212487,-0.00000091
 ,-0.00503711,0.00578978,-0.00000047,0.66919695,-0.04547251,-0.05181807
 ,0.00000926,-0.00066837,0.00587808,-0.00000141,-0.03779935,0.70128286,
 0.00000471,0.00001734,0.01750448,0.00000100,-0.00000072,0.00334174,0.0
 0001970,0.00010626,0.12219706,-0.00503620,-0.00579171,0.00000485,0.006
 45001,0.03213472,0.00000047,-0.12504939,0.02804670,-0.00000467,0.66918
 168,0.00066645,0.00587719,-0.00000073,0.04548238,-0.05180349,-0.000004
 64,-0.02801128,-0.32547349,-0.00006249,0.03779461,0.70129501,0.0000003
 3,-0.00000308,0.00334176,0.00000113,-0.00000328,0.01750446,-0.00001306
 ,-0.00006317,-0.04598392,0.00000984,0.00010442,0.12219719,-0.10328491,
 -0.01121598,0.00001160,-0.01013648,-0.00079983,0.00000102,-0.19595889,
 -0.03270693,-0.00002893,0.00311646,-0.01054600,0.00000351,0.53553414,-
 0.01102203,-0.74885003,0.00017709,0.00040756,0.00167353,0.00000110,-0.
 02032568,-0.11036661,-0.00003797,-0.02695103,-0.01753976,0.00000287,0.
 00652025,0.97596477,0.00001245,0.00016861,-0.06326880,0.00000187,0.000
 00398,0.00088966,-0.00000727,-0.00002479,-0.06697912,-0.00000891,0.000
 00075,-0.00834129,-0.00005950,-0.00010277,0.18877427,-0.01013655,0.000
 79772,0.00000304,-0.10328930,0.01133087,0.00000578,0.00310975,0.010549
 67,-0.00000156,-0.19596722,0.03269106,0.00000963,0.02732898,-0.0011303
 3,-0.00000725,0.53553544,-0.00040967,0.00167360,0.00000146,0.01113696,
 -0.74884129,-0.00000846,0.02695474,-0.01753313,0.00000354,0.02030977,-
 0.11035680,-0.00001086,0.00113540,-0.00110373,-0.00000535,-0.00659802,
 0.97595740,0.00000093,0.00000548,0.00088965,0.00000637,-0.00000819,-0.
 06326925,0.00000953,0.00000436,-0.00834123,0.00001095,-0.00001466,-0.0
 6697919,-0.00000406,-0.00000703,-0.00726557,-0.00004261,0.00002157,0.1
 8877480,-0.00248877,0.00779416,-0.00000417,-0.00217376,0.00296162,0.00
 000068,-0.27377796,0.06263453,-0.00000448,0.03215943,0.08196859,0.0000
 1323,-0.03647966,-0.00074328,0.00000609,0.00842723,-0.00272408,-0.0000
 0081,0.68162401,-0.00063201,-0.00473552,0.00000074,0.00299232,-0.00172
 803,0.00000047,0.12750004,-0.18740566,-0.00002050,0.02944164,-0.025441
 97,-0.00000332,-0.01276054,0.02178345,0.00000270,-0.00477649,-0.005420
 69,-0.00000416,0.01511169,0.75051728,0.00000078,-0.00000242,-0.0001863
 6,0.00000108,-0.00000050,-0.00151125,0.00000717,-0.00001949,-0.0594081
 8,0.00000716,-0.00000159,0.00351309,-0.00000537,0.00000958,0.00176386,
 -0.00000158,-0.00000319,0.00995423,0.00002995,0.00011694,0.13718961,-0
 .00217271,-0.00296171,-0.00000129,-0.00248744,-0.00779374,-0.00000049,
 0.03217919,-0.08195832,-0.00000847,-0.27374372,-0.06264970,-0.00001687
 ,0.00842591,0.00272654,0.00000062,-0.03648195,0.00073290,-0.00000030,-
 0.07865583,0.00217703,-0.00000335,0.68162930,-0.00299240,-0.00172909,0
 .00000185,0.00063238,-0.00473679,-0.00000049,-0.02943137,-0.02546169,-
 0.00001042,-0.12751512,-0.18743929,-0.00002165,0.00477896,-0.00541935,
 -0.00000394,0.01275016,0.02178583,0.00000421,-0.00219104,0.00023367,0.
 00000102,-0.01512436,0.75051094,-0.00000169,-0.00000170,-0.00151125,-0
 .00000042,-0.00000097,-0.00018635,-0.00000470,-0.00001045,0.00351305,-
 0.00002430,-0.00001769,-0.05940812,0.00000264,-0.00000297,0.00995423,0
 .00000234,0.00000240,0.00176378,-0.00000339,0.00000125,-0.00363176,0.0
 0001056,0.00010512,0.13718967,0.01196874,0.02259604,0.00000563,-0.0056
 6626,-0.00921469,0.00000236,-0.02593192,0.01409209,0.00001434,-0.00227
 400,0.00249535,0.00000578,-0.21572241,0.03322513,0.00004712,0.00968251
 ,-0.02565562,-0.00001409,-0.00087085,-0.00433958,-0.00000015,0.0017377
 0,-0.00003865,-0.00000143,0.60969229,0.04725343,-0.06550438,-0.0000003
 8,-0.00423001,0.00538767,-0.00000122,-0.00861219,0.01580322,0.00000808
 ,0.00269250,-0.00084436,-0.00000231,0.02979308,-0.09524827,-0.00003782
 ,-0.00462341,-0.02547000,0.00000620,-0.00601156,-0.00282427,-0.0000035
 1,-0.00097175,-0.00019667,0.00000105,0.07026373,0.85824014,-0.00000735
 ,0.00001435,0.02106174,0.00000096,0.00000223,0.00204016,-0.00000273,0.
 00000384,0.00968724,0.00000296,-0.00000116,0.00671118,0.00007317,-0.00
 004668,-0.07035549,-0.00000334,0.00000920,-0.00431442,-0.00000295,-0.0
 0000143,0.00211975,-0.00000070,0.00000092,-0.00294741,-0.00013924,0.00
 010854,0.10535057,-0.00566865,0.00921272,-0.00000394,0.01198121,-0.022
 58213,0.00000242,-0.00227307,-0.00249560,-0.00000279,-0.02593077,-0.01
 409950,0.00000481,0.00967714,0.02566180,0.00000977,-0.21571106,-0.0332
 4646,0.00002265,0.00173752,0.00003899,0.00000072,-0.00087268,0.0043399
 2,0.00000104,-0.12611501,0.00482920,0.00003641,0.60971690,0.00422802,0
 .00539008,-0.00000394,-0.04723950,-0.06551668,0.00000699,-0.00269275,-
 0.00084529,-0.00000221,0.00860472,0.01580223,0.00000400,0.00462963,-0.
 02546448,0.00000345,-0.02981448,-0.09525939,-0.00000889,0.00097210,-0.
 00019650,0.00000036,0.00601190,-0.00282243,-0.00000088,-0.00475380,-0.
 54587372,-0.00009400,-0.07030834,0.85821427,0.00000598,-0.00000701,0.0
 0204016,0.00000018,0.00000027,0.02106170,-0.00000384,-0.00000091,0.006
 71118,0.00000496,0.00000413,0.00968714,-0.00001011,-0.00000581,-0.0043
 1443,0.00002937,0.00000154,-0.07035543,0.00000026,0.00000148,-0.002947
 41,0.00000157,-0.00000114,0.00211976,0.00002879,-0.00009394,-0.0382432
 9,-0.00014118,0.00014287,0.10535061,0.00293994,-0.00087761,0.00000115,
 0.00033881,-0.00097446,0.00000011,-0.05926593,0.02534402,0.00000032,-0
 .02038722,-0.03404595,-0.00000596,-0.00351368,0.00839756,-0.00000085,-
 0.00035244,-0.00126373,-0.00000102,-0.29633324,-0.13341378,-0.00003092
 ,0.04333037,0.03097721,0.00000720,-0.00157522,-0.00000401,0.00000099,-
 0.00078166,-0.00096693,-0.00000044,0.73505069,-0.00067918,0.00016734,0
 .00000108,0.00242107,-0.00106847,-0.00000016,-0.02996453,0.07030283,0.
 00001312,-0.03128856,-0.05841329,-0.00001096,0.00597198,0.00047675,-0.
 00000290,-0.00438413,-0.00260034,-0.00000005,-0.05589951,-0.18859378,-
 0.00002583,0.08577643,-0.02444390,-0.00000178,-0.00023157,0.00279175,0
 .00000179,-0.00120658,-0.00105629,-0.00000030,-0.03107112,0.68081602,0
 .00000068,-0.00000091,-0.00071028,0.00000045,-0.00000018,0.00014302,-0
 .00001218,0.00001375,0.00549119,-0.00000564,-0.00001180,-0.00483630,0.
 00000172,0.00000033,0.00798445,-0.00000042,-0.00000068,-0.00182032,-0.
 00001346,-0.00002787,-0.06256315,0.00001717,-0.00000274,0.00486546,-0.
 00000137,0.00000123,-0.00120715,-0.00000031,-0.00000042,0.00077981,0.0
 0001491,0.00009162,0.13756796,0.00033906,0.00097471,0.00000007,0.00293
 965,0.00087810,0.00000016,-0.02039863,0.03405278,0.00000525,-0.0592667
 8,-0.02536703,-0.00000730,-0.00035346,0.00126412,0.00000105,-0.0035111
 0,-0.00839826,-0.00000190,0.04335109,-0.03096516,-0.00000412,-0.296367
 32,0.13339499,0.00001388,-0.00078205,0.00096697,0.00000057,-0.00157526
 ,0.00000323,0.00000015,-0.13438726,-0.03963409,-0.00001002,0.73503949,
 -0.00242083,-0.00106873,-0.00000122,0.00067967,0.00016761,-0.00000007,
 0.03129539,-0.05840163,-0.00000687,0.02994157,0.07030365,0.00001124,0.
 00438454,-0.00259934,0.00000162,-0.00597270,0.00047420,-0.00000054,-0.
 08576438,-0.02446458,-0.00000922,0.05588072,-0.18856030,-0.00001984,0.
 00120663,-0.00105590,-0.00000129,0.00023080,0.00279179,0.00000110,0.03
 966927,-0.33309038,-0.00004521,0.03108005,0.68082702,-0.00000054,0.000
 00002,0.00014301,0.00000067,0.00000003,-0.00071028,0.00000561,-0.00000
 768,-0.00483631,0.00000388,0.00001179,0.00549117,0.00000006,0.00000012
 ,-0.00182032,-0.00000153,-0.00000181,0.00798445,-0.00001353,-0.0000062
 4,0.00486545,-0.00000234,-0.00001716,-0.06256309,0.00000076,-0.0000010
 9,0.00077981,0.00000012,0.00000081,-0.00120715,0.00000382,-0.00004888,
 -0.06196695,0.00002985,0.00009457,0.13756799,-0.00050576,-0.00179705,-
 0.00000015,-0.00090077,0.00058160,0.00000002,0.00662229,0.02701966,0.0
 0000559,-0.00529617,0.00216149,0.00000040,0.00002678,0.00223542,0.0000
 0083,0.00181952,0.00114271,-0.00000003,-0.05834392,-0.00560421,-0.0000
 0251,-0.00143253,0.00000278,-0.00000025,0.00018249,-0.00038656,-0.0000
 0049,-0.00001206,-0.00016982,-0.00000002,0.00500171,-0.02666319,-0.000
 00565,-0.00447036,-0.00252832,-0.00000084,0.05652631,-0.00190972,0.001
 21728,-0.00000037,0.00027162,-0.00035242,0.00000002,-0.00014074,-0.012
 29804,-0.00000247,0.00277484,0.00074122,-0.00000096,-0.00089487,-0.002
 37551,0.00000063,-0.00070018,-0.00019276,-0.00000018,-0.00467645,-0.33
 938936,-0.00006144,-0.00028580,0.00077663,0.00000024,0.00012387,0.0000
 0068,0.00000004,0.00009067,0.00001003,-0.00000001,0.00279499,-0.007877
 02,-0.00000233,-0.00236033,0.00048414,-0.00000142,0.00493448,0.3592211
 9,-0.00000026,0.00000070,-0.00019024,0.00000010,0.00000013,-0.00042628
 ,0.00000218,-0.00000382,0.00366337,-0.00000011,0.,0.00721407,-0.000000
 64,-0.00000004,-0.00401017,-0.00000012,-0.00000005,0.00073366,-0.00000
 493,-0.00006065,-0.04011345,-0.00000123,0.,-0.00131105,0.00000016,0.00
 000035,0.00016457,0.00000004,-0.00000002,0.00003259,0.00000201,-0.0000
 0222,0.00437797,-0.00000027,-0.00000240,0.00767183,0.00000273,0.000067
 19,0.02731537,-0.00090062,-0.00058170,0.00000051,-0.00050640,0.0017967
 4,0.00000016,-0.00529530,-0.00216256,-0.00000162,0.00662705,-0.0270162
 7,-0.00000475,0.00181960,-0.00114235,-0.00000078,0.00002703,-0.0022349
 8,0.00000018,-0.00143258,-0.00000317,-0.00000007,-0.05834585,0.0056539
 5,0.00000160,-0.00001208,0.00016982,0.00000002,0.00018244,0.00038659,0
 .00000029,-0.00447123,0.00252744,0.00000019,0.00499747,0.02666548,0.00
 000475,0.00008974,-0.00001315,-0.00000004,0.05652813,-0.00027172,-0.00
 035257,0.00000016,0.00190939,0.00121794,0.00000009,-0.00277591,0.00074
 035,-0.00000127,0.00014409,-0.01230278,-0.00000264,0.00070054,-0.00019
 284,-0.00000012,0.00089530,-0.00237574,0.00000046,0.00028541,0.0007766
 8,0.00000026,0.00472624,-0.33938655,-0.00005321,-0.00009067,0.00001005
 ,-0.00000002,-0.00012384,0.00000073,0.00000004,0.00235946,0.00048501,-
 0.00000103,-0.00279270,-0.00787282,-0.00000217,0.00001318,-0.00008813,
 0.00000013,-0.00498811,0.35921845,-0.00000020,0.,-0.00042628,0.0000001
 6,0.00000021,-0.00019024,-0.00000042,-0.00000111,0.00721407,0.00000102
 ,-0.00000443,0.00366334,-0.00000007,0.00000006,0.00073366,-0.00000048,
 0.00000100,-0.00401017,0.00000039,0.00000022,-0.00131105,0.00000132,-0
 .00005336,-0.04011355,0.,-0.00000004,0.00003259,-0.00000002,0.00000009
 ,0.00016457,-0.00000044,-0.00000151,0.00767182,-0.00000097,-0.00000067
 ,0.00437798,0.00000008,0.00000017,-0.00082042,-0.00000057,0.00005860,0
 .02731549,0.00403714,0.00120430,-0.00000166,0.00055619,0.00003281,-0.0
 0000124,-0.00251958,0.00450594,0.00000379,0.00096572,0.00034034,-0.000
 00122,-0.01971714,-0.01926594,0.00000202,-0.00024375,0.00164269,0.0000
 0588,-0.00080977,-0.00119810,-0.00000050,-0.00013784,-0.00019855,0.000
 00004,-0.26069815,-0.12718448,0.00004476,0.00669386,0.00358255,0.00000
 220,-0.00025986,0.00037683,-0.00000003,0.00005389,-0.00008106,-0.00000
 003,0.00002345,0.00004182,0.00000013,-0.00006748,-0.00000998,-0.000000
 03,0.27146421,-0.00248476,0.00110493,0.00000060,-0.00193488,-0.0025222
 6,0.00000098,0.00242180,-0.00237556,-0.00000146,-0.00022070,-0.0002230
 0,0.00000061,0.01611468,0.01084670,-0.00000256,0.00444930,-0.00220767,
 -0.00000438,0.00050784,0.00075022,0.00000019,-0.00014542,0.00016702,-0
 .00000011,-0.12767245,-0.13389845,0.00001967,-0.02831734,-0.01111000,0
 .00000365,0.00022218,-0.00009029,-0.00000003,0.00002098,-0.00005847,0.
 00000005,-0.00002295,0.00001122,-0.00000006,0.00007212,0.00000329,0.00
 000002,0.13661864,0.13906061,-0.00000239,-0.00000252,-0.00153432,-0.00
 000214,-0.00000080,-0.00291237,0.00000150,-0.00000377,0.00244838,-0.00
 000152,-0.00000014,-0.00304672,0.00001282,0.00001333,0.00261119,0.0000
 0532,-0.00000448,0.01477886,0.00000086,0.00000076,0.00044962,0.0000004
 2,0.00000017,0.00010031,0.00004411,0.00001870,-0.03835124,-0.00000654,
 -0.00000351,0.00746389,0.00000005,-0.00000053,-0.00011062,-0.00000029,
 0.00000028,0.00010677,-0.00000002,0.00000001,0.00007283,0.00000006,0.0
 0000002,-0.00002157,-0.00005076,-0.00001876,0.02514496,0.00055585,-0.0
 0003226,-0.00000051,0.00403689,-0.00120377,-0.00000165,0.00096574,-0.0
 0034013,-0.00000065,-0.00251833,-0.00450596,0.00000049,-0.00024267,-0.
 00164234,0.00000246,-0.01971759,0.01926043,0.00000862,-0.00013790,0.00
 019849,0.00000009,-0.00080989,0.00119782,0.00000020,0.00668942,-0.0035
 7935,-0.00000280,-0.26074350,0.12716146,0.00008163,0.00005388,0.000081
 08,0.00000005,-0.00025975,-0.00037686,-0.00000020,-0.00006747,0.000009
 96,0.00000001,0.00002345,-0.00004182,0.00000005,0.00078433,0.00031218,
 -0.00000160,0.27151275,0.00193543,-0.00252193,0.00000111,0.00248529,0.
 00110515,-0.00000068,0.00022092,-0.00022302,0.00000026,-0.00242182,-0.
 00237680,0.00000023,-0.00444895,-0.00220874,-0.00000173,-0.01612010,0.
 01084728,0.00000551,0.00014536,0.00016708,0.00000023,-0.00050812,0.000
 75035,-0.00000002,0.02832052,-0.01110557,-0.00001602,0.12764938,-0.133
 85256,-0.00004588,-0.00002096,-0.00005846,-0.00000012,-0.00022221,-0.0
 0009040,-0.00000003,-0.00007213,0.00000327,0.00000001,0.00002295,0.000
 01121,0.,-0.00031213,0.00048340,0.00000116,-0.13659460,0.13901140,0.00
 000051,-0.00000307,-0.00291237,-0.00000142,0.00000102,-0.00153430,0.00
 000048,0.00000039,-0.00304674,-0.00000022,0.00000086,0.00244840,0.0000
 0221,-0.00000100,0.01477885,0.00000302,-0.00000631,0.00261112,0.000000
 44,-0.00000014,0.00010031,0.00000041,-0.00000056,0.00044962,0.00000720
 ,-0.00000397,0.00746387,0.00007702,-0.00004466,-0.03835123,-0.00000011
 ,-0.00000019,0.00010676,-0.00000002,0.00000025,-0.00011062,0.00000004,
 0.,-0.00002157,-0.00000008,-0.00000003,0.00007283,-0.00000332,0.000001
 53,-0.00711016,-0.00008619,0.00005592,0.02514504,0.00000423,-0.0005147
 9,0.00000016,0.00005028,0.00009051,-0.00000002,-0.00345607,-0.00372512
 ,-0.00000179,0.00042681,-0.00108325,-0.00000014,-0.00026638,0.00175893
 ,0.00000030,-0.00025331,-0.00002568,0.00000001,-0.01753171,0.01565100,
 0.00000184,0.00173689,-0.00058047,-0.00000003,-0.00035687,-0.00035474,
 -0.00000016,0.00005165,0.00001068,0.00000010,-0.26941531,0.12119395,0.
 00001359,0.00402312,-0.00267135,-0.00000049,0.00066058,-0.00027503,0.0
 0000017,0.00007599,-0.00021392,-0.00000003,-0.00013113,0.00007977,0.00
 000011,0.00000590,0.00002098,-0.00000001,0.28382972,0.00015910,-0.0000
 9589,0.00000007,0.00020416,0.00015922,0.00000001,-0.00346862,-0.000823
 92,-0.00000201,-0.00116438,-0.00098162,0.,-0.00067160,0.00083959,-0.00
 000002,-0.00001565,-0.00021615,0.00000017,-0.01511936,0.01189241,0.000
 00073,-0.00074699,-0.00592067,-0.00000215,-0.00025771,-0.00017419,0.00
 000004,0.00006863,-0.00003771,-0.00000004,0.12114956,-0.12847806,-0.00
 001036,0.02827810,-0.00926489,-0.00000128,0.00045588,0.00053221,0.0000
 0090,0.00130305,-0.00042446,0.,-0.00007803,0.00004396,0.00000007,0.000
 01766,0.00001437,-0.00000003,-0.12973763,0.13238153,0.00000010,0.00000
 016,0.00009089,-0.00000011,0.,0.00016759,-0.00000089,-0.00000138,0.007
 81874,-0.00000037,-0.00000027,-0.00099500,-0.00000005,-0.00000030,0.00
 017741,0.00000017,0.00000032,-0.00131239,-0.00000327,0.00000156,0.0042
 2649,0.00000005,-0.00000207,0.00749020,-0.00000004,0.00000010,-0.00020
 921,-0.00000008,-0.00000006,0.00021673,0.00001322,-0.00001099,-0.03991
 179,0.00000436,-0.00000187,0.00413813,0.00000031,0.00000084,-0.0041712
 1,0.00000023,-0.00000006,-0.00018187,-0.00000005,0.00000005,-0.0001180
 9,0.00000001,0.,0.00002828,-0.00001372,0.00001322,0.02637462,0.0000503
 3,-0.00009053,0.00000005,0.00000417,0.00051481,0.00000003,0.00042641,0
 .00108350,0.00000026,-0.00345735,0.00372465,0.00000015,-0.00025332,0.0
 0002567,0.,-0.00026619,-0.00175912,-0.00000030,0.00173666,0.00058183,-
 0.00000023,-0.01753162,-0.01565622,-0.00000330,0.00005167,-0.00001066,
 -0.00000006,-0.00035698,0.00035471,0.00000012,0.00402766,0.00267370,0.
 00000035,-0.26937181,-0.12121862,-0.00003003,0.00007618,0.00021401,0.0
 0000007,0.00066061,0.00027505,0.00000021,0.00000591,-0.00002098,0.,-0.
 00013113,-0.00007980,0.00000004,0.00054563,-0.00037618,0.00000014,0.28
 378320,-0.00020418,0.00015916,-0.00000003,-0.00015908,-0.00009583,-0.0
 0000002,0.00116463,-0.00098122,-0.00000020,0.00346815,-0.00082264,-0.0
 0000114,0.00001564,-0.00021614,0.00000027,0.00067140,0.00083939,0.0000
 0011,0.00074835,-0.00592043,-0.00000212,0.01511413,0.01189230,0.000001
 70,-0.00006861,-0.00003773,-0.00000002,0.00025767,-0.00017408,-0.00000
 002,-0.02827572,-0.00926942,-0.00000325,-0.12117426,-0.12852096,-0.000
 01963,-0.00130296,-0.00042465,-0.00000016,-0.00045585,0.00053218,0.000
 00076,-0.00001766,0.00001437,0.,0.00007800,0.00004396,0.,0.00037618,0.
 00055429,0.00000075,0.12976419,0.13242745,-0.00000006,0.00000006,0.000
 16759,-0.00000013,0.00000003,0.00009089,0.00000032,0.00000011,-0.00099
 500,-0.00000036,-0.00000231,0.00781873,0.,0.00000009,-0.00131239,0.000
 00023,0.00000015,0.00017742,-0.00000091,-0.00000181,0.00749019,0.00000
 292,0.00000023,0.00422649,0.00000006,0.00000003,0.00021673,-0.00000014
 ,0.00000003,-0.00020921,-0.00000404,-0.00000131,0.00413812,-0.00003044
 ,-0.00001985,-0.03991187,-0.00000004,0.00000003,-0.00018187,-0.0000000
 8,0.00000079,-0.00417121,0.00000002,0.,0.00002828,0.,0.00000004,-0.000
 11809,0.00000011,0.00000067,-0.00382951,0.00003253,0.00002302,0.026374
 71\\0.00000185,-0.00006349,0.00004850,0.00000176,0.00006497,-0.0000018
 1,0.00004748,-0.00002518,0.00003560,0.00004833,0.00002498,0.00000851,-
 0.00001751,-0.00003300,-0.00013435,-0.00001774,0.00003143,0.00000564,-
 0.00005970,-0.00001059,0.00000593,-0.00005930,0.00001024,-0.00000651,-
 0.00000269,0.00011284,0.00004329,-0.00000312,-0.00011276,0.00000378,0.
 00003917,0.00008427,-0.00000274,0.00003899,-0.00008421,0.00000092,-0.0
 0000203,-0.00001382,-0.00000033,-0.00000195,0.00001413,-0.00000058,0.0
 0001027,-0.00000290,0.00000154,0.00000999,0.00000295,-0.00000767,-0.00
 001697,-0.00000264,-0.00000088,-0.00001680,0.00000277,0.00000113\\\@


 ALL MEN WHO EXPLORE
 DEPLORE
 THAT FRUSTRATING HURDLE
 THE GIRDLE.

         -- COLIN FLETCHER
 Job cpu time:       0 days  2 hours 33 minutes 33.9 seconds.
 Elapsed time:       0 days  0 hours  9 minutes 42.1 seconds.
 File lengths (MBytes):  RWF=    163 Int=      0 D2E=      0 Chk=      9 Scr=      1
 Normal termination of Gaussian 16 at Thu Sep 18 02:42:51 2025.
