 Entering Gaussian System, Link 0=g16
 Input=ALTE0087.gjf
 Output=ALTE0087.log
 Initial command:
 /usr/local/g16/l1.exe "/dados_01/scratch/Gau-1903063.inp" -scrdir="/dados_01/scratch/"
 Entering Link 1 = /usr/local/g16/l1.exe PID=   1903064.
  
 Copyright (c) 1988-2017, Gaussian, Inc.  All Rights Reserved.
  
 This is part of the Gaussian(R) 16 program.  It is based on
 the Gaussian(R) 09 system (copyright 2009, Gaussian, Inc.),
 the Gaussian(R) 03 system (copyright 2003, Gaussian, Inc.),
 the Gaussian(R) 98 system (copyright 1998, Gaussian, Inc.),
 the Gaussian(R) 94 system (copyright 1995, Gaussian, Inc.),
 the Gaussian 92(TM) system (copyright 1992, Gaussian, Inc.),
 the Gaussian 90(TM) system (copyright 1990, Gaussian, Inc.),
 the Gaussian 88(TM) system (copyright 1988, Gaussian, Inc.),
 the Gaussian 86(TM) system (copyright 1986, Carnegie Mellon
 University), and the Gaussian 82(TM) system (copyright 1983,
 Carnegie Mellon University). Gaussian is a federally registered
 trademark of Gaussian, Inc.
  
 This software contains proprietary and confidential information,
 including trade secrets, belonging to Gaussian, Inc.
  
 This software is provided under written license and may be
 used, copied, transmitted, or stored only in accord with that
 written license.
  
 The following legend is applicable only to US Government
 contracts under FAR:
  
                    RESTRICTED RIGHTS LEGEND
  
 Use, reproduction and disclosure by the US Government is
 subject to restrictions as set forth in subparagraphs (a)
 and (c) of the Commercial Computer Software - Restricted
 Rights clause in FAR 52.227-19.
  
 Gaussian, Inc.
 340 Quinnipiac St., Bldg. 40, Wallingford CT 06492
  
  
 ---------------------------------------------------------------
 Warning -- This program may not be used in any manner that
 competes with the business of Gaussian, Inc. or will provide
 assistance to any competitor of Gaussian, Inc.  The licensee
 of this program is prohibited from giving any competitor of
 Gaussian, Inc. access to this program.  By using this program,
 the user acknowledges that Gaussian, Inc. is engaged in the
 business of creating and licensing software in the field of
 computational chemistry and represents and warrants to the
 licensee that it is not a competitor of Gaussian, Inc. and that
 it will not use this program in any manner prohibited above.
 ---------------------------------------------------------------
  

 Cite this work as:
 Gaussian 16, Revision B.01,
 M. J. Frisch, G. W. Trucks, H. B. Schlegel, G. E. Scuseria, 
 M. A. Robb, J. R. Cheeseman, G. Scalmani, V. Barone, 
 G. A. Petersson, H. Nakatsuji, X. Li, M. Caricato, A. V. Marenich, 
 J. Bloino, B. G. Janesko, R. Gomperts, B. Mennucci, H. P. Hratchian, 
 J. V. Ortiz, A. F. Izmaylov, J. L. Sonnenberg, D. Williams-Young, 
 F. Ding, F. Lipparini, F. Egidi, J. Goings, B. Peng, A. Petrone, 
 T. Henderson, D. Ranasinghe, V. G. Zakrzewski, J. Gao, N. Rega, 
 G. Zheng, W. Liang, M. Hada, M. Ehara, K. Toyota, R. Fukuda, 
 J. Hasegawa, M. Ishida, T. Nakajima, Y. Honda, O. Kitao, H. Nakai, 
 T. Vreven, K. Throssell, J. A. Montgomery, Jr., J. E. Peralta, 
 F. Ogliaro, M. J. Bearpark, J. J. Heyd, E. N. Brothers, K. N. Kudin, 
 V. N. Staroverov, T. A. Keith, R. Kobayashi, J. Normand, 
 K. Raghavachari, A. P. Rendell, J. C. Burant, S. S. Iyengar, 
 J. Tomasi, M. Cossi, J. M. Millam, M. Klene, C. Adamo, R. Cammi, 
 J. W. Ochterski, R. L. Martin, K. Morokuma, O. Farkas, 
 J. B. Foresman, and D. J. Fox, Gaussian, Inc., Wallingford CT, 2016.
 
 ******************************************
 Gaussian 16:  ES64L-G16RevB.01 20-Dec-2017
                18-Sep-2025 
 ******************************************
 %nprocs=16
 Will use up to   16 processors via shared memory.
 %mem=40GB
 %chk=ALTE0087.chk
 ----------------------------------------------------------------------
 # opt freq=noraman M08HX/6-311++G** scf=xqc Empiricaldispersion=pfd In
 t(Grid=ultraFine)
 ----------------------------------------------------------------------
 1/18=20,19=15,26=4,38=1/1,3;
 2/9=110,12=2,17=6,18=5,40=1/2;
 3/5=4,6=6,7=1111,11=2,25=1,30=1,71=1,74=-74,75=-5,124=11/1,2,3;
 4//1;
 5/5=2,8=3,13=1,38=5/2,8;
 6/7=2,8=2,9=2,10=2,28=1/1;
 7//1,2,3,16;
 1/18=20,19=15,26=4/3(2);
 2/9=110/2;
 99//99;
 2/9=110/2;
 3/5=4,6=6,7=1111,11=2,25=1,30=1,71=1,74=-74,75=-5,124=11/1,2,3;
 4/5=5,16=3,69=1/1;
 5/5=2,8=3,13=1,38=5/2,8;
 7//1,2,3,16;
 1/18=20,19=15,26=4/3(-5);
 2/9=110/2;
 6/7=2,8=2,9=2,10=2,19=2,28=1/1;
 99/9=1/99;
 --------
 ALTE0087
 --------
 Symbolic Z-matrix:
 Charge =  0 Multiplicity = 1
 O                    -2.1424    0.1465   -1.374 
 C                    -0.4981   -0.0185    0.3677 
 C                    -1.9892    0.0047    0.0391 
 C                     0.1872   -1.2387   -0.2557 
 C                     0.185     1.2743   -0.1063 
 C                     1.6716   -1.292     0.1189 
 C                     2.367     0.0437    0.035 
 C                     1.6834    1.1951   -0.0814 
 C                    -2.6806    1.1839    0.7229 
 C                    -2.6498   -1.3121    0.4428 
 C                     3.8658    0.0132    0.0909 
 H                    -0.3772   -0.0898    1.459 
 H                     0.0954   -1.2109   -1.3493 
 H                    -0.2587   -2.1801    0.0798 
 H                    -0.1099    2.104     0.5468 
 H                    -0.114     1.544    -1.1257 
 H                     2.1691   -2.0127   -0.5413 
 H                     1.7744   -1.6707    1.1437 
 H                     2.2201    2.1369   -0.1596 
 H                    -2.5109    1.1819    1.8046 
 H                    -3.7633    1.1487    0.5513 
 H                    -2.3551    2.1452    0.312 
 H                    -2.3736   -2.1391   -0.2197 
 H                    -2.4218   -1.5829    1.4789 
 H                    -3.7406   -1.2352    0.3537 
 H                    -3.0943    0.1654   -1.5725 
 H                     4.2006   -0.4498    1.0248 
 H                     4.3018    1.0166    0.0414 
 H                     4.2657   -0.5659   -0.7476 
 

 GradGradGradGradGradGradGradGradGradGradGradGradGradGradGradGradGradGrad
 Berny optimization.
 Initialization pass.
                           ----------------------------
                           !    Initial Parameters    !
                           ! (Angstroms and Degrees)  !
 --------------------------                            --------------------------
 ! Name  Definition              Value          Derivative Info.                !
 --------------------------------------------------------------------------------
 ! R1    R(1,3)                  1.4284         estimate D2E/DX2                !
 ! R2    R(1,26)                 0.9726         estimate D2E/DX2                !
 ! R3    R(2,3)                  1.5271         estimate D2E/DX2                !
 ! R4    R(2,4)                  1.532          estimate D2E/DX2                !
 ! R5    R(2,5)                  1.5371         estimate D2E/DX2                !
 ! R6    R(2,12)                 1.1003         estimate D2E/DX2                !
 ! R7    R(3,9)                  1.5284         estimate D2E/DX2                !
 ! R8    R(3,10)                 1.5275         estimate D2E/DX2                !
 ! R9    R(4,6)                  1.5319         estimate D2E/DX2                !
 ! R10   R(4,13)                 1.0978         estimate D2E/DX2                !
 ! R11   R(4,14)                 1.0944         estimate D2E/DX2                !
 ! R12   R(5,8)                  1.5007         estimate D2E/DX2                !
 ! R13   R(5,15)                 1.0963         estimate D2E/DX2                !
 ! R14   R(5,16)                 1.096          estimate D2E/DX2                !
 ! R15   R(6,7)                  1.5082         estimate D2E/DX2                !
 ! R16   R(6,17)                 1.0967         estimate D2E/DX2                !
 ! R17   R(6,18)                 1.0974         estimate D2E/DX2                !
 ! R18   R(7,8)                  1.3441         estimate D2E/DX2                !
 ! R19   R(7,11)                 1.5002         estimate D2E/DX2                !
 ! R20   R(8,19)                 1.0868         estimate D2E/DX2                !
 ! R21   R(9,20)                 1.0949         estimate D2E/DX2                !
 ! R22   R(9,21)                 1.0968         estimate D2E/DX2                !
 ! R23   R(9,22)                 1.0949         estimate D2E/DX2                !
 ! R24   R(10,23)                1.095          estimate D2E/DX2                !
 ! R25   R(10,24)                1.0949         estimate D2E/DX2                !
 ! R26   R(10,25)                1.0971         estimate D2E/DX2                !
 ! R27   R(11,27)                1.0948         estimate D2E/DX2                !
 ! R28   R(11,28)                1.0952         estimate D2E/DX2                !
 ! R29   R(11,29)                1.0947         estimate D2E/DX2                !
 ! A1    A(3,1,26)             107.9875         estimate D2E/DX2                !
 ! A2    A(3,2,4)              111.1812         estimate D2E/DX2                !
 ! A3    A(3,2,5)              110.782          estimate D2E/DX2                !
 ! A4    A(3,2,12)             108.7661         estimate D2E/DX2                !
 ! A5    A(4,2,5)              110.2186         estimate D2E/DX2                !
 ! A6    A(4,2,12)             107.6272         estimate D2E/DX2                !
 ! A7    A(5,2,12)             108.1513         estimate D2E/DX2                !
 ! A8    A(1,3,2)              108.609          estimate D2E/DX2                !
 ! A9    A(1,3,9)              108.5105         estimate D2E/DX2                !
 ! A10   A(1,3,10)             107.496          estimate D2E/DX2                !
 ! A11   A(2,3,9)              110.9257         estimate D2E/DX2                !
 ! A12   A(2,3,10)             110.629          estimate D2E/DX2                !
 ! A13   A(9,3,10)             110.5614         estimate D2E/DX2                !
 ! A14   A(2,4,6)              111.2021         estimate D2E/DX2                !
 ! A15   A(2,4,13)             110.3515         estimate D2E/DX2                !
 ! A16   A(2,4,14)             112.2178         estimate D2E/DX2                !
 ! A17   A(6,4,13)             108.9968         estimate D2E/DX2                !
 ! A18   A(6,4,14)             106.8537         estimate D2E/DX2                !
 ! A19   A(13,4,14)            107.0443         estimate D2E/DX2                !
 ! A20   A(2,5,8)              113.2178         estimate D2E/DX2                !
 ! A21   A(2,5,15)             109.468          estimate D2E/DX2                !
 ! A22   A(2,5,16)             111.8721         estimate D2E/DX2                !
 ! A23   A(8,5,15)             107.3757         estimate D2E/DX2                !
 ! A24   A(8,5,16)             107.5056         estimate D2E/DX2                !
 ! A25   A(15,5,16)            107.1251         estimate D2E/DX2                !
 ! A26   A(4,6,7)              113.7265         estimate D2E/DX2                !
 ! A27   A(4,6,17)             108.3747         estimate D2E/DX2                !
 ! A28   A(4,6,18)             109.3388         estimate D2E/DX2                !
 ! A29   A(7,6,17)             109.8364         estimate D2E/DX2                !
 ! A30   A(7,6,18)             108.3237         estimate D2E/DX2                !
 ! A31   A(17,6,18)            107.0316         estimate D2E/DX2                !
 ! A32   A(6,7,8)              121.9358         estimate D2E/DX2                !
 ! A33   A(6,7,11)             116.1409         estimate D2E/DX2                !
 ! A34   A(8,7,11)             121.9232         estimate D2E/DX2                !
 ! A35   A(5,8,7)              123.6738         estimate D2E/DX2                !
 ! A36   A(5,8,19)             116.4968         estimate D2E/DX2                !
 ! A37   A(7,8,19)             119.8289         estimate D2E/DX2                !
 ! A38   A(3,9,20)             111.7439         estimate D2E/DX2                !
 ! A39   A(3,9,21)             110.597          estimate D2E/DX2                !
 ! A40   A(3,9,22)             112.0229         estimate D2E/DX2                !
 ! A41   A(20,9,21)            107.909          estimate D2E/DX2                !
 ! A42   A(20,9,22)            109.0424         estimate D2E/DX2                !
 ! A43   A(21,9,22)            105.2436         estimate D2E/DX2                !
 ! A44   A(3,10,23)            112.4617         estimate D2E/DX2                !
 ! A45   A(3,10,24)            111.9157         estimate D2E/DX2                !
 ! A46   A(3,10,25)            110.3701         estimate D2E/DX2                !
 ! A47   A(23,10,24)           109.4628         estimate D2E/DX2                !
 ! A48   A(23,10,25)           104.7483         estimate D2E/DX2                !
 ! A49   A(24,10,25)           107.5309         estimate D2E/DX2                !
 ! A50   A(7,11,27)            110.2375         estimate D2E/DX2                !
 ! A51   A(7,11,28)            112.1756         estimate D2E/DX2                !
 ! A52   A(7,11,29)            110.3156         estimate D2E/DX2                !
 ! A53   A(27,11,28)           107.7148         estimate D2E/DX2                !
 ! A54   A(27,11,29)           108.5392         estimate D2E/DX2                !
 ! A55   A(28,11,29)           107.7358         estimate D2E/DX2                !
 ! D1    D(26,1,3,2)          -179.6778         estimate D2E/DX2                !
 ! D2    D(26,1,3,9)           -59.0039         estimate D2E/DX2                !
 ! D3    D(26,1,3,10)           60.5916         estimate D2E/DX2                !
 ! D4    D(4,2,3,1)            -63.7533         estimate D2E/DX2                !
 ! D5    D(4,2,3,9)            177.077          estimate D2E/DX2                !
 ! D6    D(4,2,3,10)            54.0032         estimate D2E/DX2                !
 ! D7    D(5,2,3,1)             59.1685         estimate D2E/DX2                !
 ! D8    D(5,2,3,9)            -60.0013         estimate D2E/DX2                !
 ! D9    D(5,2,3,10)           176.925          estimate D2E/DX2                !
 ! D10   D(12,2,3,1)           177.9098         estimate D2E/DX2                !
 ! D11   D(12,2,3,9)            58.7401         estimate D2E/DX2                !
 ! D12   D(12,2,3,10)          -64.3337         estimate D2E/DX2                !
 ! D13   D(3,2,4,6)           -177.7833         estimate D2E/DX2                !
 ! D14   D(3,2,4,13)            61.1332         estimate D2E/DX2                !
 ! D15   D(3,2,4,14)           -58.1554         estimate D2E/DX2                !
 ! D16   D(5,2,4,6)             58.9716         estimate D2E/DX2                !
 ! D17   D(5,2,4,13)           -62.1118         estimate D2E/DX2                !
 ! D18   D(5,2,4,14)           178.5996         estimate D2E/DX2                !
 ! D19   D(12,2,4,6)           -58.762          estimate D2E/DX2                !
 ! D20   D(12,2,4,13)         -179.8455         estimate D2E/DX2                !
 ! D21   D(12,2,4,14)           60.8659         estimate D2E/DX2                !
 ! D22   D(3,2,5,8)           -167.6869         estimate D2E/DX2                !
 ! D23   D(3,2,5,15)            72.5579         estimate D2E/DX2                !
 ! D24   D(3,2,5,16)           -46.0257         estimate D2E/DX2                !
 ! D25   D(4,2,5,8)            -44.2093         estimate D2E/DX2                !
 ! D26   D(4,2,5,15)          -163.9644         estimate D2E/DX2                !
 ! D27   D(4,2,5,16)            77.4519         estimate D2E/DX2                !
 ! D28   D(12,2,5,8)            73.2003         estimate D2E/DX2                !
 ! D29   D(12,2,5,15)          -46.5548         estimate D2E/DX2                !
 ! D30   D(12,2,5,16)         -165.1384         estimate D2E/DX2                !
 ! D31   D(1,3,9,20)          -174.3389         estimate D2E/DX2                !
 ! D32   D(1,3,9,21)            65.4255         estimate D2E/DX2                !
 ! D33   D(1,3,9,22)           -51.6394         estimate D2E/DX2                !
 ! D34   D(2,3,9,20)           -55.11           estimate D2E/DX2                !
 ! D35   D(2,3,9,21)          -175.3456         estimate D2E/DX2                !
 ! D36   D(2,3,9,22)            67.5895         estimate D2E/DX2                !
 ! D37   D(10,3,9,20)           68.0028         estimate D2E/DX2                !
 ! D38   D(10,3,9,21)          -52.2328         estimate D2E/DX2                !
 ! D39   D(10,3,9,22)         -169.2977         estimate D2E/DX2                !
 ! D40   D(1,3,10,23)           46.0825         estimate D2E/DX2                !
 ! D41   D(1,3,10,24)          169.7907         estimate D2E/DX2                !
 ! D42   D(1,3,10,25)          -70.4917         estimate D2E/DX2                !
 ! D43   D(2,3,10,23)          -72.3535         estimate D2E/DX2                !
 ! D44   D(2,3,10,24)           51.3547         estimate D2E/DX2                !
 ! D45   D(2,3,10,25)          171.0723         estimate D2E/DX2                !
 ! D46   D(9,3,10,23)          164.3618         estimate D2E/DX2                !
 ! D47   D(9,3,10,24)          -71.9301         estimate D2E/DX2                !
 ! D48   D(9,3,10,25)           47.7875         estimate D2E/DX2                !
 ! D49   D(2,4,6,7)            -43.2184         estimate D2E/DX2                !
 ! D50   D(2,4,6,17)          -165.669          estimate D2E/DX2                !
 ! D51   D(2,4,6,18)            77.993          estimate D2E/DX2                !
 ! D52   D(13,4,6,7)            78.6561         estimate D2E/DX2                !
 ! D53   D(13,4,6,17)          -43.7944         estimate D2E/DX2                !
 ! D54   D(13,4,6,18)         -160.1325         estimate D2E/DX2                !
 ! D55   D(14,4,6,7)          -165.9906         estimate D2E/DX2                !
 ! D56   D(14,4,6,17)           71.5589         estimate D2E/DX2                !
 ! D57   D(14,4,6,18)          -44.7791         estimate D2E/DX2                !
 ! D58   D(2,5,8,7)             14.705          estimate D2E/DX2                !
 ! D59   D(2,5,8,19)          -165.0454         estimate D2E/DX2                !
 ! D60   D(15,5,8,7)           135.6504         estimate D2E/DX2                !
 ! D61   D(15,5,8,19)          -44.1            estimate D2E/DX2                !
 ! D62   D(16,5,8,7)          -109.3749         estimate D2E/DX2                !
 ! D63   D(16,5,8,19)           70.8746         estimate D2E/DX2                !
 ! D64   D(4,6,7,8)             13.1097         estimate D2E/DX2                !
 ! D65   D(4,6,7,11)          -166.973          estimate D2E/DX2                !
 ! D66   D(17,6,7,8)           134.7514         estimate D2E/DX2                !
 ! D67   D(17,6,7,11)          -45.3312         estimate D2E/DX2                !
 ! D68   D(18,6,7,8)          -108.6668         estimate D2E/DX2                !
 ! D69   D(18,6,7,11)           71.2505         estimate D2E/DX2                !
 ! D70   D(6,7,8,5)              1.5068         estimate D2E/DX2                !
 ! D71   D(6,7,8,19)          -178.7507         estimate D2E/DX2                !
 ! D72   D(11,7,8,5)          -178.4058         estimate D2E/DX2                !
 ! D73   D(11,7,8,19)            1.3368         estimate D2E/DX2                !
 ! D74   D(6,7,11,27)          -59.0341         estimate D2E/DX2                !
 ! D75   D(6,7,11,28)         -179.0654         estimate D2E/DX2                !
 ! D76   D(6,7,11,29)           60.8231         estimate D2E/DX2                !
 ! D77   D(8,7,11,27)          120.8832         estimate D2E/DX2                !
 ! D78   D(8,7,11,28)            0.8519         estimate D2E/DX2                !
 ! D79   D(8,7,11,29)         -119.2595         estimate D2E/DX2                !
 --------------------------------------------------------------------------------
 Trust Radius=3.00D-01 FncErr=1.00D-07 GrdErr=1.00D-06 EigMax=2.50D+02 EigMin=1.00D-04
 Number of steps in this run=    173 maximum allowed number of steps=    174.
 GradGradGradGradGradGradGradGradGradGradGradGradGradGradGradGradGradGrad

                          Input orientation:                          
 ---------------------------------------------------------------------
 Center     Atomic      Atomic             Coordinates (Angstroms)
 Number     Number       Type             X           Y           Z
 ---------------------------------------------------------------------
      1          8           0       -2.142400    0.146500   -1.374000
      2          6           0       -0.498100   -0.018500    0.367700
      3          6           0       -1.989200    0.004700    0.039100
      4          6           0        0.187200   -1.238700   -0.255700
      5          6           0        0.185000    1.274300   -0.106300
      6          6           0        1.671600   -1.292000    0.118900
      7          6           0        2.367000    0.043700    0.035000
      8          6           0        1.683400    1.195100   -0.081400
      9          6           0       -2.680600    1.183900    0.722900
     10          6           0       -2.649800   -1.312100    0.442800
     11          6           0        3.865800    0.013200    0.090900
     12          1           0       -0.377200   -0.089800    1.459000
     13          1           0        0.095400   -1.210900   -1.349300
     14          1           0       -0.258700   -2.180100    0.079800
     15          1           0       -0.109900    2.104000    0.546800
     16          1           0       -0.114000    1.544000   -1.125700
     17          1           0        2.169100   -2.012700   -0.541300
     18          1           0        1.774400   -1.670700    1.143700
     19          1           0        2.220100    2.136900   -0.159600
     20          1           0       -2.510900    1.181900    1.804600
     21          1           0       -3.763300    1.148700    0.551300
     22          1           0       -2.355100    2.145200    0.312000
     23          1           0       -2.373600   -2.139100   -0.219700
     24          1           0       -2.421800   -1.582900    1.478900
     25          1           0       -3.740600   -1.235200    0.353700
     26          1           0       -3.094300    0.165400   -1.572500
     27          1           0        4.200600   -0.449800    1.024800
     28          1           0        4.301800    1.016600    0.041400
     29          1           0        4.265700   -0.565900   -0.747600
 ---------------------------------------------------------------------
                    Distance matrix (angstroms):
                    1          2          3          4          5
     1  O    0.000000
     2  C    2.400930   0.000000
     3  C    1.428436   1.527054   0.000000
     4  C    2.931964   1.532042   2.523820   0.000000
     5  C    2.880241   1.537086   2.521938   2.517438   0.000000
     6  C    4.341040   2.528102   3.884489   1.531865   2.974322
     7  C    4.725520   2.885023   4.356377   2.545699   2.509077
     8  C    4.172184   2.536426   3.862585   2.862233   1.500698
     9  C    2.400593   2.516990   1.528440   3.879552   2.984528
    10  C    2.384477   2.511743   1.527524   2.922646   3.876476
    11  C    6.185642   4.372785   5.855235   3.901216   3.895837
    12  H    3.346290   1.100289   2.150254   2.139793   2.151047
    13  H    2.617421   2.173051   2.784043   1.097798   2.780161
    14  H    3.327901   2.193790   2.787407   1.094359   3.487747
    15  H    3.413552   2.165129   2.862968   3.450495   1.096316
    16  H    2.475695   2.195264   2.691204   2.931048   1.096045
    17  H    4.893319   3.452111   4.658135   2.146758   3.863968
    18  H    4.998235   2.914824   4.265184   2.159664   3.572355
    19  H    4.946500   3.508904   4.722707   3.941649   2.211007
    20  H    3.363234   2.749001   2.185168   4.169399   3.305746
    21  H    2.708967   3.472405   2.172214   4.685870   4.004658
    22  H    2.623478   2.851868   2.188629   4.270404   2.717637
    23  H    2.570959   2.891277   2.193312   2.714721   4.267387
    24  H    3.347824   2.717119   2.186468   3.151855   4.179935
    25  H    2.729155   3.463288   2.168808   3.974795   4.681829
    26  H    0.972560   3.246298   1.960695   3.804432   3.759416
    27  H    6.807603   4.763988   6.284250   4.285956   4.514084
    28  H    6.654934   4.921071   6.371862   4.701551   4.127501
    29  H    6.477935   4.923142   6.329949   4.162786   4.522136
                    6          7          8          9         10
     6  C    0.000000
     7  C    1.508216   0.000000
     8  C    2.495181   1.344091   0.000000
     9  C    5.043465   5.220300   4.437513   0.000000
    10  C    4.333568   5.212751   5.033633   2.511856   0.000000
    11  C    2.553203   1.500152   2.487859   6.680218   6.658325
    12  H    2.727404   3.094549   2.875739   2.733095   2.773336
    13  H    2.155596   2.941169   3.149310   4.211325   3.279937
    14  H    2.125161   3.441162   3.897398   4.194720   2.569543
    15  H    3.858712   3.262179   2.106338   2.736073   4.258127
    16  H    3.574953   3.123057   2.107828   3.183462   4.128896
    17  H    1.096713   2.144777   3.276796   5.944413   4.968007
    18  H    1.097359   2.125925   3.118006   5.307809   4.493707
    19  H    3.483643   2.107353   1.086807   5.069899   5.997867
    20  H    5.143449   5.312334   4.598839   1.094932   2.844965
    21  H    5.973452   6.250453   5.483521   1.096779   2.703182
    22  H    5.297730   5.176027   4.167366   1.094937   3.472302
    23  H    4.146790   5.225206   5.253120   3.467719   1.095044
    24  H    4.323210   5.259589   5.196584   2.879878   1.094906
    25  H    5.417589   6.248194   5.959484   2.666825   1.097131
    26  H    5.262951   5.694266   5.109802   2.545064   2.538114
    27  H    2.815279   2.141340   3.204008   7.078915   6.928944
    28  H    3.500513   2.165647   2.627349   7.017574   7.342255
    29  H    2.829735   2.142227   3.195812   7.312678   7.056770
                   11         12         13         14         15
    11  C    0.000000
    12  H    4.459300   0.000000
    13  H    4.217643   3.060517   0.000000
    14  H    4.671423   2.507108   1.762686   0.000000
    15  H    4.515028   2.390882   3.824383   4.312046   0.000000
    16  H    4.434216   3.069080   2.771880   3.917026   1.763767
    17  H    2.717120   3.765951   2.365582   2.511573   4.829598
    18  H    2.884070   2.688502   3.040642   2.350504   4.260896
    19  H    2.698366   3.784710   4.139746   4.983799   2.434950
    20  H    6.705589   2.507855   4.739765   4.398907   2.863063
    21  H    7.726868   3.717993   4.906074   4.856485   3.776235
    22  H    6.579810   3.197331   4.475296   4.812175   2.257820
    23  H    6.607494   3.317119   2.869410   2.136395   4.869883
    24  H    6.633852   2.531824   3.804392   2.644453   4.450497
    25  H    7.712645   3.721033   4.197106   3.618216   4.936550
    26  H    7.157727   4.078940   3.481121   4.033868   4.142010
    27  H    1.094819   4.612416   4.802946   4.875687   5.032970
    28  H    1.095152   5.012659   4.958791   5.569428   4.571757
    29  H    1.094696   5.162584   4.262566   4.874467   5.286749
                   16         17         18         19         20
    16  H    0.000000
    17  H    4.266636   0.000000
    18  H    4.364691   1.764080   0.000000
    19  H    2.594784   4.167430   4.049081   0.000000
    20  H    3.803013   6.132790   5.190175   5.210803   0.000000
    21  H    4.035589   6.810403   6.242281   6.105980   1.772109
    22  H    2.729643   6.203599   5.683800   4.599449   1.783277
    23  H    4.414958   4.555823   4.391374   6.276135   3.891745
    24  H    4.678396   5.034114   4.210482   6.169994   2.785343
    25  H    4.802583   6.027444   5.588290   6.867640   3.075654
    26  H    3.313964   5.788858   5.869689   5.841742   3.574693
    27  H    5.216863   3.003717   2.718673   3.466439   6.950882
    28  H    4.597778   3.750281   3.850246   2.372540   7.039111
    29  H    4.876106   2.555684   3.317254   3.440255   7.449217
                   21         22         23         24         25
    21  H    0.000000
    22  H    1.741638   0.000000
    23  H    3.651758   4.317207   0.000000
    24  H    3.181462   3.907024   1.787994   0.000000
    25  H    2.392183   3.653554   1.736235   1.768107   0.000000
    26  H    2.434125   2.831495   2.767706   3.580482   2.467718
    27  H    8.136529   7.086558   6.900914   6.733966   8.008114
    28  H    8.082282   6.757313   7.388341   7.350551   8.357531
    29  H    8.312150   7.232414   6.843533   7.121394   8.109357
                   26         27         28         29
    26  H    0.000000
    27  H    7.767883   0.000000
    28  H    7.617842   1.768515   0.000000
    29  H    7.442100   1.777391   1.768652   0.000000
 Stoichiometry    C10H18O
 Framework group  C1[X(C10H18O)]
 Deg. of freedom    81
 Full point group                 C1      NOp   1
 Largest Abelian subgroup         C1      NOp   1
 Largest concise Abelian subgroup C1      NOp   1
                         Standard orientation:                         
 ---------------------------------------------------------------------
 Center     Atomic      Atomic             Coordinates (Angstroms)
 Number     Number       Type             X           Y           Z
 ---------------------------------------------------------------------
      1          8           0       -2.070157   -0.146066    1.376854
      2          6           0       -0.423712    0.005046   -0.364081
      3          6           0       -1.915124   -0.006711   -0.036290
      4          6           0        0.270344    1.220662    0.258586
      5          6           0        0.249448   -1.292387    0.111480
      6          6           0        1.755306    1.262526   -0.115236
      7          6           0        2.440660   -0.078256   -0.029729
      8          6           0        1.748411   -1.224408    0.087341
      9          6           0       -2.614941   -1.181339   -0.719398
     10          6           0       -2.565644    1.314618   -0.441560
     11          6           0        3.939676   -0.059007   -0.084823
     12          1           0       -0.301683    0.074439   -1.455378
     13          1           0        0.177737    1.194552    1.352160
     14          1           0       -0.168325    2.165060   -0.078021
     15          1           0       -0.051285   -2.120459   -0.541027
     16          1           0       -0.052120   -1.558910    1.130959
     17          1           0        2.257815    1.980093    0.544582
     18          1           0        1.861497    1.639507   -1.140324
     19          1           0        2.278015   -2.170120    0.166700
     20          1           0       -2.444636   -1.181599   -1.801004
     21          1           0       -3.697442   -1.137892   -0.548433
     22          1           0       -2.296859   -2.144667   -0.307439
     23          1           0       -2.283636    2.140138    0.220339
     24          1           0       -2.335057    1.582756   -1.477779
     25          1           0       -3.657037    1.245952   -0.352997
     26          1           0       -3.022280   -0.157671    1.574841
     27          1           0        4.278440    0.400622   -1.018959
     28          1           0        4.368139   -1.065591   -0.034164
     29          1           0        4.343431    0.517858    0.753370
 ---------------------------------------------------------------------
 Rotational constants (GHZ):           2.3591459           0.6340064           0.5657699
 Standard basis: 6-311++G(d,p) (5D, 7F)
 There are   379 symmetry adapted cartesian basis functions of A   symmetry.
 There are   368 symmetry adapted basis functions of A   symmetry.
   368 basis functions,   558 primitive gaussians,   379 cartesian basis functions
    43 alpha electrons       43 beta electrons
       nuclear repulsion energy       664.1732028846 Hartrees.
 NAtoms=   29 NActive=   29 NUniq=   29 SFac= 1.00D+00 NAtFMM=   60 NAOKFM=F Big=F
 Integral buffers will be    131072 words long.
 Raffenetti 2 integral format.
 Two-electron integral symmetry is turned on.
 R6APFD:  NTU= -4 IXU= 1 FactS= 1.050
 Nuclear repulsion after empirical dispersion term =      664.1492439915 Hartrees.
 One-electron integrals computed using PRISM.
 NBasis=   368 RedAO= T EigKep=  1.77D-06  NBF=   368
 NBsUse=   368 1.00D-06 EigRej= -1.00D+00 NBFU=   368
 ExpMin= 3.60D-02 ExpMax= 8.59D+03 ExpMxC= 1.30D+03 IAcc=3 IRadAn=         5 AccDes= 0.00D+00
 Harris functional with IExCor= 1009 and IRadAn=       5 diagonalized for initial guess.
 HarFok:  IExCor= 1009 AccDes= 0.00D+00 IRadAn=         5 IDoV= 1 UseB2=F ITyADJ=14
 ICtDFT=  3500011 ScaDFX=  1.000000  1.000000  1.000000  1.000000
 FoFCou: FMM=F IPFlag=           0 FMFlag=      100000 FMFlg1=           0
         NFxFlg=           0 DoJE=T BraDBF=F KetDBF=T FulRan=T
         wScrn=  0.000000 ICntrl=       500 IOpCl=  0 I1Cent=   200000004 NGrid=           0
         NMat0=    1 NMatS0=      1 NMatT0=    0 NMatD0=    1 NMtDS0=    0 NMtDT0=    0
 Petite list used in FoFCou.
 Requested convergence on RMS density matrix=1.00D-08 within  32 cycles.
 Requested convergence on MAX density matrix=1.00D-06.
 Requested convergence on             energy=1.00D-06.
 No special actions if energy rises.
 SCF Done:  E(RM08HX) =  -467.156857033     A.U. after   14 cycles
            NFock= 14  Conv=0.39D-08     -V/T= 2.0053
 QCSCF skips out because SCF is already converged.

 **********************************************************************

            Population analysis using the SCF Density.

 **********************************************************************

 Orbital symmetries:
       Occupied  (A) (A) (A) (A) (A) (A) (A) (A) (A) (A) (A) (A)
                 (A) (A) (A) (A) (A) (A) (A) (A) (A) (A) (A) (A)
                 (A) (A) (A) (A) (A) (A) (A) (A) (A) (A) (A) (A)
                 (A) (A) (A) (A) (A) (A) (A)
       Virtual   (A) (A) (A) (A) (A) (A) (A) (A) (A) (A) (A) (A)
                 (A) (A) (A) (A) (A) (A) (A) (A) (A) (A) (A) (A)
                 (A) (A) (A) (A) (A) (A) (A) (A) (A) (A) (A) (A)
                 (A) (A) (A) (A) (A) (A) (A) (A) (A) (A) (A) (A)
                 (A) (A) (A) (A) (A) (A) (A) (A) (A) (A) (A) (A)
                 (A) (A) (A) (A) (A) (A) (A) (A) (A) (A) (A) (A)
                 (A) (A) (A) (A) (A) (A) (A) (A) (A) (A) (A) (A)
                 (A) (A) (A) (A) (A) (A) (A) (A) (A) (A) (A) (A)
                 (A) (A) (A) (A) (A) (A) (A) (A) (A) (A) (A) (A)
                 (A) (A) (A) (A) (A) (A) (A) (A) (A) (A) (A) (A)
                 (A) (A) (A) (A) (A) (A) (A) (A) (A) (A) (A) (A)
                 (A) (A) (A) (A) (A) (A) (A) (A) (A) (A) (A) (A)
                 (A) (A) (A) (A) (A) (A) (A) (A) (A) (A) (A) (A)
                 (A) (A) (A) (A) (A) (A) (A) (A) (A) (A) (A) (A)
                 (A) (A) (A) (A) (A) (A) (A) (A) (A) (A) (A) (A)
                 (A) (A) (A) (A) (A) (A) (A) (A) (A) (A) (A) (A)
                 (A) (A) (A) (A) (A) (A) (A) (A) (A) (A) (A) (A)
                 (A) (A) (A) (A) (A) (A) (A) (A) (A) (A) (A) (A)
                 (A) (A) (A) (A) (A) (A) (A) (A) (A) (A) (A) (A)
                 (A) (A) (A) (A) (A) (A) (A) (A) (A) (A) (A) (A)
                 (A) (A) (A) (A) (A) (A) (A) (A) (A) (A) (A) (A)
                 (A) (A) (A) (A) (A) (A) (A) (A) (A) (A) (A) (A)
                 (A) (A) (A) (A) (A) (A) (A) (A) (A) (A) (A) (A)
                 (A) (A) (A) (A) (A) (A) (A) (A) (A) (A) (A) (A)
                 (A) (A) (A) (A) (A) (A) (A) (A) (A) (A) (A) (A)
                 (A) (A) (A) (A) (A) (A) (A) (A) (A) (A) (A) (A)
                 (A) (A) (A) (A) (A) (A) (A) (A) (A) (A) (A) (A)
                 (A)
 The electronic state is 1-A.
 Alpha  occ. eigenvalues --  -19.60396 -10.58771 -10.52923 -10.52544 -10.51973
 Alpha  occ. eigenvalues --  -10.51750 -10.51652 -10.51532 -10.51414 -10.51259
 Alpha  occ. eigenvalues --  -10.51255  -1.14274  -0.94848  -0.89862  -0.84691
 Alpha  occ. eigenvalues --   -0.84001  -0.79058  -0.77240  -0.70278  -0.69496
 Alpha  occ. eigenvalues --   -0.64999  -0.59116  -0.56014  -0.54637  -0.52240
 Alpha  occ. eigenvalues --   -0.51895  -0.50055  -0.49102  -0.48507  -0.48040
 Alpha  occ. eigenvalues --   -0.47547  -0.45639  -0.44863  -0.43225  -0.42748
 Alpha  occ. eigenvalues --   -0.42130  -0.41301  -0.39728  -0.38440  -0.36874
 Alpha  occ. eigenvalues --   -0.35411  -0.34310  -0.28287
 Alpha virt. eigenvalues --   -0.03205  -0.02020  -0.01272  -0.01218  -0.00132
 Alpha virt. eigenvalues --    0.00356   0.00405   0.01125   0.01618   0.02252
 Alpha virt. eigenvalues --    0.02668   0.02959   0.03864   0.04282   0.05202
 Alpha virt. eigenvalues --    0.05412   0.05729   0.06062   0.06365   0.07461
 Alpha virt. eigenvalues --    0.07788   0.08426   0.08997   0.09683   0.10238
 Alpha virt. eigenvalues --    0.10475   0.11331   0.11420   0.11603   0.12141
 Alpha virt. eigenvalues --    0.12626   0.12980   0.13035   0.13227   0.13457
 Alpha virt. eigenvalues --    0.14068   0.14310   0.14834   0.15002   0.15526
 Alpha virt. eigenvalues --    0.15750   0.15856   0.16470   0.16724   0.17247
 Alpha virt. eigenvalues --    0.17510   0.17834   0.18010   0.18491   0.18653
 Alpha virt. eigenvalues --    0.19259   0.19441   0.20029   0.20840   0.21082
 Alpha virt. eigenvalues --    0.22329   0.23029   0.23423   0.23826   0.24568
 Alpha virt. eigenvalues --    0.24935   0.25635   0.25849   0.26309   0.27578
 Alpha virt. eigenvalues --    0.27980   0.28400   0.28905   0.29533   0.29905
 Alpha virt. eigenvalues --    0.30266   0.31032   0.31171   0.32062   0.32473
 Alpha virt. eigenvalues --    0.32907   0.33763   0.34366   0.35113   0.35879
 Alpha virt. eigenvalues --    0.36256   0.36942   0.37896   0.38129   0.38502
 Alpha virt. eigenvalues --    0.39979   0.40284   0.42661   0.42915   0.44410
 Alpha virt. eigenvalues --    0.46317   0.46816   0.48272   0.49681   0.50737
 Alpha virt. eigenvalues --    0.52337   0.52892   0.53477   0.54466   0.55550
 Alpha virt. eigenvalues --    0.56429   0.57164   0.58602   0.59604   0.61483
 Alpha virt. eigenvalues --    0.63390   0.64830   0.65343   0.66143   0.66665
 Alpha virt. eigenvalues --    0.66978   0.67763   0.68132   0.69500   0.69978
 Alpha virt. eigenvalues --    0.70925   0.71775   0.72620   0.72685   0.73362
 Alpha virt. eigenvalues --    0.74167   0.74337   0.74891   0.75484   0.76059
 Alpha virt. eigenvalues --    0.77470   0.77919   0.79053   0.79911   0.81014
 Alpha virt. eigenvalues --    0.81662   0.81891   0.83120   0.83540   0.84501
 Alpha virt. eigenvalues --    0.85614   0.86001   0.90724   0.92953   0.94847
 Alpha virt. eigenvalues --    0.96771   0.97347   0.98489   1.01565   1.02583
 Alpha virt. eigenvalues --    1.03791   1.06510   1.09023   1.13442   1.14613
 Alpha virt. eigenvalues --    1.14988   1.16495   1.20425   1.21466   1.25203
 Alpha virt. eigenvalues --    1.27033   1.28366   1.33571   1.34488   1.36573
 Alpha virt. eigenvalues --    1.37687   1.40060   1.41634   1.44530   1.45967
 Alpha virt. eigenvalues --    1.47310   1.48195   1.49562   1.50215   1.50903
 Alpha virt. eigenvalues --    1.52401   1.52855   1.54178   1.55937   1.57193
 Alpha virt. eigenvalues --    1.58074   1.59271   1.59991   1.60327   1.62349
 Alpha virt. eigenvalues --    1.62846   1.63539   1.64087   1.64788   1.66646
 Alpha virt. eigenvalues --    1.67800   1.69077   1.69953   1.70326   1.72070
 Alpha virt. eigenvalues --    1.72281   1.73822   1.74435   1.74947   1.77229
 Alpha virt. eigenvalues --    1.78421   1.79669   1.81592   1.82480   1.83476
 Alpha virt. eigenvalues --    1.84235   1.86071   1.89392   1.90335   1.90668
 Alpha virt. eigenvalues --    1.92893   1.94274   1.95447   1.97499   1.98711
 Alpha virt. eigenvalues --    2.00086   2.00663   2.04065   2.04464   2.07486
 Alpha virt. eigenvalues --    2.08614   2.09209   2.13337   2.13670   2.16618
 Alpha virt. eigenvalues --    2.17322   2.18445   2.22599   2.22914   2.24883
 Alpha virt. eigenvalues --    2.26218   2.28044   2.29492   2.31964   2.33871
 Alpha virt. eigenvalues --    2.37770   2.37857   2.40891   2.42107   2.43954
 Alpha virt. eigenvalues --    2.44664   2.47131   2.47271   2.49909   2.52308
 Alpha virt. eigenvalues --    2.52430   2.52936   2.54454   2.56287   2.57595
 Alpha virt. eigenvalues --    2.58653   2.59402   2.60650   2.61606   2.62381
 Alpha virt. eigenvalues --    2.63594   2.64755   2.64969   2.67245   2.67801
 Alpha virt. eigenvalues --    2.68877   2.70116   2.71466   2.74038   2.74473
 Alpha virt. eigenvalues --    2.75896   2.77545   2.78264   2.81934   2.82250
 Alpha virt. eigenvalues --    2.83148   2.85568   2.87018   2.89956   2.92399
 Alpha virt. eigenvalues --    2.94201   2.98118   2.99403   3.00831   3.03325
 Alpha virt. eigenvalues --    3.04706   3.08120   3.12142   3.13621   3.15255
 Alpha virt. eigenvalues --    3.20396   3.21694   3.26775   3.28246   3.32351
 Alpha virt. eigenvalues --    3.33300   3.39781   3.43345   3.50118   3.52258
 Alpha virt. eigenvalues --    3.71088   3.77375   3.78606   3.79956   3.83735
 Alpha virt. eigenvalues --    3.84765   3.86416   3.86586   3.88719   3.89387
 Alpha virt. eigenvalues --    3.95864   3.97032   4.09938   4.14947   4.22724
 Alpha virt. eigenvalues --    4.25425   4.32421   4.38295   4.39847   4.48520
 Alpha virt. eigenvalues --    4.62780   5.32046   5.59205   5.78465  23.78230
 Alpha virt. eigenvalues --   23.83467  23.93567  23.98799  24.00811  24.02109
 Alpha virt. eigenvalues --   24.04489  24.05066  24.05195  24.30093  50.00005
          Condensed to atoms (all electrons):
               1          2          3          4          5          6
     1  O    7.853163   0.409422   0.407974  -0.191623  -0.147947   0.006409
     2  C    0.409422  26.295997 -12.045117  -6.923770  -6.315911   1.411111
     3  C    0.407974 -12.045117  17.749463   3.052734   2.858271  -1.116045
     4  C   -0.191623  -6.923770   3.052734  11.798754   0.845855  -2.477571
     5  C   -0.147947  -6.315911   2.858271   0.845855  14.019087  -1.397354
     6  C    0.006409   1.411111  -1.116045  -2.477571  -1.397354  11.915347
     7  C   -0.024362  -0.898704  -0.320075   0.445500   0.305339  -1.203984
     8  C   -0.026002   0.703202  -0.230172   0.306468  -3.310357  -0.908693
     9  C   -0.188645   0.030813  -1.356328  -0.397084   0.178442  -0.010532
    10  C   -0.155146   1.882736  -2.547704  -0.085828  -0.639755   0.098619
    11  C   -0.002672   0.298825  -0.141122  -0.279517   0.066908  -0.443831
    12  H    0.011459   1.179995  -0.406805  -0.267142  -0.340658   0.049208
    13  H    0.000400   0.190283  -0.081360   0.353338  -0.107035   0.003378
    14  H    0.004211  -0.340899   0.199467   0.555421   0.011274  -0.023034
    15  H   -0.000813  -0.181524   0.056396   0.058993   0.484471  -0.028130
    16  H    0.008600   0.378301  -0.178337  -0.141978   0.299510   0.041792
    17  H    0.001033   0.019639   0.004152  -0.080294  -0.016052   0.470531
    18  H   -0.000304  -0.052812  -0.016992  -0.059236   0.009811   0.605468
    19  H   -0.000665  -0.108931   0.047996   0.030758   0.147432  -0.028976
    20  H    0.006674  -0.091358   0.050612   0.019466   0.006107   0.014737
    21  H   -0.003709   0.092568  -0.017630   0.003129  -0.000075  -0.004244
    22  H   -0.009220  -0.072843  -0.116680  -0.032791   0.075475   0.000509
    23  H   -0.022461  -0.053539  -0.145825   0.066810  -0.034365  -0.018526
    24  H    0.007321  -0.121156   0.109029   0.048731   0.038792  -0.018487
    25  H   -0.002081   0.112403  -0.072668  -0.030313   0.002805   0.006782
    26  H    0.167357  -0.387314   0.430604   0.071155   0.053499  -0.015698
    27  H   -0.000037  -0.012857  -0.004710  -0.001175   0.026209   0.056674
    28  H    0.000008   0.018813  -0.005689   0.002760  -0.031316  -0.014773
    29  H   -0.000063   0.007291   0.002906  -0.012979  -0.001838  -0.014673
               7          8          9         10         11         12
     1  O   -0.024362  -0.026002  -0.188645  -0.155146  -0.002672   0.011459
     2  C   -0.898704   0.703202   0.030813   1.882736   0.298825   1.179995
     3  C   -0.320075  -0.230172  -1.356328  -2.547704  -0.141122  -0.406805
     4  C    0.445500   0.306468  -0.397084  -0.085828  -0.279517  -0.267142
     5  C    0.305339  -3.310357   0.178442  -0.639755   0.066908  -0.340658
     6  C   -1.203984  -0.908693  -0.010532   0.098619  -0.443831   0.049208
     7  C   13.629158  -4.674701   0.195065  -0.168066  -1.999969  -0.028483
     8  C   -4.674701  14.085066   0.419772  -0.165900   0.517972   0.037661
     9  C    0.195065   0.419772   8.496688  -1.803551   0.002672   0.021240
    10  C   -0.168066  -0.165900  -1.803551   9.261711  -0.002046   0.048104
    11  C   -1.999969   0.517972   0.002672  -0.002046   7.465600   0.011167
    12  H   -0.028483   0.037661   0.021240   0.048104   0.011167   0.429406
    13  H   -0.045683   0.031277  -0.002115  -0.025282   0.010404   0.002556
    14  H   -0.021778   0.024241   0.060576  -0.100373  -0.012814  -0.003431
    15  H   -0.016932  -0.011883  -0.004809   0.016515  -0.006907  -0.011561
    16  H   -0.023991  -0.063676  -0.006318   0.010473   0.011626   0.011263
    17  H   -0.068529  -0.009839   0.001849   0.003154  -0.000180   0.002084
    18  H   -0.175410  -0.003133  -0.010457   0.001264   0.017003  -0.006339
    19  H   -0.090685   0.315900  -0.002342   0.003208  -0.011013  -0.007655
    20  H    0.009176   0.009960   0.429708  -0.093431   0.000813  -0.011791
    21  H   -0.006631  -0.006728   0.304989   0.005341  -0.000507   0.000935
    22  H    0.009764  -0.007713   0.511862  -0.018122  -0.001039   0.003994
    23  H    0.002581  -0.010830  -0.048175   0.590836   0.000154   0.003354
    24  H    0.005232  -0.006201  -0.063378   0.363579   0.000227  -0.021356
    25  H   -0.000768   0.005946  -0.009643   0.354881  -0.000281   0.005834
    26  H   -0.000430  -0.000368  -0.026324  -0.078173  -0.000532  -0.009180
    27  H    0.037359  -0.087448   0.000113   0.000655   0.330083  -0.000398
    28  H   -0.145171   0.104062   0.001647  -0.002027   0.415337   0.001432
    29  H    0.029075  -0.090233  -0.000135  -0.000198   0.421413  -0.000022
              13         14         15         16         17         18
     1  O    0.000400   0.004211  -0.000813   0.008600   0.001033  -0.000304
     2  C    0.190283  -0.340899  -0.181524   0.378301   0.019639  -0.052812
     3  C   -0.081360   0.199467   0.056396  -0.178337   0.004152  -0.016992
     4  C    0.353338   0.555421   0.058993  -0.141978  -0.080294  -0.059236
     5  C   -0.107035   0.011274   0.484471   0.299510  -0.016052   0.009811
     6  C    0.003378  -0.023034  -0.028130   0.041792   0.470531   0.605468
     7  C   -0.045683  -0.021778  -0.016932  -0.023991  -0.068529  -0.175410
     8  C    0.031277   0.024241  -0.011883  -0.063676  -0.009839  -0.003133
     9  C   -0.002115   0.060576  -0.004809  -0.006318   0.001849  -0.010457
    10  C   -0.025282  -0.100373   0.016515   0.010473   0.003154   0.001264
    11  C    0.010404  -0.012814  -0.006907   0.011626  -0.000180   0.017003
    12  H    0.002556  -0.003431  -0.011561   0.011263   0.002084  -0.006339
    13  H    0.376619  -0.022323  -0.006329   0.012414  -0.006826   0.004647
    14  H   -0.022323   0.551776  -0.001119  -0.005683  -0.012926  -0.007257
    15  H   -0.006329  -0.001119   0.535985  -0.039590   0.002025  -0.001243
    16  H    0.012414  -0.005683  -0.039590   0.416331  -0.000980   0.002002
    17  H   -0.006826  -0.012926   0.002025  -0.000980   0.484089  -0.030803
    18  H    0.004647  -0.007257  -0.001243   0.002002  -0.030803   0.441641
    19  H   -0.001907   0.001131  -0.010139  -0.007292  -0.002317  -0.000330
    20  H    0.001237   0.004727  -0.007856   0.000889  -0.000378   0.000768
    21  H   -0.000924  -0.002282   0.003874  -0.000393  -0.000021   0.000008
    22  H    0.000601   0.000489  -0.005331  -0.006246   0.000016  -0.000408
    23  H   -0.007947  -0.006071   0.000850   0.001623   0.000989   0.000140
    24  H    0.001302  -0.014861   0.003982  -0.001305  -0.000080   0.002096
    25  H    0.000167   0.006507  -0.001661   0.000256   0.000053  -0.000837
    26  H   -0.001230   0.001530   0.001458  -0.008483  -0.000229   0.000232
    27  H   -0.002254   0.003014  -0.001216   0.000896  -0.000184  -0.000939
    28  H    0.000845   0.000066   0.000775   0.000744   0.002660  -0.001956
    29  H    0.002841  -0.002916   0.000481  -0.000948  -0.001145   0.004574
              19         20         21         22         23         24
     1  O   -0.000665   0.006674  -0.003709  -0.009220  -0.022461   0.007321
     2  C   -0.108931  -0.091358   0.092568  -0.072843  -0.053539  -0.121156
     3  C    0.047996   0.050612  -0.017630  -0.116680  -0.145825   0.109029
     4  C    0.030758   0.019466   0.003129  -0.032791   0.066810   0.048731
     5  C    0.147432   0.006107  -0.000075   0.075475  -0.034365   0.038792
     6  C   -0.028976   0.014737  -0.004244   0.000509  -0.018526  -0.018487
     7  C   -0.090685   0.009176  -0.006631   0.009764   0.002581   0.005232
     8  C    0.315900   0.009960  -0.006728  -0.007713  -0.010830  -0.006201
     9  C   -0.002342   0.429708   0.304989   0.511862  -0.048175  -0.063378
    10  C    0.003208  -0.093431   0.005341  -0.018122   0.590836   0.363579
    11  C   -0.011013   0.000813  -0.000507  -0.001039   0.000154   0.000227
    12  H   -0.007655  -0.011791   0.000935   0.003994   0.003354  -0.021356
    13  H   -0.001907   0.001237  -0.000924   0.000601  -0.007947   0.001302
    14  H    0.001131   0.004727  -0.002282   0.000489  -0.006071  -0.014861
    15  H   -0.010139  -0.007856   0.003874  -0.005331   0.000850   0.003982
    16  H   -0.007292   0.000889  -0.000393  -0.006246   0.001623  -0.001305
    17  H   -0.002317  -0.000378  -0.000021   0.000016   0.000989  -0.000080
    18  H   -0.000330   0.000768   0.000008  -0.000408   0.000140   0.002096
    19  H    0.447168  -0.000403   0.000471   0.001901  -0.000070   0.000061
    20  H   -0.000403   0.488053  -0.038926  -0.022915  -0.007045   0.008588
    21  H    0.000471  -0.038926   0.519828  -0.048342   0.008788   0.001309
    22  H    0.001901  -0.022915  -0.048342   0.499344  -0.005256  -0.005339
    23  H   -0.000070  -0.007045   0.008788  -0.005256   0.507467  -0.021399
    24  H    0.000061   0.008588   0.001309  -0.005339  -0.021399   0.493169
    25  H   -0.000073   0.000242  -0.007568   0.007431  -0.047959  -0.044091
    26  H    0.000511   0.002321  -0.003876   0.000539   0.002770   0.003706
    27  H    0.002162   0.000040   0.000032   0.000011   0.000101  -0.000070
    28  H   -0.012582   0.000153  -0.000085  -0.000017  -0.000066  -0.000057
    29  H   -0.000487  -0.000022  -0.000008   0.000037  -0.000068   0.000054
              25         26         27         28         29
     1  O   -0.002081   0.167357  -0.000037   0.000008  -0.000063
     2  C    0.112403  -0.387314  -0.012857   0.018813   0.007291
     3  C   -0.072668   0.430604  -0.004710  -0.005689   0.002906
     4  C   -0.030313   0.071155  -0.001175   0.002760  -0.012979
     5  C    0.002805   0.053499   0.026209  -0.031316  -0.001838
     6  C    0.006782  -0.015698   0.056674  -0.014773  -0.014673
     7  C   -0.000768  -0.000430   0.037359  -0.145171   0.029075
     8  C    0.005946  -0.000368  -0.087448   0.104062  -0.090233
     9  C   -0.009643  -0.026324   0.000113   0.001647  -0.000135
    10  C    0.354881  -0.078173   0.000655  -0.002027  -0.000198
    11  C   -0.000281  -0.000532   0.330083   0.415337   0.421413
    12  H    0.005834  -0.009180  -0.000398   0.001432  -0.000022
    13  H    0.000167  -0.001230  -0.002254   0.000845   0.002841
    14  H    0.006507   0.001530   0.003014   0.000066  -0.002916
    15  H   -0.001661   0.001458  -0.001216   0.000775   0.000481
    16  H    0.000256  -0.008483   0.000896   0.000744  -0.000948
    17  H    0.000053  -0.000229  -0.000184   0.002660  -0.001145
    18  H   -0.000837   0.000232  -0.000939  -0.001956   0.004574
    19  H   -0.000073   0.000511   0.002162  -0.012582  -0.000487
    20  H    0.000242   0.002321   0.000040   0.000153  -0.000022
    21  H   -0.007568  -0.003876   0.000032  -0.000085  -0.000008
    22  H    0.007431   0.000539   0.000011  -0.000017   0.000037
    23  H   -0.047959   0.002770   0.000101  -0.000066  -0.000068
    24  H   -0.044091   0.003706  -0.000070  -0.000057   0.000054
    25  H    0.528344  -0.011105  -0.000028   0.000037  -0.000002
    26  H   -0.011105   0.523702  -0.000037  -0.000019   0.000058
    27  H   -0.000028  -0.000037   0.567550  -0.029294  -0.084011
    28  H    0.000037  -0.000019  -0.029294   0.492175  -0.019507
    29  H   -0.000002   0.000058  -0.084011  -0.019507   0.557514
 Mulliken charges:
               1
     1  O   -0.108284
     2  C    0.575337
     3  C   -0.166345
     4  C   -0.678570
     5  C   -1.086626
     6  C   -0.956012
     7  C    1.246105
     8  C   -0.947649
     9  C   -0.725601
    10  C   -0.755474
    11  C   -0.667774
    12  H    0.295129
    13  H    0.318907
    14  H    0.153335
    15  H    0.171238
    16  H    0.288501
    17  H    0.238508
    18  H    0.278799
    19  H    0.287167
    20  H    0.219853
    21  H    0.200674
    22  H    0.240292
    23  H    0.243136
    24  H    0.230599
    25  H    0.197388
    26  H    0.283554
    27  H    0.199757
    28  H    0.221045
    29  H    0.203009
 Sum of Mulliken charges =  -0.00000
 Mulliken charges with hydrogens summed into heavy atoms:
               1
     1  O    0.175270
     2  C    0.870466
     3  C   -0.166345
     4  C   -0.206327
     5  C   -0.626887
     6  C   -0.438704
     7  C    1.246105
     8  C   -0.660482
     9  C   -0.064782
    10  C   -0.084350
    11  C   -0.043963
 Electronic spatial extent (au):  <R**2>=           2187.1270
 Charge=             -0.0000 electrons
 Dipole moment (field-independent basis, Debye):
    X=             -1.3294    Y=              0.3396    Z=             -1.0121  Tot=              1.7049
 Quadrupole moment (field-independent basis, Debye-Ang):
   XX=            -64.5709   YY=            -69.9880   ZZ=            -73.4309
   XY=              0.5884   XZ=             -0.2100   YZ=              0.0373
 Traceless Quadrupole moment (field-independent basis, Debye-Ang):
   XX=              4.7590   YY=             -0.6581   ZZ=             -4.1009
   XY=              0.5884   XZ=             -0.2100   YZ=              0.0373
 Octapole moment (field-independent basis, Debye-Ang**2):
  XXX=            -37.3495  YYY=             -3.1032  ZZZ=              1.8388  XYY=             -0.6325
  XXY=             -0.8445  XXZ=             12.4950  XZZ=             -6.1245  YZZ=              2.4947
  YYZ=              2.8194  XYZ=             -0.0262
 Hexadecapole moment (field-independent basis, Debye-Ang**3):
 XXXX=          -2121.9998 YYYY=           -563.8689 ZZZZ=           -251.0092 XXXY=              2.9768
 XXXZ=            -61.3043 YYYX=             -6.5267 YYYZ=              0.5225 ZZZX=            -15.4951
 ZZZY=             -2.1909 XXYY=           -466.9021 XXZZ=           -404.7271 YYZZ=           -139.2944
 XXYZ=             -0.7838 YYXZ=             -1.7632 ZZXY=              7.4966
 N-N= 6.641492439915D+02 E-N=-2.413206869157D+03  KE= 4.646960146108D+02
 R6APFD:  NTU= -4 IXU= 1 FactS= 1.050
 Calling FoFJK, ICntrl=      2127 FMM=F ISym2X=0 I1Cent= 0 IOpClX= 0 NMat=1 NMatS=1 NMatT=0.
 ***** Axes restored to original set *****
 -------------------------------------------------------------------
 Center     Atomic                   Forces (Hartrees/Bohr)
 Number     Number              X              Y              Z
 -------------------------------------------------------------------
      1        8          -0.006522182    0.001750070   -0.008421656
      2        6           0.006376847   -0.000597143   -0.012674287
      3        6          -0.010339552   -0.002112478    0.001014691
      4        6           0.009188335   -0.000058783   -0.000256511
      5        6           0.005696548    0.000562850    0.003561786
      6        6          -0.003501294    0.004978811   -0.000820851
      7        6          -0.004857775    0.013158819   -0.002999634
      8        6           0.004213467   -0.017545230    0.003158278
      9        6          -0.004408453    0.003368136    0.001672817
     10        6          -0.008565014   -0.003072602    0.002654498
     11        6          -0.001282499    0.002933304   -0.000624895
     12        1          -0.002327476    0.000375843    0.002424973
     13        1          -0.003068820    0.003105113   -0.000950462
     14        1          -0.004376961    0.000203395    0.000160952
     15        1          -0.002856819    0.002346868   -0.000095048
     16        1          -0.007163870   -0.001319197   -0.001794354
     17        1           0.004294334   -0.001577810    0.000781800
     18        1           0.002388071   -0.002711795    0.003152799
     19        1           0.003529944    0.002283973   -0.000190040
     20        1           0.000433231   -0.000188689    0.001696459
     21        1          -0.002344649   -0.002820685    0.001052263
     22        1           0.004537355   -0.000907921   -0.000151407
     23        1           0.005289206    0.001702332    0.000462960
     24        1           0.000919209   -0.000881850    0.001735216
     25        1          -0.002387812    0.002683305    0.001919605
     26        1           0.013384918   -0.000334123    0.002741499
     27        1           0.002291769   -0.003165817    0.001148418
     28        1          -0.000885337    0.001049146    0.000082100
     29        1           0.002345277   -0.003207842   -0.000441968
 -------------------------------------------------------------------
 Cartesian Forces:  Max     0.017545230 RMS     0.004509411

 GradGradGradGradGradGradGradGradGradGradGradGradGradGradGradGradGradGrad
 Berny optimization.
 FormGI is forming the generalized inverse of G from B-inverse, IUseBI=4.
 Internal  Forces:  Max     0.013666837 RMS     0.002651792
 Search for a local minimum.
 Step number   1 out of a maximum of  173
 All quantities printed in internal units (Hartrees-Bohrs-Radians)
 Mixed Optimization -- RFO/linear search
 Second derivative matrix not updated -- first step.
 ITU=  0
     Eigenvalues ---    0.00390   0.00402   0.00408   0.00525   0.00594
     Eigenvalues ---    0.00764   0.01153   0.01252   0.01316   0.01682
     Eigenvalues ---    0.02924   0.03067   0.03880   0.04096   0.04433
     Eigenvalues ---    0.04633   0.04884   0.05236   0.05262   0.05305
     Eigenvalues ---    0.05598   0.05631   0.05705   0.05920   0.06179
     Eigenvalues ---    0.06386   0.07157   0.07346   0.08095   0.08175
     Eigenvalues ---    0.09531   0.09612   0.10058   0.11970   0.14741
     Eigenvalues ---    0.16000   0.16000   0.16000   0.16000   0.16000
     Eigenvalues ---    0.16000   0.16000   0.16000   0.16000   0.16000
     Eigenvalues ---    0.16000   0.16290   0.16340   0.17569   0.19650
     Eigenvalues ---    0.23211   0.25000   0.28029   0.28181   0.28459
     Eigenvalues ---    0.29568   0.29653   0.29697   0.30993   0.31770
     Eigenvalues ---    0.32361   0.33650   0.33927   0.33976   0.34001
     Eigenvalues ---    0.34041   0.34048   0.34093   0.34123   0.34224
     Eigenvalues ---    0.34236   0.34248   0.34249   0.34252   0.34262
     Eigenvalues ---    0.34276   0.34314   0.35184   0.41215   0.52857
     Eigenvalues ---    0.54053
 RFO step:  Lambda=-6.44184489D-03 EMin= 3.89739956D-03
 Linear search not attempted -- first point.
 Iteration  1 RMS(Cart)=  0.04555713 RMS(Int)=  0.00076128
 Iteration  2 RMS(Cart)=  0.00126913 RMS(Int)=  0.00019901
 Iteration  3 RMS(Cart)=  0.00000065 RMS(Int)=  0.00019901
 Variable       Old X    -DE/DX   Delta X   Delta X   Delta X     New X
                                 (Linear)    (Quad)   (Total)
    R1        2.69935   0.00503   0.00000   0.01200   0.01200   2.71136
    R2        1.83787  -0.01367   0.00000  -0.02554  -0.02554   1.81233
    R3        2.88571   0.00839   0.00000   0.02764   0.02764   2.91335
    R4        2.89514  -0.00022   0.00000  -0.00005  -0.00004   2.89510
    R5        2.90467  -0.00182   0.00000  -0.00544  -0.00545   2.89922
    R6        2.07925   0.00212   0.00000   0.00620   0.00620   2.08544
    R7        2.88833   0.00229   0.00000   0.00757   0.00757   2.89590
    R8        2.88660   0.00347   0.00000   0.01147   0.01147   2.89807
    R9        2.89480   0.00373   0.00000   0.01112   0.01108   2.90589
   R10        2.07454   0.00128   0.00000   0.00371   0.00371   2.07824
   R11        2.06804   0.00166   0.00000   0.00474   0.00474   2.07278
   R12        2.83591   0.00540   0.00000   0.01735   0.01738   2.85328
   R13        2.07174   0.00249   0.00000   0.00716   0.00716   2.07890
   R14        2.07123   0.00330   0.00000   0.00949   0.00949   2.08072
   R15        2.85011  -0.00105   0.00000  -0.00429  -0.00430   2.84582
   R16        2.07249   0.00251   0.00000   0.00724   0.00724   2.07973
   R17        2.07371   0.00411   0.00000   0.01186   0.01186   2.08557
   R18        2.53996  -0.01180   0.00000  -0.02073  -0.02071   2.51926
   R19        2.83488   0.00252   0.00000   0.00764   0.00764   2.84252
   R20        2.05377   0.00374   0.00000   0.01043   0.01043   2.06420
   R21        2.06912   0.00174   0.00000   0.00499   0.00499   2.07411
   R22        2.07261   0.00224   0.00000   0.00646   0.00646   2.07908
   R23        2.06913   0.00061   0.00000   0.00174   0.00174   2.07087
   R24        2.06933  -0.00023   0.00000  -0.00066  -0.00066   2.06867
   R25        2.06907   0.00205   0.00000   0.00588   0.00588   2.07495
   R26        2.07328   0.00241   0.00000   0.00694   0.00694   2.08022
   R27        2.06891   0.00302   0.00000   0.00865   0.00865   2.07756
   R28        2.06954   0.00061   0.00000   0.00174   0.00174   2.07128
   R29        2.06868   0.00289   0.00000   0.00827   0.00827   2.07695
    A1        1.88474   0.00008   0.00000   0.00047   0.00047   1.88521
    A2        1.94048   0.00394   0.00000   0.02871   0.02877   1.96925
    A3        1.93351  -0.00018   0.00000   0.00295   0.00294   1.93645
    A4        1.89833  -0.00250   0.00000  -0.02884  -0.02895   1.86937
    A5        1.92368  -0.00261   0.00000  -0.01233  -0.01246   1.91122
    A6        1.87845   0.00030   0.00000   0.01112   0.01129   1.88974
    A7        1.88760   0.00099   0.00000  -0.00254  -0.00264   1.88496
    A8        1.89558  -0.00598   0.00000  -0.04616  -0.04626   1.84932
    A9        1.89387   0.00323   0.00000   0.02239   0.02222   1.91609
   A10        1.87616   0.00338   0.00000   0.03622   0.03653   1.91269
   A11        1.93602   0.00100   0.00000  -0.00619  -0.00608   1.92994
   A12        1.93084   0.00388   0.00000   0.02000   0.02009   1.95093
   A13        1.92966  -0.00547   0.00000  -0.02531  -0.02543   1.90423
   A14        1.94084   0.00112   0.00000   0.00452   0.00453   1.94537
   A15        1.92600  -0.00261   0.00000  -0.03211  -0.03218   1.89381
   A16        1.95857  -0.00273   0.00000  -0.02340  -0.02366   1.93491
   A17        1.90235   0.00201   0.00000   0.02292   0.02288   1.92523
   A18        1.86495   0.00196   0.00000   0.02953   0.02959   1.89454
   A19        1.86828   0.00049   0.00000   0.00148   0.00030   1.86858
   A20        1.97602  -0.00095   0.00000  -0.00139  -0.00133   1.97470
   A21        1.91058   0.00021   0.00000   0.00196   0.00173   1.91230
   A22        1.95254  -0.00456   0.00000  -0.04718  -0.04721   1.90532
   A23        1.87406   0.00136   0.00000   0.02059   0.02046   1.89452
   A24        1.87633   0.00478   0.00000   0.04301   0.04294   1.91927
   A25        1.86969  -0.00057   0.00000  -0.01492  -0.01587   1.85381
   A26        1.98490  -0.00104   0.00000  -0.00783  -0.00796   1.97694
   A27        1.89150   0.00306   0.00000   0.02383   0.02387   1.91536
   A28        1.90832   0.00118   0.00000   0.01670   0.01663   1.92495
   A29        1.91701  -0.00217   0.00000  -0.01793  -0.01787   1.89914
   A30        1.89060   0.00070   0.00000   0.00505   0.00514   1.89575
   A31        1.86805  -0.00181   0.00000  -0.02085  -0.02110   1.84696
   A32        2.12818  -0.00062   0.00000  -0.00735  -0.00743   2.12075
   A33        2.02704  -0.00165   0.00000  -0.00396  -0.00392   2.02312
   A34        2.12796   0.00227   0.00000   0.01131   0.01135   2.13931
   A35        2.15852   0.00361   0.00000   0.01306   0.01301   2.17152
   A36        2.03325   0.00018   0.00000   0.00540   0.00543   2.03868
   A37        2.09141  -0.00379   0.00000  -0.01847  -0.01845   2.07296
   A38        1.95030   0.00017   0.00000  -0.00532  -0.00548   1.94482
   A39        1.93028  -0.00099   0.00000  -0.00073  -0.00069   1.92959
   A40        1.95517  -0.00413   0.00000  -0.02379  -0.02391   1.93126
   A41        1.88337   0.00012   0.00000  -0.00142  -0.00143   1.88194
   A42        1.90315   0.00108   0.00000  -0.00268  -0.00297   1.90017
   A43        1.83685   0.00411   0.00000   0.03697   0.03705   1.87390
   A44        1.96283  -0.00506   0.00000  -0.03099  -0.03118   1.93165
   A45        1.95330   0.00072   0.00000  -0.00289  -0.00313   1.95017
   A46        1.92632  -0.00100   0.00000   0.00158   0.00166   1.92798
   A47        1.91049   0.00088   0.00000  -0.00780  -0.00827   1.90222
   A48        1.82820   0.00475   0.00000   0.04246   0.04260   1.87080
   A49        1.87677   0.00017   0.00000   0.00169   0.00171   1.87848
   A50        1.92401   0.00171   0.00000   0.00841   0.00842   1.93243
   A51        1.95783  -0.00188   0.00000  -0.00801  -0.00800   1.94983
   A52        1.92537   0.00186   0.00000   0.00980   0.00981   1.93518
   A53        1.87998   0.00057   0.00000   0.00608   0.00609   1.88607
   A54        1.89437  -0.00307   0.00000  -0.02489  -0.02488   1.86949
   A55        1.88035   0.00068   0.00000   0.00769   0.00770   1.88804
    D1       -3.13597   0.00116   0.00000   0.01112   0.01092  -3.12505
    D2       -1.02981   0.00076   0.00000  -0.01033  -0.01080  -1.04062
    D3        1.05752  -0.00206   0.00000  -0.00766  -0.00699   1.05054
    D4       -1.11270   0.00053   0.00000   0.04391   0.04403  -1.06868
    D5        3.09058  -0.00029   0.00000   0.04904   0.04862   3.13920
    D6        0.94253   0.00328   0.00000   0.07168   0.07142   1.01395
    D7        1.03268  -0.00017   0.00000   0.05037   0.05070   1.08338
    D8       -1.04722  -0.00100   0.00000   0.05549   0.05529  -0.99193
    D9        3.08792   0.00258   0.00000   0.07814   0.07809  -3.11717
   D10        3.10511  -0.00062   0.00000   0.03117   0.03163   3.13674
   D11        1.02521  -0.00144   0.00000   0.03629   0.03622   1.06143
   D12       -1.12283   0.00213   0.00000   0.05893   0.05902  -1.06381
   D13       -3.10290   0.00077   0.00000   0.02739   0.02729  -3.07562
   D14        1.06698  -0.00075   0.00000   0.01714   0.01725   1.08423
   D15       -1.01500   0.00219   0.00000   0.05230   0.05192  -0.96308
   D16        1.02925   0.00010   0.00000   0.01237   0.01232   1.04157
   D17       -1.08406  -0.00142   0.00000   0.00212   0.00228  -1.08177
   D18        3.11715   0.00152   0.00000   0.03728   0.03695  -3.12908
   D19       -1.02559   0.00018   0.00000   0.01574   0.01588  -1.00971
   D20       -3.13890  -0.00133   0.00000   0.00550   0.00584  -3.13305
   D21        1.06231   0.00160   0.00000   0.04066   0.04051   1.10282
   D22       -2.92669  -0.00189   0.00000  -0.01754  -0.01754  -2.94423
   D23        1.26637  -0.00314   0.00000  -0.04413  -0.04396   1.22241
   D24       -0.80330   0.00026   0.00000   0.00247   0.00232  -0.80098
   D25       -0.77160   0.00118   0.00000   0.01247   0.01244  -0.75916
   D26       -2.86172  -0.00007   0.00000  -0.01411  -0.01398  -2.87570
   D27        1.35179   0.00333   0.00000   0.03249   0.03230   1.38409
   D28        1.27759   0.00066   0.00000   0.01747   0.01753   1.29511
   D29       -0.81253  -0.00059   0.00000  -0.00911  -0.00889  -0.82143
   D30       -2.88221   0.00281   0.00000   0.03749   0.03739  -2.84482
   D31       -3.04279   0.00280   0.00000   0.02672   0.02674  -3.01605
   D32        1.14189   0.00321   0.00000   0.03257   0.03264   1.17453
   D33       -0.90128   0.00131   0.00000   0.00184   0.00204  -0.89924
   D34       -0.96185  -0.00191   0.00000  -0.01957  -0.01984  -0.98169
   D35       -3.06036  -0.00150   0.00000  -0.01372  -0.01394  -3.07430
   D36        1.17966  -0.00340   0.00000  -0.04444  -0.04454   1.13512
   D37        1.18687  -0.00009   0.00000  -0.01607  -0.01604   1.17083
   D38       -0.91163   0.00031   0.00000  -0.01022  -0.01014  -0.92177
   D39       -2.95480  -0.00159   0.00000  -0.04095  -0.04074  -2.99554
   D40        0.80429  -0.00042   0.00000   0.01561   0.01574   0.82003
   D41        2.96341  -0.00255   0.00000  -0.02044  -0.02002   2.94339
   D42       -1.23031  -0.00255   0.00000  -0.01913  -0.01881  -1.24912
   D43       -1.26281   0.00259   0.00000   0.03841   0.03803  -1.22477
   D44        0.89631   0.00047   0.00000   0.00236   0.00227   0.89858
   D45        2.98577   0.00047   0.00000   0.00366   0.00348   2.98926
   D46        2.86865   0.00243   0.00000   0.05001   0.04978   2.91843
   D47       -1.25542   0.00030   0.00000   0.01396   0.01402  -1.24140
   D48        0.83405   0.00031   0.00000   0.01527   0.01523   0.84928
   D49       -0.75430  -0.00131   0.00000  -0.02832  -0.02838  -0.78268
   D50       -2.89147  -0.00007   0.00000  -0.01750  -0.01742  -2.90889
   D51        1.36123  -0.00025   0.00000  -0.01499  -0.01506   1.34617
   D52        1.37281  -0.00252   0.00000  -0.05024  -0.05047   1.32234
   D53       -0.76436  -0.00127   0.00000  -0.03941  -0.03952  -0.80387
   D54       -2.79484  -0.00146   0.00000  -0.03691  -0.03716  -2.83200
   D55       -2.89708   0.00008   0.00000  -0.02159  -0.02153  -2.91862
   D56        1.24894   0.00133   0.00000  -0.01077  -0.01058   1.23836
   D57       -0.78154   0.00114   0.00000  -0.00826  -0.00822  -0.78976
   D58        0.25665  -0.00048   0.00000  -0.01497  -0.01501   0.24164
   D59       -2.88059  -0.00072   0.00000  -0.01269  -0.01276  -2.89334
   D60        2.36755   0.00014   0.00000   0.00078   0.00064   2.36818
   D61       -0.76969  -0.00011   0.00000   0.00306   0.00289  -0.76680
   D62       -1.90895   0.00250   0.00000   0.01483   0.01511  -1.89385
   D63        1.23700   0.00225   0.00000   0.01711   0.01736   1.25435
   D64        0.22881  -0.00019   0.00000   0.01600   0.01587   0.24467
   D65       -2.91423   0.00008   0.00000   0.01351   0.01343  -2.90080
   D66        2.35186   0.00145   0.00000   0.02817   0.02808   2.37994
   D67       -0.79118   0.00172   0.00000   0.02569   0.02564  -0.76554
   D68       -1.89659  -0.00151   0.00000  -0.00379  -0.00381  -1.90041
   D69        1.24356  -0.00124   0.00000  -0.00628  -0.00626   1.23730
   D70        0.02630   0.00059   0.00000   0.00330   0.00325   0.02955
   D71       -3.11979   0.00086   0.00000   0.00101   0.00102  -3.11877
   D72       -3.11377   0.00031   0.00000   0.00595   0.00587  -3.10790
   D73        0.02333   0.00058   0.00000   0.00365   0.00364   0.02697
   D74       -1.03034   0.00065   0.00000   0.01434   0.01433  -1.01600
   D75       -3.12528  -0.00000   0.00000   0.00619   0.00619  -3.11909
   D76        1.06156  -0.00089   0.00000  -0.00496  -0.00497   1.05660
   D77        2.10981   0.00092   0.00000   0.01184   0.01185   2.12166
   D78        0.01487   0.00027   0.00000   0.00369   0.00370   0.01857
   D79       -2.08147  -0.00062   0.00000  -0.00746  -0.00745  -2.08892
         Item               Value     Threshold  Converged?
 Maximum Force            0.013667     0.000450     NO 
 RMS     Force            0.002652     0.000300     NO 
 Maximum Displacement     0.177578     0.001800     NO 
 RMS     Displacement     0.045298     0.001200     NO 
 Predicted change in Energy=-3.493307D-03
 GradGradGradGradGradGradGradGradGradGradGradGradGradGradGradGradGradGrad

                          Input orientation:                          
 ---------------------------------------------------------------------
 Center     Atomic      Atomic             Coordinates (Angstroms)
 Number     Number       Type             X           Y           Z
 ---------------------------------------------------------------------
      1          8           0       -2.120696    0.103925   -1.390541
      2          6           0       -0.502099   -0.046812    0.344148
      3          6           0       -2.012172   -0.016141    0.035091
      4          6           0        0.213161   -1.236725   -0.303621
      5          6           0        0.174327    1.258343   -0.094945
      6          6           0        1.695977   -1.289607    0.100195
      7          6           0        2.378519    0.051197    0.035071
      8          6           0        1.682124    1.183225   -0.068810
      9          6           0       -2.675518    1.189675    0.709160
     10          6           0       -2.713904   -1.298809    0.497952
     11          6           0        3.881144    0.027808    0.099668
     12          1           0       -0.396563   -0.133973    1.439195
     13          1           0        0.117886   -1.148937   -1.395723
     14          1           0       -0.261249   -2.182385   -0.014170
     15          1           0       -0.146620    2.079243    0.563347
     16          1           0       -0.171491    1.522218   -1.106444
     17          1           0        2.234072   -1.993827   -0.552284
     18          1           0        1.799857   -1.688506    1.123961
     19          1           0        2.223728    2.129555   -0.134394
     20          1           0       -2.498500    1.191171    1.792363
     21          1           0       -3.763384    1.173582    0.545672
     22          1           0       -2.295057    2.126445    0.286529
     23          1           0       -2.420139   -2.147511   -0.127959
     24          1           0       -2.485081   -1.531887    1.546265
     25          1           0       -3.806126   -1.192922    0.410719
     26          1           0       -3.052370    0.140828   -1.615007
     27          1           0        4.223189   -0.457629    1.024886
     28          1           0        4.304163    1.038519    0.069727
     29          1           0        4.300422   -0.544361   -0.739851
 ---------------------------------------------------------------------
                    Distance matrix (angstroms):
                    1          2          3          4          5
     1  O    0.000000
     2  C    2.377336   0.000000
     3  C    1.434789   1.541681   0.000000
     4  C    2.902693   1.532023   2.560597   0.000000
     5  C    2.877217   1.534204   2.534166   2.504080   0.000000
     6  C    4.327958   2.536847   3.921266   1.537729   2.974146
     7  C    4.719967   2.898809   4.391208   2.542092   2.516460
     8  C    4.168129   2.540541   3.885498   2.840624   1.509893
     9  C    2.428049   2.527031   1.532445   3.906098   2.961910
    10  C    2.426101   2.546220   1.533593   3.035471   3.902875
    11  C    6.184546   4.390689   5.893834   3.900742   3.910573
    12  H    3.322143   1.103568   2.143732   2.150635   2.148963
    13  H    2.565335   2.150863   2.804925   1.099759   2.736824
    14  H    3.252562   2.178778   2.785817   1.096868   3.469129
    15  H    3.408303   2.166684   2.854815   3.446261   1.100105
    16  H    2.427275   2.162260   2.656643   2.899008   1.101068
    17  H    4.905838   3.475786   4.720894   2.172353   3.876637
    18  H    4.990618   2.932962   4.302791   2.181674   3.579385
    19  H    4.955310   3.520753   4.751377   3.924647   2.227243
    20  H    3.384629   2.759627   2.186806   4.200111   3.272681
    21  H    2.755269   3.487973   2.177814   4.726921   3.990381
    22  H    2.633164   2.817990   2.175757   4.236785   2.645181
    23  H    2.598604   2.883522   2.176180   2.791891   4.281609
    24  H    3.381344   2.753680   2.191980   3.284769   4.189439
    25  H    2.786938   3.497800   2.178115   4.082508   4.701957
    26  H    0.959042   3.221394   1.956903   3.779031   3.737780
    27  H    6.811352   4.791714   6.328850   4.295608   4.537826
    28  H    6.654673   4.934917   6.403874   4.696001   4.138960
    29  H    6.486481   4.948416   6.381881   4.168378   4.548660
                    6          7          8          9         10
     6  C    0.000000
     7  C    1.505941   0.000000
     8  C    2.478639   1.333134   0.000000
     9  C    5.062376   5.224348   4.426547   0.000000
    10  C    4.427793   5.288624   5.080037   2.497726   0.000000
    11  C    2.551575   1.504195   2.489792   6.686646   6.738932
    12  H    2.739915   3.115595   2.886179   2.734708   2.759139
    13  H    2.178975   2.932226   3.105884   4.207463   3.409913
    14  H    2.154267   3.458278   3.886774   4.209833   2.656783
    15  H    3.867664   3.281520   2.132317   2.684756   4.243402
    16  H    3.584658   3.157453   2.151159   3.110812   4.122638
    17  H    1.100546   2.132597   3.260683   5.985816   5.105733
    18  H    1.103634   2.132392   3.111817   5.337131   4.573597
    19  H    3.467595   2.090993   1.092326   5.059403   6.044315
    20  H    5.158617   5.307818   4.576204   1.097573   2.814587
    21  H    6.005862   6.264458   5.480076   1.100200   2.686337
    22  H    5.256662   5.119786   4.102913   1.095858   3.457239
    23  H    4.210756   5.280910   5.284492   3.450043   1.094695
    24  H    4.430696   5.333336   5.229330   2.853754   1.098019
    25  H    5.511708   6.319714   5.999743   2.654075   1.100805
    26  H    5.247367   5.676737   5.088491   2.577566   2.579091
    27  H    2.816743   2.154402   3.216456   7.099680   7.007746
    28  H    3.496246   2.164281   2.629682   7.010540   7.409437
    29  H    2.836230   2.156132   3.207856   7.332820   7.162550
                   11         12         13         14         15
    11  C    0.000000
    12  H    4.485452   0.000000
    13  H    4.216993   3.054761   0.000000
    14  H    4.696523   2.515268   1.766479   0.000000
    15  H    4.543816   2.393304   3.785375   4.302108   0.000000
    16  H    4.484620   3.045308   2.702312   3.863315   1.760425
    17  H    2.687916   3.787517   2.429706   2.559638   4.847909
    18  H    2.885596   2.709281   3.077169   2.405704   4.277732
    19  H    2.686848   3.803375   4.095610   4.978191   2.471421
    20  H    6.702125   2.509755   4.741885   4.432802   2.798301
    21  H    7.742772   3.720694   4.922130   4.882714   3.728473
    22  H    6.525692   3.168976   4.402317   4.774182   2.166712
    23  H    6.670082   3.256557   3.007648   2.162168   4.848942
    24  H    6.712236   2.515459   3.946820   2.793481   4.413025
    25  H    7.789805   3.715408   4.320074   3.704825   4.911450
    26  H    7.143283   4.056719   3.429592   3.968672   4.116559
    27  H    1.099396   4.649572   4.815679   4.915750   5.073852
    28  H    1.096075   5.034581   4.945445   5.587866   4.597417
    29  H    1.099075   5.194067   4.276598   4.900875   5.325205
                   16         17         18         19         20
    16  H    0.000000
    17  H    4.296091   0.000000
    18  H    4.378317   1.758283   0.000000
    19  H    2.655336   4.144516   4.042365   0.000000
    20  H    3.731976   6.167561   5.216816   5.185787   0.000000
    21  H    3.968970   6.870769   6.282962   6.100973   1.776086
[...]
 003327,0.00004361,-0.00001521,0.00000456,0.00000285,-0.00000844,-0.000
 00743,0.00002492,0.00001770,0.00000645,-0.00012126,0.00016011,0.000134
 07,0.00047328,-0.00024221,0.00010388,0.00079456,-0.00078186,-0.0000673
 7,0.08930751,0.00030199,0.00330887,-0.00032815,0.00109274,-0.00008691,
 -0.00014728,0.01120393,-0.02219503,-0.01380266,0.00039556,-0.00065656,
 -0.00007047,-0.00012925,0.00010070,0.00003997,-0.00009493,0.00061367,-
 0.00010381,0.00015824,-0.00018948,0.00007859,0.00009969,0.00003783,0.0
 0004525,-0.00345057,-0.00398538,0.00358997,0.08102633,-0.23194333,-0.0
 9503698,0.00002110,0.00013855,-0.00000469,-0.00008172,-0.00004531,0.00
 008153,0.00007022,0.00012670,-0.00006825,0.00031015,0.00151385,-0.0000
 4079,0.00010941,0.00015012,0.00008045,0.00002296,-0.00002897,-0.000068
 87,-0.00001884,0.00000127,-0.00001476,0.00002232,-0.00000163,0.0000424
 4,-0.00002661,0.00001561,0.00000561,-0.00011340,0.00023909,-0.00012980
 ,-0.00013508,0.00036132,0.00015263,0.00069717,-0.00153817,-0.00075004,
 -0.08919077,0.25226709,-0.00065194,-0.00122290,0.00161350,-0.00017682,
 -0.00083614,0.00008945,-0.00562572,0.01078238,0.00425179,0.00047697,-0
 .00041347,-0.00016188,-0.00013589,0.00002931,-0.00003246,-0.00000658,0
 .00010081,-0.00003923,0.00002093,-0.00003798,-0.00000080,0.00003398,-0
 .00002380,0.00000334,0.00083214,0.00209367,-0.00065442,0.04178230,-0.0
 9691724,-0.09559712,0.00000324,0.00002726,0.00000976,0.00006306,-0.000
 12900,-0.00001684,0.00014568,0.00020183,-0.00013164,0.00126960,0.00044
 913,0.00050326,-0.00000928,0.00000234,-0.00001530,0.00000042,0.0000278
 5,0.00000185,-0.00001327,0.00000520,-0.00000242,-0.00005476,-0.0000093
 4,-0.00004762,-0.00002111,0.00000870,0.00000231,0.00007874,0.00030611,
 0.00023743,0.00017962,-0.00000510,-0.00017649,-0.00000003,0.00066072,0
 .00060170,-0.04762407,0.10420324,0.09846043,-0.00023048,-0.00325599,0.
 00367945,0.00029562,0.00020219,0.00070067,0.00157601,0.00187987,0.0131
 5925,-0.00014396,0.00014542,-0.00025743,0.00014727,0.00002694,-0.00021
 378,-0.00003073,-0.00005814,0.00003505,-0.00004451,-0.00000003,-0.0000
 2517,-0.00000531,0.00006930,-0.00001882,0.00006317,0.00038734,-0.00013
 107,-0.05019311,0.00134289,-0.03722008,-0.00000160,-0.00000211,0.00000
 432,-0.00088605,-0.00058247,-0.00015337,0.00015820,-0.00000904,-0.0000
 5813,0.00012093,0.00004614,0.00003145,0.00001154,0.00001284,0.00001857
 ,0.00009300,0.00009780,0.00001225,0.00001535,-0.00000056,-0.00001760,-
 0.00003334,0.00001532,-0.00002857,0.00003019,0.00000755,0.00001102,0.0
 0034194,0.00002200,-0.00011369,-0.00006243,-0.00005134,-0.00023233,-0.
 00020804,0.00012919,0.00004471,0.00101176,-0.00180780,0.01209474,0.051
 38489,-0.00277734,-0.00460114,0.00614803,0.00077592,0.00098692,0.00006
 163,0.00669205,0.00205563,0.02369281,0.00004481,-0.00010240,0.00008416
 ,0.00023211,-0.00010653,-0.00015762,0.00001755,0.00011784,-0.00005211,
 0.00002705,-0.00002312,0.00002468,-0.00003136,0.00007018,-0.00005622,0
 .00024535,0.00056961,-0.00052081,0.00110395,-0.04788221,0.01160653,-0.
 00000296,0.00000089,0.00000098,-0.00060431,0.00000143,-0.00032889,0.00
 003974,-0.00014115,-0.00005446,-0.00011836,-0.00000865,-0.00007178,-0.
 00002456,-0.00002981,-0.00000887,0.00008937,0.00011261,-0.00000351,-0.
 00000246,-0.00001104,-0.00000319,0.00000676,0.00000363,0.00002271,0.00
 003483,-0.00000184,0.00001004,-0.00010754,-0.00099643,-0.00029098,0.00
 003601,-0.00001226,-0.00001804,-0.00009482,0.00036548,-0.00020802,-0.0
 0547882,0.00283159,-0.02582888,0.00018233,0.04807434,0.00155391,0.0039
 5830,-0.00160197,-0.00113597,-0.00049631,-0.00037239,-0.00321602,-0.00
 310237,-0.01161449,0.00031018,-0.00017362,0.00003749,0.00017492,0.0001
 0767,0.00035376,-0.00000737,0.00008122,-0.00007408,0.00006345,-0.00000
 529,0.00004355,-0.00000601,0.00000702,0.00005574,-0.00017693,-0.000533
 09,0.00016360,-0.03618193,0.01322641,-0.30453698,0.00000268,0.00001195
 ,-0.00001149,0.00058055,0.00002974,0.00067397,-0.00015826,0.00000890,0
 .00012505,-0.00003168,0.00013761,-0.00024035,0.00002017,0.00003613,0.0
 0000003,-0.00012842,-0.00018404,0.00011412,0.00000483,-0.00000966,0.00
 001472,0.00007037,-0.00002170,0.00005451,0.00000965,0.00000179,-0.0000
 2190,-0.00003209,0.00033162,0.00051346,0.00016039,0.00011021,-0.000105
 14,0.00012378,0.00005835,0.00024042,-0.00240449,0.00208255,-0.01087256
 ,0.03963659,-0.01506858,0.33057417,0.00225476,0.00069540,0.00048332,0.
 00034108,-0.00306154,0.00188072,-0.01662603,0.00180285,-0.00475978,0.0
 0032495,-0.00018443,-0.00029703,-0.00079579,0.00073958,-0.00016950,0.0
 0003026,-0.00006948,0.00010584,0.00001776,0.00002541,-0.00001689,0.000
 01047,-0.00046490,0.00010577,0.00035013,0.00141338,0.00021017,-0.29725
 689,0.01151272,-0.04573219,-0.00000380,-0.00002448,-0.00000074,0.00034
 939,0.00011603,0.00006040,-0.00012488,-0.00005808,0.00009730,0.0001410
 7,-0.00021384,-0.00010144,-0.00001457,-0.00012849,-0.00006331,-0.00004
 861,-0.00008030,0.00010404,-0.00007114,0.00002786,0.00000921,0.0000229
 7,-0.00000062,-0.00001297,-0.00016898,-0.00000514,-0.00000819,0.000055
 74,0.00011997,0.00018876,0.00093806,-0.00052543,-0.00022762,0.00043568
 ,0.00007710,0.00015170,-0.01016148,-0.00052186,-0.00245028,-0.00307943
 ,0.00018865,0.00039109,0.32362984,0.00115759,0.00108669,-0.00233380,-0
 .00106671,-0.00515825,0.00237537,-0.02814012,-0.00010216,-0.00583830,0
 .00029612,-0.00074860,-0.00023128,-0.00174229,0.00069188,-0.00017796,-
 0.00003841,0.00031706,-0.00002691,0.00010551,-0.00011907,0.00003672,0.
 00002158,-0.00058924,0.00013102,-0.00158857,0.00140782,-0.00010043,0.0
 1283165,-0.04567839,0.00289314,0.00001051,0.00008718,-0.00000208,0.000
 18097,-0.00011247,0.00001550,0.00008778,0.00014917,0.00000047,0.000088
 96,0.00062626,0.00004459,0.00003086,0.00001120,-0.00008090,0.00001722,
 0.00002762,0.00004507,-0.00002989,0.00001333,-0.00000517,-0.00001044,0
 .00000177,-0.00001059,-0.00021449,0.00001538,0.00000397,0.00002134,-0.
 00003928,0.00001276,0.00056934,-0.00116382,0.00009487,0.00028758,0.000
 32080,0.00004408,0.02550418,-0.00051594,0.00628765,0.00164202,-0.00134
 913,-0.00010152,-0.01051827,0.05072192,0.00007914,-0.00115687,0.001659
 34,0.00031056,0.00157691,-0.00110069,0.01310585,-0.00008807,0.00056456
 ,0.00008724,-0.00002500,0.00006664,0.00063483,-0.00010318,0.00047905,-
 0.00002013,0.00011069,-0.00007787,0.00004924,0.00002101,0.00002012,0.0
 0005640,0.00018310,-0.00000882,-0.00022835,-0.00080079,-0.00030649,-0.
 04542306,0.00203763,-0.05366620,0.00000358,0.00001288,-0.00000051,0.00
 024189,-0.00000647,0.00045494,0.00006936,0.00006807,-0.00000218,-0.000
 02110,0.00020566,-0.00005678,-0.00000960,0.00003733,-0.00001585,-0.000
 05053,-0.00008883,0.00003224,-0.00000009,-0.00001204,0.00001312,0.0000
 2769,-0.00001744,0.00002559,0.00005925,-0.00000239,-0.00000740,-0.0001
 6934,-0.00001994,-0.00001258,-0.00013452,-0.00030532,0.00028131,0.0001
 5643,-0.00012666,-0.00013109,0.01393305,0.00023884,0.00199232,-0.03132
 733,0.00149315,-0.00391878,0.04886224,-0.00387110,0.05421484,-0.512899
 62,0.03481725,-0.12260970,0.00167993,0.00005592,-0.00074928,-0.0050196
 9,0.00011091,0.00205816,0.00025273,-0.00034325,0.00017105,0.00031272,0
 .00025706,-0.00009189,0.00005181,0.00002842,-0.00011006,0.00002726,0.0
 0001944,0.00000068,-0.00005184,0.00000542,0.00004673,0.00251636,-0.000
 60142,0.00135823,0.00218238,0.00068841,0.00124083,-0.00000715,-0.00000
 388,0.00000946,-0.00009568,-0.00005668,-0.00004172,0.00015102,-0.00013
 224,-0.00026438,-0.00001618,0.00011373,-0.00007589,-0.00004664,-0.0000
 3948,-0.00007188,0.00001701,0.00018739,0.00004718,-0.00000151,-0.00000
 671,0.00000011,-0.00005312,-0.00001532,0.00000139,-0.00000130,-0.00000
 139,-0.00000474,-0.00037851,0.00053059,0.00049496,-0.00055879,-0.00062
 254,-0.00034632,-0.00010454,-0.00022439,-0.00032630,-0.00012336,0.0000
 3524,-0.00020708,-0.00033692,-0.00048732,0.00036466,-0.00050661,0.0005
 1109,-0.00030453,0.51301424,0.03472966,-0.00421628,0.00929537,-0.00011
 622,-0.00048609,-0.00019096,0.00037844,-0.00037277,-0.00029029,0.00029
 422,0.00038768,-0.00002361,-0.00001415,0.00019852,-0.00022950,-0.00004
 094,-0.00016890,0.00017154,-0.00003478,0.00003832,0.00003685,-0.000003
 94,-0.00009602,-0.00003472,-0.00124748,0.00034889,0.00017523,0.0015038
 3,-0.00008438,-0.00027464,0.00000084,-0.00002094,0.00000260,-0.0000038
 7,0.00029571,0.00001158,0.00000211,-0.00005864,0.00027698,-0.00006635,
 -0.00013984,-0.00002868,-0.00012016,-0.00011617,-0.00020612,0.00001718
 ,0.00028043,-0.00003191,0.00001725,-0.00000947,-0.00000917,0.00008633,
 -0.00001467,0.00001704,-0.00003356,-0.00000546,-0.00000128,0.00031332,
 -0.00010896,0.00051910,0.00062862,0.00036059,-0.00045379,-0.00048205,-
 0.00081674,-0.00034109,0.00032367,-0.00052270,0.00023574,-0.00044155,0
 .00007707,-0.00049212,-0.00087240,0.00008696,0.00064828,-0.03482082,0.
 00517246,-0.07546910,0.00595773,-0.06367835,0.00058942,0.00032462,-0.0
 0811358,-0.04515388,0.00290783,-0.01357856,0.00095423,-0.00027976,-0.0
 0024655,0.00046784,0.00041840,-0.00000348,-0.00010289,-0.00001075,0.00
 020264,0.00009940,-0.00005501,0.00002929,-0.00015001,-0.00007651,0.000
 08275,-0.00096786,-0.00047175,0.00135892,-0.00093836,0.00031448,0.0010
 2753,0.00000239,0.00001168,-0.00001703,-0.00195679,-0.00003530,-0.0003
 5540,-0.00029839,0.00018677,0.00041736,-0.00007514,0.00008877,0.000077
 49,-0.00002016,-0.00005183,0.00001171,-0.00011551,-0.00036664,0.000178
 80,0.00001786,-0.00001957,0.00000786,0.00011641,-0.00003300,0.00006608
 ,0.00002581,0.00001862,0.00002478,0.00036315,0.00050580,0.00051670,0.0
 0120295,-0.00067976,-0.00064331,0.00016236,-0.00012950,-0.00007567,0.0
 0023098,-0.00007078,-0.00001451,0.00037092,-0.00047610,0.00040286,0.00
 119073,0.00079803,-0.00050018,0.11940852,-0.00877506,0.08282563,-0.000
 03421,-0.00008106,-0.00003331,0.00011530,0.00038191,-0.00010011,0.0000
 2841,-0.00005084,0.00003341,-0.00007668,0.00014352,0.00026493,-0.00022
 790,0.00124943,0.00242972,0.00168011,0.00049463,0.00035488,-0.01142738
 ,0.01967644,-0.02841945,-0.00356818,-0.00215840,-0.00005472,-0.0000165
 2,0.00001514,-0.00002694,-0.00005253,0.00000549,-0.00002664,-0.0650422
 7,0.03459949,-0.06173533,-0.00002606,-0.00001702,0.00005088,0.00016782
 ,-0.00001093,0.00010091,0.00003272,-0.00006704,0.00003880,-0.00082430,
 -0.00004388,0.00002963,0.00029164,-0.00011540,-0.00005179,0.00006884,-
 0.00019914,0.00001164,-0.00043885,-0.00068739,0.00045601,-0.00005419,0
 .00000981,-0.00103351,0.00001685,0.00001147,-0.00001577,-0.00002694,-0
 .00003963,-0.00000162,0.00003251,-0.00004633,0.00003164,-0.00000106,-0
 .00002299,-0.00000736,-0.00000078,0.00000681,0.00000490,-0.00001101,-0
 .00002191,0.00000594,0.00000197,0.00000710,0.00000965,0.07357740,0.000
 01719,-0.00000281,0.00000225,0.00014861,-0.00003665,0.00009610,-0.0000
 2492,0.00003093,-0.00004840,0.00008877,-0.00000350,-0.00023373,0.00017
 115,0.00010451,-0.00050406,-0.00004140,0.00024777,-0.00004835,0.002903
 52,-0.00182641,-0.00026476,0.00050824,0.00062116,0.00039058,0.00001526
 ,0.00000095,0.00001925,0.00002992,-0.00000177,0.00001648,0.03294386,-0
 .10958044,0.10553987,0.00001668,0.00001438,-0.00002720,-0.00005911,-0.
 00003339,0.00000121,0.00003914,0.00001785,0.00001723,0.00008302,-0.000
 01861,-0.00000415,-0.00013515,-0.00003558,-0.00001957,0.00018891,-0.00
 000914,-0.00014851,0.00011437,0.00033902,0.00018228,-0.00004866,0.0003
 5119,0.00066037,-0.00000421,-0.00000007,-0.00000465,0.00001206,-0.0000
 0148,-0.00000325,-0.00000514,0.00000505,-0.00000379,-0.00000642,-0.000
 00716,-0.00000097,-0.00000261,-0.00000106,-0.00000353,0.00001440,0.000
 00609,-0.00000329,-0.00000305,0.00000050,-0.00000381,-0.04100515,0.114
 92073,-0.00004369,-0.00004623,-0.00001229,0.00002579,0.00012578,0.0000
 1393,0.00004804,-0.00002841,-0.00001129,-0.00009666,-0.00019811,0.0001
 2266,0.00007175,0.00015342,-0.00018332,0.00005128,-0.00004142,0.000450
 03,-0.00076077,0.00054383,0.00105779,0.00028085,-0.00107881,0.00006036
 ,0.00000687,0.00000733,-0.00000342,-0.00003090,0.00000079,-0.00000789,
 -0.05992632,0.10594369,-0.21668756,0.00000569,0.00000953,0.00001359,0.
 00011305,0.00002027,0.00003490,-0.00005140,-0.00002684,-0.00002141,-0.
 00005930,-0.00007180,0.00001346,-0.00009415,-0.00001811,-0.00000135,-0
 .00012158,-0.00002585,-0.00032690,-0.00043899,-0.00022487,-0.00004495,
 0.00003240,-0.00006333,0.00009736,0.00000712,0.00000195,-0.00000316,-0
 .00001277,-0.00001193,-0.00000357,0.00001548,-0.00001689,0.00000605,0.
 00000253,-0.00000529,-0.00000591,0.00000184,0.00000498,0.00000401,-0.0
 0001139,-0.00000955,0.00000149,0.00000361,0.00000332,0.00000404,0.0668
 4141,-0.11615871,0.23482876,-0.00004817,0.00006308,-0.00001705,0.00031
 028,-0.00030461,-0.00005246,0.00005542,0.00006572,-0.00002352,-0.00039
 715,-0.00188222,0.00039137,0.00017405,0.00040191,-0.00003635,-0.005897
 58,0.00239628,-0.00101919,-0.01167458,-0.03233211,-0.00058828,0.001629
 02,-0.00169107,0.00031606,-0.00003603,-0.00000198,-0.00001119,0.000004
 28,-0.00002586,-0.00000375,-0.08539231,-0.09273127,-0.00352300,0.00001
 161,0.00001489,0.00001672,0.00000946,0.00001234,-0.00004437,-0.0006106
 8,0.00005832,-0.00020888,-0.00003459,0.00000746,0.00001264,-0.00000819
 ,-0.00005029,0.00001549,0.00016325,0.00022729,-0.00013831,0.00006349,0
 .00009696,0.00018301,-0.00037795,0.00156583,-0.00015833,0.00000162,-0.
 00000601,0.00000503,-0.00000823,0.00001734,0.00000328,-0.00000312,0.00
 001685,-0.00000813,0.00002366,0.00004626,0.00000926,0.00000241,0.00000
 099,0.00000529,-0.00001624,0.00002847,0.00000416,-0.00000349,-0.000008
 13,0.00001490,0.00283800,0.00911190,0.00141488,0.09504812,-0.00005908,
 0.00002468,-0.00002977,-0.00002162,0.00002820,-0.00004023,0.00006344,0
 .00004011,0.00004306,0.00031889,-0.00008418,0.00022117,-0.00017790,0.0
 0028749,0.00005289,-0.00000849,0.00112048,-0.00032280,0.00090484,0.001
 04137,0.00018497,0.00177998,0.00075478,0.00000970,-0.00004206,-0.00000
 112,-0.00001424,-0.00000345,-0.00000556,-0.00001051,-0.09556901,-0.274
 41916,-0.00864134,0.00001323,0.00000245,0.00000735,-0.00002571,0.00001
 093,-0.00002770,-0.00008562,0.00001373,-0.00004130,-0.00008476,0.00002
 350,0.00000631,-0.00004933,0.00000101,-0.00000059,0.00019768,0.0003332
 6,0.00018849,0.00013209,0.00002965,0.00004539,-0.00007666,0.00029924,-
 0.00006913,0.00000711,-0.00000414,0.00000115,-0.00002120,0.00000784,0.
 00000200,0.00000686,-0.00000152,-0.00000107,0.00001470,0.00001314,0.00
 000486,0.00000589,0.00000191,0.00000081,-0.00001728,0.00000370,-0.0000
 0367,-0.00000069,-0.00000771,0.00001600,-0.00529820,-0.01269113,-0.002
 11327,0.10324006,0.29515902,-0.00000193,-0.00000123,-0.00001394,-0.000
 02018,-0.00000677,-0.00000140,0.00000104,0.00003098,0.00001257,-0.0001
 1995,0.00009319,0.00038973,0.00003125,0.00004671,-0.00019088,-0.000044
 76,-0.00033903,0.00120919,-0.00015337,-0.00171489,-0.00180177,0.000037
 42,-0.00014795,-0.00048485,-0.00000410,-0.00000383,0.00000285,0.000002
 37,-0.00000097,-0.00000019,-0.00359970,-0.00851838,-0.04645040,-0.0000
 0047,0.00000174,-0.00001106,0.00008097,-0.00000165,0.00001911,-0.00000
 392,0.00000214,-0.00000934,0.00004603,-0.00001555,0.00001181,-0.000067
 76,-0.00000727,-0.00000280,-0.00013183,0.00049440,0.00009197,-0.000427
 35,-0.00040135,0.00022117,-0.00011082,0.00015246,0.00033864,0.00000049
 ,0.00000105,-0.00000352,-0.00000157,0.00000048,-0.00000069,0.00000100,
 0.00000075,0.00000118,0.00000129,-0.00000072,-0.00000058,0.00000022,0.
 00000160,-0.00000136,0.00000019,0.00000197,0.00000013,0.00000012,-0.00
 000428,0.00000215,0.01094602,0.02389235,0.00191704,0.00430177,0.009373
 50,0.04472038,-0.00009542,-0.00010828,-0.00006059,0.00029616,0.0003567
 9,0.00000060,0.00010717,-0.00005927,-0.00002203,0.00002515,0.00000561,
 -0.00042894,-0.00038835,0.00058256,-0.00286068,0.00099369,0.00155306,0
 .00004725,-0.01481301,0.01801803,0.02654846,-0.00297372,-0.00192350,0.
 00006916,0.00001651,0.00002273,-0.00000180,-0.00005335,0.00001054,-0.0
 0001124,-0.08070119,0.04474772,0.07876810,0.00006131,-0.00003040,0.000
 03503,-0.00009654,0.00002231,-0.00001617,0.00006069,-0.00005110,-0.000
 01057,0.00019578,-0.00006039,0.00009444,-0.00085550,0.00008300,0.00011
 655,-0.00012569,-0.00123559,-0.00033099,0.00019155,0.00006031,-0.00014
 509,-0.00008995,0.00013109,0.00108044,0.00000752,-0.00000159,-0.000002
 30,-0.00002302,-0.00002547,0.00000050,0.00003343,-0.00004137,0.0000059
 1,-0.00000196,-0.00001949,-0.00000647,0.00000443,0.00000560,0.00000177
 ,-0.00001670,-0.00002166,0.00000174,-0.00000249,0.00000386,0.00002055,
 0.00297728,-0.00507116,-0.00727466,0.00417363,-0.00514369,-0.01076250,
 0.09109257,0.00002975,0.00000846,0.00003179,-0.00005441,-0.00006731,0.
 00002683,-0.00004356,0.00000321,-0.00005355,-0.00001436,0.00006420,-0.
 00014074,0.00014528,0.00000447,0.00069177,-0.00026976,0.00019597,0.000
 81304,0.00337031,-0.00243793,0.00043279,0.00069161,0.00087369,-0.00020
 481,0.00001913,-0.00000392,0.00001089,0.00001922,0.00000177,0.00001255
 ,0.04311312,-0.10467301,-0.09937437,-0.00000270,0.00001258,-0.00000370
 ,-0.00000509,-0.00003005,0.00001153,0.00002813,0.00002482,0.00001275,-
 0.00006727,0.00001164,-0.00002104,0.00016587,-0.00001321,-0.00004114,-
 0.00014177,-0.00002177,-0.00020092,-0.00015135,0.00013908,-0.00010507,
 0.00004957,0.00021585,-0.00070722,-0.00000510,0.00000286,0.00000453,0.
 00001518,0.00000100,-0.00000020,-0.00000937,0.00000750,-0.00000351,-0.
 00000604,-0.00000283,-0.00000199,-0.00000338,-0.00000238,0.00000156,0.
 00001318,0.00000149,-0.00000249,-0.00000166,-0.00000140,-0.00001361,-0
 .00673591,0.00758909,0.01332454,0.01166160,-0.01198193,-0.02292945,-0.
 05181024,0.11007804,0.00003137,0.00002560,0.00002208,-0.00012155,-0.00
 009059,-0.00009236,-0.00003154,0.00004594,-0.00000073,0.00004935,0.000
 30819,0.00026439,-0.00006801,-0.00006249,-0.00029504,0.00012879,-0.000
 16442,0.00005181,-0.00101336,0.00149388,0.00441038,-0.00062132,0.00084
 990,0.00000202,-0.00000643,-0.00000574,0.00000149,0.00002364,0.0000011
 3,0.00000453,0.07706766,-0.09914555,-0.20659358,0.00000207,0.00000272,
 -0.00000342,0.00000057,-0.00001951,-0.00003433,0.00005488,0.00001959,-
 0.00001866,0.00011069,0.00002381,-0.00003908,-0.00005467,0.00002897,-0
 .00005483,0.00038444,0.00039123,0.00011430,-0.00007539,-0.00007565,-0.
 00007810,-0.00003157,0.00010571,0.00019457,-0.00000710,-0.00000113,0.0
 0000694,0.00001028,0.00001060,0.00000440,-0.00001196,0.00001090,-0.000
 00670,-0.00000374,0.00000225,0.00000263,-0.00000369,-0.00000325,0.0000
 0002,0.00000984,0.00000437,-0.00000026,-0.00000191,-0.00000643,-0.0000
 0997,0.00989619,-0.01333725,-0.02131246,-0.00086106,0.00115795,0.00003
 484,-0.08485648,0.10842926,0.22342516\\-0.00000285,0.00000521,-0.00000
 243,-0.00000302,0.00000171,0.00000918,0.00000155,0.00000028,-0.0000060
 8,0.00000220,-0.00000073,0.00000038,-0.00000036,0.00000007,0.00000211,
 -0.00000427,0.00000223,0.00000140,-0.00000166,-0.00000543,-0.00000063,
 0.00000072,0.00000615,-0.00000062,0.00000048,-0.00000208,-0.00000103,0
 .00000038,0.00000295,0.00000060,0.00000052,-0.00000110,0.00000296,0.00
 000331,-0.00000047,-0.00000276,-0.00000051,0.00000078,0.00000005,-0.00
 000014,0.00000069,-0.00000412,0.00000119,0.00000069,-0.00000054,0.0000
 0011,-0.00000253,0.00000070,-0.00000013,0.00000067,-0.00000093,0.00000
 312,-0.00000184,0.00000112,0.00000191,-0.00000315,0.00000593,-0.000000
 68,-0.00000028,0.00000013,0.00000098,0.00000060,-0.00000098,0.00000022
 ,-0.00000025,-0.00000044,-0.00000013,0.00000058,-0.00000276,-0.0000013
 6,-0.00000100,-0.00000236,-0.00000018,-0.00000053,-0.00000241,-0.00000
 162,0.00000014,-0.00000411,-0.00000091,-0.00000189,0.00000236,0.000000
 73,-0.00000165,0.00000286,0.00000039,0.00000020,0.00000243\\\@


 SCIENCE IS LONG AND LIFE IS SHORT.

                     DON MOSER IN THE FEBRUARY 1979 SMITHSONIAN
 Job cpu time:       0 days  7 hours  7 minutes 14.3 seconds.
 Elapsed time:       0 days  0 hours 26 minutes 49.7 seconds.
 File lengths (MBytes):  RWF=    334 Int=      0 D2E=      0 Chk=     12 Scr=      1
 Normal termination of Gaussian 16 at Thu Sep 18 03:37:26 2025.
