 Entering Gaussian System, Link 0=g16
 Input=AMAC0005.gjf
 Output=AMAC0005.log
 Initial command:
 /usr/local/g16/l1.exe "/dados_01/scratch/Gau-1905718.inp" -scrdir="/dados_01/scratch/"
 Entering Link 1 = /usr/local/g16/l1.exe PID=   1905719.
  
 Copyright (c) 1988-2017, Gaussian, Inc.  All Rights Reserved.
  
 This is part of the Gaussian(R) 16 program.  It is based on
 the Gaussian(R) 09 system (copyright 2009, Gaussian, Inc.),
 the Gaussian(R) 03 system (copyright 2003, Gaussian, Inc.),
 the Gaussian(R) 98 system (copyright 1998, Gaussian, Inc.),
 the Gaussian(R) 94 system (copyright 1995, Gaussian, Inc.),
 the Gaussian 92(TM) system (copyright 1992, Gaussian, Inc.),
 the Gaussian 90(TM) system (copyright 1990, Gaussian, Inc.),
 the Gaussian 88(TM) system (copyright 1988, Gaussian, Inc.),
 the Gaussian 86(TM) system (copyright 1986, Carnegie Mellon
 University), and the Gaussian 82(TM) system (copyright 1983,
 Carnegie Mellon University). Gaussian is a federally registered
 trademark of Gaussian, Inc.
  
 This software contains proprietary and confidential information,
 including trade secrets, belonging to Gaussian, Inc.
  
 This software is provided under written license and may be
 used, copied, transmitted, or stored only in accord with that
 written license.
  
 The following legend is applicable only to US Government
 contracts under FAR:
  
                    RESTRICTED RIGHTS LEGEND
  
 Use, reproduction and disclosure by the US Government is
 subject to restrictions as set forth in subparagraphs (a)
 and (c) of the Commercial Computer Software - Restricted
 Rights clause in FAR 52.227-19.
  
 Gaussian, Inc.
 340 Quinnipiac St., Bldg. 40, Wallingford CT 06492
  
  
 ---------------------------------------------------------------
 Warning -- This program may not be used in any manner that
 competes with the business of Gaussian, Inc. or will provide
 assistance to any competitor of Gaussian, Inc.  The licensee
 of this program is prohibited from giving any competitor of
 Gaussian, Inc. access to this program.  By using this program,
 the user acknowledges that Gaussian, Inc. is engaged in the
 business of creating and licensing software in the field of
 computational chemistry and represents and warrants to the
 licensee that it is not a competitor of Gaussian, Inc. and that
 it will not use this program in any manner prohibited above.
 ---------------------------------------------------------------
  

 Cite this work as:
 Gaussian 16, Revision B.01,
 M. J. Frisch, G. W. Trucks, H. B. Schlegel, G. E. Scuseria, 
 M. A. Robb, J. R. Cheeseman, G. Scalmani, V. Barone, 
 G. A. Petersson, H. Nakatsuji, X. Li, M. Caricato, A. V. Marenich, 
 J. Bloino, B. G. Janesko, R. Gomperts, B. Mennucci, H. P. Hratchian, 
 J. V. Ortiz, A. F. Izmaylov, J. L. Sonnenberg, D. Williams-Young, 
 F. Ding, F. Lipparini, F. Egidi, J. Goings, B. Peng, A. Petrone, 
 T. Henderson, D. Ranasinghe, V. G. Zakrzewski, J. Gao, N. Rega, 
 G. Zheng, W. Liang, M. Hada, M. Ehara, K. Toyota, R. Fukuda, 
 J. Hasegawa, M. Ishida, T. Nakajima, Y. Honda, O. Kitao, H. Nakai, 
 T. Vreven, K. Throssell, J. A. Montgomery, Jr., J. E. Peralta, 
 F. Ogliaro, M. J. Bearpark, J. J. Heyd, E. N. Brothers, K. N. Kudin, 
 V. N. Staroverov, T. A. Keith, R. Kobayashi, J. Normand, 
 K. Raghavachari, A. P. Rendell, J. C. Burant, S. S. Iyengar, 
 J. Tomasi, M. Cossi, J. M. Millam, M. Klene, C. Adamo, R. Cammi, 
 J. W. Ochterski, R. L. Martin, K. Morokuma, O. Farkas, 
 J. B. Foresman, and D. J. Fox, Gaussian, Inc., Wallingford CT, 2016.
 
 ******************************************
 Gaussian 16:  ES64L-G16RevB.01 20-Dec-2017
                18-Sep-2025 
 ******************************************
 %nprocs=16
 Will use up to   16 processors via shared memory.
 %mem=40GB
 %chk=AMAC0005.chk
 ----------------------------------------------------------------------
 # opt freq=noraman M08HX/6-311++G** scf=xqc Empiricaldispersion=pfd In
 t(Grid=ultraFine)
 ----------------------------------------------------------------------
 1/18=20,19=15,26=4,38=1/1,3;
 2/9=110,12=2,17=6,18=5,40=1/2;
 3/5=4,6=6,7=1111,11=2,25=1,30=1,71=1,74=-74,75=-5,124=11/1,2,3;
 4//1;
 5/5=2,8=3,13=1,38=5/2,8;
 6/7=2,8=2,9=2,10=2,28=1/1;
 7//1,2,3,16;
 1/18=20,19=15,26=4/3(2);
 2/9=110/2;
 99//99;
 2/9=110/2;
 3/5=4,6=6,7=1111,11=2,25=1,30=1,71=1,74=-74,75=-5,124=11/1,2,3;
 4/5=5,16=3,69=1/1;
 5/5=2,8=3,13=1,38=5/2,8;
 7//1,2,3,16;
 1/18=20,19=15,26=4/3(-5);
 2/9=110/2;
 6/7=2,8=2,9=2,10=2,19=2,28=1/1;
 99/9=1/99;
 --------
 AMAC0005
 --------
 Symbolic Z-matrix:
 Charge =  0 Multiplicity = 1
 O                     1.483     0.512     0.0036 
 O                     2.8873   -1.3223   -0.0059 
 C                    -2.1752   -0.3447    0.028 
 C                    -0.9114    0.5125    0.0283 
 C                    -3.4344    0.5209   -0.004 
 C                     0.3478   -0.3424    0.0177 
 C                    -4.6943   -0.3295   -0.0386 
 C                     2.6995   -0.1132   -0.0072 
 C                     3.7976    0.9066   -0.0219 
 H                    -2.1884   -0.9824    0.9203 
 H                    -2.1666   -1.0098   -0.8442 
 H                    -0.8985    1.1703    0.9064 
 H                    -0.9036    1.1777   -0.8444 
 H                    -3.4617    1.1709    0.8783 
 H                    -3.4174    1.1715   -0.886 
 H                     0.3609   -0.9801   -0.8742 
 H                     0.3783   -0.976     0.9119 
 H                    -4.7132   -0.9669   -0.9284 
 H                    -4.7586   -0.9714    0.8458 
 H                    -5.5825    0.3097   -0.0598 
 H                     3.738     1.5281    0.8751 
 H                     3.7204    1.5211   -0.9223 
 H                     4.7656    0.3975   -0.0294 
 

 GradGradGradGradGradGradGradGradGradGradGradGradGradGradGradGradGradGrad
 Berny optimization.
 Initialization pass.
                           ----------------------------
                           !    Initial Parameters    !
                           ! (Angstroms and Degrees)  !
 --------------------------                            --------------------------
 ! Name  Definition              Value          Derivative Info.                !
 --------------------------------------------------------------------------------
 ! R1    R(1,6)                  1.4209         estimate D2E/DX2                !
 ! R2    R(1,8)                  1.3678         estimate D2E/DX2                !
 ! R3    R(2,8)                  1.2236         estimate D2E/DX2                !
 ! R4    R(3,4)                  1.5271         estimate D2E/DX2                !
 ! R5    R(3,5)                  1.5284         estimate D2E/DX2                !
 ! R6    R(3,10)                 1.0968         estimate D2E/DX2                !
 ! R7    R(3,11)                 1.0969         estimate D2E/DX2                !
 ! R8    R(4,6)                  1.522          estimate D2E/DX2                !
 ! R9    R(4,12)                 1.0972         estimate D2E/DX2                !
 ! R10   R(4,13)                 1.0973         estimate D2E/DX2                !
 ! R11   R(5,7)                  1.5204         estimate D2E/DX2                !
 ! R12   R(5,14)                 1.0962         estimate D2E/DX2                !
 ! R13   R(5,15)                 1.0961         estimate D2E/DX2                !
 ! R14   R(6,16)                 1.0965         estimate D2E/DX2                !
 ! R15   R(6,17)                 1.0963         estimate D2E/DX2                !
 ! R16   R(7,18)                 1.0947         estimate D2E/DX2                !
 ! R17   R(7,19)                 1.0947         estimate D2E/DX2                !
 ! R18   R(7,20)                 1.0945         estimate D2E/DX2                !
 ! R19   R(8,9)                  1.4987         estimate D2E/DX2                !
 ! R20   R(9,21)                 1.0929         estimate D2E/DX2                !
 ! R21   R(9,22)                 1.0928         estimate D2E/DX2                !
 ! R22   R(9,23)                 1.0937         estimate D2E/DX2                !
 ! A1    A(6,1,8)              115.8359         estimate D2E/DX2                !
 ! A2    A(4,3,5)              111.342          estimate D2E/DX2                !
 ! A3    A(4,3,10)             109.6431         estimate D2E/DX2                !
 ! A4    A(4,3,11)             109.5137         estimate D2E/DX2                !
 ! A5    A(5,3,10)             109.6578         estimate D2E/DX2                !
 ! A6    A(5,3,11)             109.4646         estimate D2E/DX2                !
 ! A7    A(10,3,11)            107.1241         estimate D2E/DX2                !
 ! A8    A(3,4,6)              111.6779         estimate D2E/DX2                !
 ! A9    A(3,4,12)             110.2678         estimate D2E/DX2                !
 ! A10   A(3,4,13)             110.2429         estimate D2E/DX2                !
 ! A11   A(6,4,12)             109.4256         estimate D2E/DX2                !
 ! A12   A(6,4,13)             109.2124         estimate D2E/DX2                !
 ! A13   A(12,4,13)            105.8402         estimate D2E/DX2                !
 ! A14   A(3,5,7)              111.4948         estimate D2E/DX2                !
 ! A15   A(3,5,14)             109.8457         estimate D2E/DX2                !
 ! A16   A(3,5,15)             109.8909         estimate D2E/DX2                !
 ! A17   A(7,5,14)             109.2277         estimate D2E/DX2                !
 ! A18   A(7,5,15)             109.0576         estimate D2E/DX2                !
 ! A19   A(14,5,15)            107.222          estimate D2E/DX2                !
 ! A20   A(1,6,4)              108.8626         estimate D2E/DX2                !
 ! A21   A(1,6,16)             109.3961         estimate D2E/DX2                !
 ! A22   A(1,6,17)             109.4742         estimate D2E/DX2                !
 ! A23   A(4,6,16)             110.0117         estimate D2E/DX2                !
 ! A24   A(4,6,17)             109.9955         estimate D2E/DX2                !
 ! A25   A(16,6,17)            109.0862         estimate D2E/DX2                !
 ! A26   A(5,7,18)             111.0061         estimate D2E/DX2                !
 ! A27   A(5,7,19)             110.9932         estimate D2E/DX2                !
 ! A28   A(5,7,20)             110.2582         estimate D2E/DX2                !
 ! A29   A(18,7,19)            108.3152         estimate D2E/DX2                !
 ! A30   A(18,7,20)            108.0767         estimate D2E/DX2                !
 ! A31   A(19,7,20)            108.0854         estimate D2E/DX2                !
 ! A32   A(1,8,2)              126.027          estimate D2E/DX2                !
 ! A33   A(1,8,9)              109.9202         estimate D2E/DX2                !
 ! A34   A(2,8,9)              124.0528         estimate D2E/DX2                !
 ! A35   A(8,9,21)             109.8132         estimate D2E/DX2                !
 ! A36   A(8,9,22)             109.8127         estimate D2E/DX2                !
 ! A37   A(8,9,23)             109.3787         estimate D2E/DX2                !
 ! A38   A(21,9,22)            110.6472         estimate D2E/DX2                !
 ! A39   A(21,9,23)            108.5778         estimate D2E/DX2                !
 ! A40   A(22,9,23)            108.5785         estimate D2E/DX2                !
 ! D1    D(8,1,6,4)            179.9999         estimate D2E/DX2                !
 ! D2    D(8,1,6,16)           -59.7563         estimate D2E/DX2                !
 ! D3    D(8,1,6,17)            59.729          estimate D2E/DX2                !
 ! D4    D(6,1,8,2)              0.0084         estimate D2E/DX2                !
 ! D5    D(6,1,8,9)            179.9789         estimate D2E/DX2                !
 ! D6    D(5,3,4,6)           -178.2825         estimate D2E/DX2                !
 ! D7    D(5,3,4,12)            59.8267         estimate D2E/DX2                !
 ! D8    D(5,3,4,13)           -56.6802         estimate D2E/DX2                !
 ! D9    D(10,3,4,6)            60.1873         estimate D2E/DX2                !
 ! D10   D(10,3,4,12)          -61.7036         estimate D2E/DX2                !
 ! D11   D(10,3,4,13)         -178.2105         estimate D2E/DX2                !
 ! D12   D(11,3,4,6)           -57.0824         estimate D2E/DX2                !
 ! D13   D(11,3,4,12)         -178.9733         estimate D2E/DX2                !
 ! D14   D(11,3,4,13)           64.5198         estimate D2E/DX2                !
 ! D15   D(4,3,5,7)            178.6141         estimate D2E/DX2                !
 ! D16   D(4,3,5,14)           -60.1596         estimate D2E/DX2                !
 ! D17   D(4,3,5,15)            57.5717         estimate D2E/DX2                !
 ! D18   D(10,3,5,7)           -59.8642         estimate D2E/DX2                !
 ! D19   D(10,3,5,14)           61.3621         estimate D2E/DX2                !
 ! D20   D(10,3,5,15)          179.0934         estimate D2E/DX2                !
 ! D21   D(11,3,5,7)            57.3854         estimate D2E/DX2                !
 ! D22   D(11,3,5,14)          178.6117         estimate D2E/DX2                !
 ! D23   D(11,3,5,15)          -63.657          estimate D2E/DX2                !
 ! D24   D(3,4,6,1)            179.3647         estimate D2E/DX2                !
 ! D25   D(3,4,6,16)            59.502          estimate D2E/DX2                !
 ! D26   D(3,4,6,17)           -60.6868         estimate D2E/DX2                !
 ! D27   D(12,4,6,1)           -58.2604         estimate D2E/DX2                !
 ! D28   D(12,4,6,16)         -178.1231         estimate D2E/DX2                !
 ! D29   D(12,4,6,17)           61.6881         estimate D2E/DX2                !
 ! D30   D(13,4,6,1)            57.1688         estimate D2E/DX2                !
 ! D31   D(13,4,6,16)          -62.6939         estimate D2E/DX2                !
 ! D32   D(13,4,6,17)          177.1172         estimate D2E/DX2                !
 ! D33   D(3,5,7,18)           -60.3372         estimate D2E/DX2                !
 ! D34   D(3,5,7,19)            60.1864         estimate D2E/DX2                !
 ! D35   D(3,5,7,20)           179.9259         estimate D2E/DX2                !
 ! D36   D(14,5,7,18)          178.0773         estimate D2E/DX2                !
 ! D37   D(14,5,7,19)          -61.399          estimate D2E/DX2                !
 ! D38   D(14,5,7,20)           58.3404         estimate D2E/DX2                !
 ! D39   D(15,5,7,18)           61.1901         estimate D2E/DX2                !
 ! D40   D(15,5,7,19)         -178.2862         estimate D2E/DX2                !
 ! D41   D(15,5,7,20)          -58.5468         estimate D2E/DX2                !
 ! D42   D(1,8,9,21)            60.8829         estimate D2E/DX2                !
 ! D43   D(1,8,9,22)           -60.9998         estimate D2E/DX2                !
 ! D44   D(1,8,9,23)           179.9413         estimate D2E/DX2                !
 ! D45   D(2,8,9,21)          -119.1459         estimate D2E/DX2                !
 ! D46   D(2,8,9,22)           118.9714         estimate D2E/DX2                !
 ! D47   D(2,8,9,23)            -0.0875         estimate D2E/DX2                !
 --------------------------------------------------------------------------------
 Trust Radius=3.00D-01 FncErr=1.00D-07 GrdErr=1.00D-06 EigMax=2.50D+02 EigMin=1.00D-04
 Number of steps in this run=    119 maximum allowed number of steps=    138.
 GradGradGradGradGradGradGradGradGradGradGradGradGradGradGradGradGradGrad

                          Input orientation:                          
 ---------------------------------------------------------------------
 Center     Atomic      Atomic             Coordinates (Angstroms)
 Number     Number       Type             X           Y           Z
 ---------------------------------------------------------------------
      1          8           0        1.483000    0.512000    0.003600
      2          8           0        2.887300   -1.322300   -0.005900
      3          6           0       -2.175200   -0.344700    0.028000
      4          6           0       -0.911400    0.512500    0.028300
      5          6           0       -3.434400    0.520900   -0.004000
      6          6           0        0.347800   -0.342400    0.017700
      7          6           0       -4.694300   -0.329500   -0.038600
      8          6           0        2.699500   -0.113200   -0.007200
      9          6           0        3.797600    0.906600   -0.021900
     10          1           0       -2.188400   -0.982400    0.920300
     11          1           0       -2.166600   -1.009800   -0.844200
     12          1           0       -0.898500    1.170300    0.906400
     13          1           0       -0.903600    1.177700   -0.844400
     14          1           0       -3.461700    1.170900    0.878300
     15          1           0       -3.417400    1.171500   -0.886000
     16          1           0        0.360900   -0.980100   -0.874200
     17          1           0        0.378300   -0.976000    0.911900
     18          1           0       -4.713200   -0.966900   -0.928400
     19          1           0       -4.758600   -0.971400    0.845800
     20          1           0       -5.582500    0.309700   -0.059800
     21          1           0        3.738000    1.528100    0.875100
     22          1           0        3.720400    1.521100   -0.922300
     23          1           0        4.765600    0.397500   -0.029400
 ---------------------------------------------------------------------
                    Distance matrix (angstroms):
                    1          2          3          4          5
     1  O    0.000000
     2  O    2.310153   0.000000
     3  C    3.757254   5.156138   0.000000
     4  C    2.394527   4.218742   1.527083   0.000000
     5  C    4.917414   6.584928   1.528356   2.523221   0.000000
     6  C    1.420872   2.722099   2.523022   1.522022   3.879535
     7  C    6.234496   7.646397   2.520026   3.876051   1.520436
     8  C    1.367795   1.223599   4.880321   3.664882   6.166589
     9  C    2.348134   2.407675   6.102670   4.725729   7.242300
    10  H    4.068507   5.170697   1.096829   2.158962   2.160268
    11  H    4.044035   5.132476   1.096889   2.157355   2.157845
    12  H    2.630580   4.623595   2.167204   1.097236   2.771523
    13  H    2.618801   4.617792   2.166968   1.097341   2.746381
    14  H    5.064515   6.878056   2.162206   2.767674   1.096220
    15  H    5.023967   6.836875   2.162711   2.747774   1.096127
    16  H    2.063008   2.693277   2.765773   2.158960   4.173075
    17  H    2.063859   2.693949   2.774920   2.158636   4.197173
    18  H    6.438064   7.664523   2.782675   4.190177   2.168731
    19  H    6.470498   7.701189   2.781278   4.203714   2.168554
    20  H    7.068680   8.625766   3.470683   4.676330   2.159179
    21  H    2.622403   3.102359   6.260263   4.833781   7.295930
    22  H    2.623268   3.101414   6.256387   4.834717   7.282502
    23  H    3.284762   2.546817   6.980606   5.678458   8.200968
                    6          7          8          9         10
     6  C    0.000000
     7  C    5.042431   0.000000
     8  C    2.362974   7.397030   0.000000
     9  C    3.669154   8.581409   1.498677   0.000000
    10  H    2.767056   2.761395   5.050478   6.347303   0.000000
    11  H    2.740529   2.738808   5.018305   6.318263   1.764847
    12  H    2.152048   4.189334   3.927804   4.794229   2.509612
    13  H    2.149400   4.158169   3.917864   4.780302   3.070979
    14  H    4.188436   2.147372   6.355581   7.319676   2.501951
    15  H    4.157559   2.145125   6.311831   7.271387   3.067971
    16  H    1.096503   5.164935   2.640503   4.012102   3.117558
    17  H    1.096345   5.201219   2.641427   4.013450   2.566722
    18  H    5.186408   1.094705   7.518347   8.761590   3.129305
    19  H    5.211210   1.094684   7.555619   8.802746   2.571303
    20  H    5.966548   1.094498   8.292957   9.399149   3.761653
    21  H    3.965774   8.682696   2.133261   1.092897   6.436371
    22  H    3.966190   8.660994   2.133209   1.092836   6.676571
    23  H    4.479579   9.487799   2.128398   1.093738   7.152913
                   11         12         13         14         15
    11  H    0.000000
    12  H    3.070100   0.000000
    13  H    2.525931   1.750823   0.000000
    14  H    3.065900   2.563354   3.084091   0.000000
    15  H    2.514820   3.091530   2.514152   1.764856   0.000000
    16  H    2.527853   3.062816   2.501190   4.723381   4.347996
    17  H    3.092175   2.497369   3.060438   4.399535   4.717154
    18  H    2.548353   4.741946   4.372576   3.066041   2.500730
    19  H    3.094518   4.414853   4.726143   2.504487   3.064306
    20  H    3.744961   4.859427   4.822979   2.473760   2.472441
    21  H    6.652911   4.650391   4.962249   7.208556   7.377560
    22  H    6.408457   4.980105   4.637388   7.412649   7.146449
    23  H    7.120378   5.792665   5.780378   8.313274   8.264038
                   16         17         18         19         20
    16  H    0.000000
    17  H    1.786189   0.000000
    18  H    5.074407   5.413886   0.000000
    19  H    5.400718   5.137327   1.774786   0.000000
    20  H    6.136028   6.174817   1.771964   1.772044   0.000000
    21  H    4.555867   4.190400   8.994466   8.856668   9.446177
    22  H    4.188622   4.557349   8.792940   9.012889   9.421005
    23  H    4.691785   4.692648   9.618599   9.661793  10.348517
                   21         22         23
    21  H    0.000000
    22  H    1.797500   0.000000
    23  H    1.775483   1.775441   0.000000
 Stoichiometry    C7H14O2
 Framework group  C1[X(C7H14O2)]
 Deg. of freedom    63
 Full point group                 C1      NOp   1
 Largest Abelian subgroup         C1      NOp   1
 Largest concise Abelian subgroup C1      NOp   1
                         Standard orientation:                         
 ---------------------------------------------------------------------
 Center     Atomic      Atomic             Coordinates (Angstroms)
 Number     Number       Type             X           Y           Z
 ---------------------------------------------------------------------
      1          8           0       -1.578663   -0.476510    0.004442
      2          8           0       -2.956683    1.377603   -0.007039
      3          6           0        2.091366    0.328003    0.028950
      4          6           0        0.815481   -0.511103    0.029716
      5          6           0        3.338113   -0.555478   -0.001972
      6          6           0       -0.431408    0.361641    0.018048
      7          6           0        4.610009    0.276853   -0.037033
      8          6           0       -2.786129    0.165949   -0.007210
      9          6           0       -3.898645   -0.838115   -0.021259
     10          1           0        2.113449    0.966253    0.920681
     11          1           0        2.092441    0.992373   -0.843848
     12          1           0        0.793011   -1.167862    0.908402
     13          1           0        0.798402   -1.176909   -0.842390
     14          1           0        3.355948   -1.205007    0.880916
     15          1           0        3.312045   -1.206563   -0.883393
     16          1           0       -0.435218    0.998661   -0.874427
     17          1           0       -0.453080    0.996416    0.911672
     18          1           0        4.638191    0.913118   -0.927399
     19          1           0        4.683248    0.918567    0.846807
     20          1           0        5.489016   -0.374956   -0.057447
     21          1           0       -3.848109   -1.459594    0.876312
     22          1           0       -3.830004   -1.454462   -0.921090
     23          1           0       -4.859291   -0.315281   -0.029448
 ---------------------------------------------------------------------
 Rotational constants (GHZ):           6.4310122           0.4698614           0.4452508
 Standard basis: 6-311++G(d,p) (5D, 7F)
 There are   305 symmetry adapted cartesian basis functions of A   symmetry.
 There are   296 symmetry adapted basis functions of A   symmetry.
   296 basis functions,   450 primitive gaussians,   305 cartesian basis functions
    36 alpha electrons       36 beta electrons
       nuclear repulsion energy       446.9565265786 Hartrees.
 NAtoms=   23 NActive=   23 NUniq=   23 SFac= 1.00D+00 NAtFMM=   60 NAOKFM=F Big=F
 Integral buffers will be    131072 words long.
 Raffenetti 2 integral format.
 Two-electron integral symmetry is turned on.
 R6APFD:  NTU= -4 IXU= 1 FactS= 1.050
 Nuclear repulsion after empirical dispersion term =      446.9429146831 Hartrees.
 One-electron integrals computed using PRISM.
 NBasis=   296 RedAO= T EigKep=  6.04D-06  NBF=   296
 NBsUse=   296 1.00D-06 EigRej= -1.00D+00 NBFU=   296
 ExpMin= 3.60D-02 ExpMax= 8.59D+03 ExpMxC= 1.30D+03 IAcc=3 IRadAn=         5 AccDes= 0.00D+00
 Harris functional with IExCor= 1009 and IRadAn=       5 diagonalized for initial guess.
 HarFok:  IExCor= 1009 AccDes= 0.00D+00 IRadAn=         5 IDoV= 1 UseB2=F ITyADJ=14
 ICtDFT=  3500011 ScaDFX=  1.000000  1.000000  1.000000  1.000000
 FoFCou: FMM=F IPFlag=           0 FMFlag=      100000 FMFlg1=           0
         NFxFlg=           0 DoJE=T BraDBF=F KetDBF=T FulRan=T
         wScrn=  0.000000 ICntrl=       500 IOpCl=  0 I1Cent=   200000004 NGrid=           0
         NMat0=    1 NMatS0=      1 NMatT0=    0 NMatD0=    1 NMtDS0=    0 NMtDT0=    0
 Petite list used in FoFCou.
 Requested convergence on RMS density matrix=1.00D-08 within  32 cycles.
 Requested convergence on MAX density matrix=1.00D-06.
 Requested convergence on             energy=1.00D-06.
 No special actions if energy rises.
 SCF Done:  E(RM08HX) =  -425.644508255     A.U. after   13 cycles
            NFock= 13  Conv=0.53D-08     -V/T= 2.0049
 QCSCF skips out because SCF is already converged.

 **********************************************************************

            Population analysis using the SCF Density.

 **********************************************************************

 Orbital symmetries:
       Occupied  (A) (A) (A) (A) (A) (A) (A) (A) (A) (A) (A) (A)
                 (A) (A) (A) (A) (A) (A) (A) (A) (A) (A) (A) (A)
                 (A) (A) (A) (A) (A) (A) (A) (A) (A) (A) (A) (A)
       Virtual   (A) (A) (A) (A) (A) (A) (A) (A) (A) (A) (A) (A)
                 (A) (A) (A) (A) (A) (A) (A) (A) (A) (A) (A) (A)
                 (A) (A) (A) (A) (A) (A) (A) (A) (A) (A) (A) (A)
                 (A) (A) (A) (A) (A) (A) (A) (A) (A) (A) (A) (A)
                 (A) (A) (A) (A) (A) (A) (A) (A) (A) (A) (A) (A)
                 (A) (A) (A) (A) (A) (A) (A) (A) (A) (A) (A) (A)
                 (A) (A) (A) (A) (A) (A) (A) (A) (A) (A) (A) (A)
                 (A) (A) (A) (A) (A) (A) (A) (A) (A) (A) (A) (A)
                 (A) (A) (A) (A) (A) (A) (A) (A) (A) (A) (A) (A)
                 (A) (A) (A) (A) (A) (A) (A) (A) (A) (A) (A) (A)
                 (A) (A) (A) (A) (A) (A) (A) (A) (A) (A) (A) (A)
                 (A) (A) (A) (A) (A) (A) (A) (A) (A) (A) (A) (A)
                 (A) (A) (A) (A) (A) (A) (A) (A) (A) (A) (A) (A)
                 (A) (A) (A) (A) (A) (A) (A) (A) (A) (A) (A) (A)
                 (A) (A) (A) (A) (A) (A) (A) (A) (A) (A) (A) (A)
                 (A) (A) (A) (A) (A) (A) (A) (A) (A) (A) (A) (A)
                 (A) (A) (A) (A) (A) (A) (A) (A) (A) (A) (A) (A)
                 (A) (A) (A) (A) (A) (A) (A) (A) (A) (A) (A) (A)
                 (A) (A) (A) (A) (A) (A) (A) (A) (A) (A) (A) (A)
                 (A) (A) (A) (A) (A) (A) (A) (A) (A) (A) (A) (A)
                 (A) (A) (A) (A) (A) (A) (A) (A) (A) (A) (A) (A)
                 (A) (A) (A) (A) (A) (A) (A) (A)
 The electronic state is 1-A.
 Alpha  occ. eigenvalues --  -19.65950 -19.60497 -10.67271 -10.58583 -10.53831
 Alpha  occ. eigenvalues --  -10.53145 -10.53036 -10.52716 -10.51634  -1.22957
 Alpha  occ. eigenvalues --   -1.13945  -0.92480  -0.88290  -0.84570  -0.78198
 Alpha  occ. eigenvalues --   -0.70515  -0.67558  -0.65449  -0.58814  -0.57750
 Alpha  occ. eigenvalues --   -0.56064  -0.55254  -0.51891  -0.50213  -0.49211
 Alpha  occ. eigenvalues --   -0.47829  -0.47097  -0.45673  -0.44204  -0.42364
 Alpha  occ. eigenvalues --   -0.41251  -0.40581  -0.39416  -0.39114  -0.37521
 Alpha  occ. eigenvalues --   -0.35749
 Alpha virt. eigenvalues --   -0.02996  -0.02148  -0.01365  -0.01233  -0.00486
 Alpha virt. eigenvalues --    0.00577   0.01157   0.01778   0.02090   0.02651
 Alpha virt. eigenvalues --    0.02688   0.03465   0.04074   0.04627   0.05116
 Alpha virt. eigenvalues --    0.05615   0.06001   0.06586   0.07736   0.08644
 Alpha virt. eigenvalues --    0.08774   0.09841   0.10492   0.10786   0.10932
 Alpha virt. eigenvalues --    0.11756   0.11938   0.12602   0.12989   0.13053
 Alpha virt. eigenvalues --    0.13375   0.13897   0.14534   0.14941   0.15398
 Alpha virt. eigenvalues --    0.15445   0.16677   0.16848   0.17346   0.17490
 Alpha virt. eigenvalues --    0.17938   0.19772   0.20061   0.20631   0.21212
 Alpha virt. eigenvalues --    0.21397   0.22462   0.23069   0.23852   0.24375
 Alpha virt. eigenvalues --    0.25393   0.25801   0.26926   0.27666   0.28757
 Alpha virt. eigenvalues --    0.28986   0.29409   0.30880   0.31609   0.31787
 Alpha virt. eigenvalues --    0.32415   0.33038   0.33219   0.34057   0.34711
 Alpha virt. eigenvalues --    0.35407   0.35986   0.36569   0.37703   0.40663
 Alpha virt. eigenvalues --    0.43231   0.43644   0.44643   0.45989   0.46243
 Alpha virt. eigenvalues --    0.46407   0.48420   0.49767   0.52316   0.52772
 Alpha virt. eigenvalues --    0.54965   0.57073   0.57939   0.60993   0.61833
 Alpha virt. eigenvalues --    0.64533   0.66113   0.67212   0.67302   0.68177
 Alpha virt. eigenvalues --    0.68491   0.69349   0.69570   0.70443   0.70854
 Alpha virt. eigenvalues --    0.71792   0.72153   0.72409   0.73745   0.74464
 Alpha virt. eigenvalues --    0.75906   0.77128   0.77166   0.77851   0.78641
 Alpha virt. eigenvalues --    0.79563   0.82378   0.86820   0.90943   0.93438
 Alpha virt. eigenvalues --    0.99256   1.00520   1.01054   1.03321   1.03635
 Alpha virt. eigenvalues --    1.04877   1.06546   1.12293   1.15861   1.17447
 Alpha virt. eigenvalues --    1.19799   1.23329   1.24048   1.27441   1.28500
 Alpha virt. eigenvalues --    1.28962   1.29610   1.30687   1.30992   1.34955
 Alpha virt. eigenvalues --    1.38955   1.44212   1.46985   1.49183   1.50092
 Alpha virt. eigenvalues --    1.50671   1.52231   1.54851   1.56702   1.57814
 Alpha virt. eigenvalues --    1.58518   1.59522   1.60477   1.61268   1.61626
 Alpha virt. eigenvalues --    1.62138   1.62553   1.65078   1.65424   1.68522
 Alpha virt. eigenvalues --    1.69148   1.70805   1.71640   1.74246   1.75989
 Alpha virt. eigenvalues --    1.76433   1.77769   1.78652   1.79429   1.80968
 Alpha virt. eigenvalues --    1.85059   1.88341   1.88376   1.89991   1.90772
 Alpha virt. eigenvalues --    1.92053   1.99175   2.02052   2.02580   2.07946
 Alpha virt. eigenvalues --    2.09647   2.13594   2.17106   2.17823   2.18289
 Alpha virt. eigenvalues --    2.21721   2.24318   2.26712   2.27634   2.30768
 Alpha virt. eigenvalues --    2.31545   2.36137   2.39037   2.41165   2.41646
 Alpha virt. eigenvalues --    2.44602   2.48181   2.48896   2.49014   2.50909
 Alpha virt. eigenvalues --    2.51097   2.53598   2.55324   2.56584   2.57657
 Alpha virt. eigenvalues --    2.60133   2.60796   2.61765   2.62672   2.62915
 Alpha virt. eigenvalues --    2.64868   2.66227   2.67504   2.72651   2.73567
 Alpha virt. eigenvalues --    2.76007   2.77097   2.77344   2.79737   2.82887
 Alpha virt. eigenvalues --    2.84047   2.87870   2.89284   2.91494   2.93884
 Alpha virt. eigenvalues --    2.96176   3.00330   3.04982   3.08609   3.10929
 Alpha virt. eigenvalues --    3.16242   3.21335   3.27398   3.28171   3.28985
 Alpha virt. eigenvalues --    3.38340   3.43112   3.49541   3.61253   3.71415
 Alpha virt. eigenvalues --    3.80683   3.81129   3.84251   3.84428   3.84958
 Alpha virt. eigenvalues --    3.86091   3.86784   3.92951   4.12462   4.13915
 Alpha virt. eigenvalues --    4.16724   4.23334   4.27933   4.36732   4.43116
 Alpha virt. eigenvalues --    5.14135   5.16025   5.33186   5.49420   5.75228
 Alpha virt. eigenvalues --    5.94679  23.86842  23.91922  23.94073  23.96228
 Alpha virt. eigenvalues --   23.96769  24.01996  24.03864  49.92146  49.99325
          Condensed to atoms (all electrons):
               1          2          3          4          5          6
     1  O    8.485418  -0.123281   0.019927  -0.089686  -0.002973   0.028234
     2  O   -0.123281   7.918829   0.006771   0.092718   0.001937  -0.094515
     3  C    0.019927   0.006771   7.564909  -1.366772  -1.150674   0.414163
     4  C   -0.089686   0.092718  -1.366772   8.752381   0.410001  -2.151127
     5  C   -0.002973   0.001937  -1.150674   0.410001   7.032559  -0.352140
     6  C    0.028234  -0.094515   0.414163  -2.151127  -0.352140   8.612872
     7  C    0.000301   0.000150   0.316902  -0.215867  -0.428587  -0.176693
     8  C    0.018584   0.496052  -0.168332   0.091768  -0.011480  -0.141628
     9  C   -0.377516  -0.035673  -0.035433   0.090761   0.007025  -0.126931
    10  H   -0.004694   0.001626   0.452747  -0.043674  -0.043162  -0.004767
    11  H   -0.004405   0.001858   0.477690  -0.057546  -0.051614  -0.014476
    12  H    0.000026  -0.000813  -0.076686   0.504778   0.002200  -0.088094
    13  H   -0.000139  -0.000927  -0.103704   0.522446   0.011782  -0.091204
    14  H    0.000812   0.000013  -0.059433  -0.003089   0.471095  -0.002660
    15  H    0.000534   0.000014  -0.055484  -0.003964   0.464599   0.005683
    16  H   -0.026760  -0.015446   0.008793  -0.107523  -0.020232   0.441595
    17  H   -0.025311  -0.014205   0.001376  -0.096677  -0.014479   0.432002
    18  H    0.000155  -0.000027  -0.048190  -0.000963   0.004678   0.001071
    19  H    0.000126  -0.000023  -0.032730  -0.002590  -0.007272   0.005105
    20  H   -0.000145   0.000006   0.051714  -0.001329  -0.077404  -0.001923
    21  H   -0.002368   0.001932  -0.002248  -0.002144  -0.000347  -0.001322
    22  H   -0.002474   0.001905  -0.002022  -0.000953  -0.000344  -0.001805
    23  H    0.022012  -0.008352  -0.000082   0.006587   0.000120  -0.012980
               7          8          9         10         11         12
     1  O    0.000301   0.018584  -0.377516  -0.004694  -0.004405   0.000026
     2  O    0.000150   0.496052  -0.035673   0.001626   0.001858  -0.000813
     3  C    0.316902  -0.168332  -0.035433   0.452747   0.477690  -0.076686
     4  C   -0.215867   0.091768   0.090761  -0.043674  -0.057546   0.504778
     5  C   -0.428587  -0.011480   0.007025  -0.043162  -0.051614   0.002200
     6  C   -0.176693  -0.141628  -0.126931  -0.004767  -0.014476  -0.088094
     7  C    6.274643  -0.003560  -0.000148   0.009126   0.015164  -0.000772
     8  C   -0.003560   6.250262  -0.756327   0.006561   0.004583   0.005577
     9  C   -0.000148  -0.756327   6.944542   0.004198   0.004309  -0.000252
    10  H    0.009126   0.006561   0.004198   0.578486  -0.099576  -0.025439
    11  H    0.015164   0.004583   0.004309  -0.099576   0.586209   0.013749
    12  H   -0.000772   0.005577  -0.000252  -0.025439   0.013749   0.527515
    13  H   -0.003990   0.008808   0.000318   0.013359  -0.024443  -0.077467
    14  H   -0.057648  -0.000292  -0.000071  -0.023826   0.011447  -0.000518
    15  H   -0.064148   0.000105   0.000021   0.011653  -0.022474   0.001228
    16  H   -0.001037   0.008985  -0.029818   0.000920  -0.009684   0.011864
    17  H   -0.001689   0.008894  -0.026892  -0.009611   0.000306  -0.020901
    18  H    0.398331  -0.000189  -0.000098   0.001736   0.001475  -0.000283
    19  H    0.392800  -0.000074  -0.000080   0.001377   0.001403   0.001482
    20  H    0.389320  -0.000239   0.000019  -0.001343  -0.001260  -0.000070
    21  H   -0.000047  -0.000109   0.348001   0.000017  -0.000066  -0.001620
    22  H   -0.000036   0.000925   0.346656  -0.000052   0.000027   0.000857
    23  H    0.000033  -0.114132   0.476365  -0.000032  -0.000038   0.000094
              13         14         15         16         17         18
     1  O   -0.000139   0.000812   0.000534  -0.026760  -0.025311   0.000155
     2  O   -0.000927   0.000013   0.000014  -0.015446  -0.014205  -0.000027
     3  C   -0.103704  -0.059433  -0.055484   0.008793   0.001376  -0.048190
     4  C    0.522446  -0.003089  -0.003964  -0.107523  -0.096677  -0.000963
     5  C    0.011782   0.471095   0.464599  -0.020232  -0.014479   0.004678
     6  C   -0.091204  -0.002660   0.005683   0.441595   0.432002   0.001071
     7  C   -0.003990  -0.057648  -0.064148  -0.001037  -0.001689   0.398331
     8  C    0.008808  -0.000292   0.000105   0.008985   0.008894  -0.000189
     9  C    0.000318  -0.000071   0.000021  -0.029818  -0.026892  -0.000098
    10  H    0.013359  -0.023826   0.011653   0.000920  -0.009611   0.001736
    11  H   -0.024443   0.011447  -0.022474  -0.009684   0.000306   0.001475
    12  H   -0.077467  -0.000518   0.001228   0.011864  -0.020901  -0.000283
    13  H    0.530285   0.000816  -0.000119  -0.020148   0.012010   0.001365
    14  H    0.000816   0.551100  -0.077489  -0.001144   0.003104   0.013571
    15  H   -0.000119  -0.077489   0.555451   0.002990  -0.001332  -0.023412
    16  H   -0.020148  -0.001144   0.002990   0.556170  -0.073667   0.000623
    17  H    0.012010   0.003104  -0.001332  -0.073667   0.553585   0.000331
    18  H    0.001365   0.013571  -0.023412   0.000623   0.000331   0.557765
    19  H   -0.000291  -0.022990   0.014113   0.000323   0.000498  -0.070593
    20  H    0.000205  -0.001695  -0.003789  -0.000191  -0.000136  -0.024449
    21  H    0.000947   0.000045  -0.000038   0.000547   0.000023   0.000003
    22  H   -0.001717  -0.000030   0.000046  -0.000006   0.000494   0.000000
    23  H    0.000124   0.000003   0.000005   0.000513   0.000590   0.000000
              19         20         21         22         23
     1  O    0.000126  -0.000145  -0.002368  -0.002474   0.022012
     2  O   -0.000023   0.000006   0.001932   0.001905  -0.008352
     3  C   -0.032730   0.051714  -0.002248  -0.002022  -0.000082
     4  C   -0.002590  -0.001329  -0.002144  -0.000953   0.006587
     5  C   -0.007272  -0.077404  -0.000347  -0.000344   0.000120
     6  C    0.005105  -0.001923  -0.001322  -0.001805  -0.012980
     7  C    0.392800   0.389320  -0.000047  -0.000036   0.000033
     8  C   -0.000074  -0.000239  -0.000109   0.000925  -0.114132
     9  C   -0.000080   0.000019   0.348001   0.346656   0.476365
    10  H    0.001377  -0.001343   0.000017  -0.000052  -0.000032
    11  H    0.001403  -0.001260  -0.000066   0.000027  -0.000038
    12  H    0.001482  -0.000070  -0.001620   0.000857   0.000094
    13  H   -0.000291   0.000205   0.000947  -0.001717   0.000124
    14  H   -0.022990  -0.001695   0.000045  -0.000030   0.000003
    15  H    0.014113  -0.003789  -0.000038   0.000046   0.000005
    16  H    0.000323  -0.000191   0.000547  -0.000006   0.000513
    17  H    0.000498  -0.000136   0.000023   0.000494   0.000590
    18  H   -0.070593  -0.024449   0.000003   0.000000   0.000000
    19  H    0.559876  -0.027366  -0.000000   0.000003   0.000001
    20  H   -0.027366   0.492871  -0.000002  -0.000002  -0.000000
    21  H   -0.000000  -0.000002   0.510488  -0.047331  -0.030018
    22  H    0.000003  -0.000002  -0.047331   0.510443  -0.029969
    23  H    0.000001  -0.000000  -0.030018  -0.029969   0.455408
 Mulliken charges:
               1
     1  O    0.083623
     2  O   -0.230548
     3  C   -0.213202
     4  C   -0.327535
     5  C   -0.245287
     6  C   -0.678458
     7  C   -0.842549
     8  C    0.295258
     9  C   -0.832977
    10  H    0.174371
    11  H    0.167363
    12  H    0.223546
    13  H    0.221683
    14  H    0.198881
    15  H    0.195807
    16  H    0.272334
    17  H    0.271688
    18  H    0.187101
    19  H    0.186903
    20  H    0.207209
    21  H    0.225656
    22  H    0.225385
    23  H    0.233749
 Sum of Mulliken charges =  -0.00000
 Mulliken charges with hydrogens summed into heavy atoms:
               1
     1  O    0.083623
     2  O   -0.230548
     3  C    0.128532
     4  C    0.117693
     5  C    0.149400
     6  C   -0.134436
     7  C   -0.261336
     8  C    0.295258
     9  C   -0.148186
 Electronic spatial extent (au):  <R**2>=           2503.6034
 Charge=             -0.0000 electrons
 Dipole moment (field-independent basis, Debye):
    X=              1.1784    Y=             -1.9696    Z=              0.0084  Tot=              2.2952
 Quadrupole moment (field-independent basis, Debye-Ang):
   XX=            -56.5305   YY=            -62.5707   ZZ=            -55.8673
   XY=              7.8931   XZ=              0.0541   YZ=              0.0427
 Traceless Quadrupole moment (field-independent basis, Debye-Ang):
   XX=              1.7923   YY=             -4.2478   ZZ=              2.4556
   XY=              7.8931   XZ=              0.0541   YZ=              0.0427
 Octapole moment (field-independent basis, Debye-Ang**2):
  XXX=            -35.2378  YYY=             -5.0185  ZZZ=              0.0608  XYY=              6.0403
  XXY=            -32.2089  XXZ=             -0.0210  XZZ=             -7.6839  YZZ=              0.2469
  YYZ=              0.0088  XYZ=             -0.0584
 Hexadecapole moment (field-independent basis, Debye-Ang**3):
 XXXX=          -2988.9274 YYYY=           -274.3144 ZZZZ=           -101.1497 XXXY=             68.4008
 XXXZ=              1.2525 YYYX=             12.5300 YYYZ=              0.0226 ZZZX=              0.3715
 ZZZY=              0.0349 XXYY=           -590.4835 XXZZ=           -516.3580 YYZZ=            -54.9669
 XXYZ=              0.5541 YYXZ=             -0.0452 ZZXY=              2.7648
 N-N= 4.469429146831D+02 E-N=-1.885619375460D+03  KE= 4.235525402633D+02
 R6APFD:  NTU= -4 IXU= 1 FactS= 1.050
 Calling FoFJK, ICntrl=      2127 FMM=F ISym2X=0 I1Cent= 0 IOpClX= 0 NMat=1 NMatS=1 NMatT=0.
 ***** Axes restored to original set *****
 -------------------------------------------------------------------
 Center     Atomic                   Forces (Hartrees/Bohr)
 Number     Number              X              Y              Z
 -------------------------------------------------------------------
      1        8           0.021267580   -0.013519983   -0.000024954
      2        8          -0.019016976    0.037645701    0.000116378
      3        6           0.002706268    0.008327770   -0.000469058
      4        6           0.004342607    0.000410960   -0.000110001
      5        6           0.000325855   -0.005832947    0.000204050
      6        6          -0.010412214    0.000316362    0.000275178
      7        6          -0.003349084    0.002622242    0.000182120
      8        6          -0.001668277   -0.023664149    0.000024712
      9        6           0.008205873   -0.002392691    0.000006596
     10        1          -0.000647838   -0.002584733    0.001677294
     11        1          -0.000544530   -0.002659228   -0.001751919
     12        1          -0.000019277    0.000357143    0.002263649
     13        1          -0.000216449    0.000276235   -0.002322320
     14        1           0.001844233    0.002639432    0.001318252
     15        1           0.002147464    0.002603574   -0.001322254
     16        1           0.001957086   -0.003252434    0.000168613
     17        1           0.002132538   -0.003382808   -0.000149825
     18        1          -0.000407569   -0.001734347   -0.000998638
     19        1          -0.000547982   -0.001792492    0.000994076
     20        1          -0.002917421   -0.001395899   -0.000049851
     21        1          -0.001869124    0.003896590   -0.001410606
     22        1          -0.001851279    0.003917319    0.001369675
     23        1          -0.001461486   -0.000801618    0.000008831
 -------------------------------------------------------------------
 Cartesian Forces:  Max     0.037645701 RMS     0.007077890

 GradGradGradGradGradGradGradGradGradGradGradGradGradGradGradGradGradGrad
 Berny optimization.
 FormGI is forming the generalized inverse of G from B-inverse, IUseBI=4.
 Internal  Forces:  Max     0.040117639 RMS     0.005303011
 Search for a local minimum.
 Step number   1 out of a maximum of  119
 All quantities printed in internal units (Hartrees-Bohrs-Radians)
 Mixed Optimization -- RFO/linear search
 Second derivative matrix not updated -- first step.
 ITU=  0
     Eigenvalues ---    0.00391   0.00408   0.00475   0.00496   0.00783
     Eigenvalues ---    0.01129   0.01416   0.02118   0.03647   0.03696
     Eigenvalues ---    0.03721   0.04882   0.04901   0.04929   0.05323
     Eigenvalues ---    0.05607   0.05702   0.05905   0.07428   0.07585
     Eigenvalues ---    0.08123   0.08168   0.08250   0.11270   0.12042
     Eigenvalues ---    0.12068   0.12130   0.13692   0.16000   0.16000
     Eigenvalues ---    0.16000   0.16000   0.16000   0.16000   0.21854
     Eigenvalues ---    0.21898   0.21906   0.22039   0.25000   0.25000
     Eigenvalues ---    0.25000   0.29576   0.29694   0.30173   0.30325
     Eigenvalues ---    0.32517   0.33978   0.33990   0.34029   0.34035
     Eigenvalues ---    0.34072   0.34090   0.34104   0.34114   0.34274
     Eigenvalues ---    0.34277   0.34298   0.34384   0.34480   0.34487
     Eigenvalues ---    0.42329   0.51403   0.93806
 RFO step:  Lambda=-6.72970944D-03 EMin= 3.90852279D-03
 Linear search not attempted -- first point.
 Iteration  1 RMS(Cart)=  0.03495850 RMS(Int)=  0.00090731
 Iteration  2 RMS(Cart)=  0.00103136 RMS(Int)=  0.00006591
 Iteration  3 RMS(Cart)=  0.00000108 RMS(Int)=  0.00006591
 Iteration  4 RMS(Cart)=  0.00000000 RMS(Int)=  0.00006591
 Variable       Old X    -DE/DX   Delta X   Delta X   Delta X     New X
                                 (Linear)    (Quad)   (Total)
    R1        2.68506   0.00593   0.00000   0.01380   0.01380   2.69886
    R2        2.58476  -0.02421   0.00000  -0.04649  -0.04649   2.53827
    R3        2.31227  -0.04012   0.00000  -0.04246  -0.04246   2.26980
    R4        2.88577   0.00104   0.00000   0.00342   0.00342   2.88919
    R5        2.88817   0.00075   0.00000   0.00249   0.00249   2.89066
    R6        2.07271   0.00287   0.00000   0.00828   0.00828   2.08099
    R7        2.07282   0.00300   0.00000   0.00865   0.00865   2.08147
    R8        2.87620  -0.00155   0.00000  -0.00503  -0.00503   2.87118
    R9        2.07348   0.00203   0.00000   0.00584   0.00584   2.07932
   R10        2.07367   0.00201   0.00000   0.00581   0.00581   2.07948
   R11        2.87321   0.00727   0.00000   0.02344   0.02344   2.89665
   R12        2.07156   0.00258   0.00000   0.00742   0.00742   2.07898
   R13        2.07138   0.00264   0.00000   0.00760   0.00760   2.07898
   R14        2.07209   0.00178   0.00000   0.00512   0.00512   2.07721
   R15        2.07179   0.00189   0.00000   0.00544   0.00544   2.07723
   R16        2.06869   0.00183   0.00000   0.00523   0.00523   2.07393
   R17        2.06865   0.00189   0.00000   0.00539   0.00539   2.07405
   R18        2.06830   0.00155   0.00000   0.00444   0.00444   2.07274
   R19        2.83209   0.00536   0.00000   0.01614   0.01614   2.84823
   R20        2.06528   0.00116   0.00000   0.00330   0.00330   2.06858
   R21        2.06516   0.00120   0.00000   0.00342   0.00342   2.06858
   R22        2.06687  -0.00092   0.00000  -0.00262  -0.00262   2.06424
    A1        2.02172  -0.00400   0.00000  -0.01557  -0.01557   2.00615
    A2        1.94328   0.00306   0.00000   0.01706   0.01702   1.96030
    A3        1.91363  -0.00047   0.00000   0.00092   0.00095   1.91458
    A4        1.91137  -0.00038   0.00000   0.00387   0.00384   1.91522
    A5        1.91389  -0.00122   0.00000  -0.00738  -0.00744   1.90645
    A6        1.91052  -0.00101   0.00000  -0.00352  -0.00364   1.90688
    A7        1.86967  -0.00011   0.00000  -0.01209  -0.01213   1.85753
    A8        1.94915  -0.00077   0.00000  -0.00600  -0.00602   1.94313
    A9        1.92454   0.00007   0.00000  -0.00197  -0.00200   1.92254
   A10        1.92410  -0.00006   0.00000  -0.00165  -0.00166   1.92245
   A11        1.90984   0.00002   0.00000  -0.00198  -0.00200   1.90783
   A12        1.90612   0.00032   0.00000   0.00165   0.00164   1.90775
   A13        1.84726   0.00049   0.00000   0.01087   0.01087   1.85813
   A14        1.94595   0.00218   0.00000   0.01340   0.01340   1.95935
   A15        1.91717  -0.00151   0.00000  -0.01290  -0.01308   1.90409
   A16        1.91796  -0.00176   0.00000  -0.01413  -0.01434   1.90361
   A17        1.90638   0.00052   0.00000   0.01152   0.01158   1.91797
   A18        1.90341   0.00087   0.00000   0.01501   0.01508   1.91849
   A19        1.87138  -0.00036   0.00000  -0.01364  -0.01393   1.85744
   A20        1.90001  -0.00254   0.00000  -0.00841  -0.00835   1.89166
   A21        1.90932  -0.00017   0.00000  -0.00422  -0.00420   1.90512
   A22        1.91069  -0.00038   0.00000  -0.00601  -0.00599   1.90469
   A23        1.92007   0.00289   0.00000   0.02082   0.02075   1.94082
   A24        1.91978   0.00313   0.00000   0.02228   0.02221   1.94200
   A25        1.90391  -0.00294   0.00000  -0.02455  -0.02480   1.87911
   A26        1.93742   0.00007   0.00000  -0.00138  -0.00144   1.93598
   A27        1.93720   0.00022   0.00000  -0.00045  -0.00052   1.93668
   A28        1.92437   0.00404   0.00000   0.02779   0.02769   1.95206
   A29        1.89046  -0.00102   0.00000  -0.01278  -0.01280   1.87765
   A30        1.88629  -0.00171   0.00000  -0.00689  -0.00698   1.87932
   A31        1.88645  -0.00178   0.00000  -0.00727  -0.00736   1.87909
   A32        2.19959  -0.01866   0.00000  -0.07268  -0.07268   2.12690
   A33        1.91847   0.00722   0.00000   0.02814   0.02814   1.94661
   A34        2.16513   0.01143   0.00000   0.04454   0.04454   2.20967
   A35        1.91660   0.00081   0.00000   0.00091   0.00083   1.91743
   A36        1.91659   0.00078   0.00000   0.00068   0.00060   1.91719
   A37        1.90902  -0.00115   0.00000   0.00095   0.00091   1.90993
   A38        1.93116  -0.00388   0.00000  -0.03842  -0.03853   1.89262
   A39        1.89504   0.00173   0.00000   0.01834   0.01830   1.91334
   A40        1.89505   0.00173   0.00000   0.01824   0.01820   1.91325
    D1        3.14159   0.00005   0.00000   0.00010   0.00010  -3.14149
    D2       -1.04294   0.00193   0.00000   0.01783   0.01777  -1.02517
    D3        1.04247  -0.00199   0.00000  -0.01833  -0.01827   1.02420
    D4        0.00015  -0.00001   0.00000  -0.00055  -0.00052  -0.00037
    D5        3.14122   0.00001   0.00000   0.00039   0.00036   3.14158
    D6       -3.11162  -0.00028   0.00000  -0.01080  -0.01081  -3.12242
    D7        1.04417   0.00017   0.00000  -0.00281  -0.00282   1.04135
    D8       -0.98926  -0.00043   0.00000  -0.01391  -0.01392  -1.00318
    D9        1.05047  -0.00043   0.00000  -0.01336  -0.01338   1.03709
   D10       -1.07693   0.00001   0.00000  -0.00537  -0.00540  -1.08233
   D11       -3.11036  -0.00059   0.00000  -0.01648  -0.01649  -3.12685
   D12       -0.99628   0.00020   0.00000  -0.00151  -0.00148  -0.99776
   D13       -3.12367   0.00064   0.00000   0.00648   0.00651  -3.11717
   D14        1.12608   0.00004   0.00000  -0.00463  -0.00459   1.12149
   D15        3.11740   0.00025   0.00000   0.00999   0.00999   3.12739
   D16       -1.04998   0.00131   0.00000   0.02461   0.02450  -1.02548
   D17        1.00482  -0.00109   0.00000  -0.00820  -0.00807   0.99674
   D18       -1.04483   0.00084   0.00000   0.01738   0.01734  -1.02749
   D19        1.07097   0.00190   0.00000   0.03200   0.03186   1.10283
   D20        3.12577  -0.00050   0.00000  -0.00081  -0.00072   3.12505
   D21        1.00156  -0.00060   0.00000  -0.00360  -0.00359   0.99798
   D22        3.11736   0.00046   0.00000   0.01102   0.01093   3.12829
   D23       -1.11102  -0.00193   0.00000  -0.02179  -0.02165  -1.13267
   D24        3.13051   0.00009   0.00000   0.00471   0.00471   3.13521
   D25        1.03851   0.00012   0.00000   0.00250   0.00255   1.04106
   D26       -1.05918  -0.00005   0.00000   0.00562   0.00556  -1.05363
   D27       -1.01684  -0.00032   0.00000  -0.00318  -0.00317  -1.02001
   D28       -3.10883  -0.00029   0.00000  -0.00539  -0.00533  -3.11416
   D29        1.07666  -0.00046   0.00000  -0.00227  -0.00232   1.07433
   D30        0.99778   0.00046   0.00000   0.00964   0.00964   1.00742
   D31       -1.09422   0.00049   0.00000   0.00742   0.00749  -1.08673
   D32        3.09128   0.00031   0.00000   0.01055   0.01049   3.10177
   D33       -1.05308   0.00057   0.00000   0.00822   0.00822  -1.04486
   D34        1.05045  -0.00052   0.00000  -0.00918  -0.00921   1.04124
   D35        3.14030   0.00003   0.00000  -0.00042  -0.00043   3.13987
   D36        3.10804   0.00070   0.00000   0.00790   0.00789   3.11592
   D37       -1.07162  -0.00039   0.00000  -0.00950  -0.00955  -1.08116
   D38        1.01823   0.00016   0.00000  -0.00073  -0.00076   1.01747
   D39        1.06797   0.00035   0.00000   0.00927   0.00933   1.07730
   D40       -3.11168  -0.00074   0.00000  -0.00812  -0.00810  -3.11978
   D41       -1.02183  -0.00019   0.00000   0.00064   0.00068  -1.02115
   D42        1.06261  -0.00191   0.00000  -0.02389  -0.02387   1.03873
   D43       -1.06465   0.00189   0.00000   0.02292   0.02288  -1.04177
   D44        3.14057   0.00000   0.00000  -0.00036  -0.00037   3.14020
   D45       -2.07949  -0.00189   0.00000  -0.02302  -0.02299  -2.10248
   D46        2.07644   0.00190   0.00000   0.02378   0.02376   2.10021
   D47       -0.00153   0.00001   0.00000   0.00051   0.00052  -0.00101
         Item               Value     Threshold  Converged?
 Maximum Force            0.040118     0.000450     NO 
 RMS     Force            0.005303     0.000300     NO 
 Maximum Displacement     0.240655     0.001800     NO 
 RMS     Displacement     0.034966     0.001200     NO 
 Predicted change in Energy=-3.455415D-03
 GradGradGradGradGradGradGradGradGradGradGradGradGradGradGradGradGradGrad

                          Input orientation:                          
 ---------------------------------------------------------------------
 Center     Atomic      Atomic             Coordinates (Angstroms)
 Number     Number       Type             X           Y           Z
 ---------------------------------------------------------------------
      1          8           0        1.489768    0.535346    0.001840
      2          8           0        2.759951   -1.291355   -0.001313
      3          6           0       -2.165551   -0.327285    0.015747
      4          6           0       -0.901181    0.532301    0.015642
      5          6           0       -3.441426    0.516257   -0.006040
      6          6           0        0.351606   -0.327322    0.010307
      7          6           0       -4.707988   -0.346890   -0.026055
      8          6           0        2.676861   -0.093106   -0.003750
      9          6           0        3.821719    0.887166   -0.012522
     10          1           0       -2.174031   -0.974875    0.906378
     11          1           0       -2.158957   -0.998590   -0.857485
     12          1           0       -0.888631    1.188237    0.898996
     13          1           0       -0.892449    1.193518   -0.863918
     14          1           0       -3.451860    1.175885    0.874360
     15          1           0       -3.422255    1.174264   -0.887506
     16          1           0        0.384475   -0.976512   -0.876111
     17          1           0        0.395749   -0.973241    0.898640
     18          1           0       -4.727516   -0.993707   -0.912450
     19          1           0       -4.755508   -0.995007    0.858409
     20          1           0       -5.618447    0.264626   -0.039859
     21          1           0        3.769683    1.527662    0.873650
     22          1           0        3.760856    1.521708   -0.902412
     23          1           0        4.767734    0.341020   -0.015446
 ---------------------------------------------------------------------
                    Distance matrix (angstroms):
                    1          2          3          4          5
     1  O    0.000000
     2  O    2.224907   0.000000
     3  C    3.755753   5.018993   0.000000
     4  C    2.390991   4.090219   1.528894   0.000000
     5  C    4.931237   6.459454   1.529672   2.540388   0.000000
     6  C    1.428173   2.594150   2.517163   1.519361   3.885741
     7  C    6.260295   7.527465   2.542856   3.907236   1.532841
     8  C    1.343195   1.201129   4.848110   3.632340   6.148558
     9  C    2.358385   2.423516   6.109263   4.736297   7.272612
    10  H    4.064773   5.026752   1.101212   2.164517   2.159229
    11  H    4.050258   5.001439   1.101466   2.165174   2.159733
    12  H    2.624487   4.502341   2.169668   1.100329   2.790593
    13  H    2.618718   4.500967   2.169664   1.100414   2.773431
    14  H    5.058780   6.740969   2.156694   2.767229   1.100147
    15  H    5.032606   6.714483   2.156344   2.753835   1.100147
    16  H    2.068378   2.550937   2.778406   2.173627   4.197964
    17  H    2.068082   2.549620   2.785142   2.174482   4.214376
    18  H    6.467499   7.548571   2.805233   4.222664   2.180733
    19  H    6.486845   7.570275   2.804249   4.230692   2.181285
    20  H    7.113490   8.521743   3.503704   4.725180   2.191776
    21  H    2.634911   3.119611   6.277247   4.852205   7.334636
    22  H    2.635986   3.118832   6.275674   4.853488   7.327160
    23  H    3.283767   2.587670   6.965489   5.672226   8.211035
                    6          7          8          9         10
     6  C    0.000000
     7  C    5.059763   0.000000
     8  C    2.337063   7.389242   0.000000
     9  C    3.676572   8.618525   1.507219   0.000000
    10  H    2.757012   2.772135   5.013682   6.345124   0.000000
    11  H    2.739816   2.759266   4.993386   6.327600   1.764086
    12  H    2.150552   4.218983   3.894807   4.807172   2.516220
    13  H    2.150558   4.199191   3.890407   4.800220   3.078690
    14  H    4.180021   2.169666   6.320018   7.333135   2.501927
    15  H    4.159670   2.170049   6.291778   7.302273   3.065107
    16  H    1.099211   5.201173   2.607001   4.004214   3.118208
    17  H    1.099225   5.224510   2.606227   4.003573   2.569793
    18  H    5.205097   1.097474   7.514094   8.799828   3.135087
    19  H    5.219933   1.097539   7.536369   8.824393   2.582001
    20  H    5.999538   1.096849   8.303097   9.460710   3.780969
    21  H    3.983663   8.728935   2.142657   1.094644   6.449147
    22  H    3.984338   8.716707   2.142490   1.094648   6.687865
    23  H    4.466489   9.500665   2.135498   1.092350   7.125268
                   11         12         13         14         15
    11  H    0.000000
    12  H    3.079150   0.000000
    13  H    2.531684   1.762926   0.000000
    14  H    3.065816   2.563377   3.093946   0.000000
    15  H    2.513586   3.100167   2.529989   1.762116   0.000000
    16  H    2.543596   3.075377   2.517880   4.734388   4.372318
    17  H    3.100184   2.514283   3.075860   4.407202   4.730671
    18  H    2.569151   4.772761   4.415206   3.086603   2.530696
    19  H    3.112295   4.440826   4.762276   2.532296   3.087316
    20  H    3.772572   4.909752   4.886407   2.521962   2.523729
    21  H    6.672897   4.670732   4.986609   7.230105   7.412863
    22  H    6.434136   4.997399   4.665023   7.436382   7.191524
    23  H    7.105113   5.792102   5.786565   8.309661   8.278327
                   16         17         18         19         20
    16  H    0.000000
    17  H    1.774789   0.000000
    18  H    5.112149   5.433996   0.000000
    19  H    5.424788   5.151460   1.771081   0.000000
    20  H    6.186664   6.211574   1.771603   1.771504   0.000000
    21  H    4.559845   4.199830   9.041562   8.890611   9.516656
    22  H    4.200208   4.559880   8.853240   9.053331   9.502398
    23  H    4.657209   4.655866   9.630466   9.656123  10.386490
                   21         22         23
    21  H    0.000000
    22  H    1.776094   0.000000
    23  H    1.787377   1.787327   0.000000
 Stoichiometry    C7H14O2
 Framework group  C1[X(C7H14O2)]
 Deg. of freedom    63
 Full point group                 C1      NOp   1
 Largest Abelian subgroup         C1      NOp   1
 Largest concise Abelian subgroup C1      NOp   1
                         Standard orientation:                         
 ---------------------------------------------------------------------
 Center     Atomic      Atomic             Coordinates (Angstroms)
 Number     Number       Type             X           Y           Z
 ---------------------------------------------------------------------
      1          8           0       -1.599625   -0.483805    0.002486
      2          8           0       -2.833978    1.367288   -0.003790
      3          6           0        2.071794    0.307471    0.017874
      4          6           0        0.790919   -0.527320    0.017945
      5          6           0        3.331008   -0.560793   -0.001992
      6          6           0       -0.444880    0.356537    0.010686
      7          6           0        4.614159    0.277491   -0.022186
      8          6           0       -2.774246    0.167646   -0.004700
      9          6           0       -3.937978   -0.790147   -0.013064
     10          1           0        2.092292    0.955876    0.907716
     11          1           0        2.078866    0.977694   -0.856184
     12          1           0        0.765000   -1.181792    0.902094
     13          1           0        0.769897   -1.189332   -0.860810
     14          1           0        3.327999   -1.219407    0.879224
     15          1           0        3.299613   -1.219393   -0.882664
     16          1           0       -0.464501    1.005146   -0.876550
     17          1           0       -0.477027    1.004295    0.898195
     18          1           0        4.646878    0.922706   -0.909360
     19          1           0        4.673703    0.925656    0.861516
     20          1           0        5.512541   -0.351661   -0.034607
     21          1           0       -3.899024   -1.430436    0.873929
     22          1           0       -3.888892   -1.426857   -0.902133
     23          1           0       -4.873171   -0.225679   -0.017315
 ---------------------------------------------------------------------
 Rotational constants (GHZ):           6.5442640           0.4734108           0.4489084
 Standard basis: 6-311++G(d,p) (5D, 7F)
 There are   305 symmetry adapted cartesian basis functions of A   symmetry.
 There are   296 symmetry adapted basis functions of A   symmetry.
   296 basis functions,   450 primitive gaussians,   305 cartesian basis functions
    36 alpha electrons       36 beta electrons
       nuclear repulsion energy       448.6229795636 Hartrees.
 NAtoms=   23 NActive=   23 NUniq=   23 SFac= 1.00D+00 NAtFMM=   60 NAOKFM=F Big=F
 Integral buffers will be    131072 words long.
 Raffenetti 2 integral format.
 Two-electron integral symmetry is turned on.
 R6APFD:  NTU= -4 IXU= 1 FactS= 1.050
 Nuclear repulsion after empirical dispersion term =      448.6095888125 Hartrees.
 One-electron integrals computed using PRISM.
 NBasis=   296 RedAO= T EigKep=  6.00D-06  NBF=   296
 NBsUse=   296 1.00D-06 EigRej= -1.00D+00 NBFU=   296
 Initial guess from the checkpoint file:  "AMAC0005.chk"
 B after Tr=     0.000000   -0.000000   -0.000000
         Rot=    0.999996   -0.000290    0.000059    0.002840 Ang=  -0.33 deg.
 ExpMin= 3.60D-02 ExpMax= 8.59D+03 ExpMxC= 1.30D+03 IAcc=3 IRadAn=         5 AccDes= 0.00D+00
 Harris functional with IExCor= 1009 and IRadAn=       5 diagonalized for initial guess.
 HarFok:  IExCor= 1009 AccDes= 0.00D+00 IRadAn=         5 IDoV= 1 UseB2=F ITyADJ=14
 ICtDFT=  3500011 ScaDFX=  1.000000  1.000000  1.000000  1.000000
 FoFCou: FMM=F IPFlag=           0 FMFlag=      100000 FMFlg1=           0
         NFxFlg=           0 DoJE=T BraDBF=F KetDBF=T FulRan=T
         wScrn=  0.000000 ICntrl=       500 IOpCl=  0 I1Cent=   200000004 NGrid=           0
         NMat0=    1 NMatS0=      1 NMatT0=    0 NMatD0=    1 NMtDS0=    0 NMtDT0=    0
 Petite list used in FoFCou.
 Requested convergence on RMS density matrix=1.00D-08 within  32 cycles.
 Requested convergence on MAX density matrix=1.00D-06.
 Requested convergence on             energy=1.00D-06.
 No special actions if energy rises.
 SCF Done:  E(RM08HX) =  -425.647473765     A.U. after   12 cycles
            NFock= 12  Conv=0.46D-08     -V/T= 2.0048
 QCSCF skips out because SCF is already converged.
 R6APFD:  NTU= -4 IXU= 1 FactS= 1.050
 Calling FoFJK, ICntrl=      2127 FMM=F ISym2X=0 I1Cent= 0 IOpClX= 0 NMat=1 NMatS=1 NMatT=0.
 ***** Axes restored to original set *****
 -------------------------------------------------------------------
 Center     Atomic                   Forces (Hartrees/Bohr)
 Number     Number              X              Y              Z
 -------------------------------------------------------------------
      1        8           0.002502232    0.004031315   -0.000032312
      2        8           0.005879353   -0.002086183   -0.000058318
      3        6          -0.000140322    0.001393437    0.000011668
      4        6           0.001099224    0.000412829    0.000050030
      5        6          -0.001342705   -0.001860747    0.000068597
      6        6          -0.006040005    0.000816927    0.000079389
      7        6           0.001302289    0.001696004    0.000041637
      8        6          -0.004975866   -0.001233832    0.000110522
      9        6           0.001919638   -0.002035405   -0.000013691
     10        1           0.000133287   -0.000802556    0.000010879
     11        1           0.000124843   -0.000530803   -0.000059359
     12        1          -0.000091539   -0.000235241    0.000033382
     13        1          -0.000022555   -0.000407606   -0.000115667
     14        1          -0.000003587    0.000539317   -0.000043739
     15        1          -0.000132895    0.000444585   -0.000030116
     16        1           0.000602712   -0.000532031    0.000550196
     17        1           0.000486586   -0.000561637   -0.000594758
     18        1           0.000228057   -0.000255520   -0.000121570
     19        1           0.000273996   -0.000215766    0.000122723
     20        1           0.000378909   -0.000117175    0.000000144
     21        1          -0.000790603    0.000804059   -0.000495769
     22        1          -0.000773039    0.000816104    0.000490160
     23        1          -0.000618010   -0.000080077   -0.000004029
 -------------------------------------------------------------------
 Cartesian Forces:  Max     0.006040005 RMS     0.001490586

 GradGradGradGradGradGradGradGradGradGradGradGradGradGradGradGradGradGrad
 Berny optimization.
 Using GEDIIS/GDIIS optimizer.
 FormGI is forming the generalized inverse of G from B-inverse, IUseBI=4.
 Internal  Forces:  Max     0.008774088 RMS     0.001304644
 Search for a local minimum.
 Step number   2 out of a maximum of  119
 All quantities printed in internal units (Hartrees-Bohrs-Radians)
 Mixed Optimization -- RFO/linear search
 Update second derivatives using D2CorX and points    1    2
 DE= -2.97D-03 DEPred=-3.46D-03 R= 8.58D-01
 TightC=F SS=  1.41D+00  RLast= 1.66D-01 DXNew= 5.0454D-01 4.9887D-01
 Trust test= 8.58D-01 RLast= 1.66D-01 DXMaxT set to 4.99D-01
 ITU=  1  0
 Use linear search instead of GDIIS.
     Eigenvalues ---    0.00391   0.00408   0.00475   0.00496   0.00783
     Eigenvalues ---    0.01090   0.01416   0.02118   0.03582   0.03622
     Eigenvalues ---    0.03703   0.04827   0.04886   0.04903   0.05283
     Eigenvalues ---    0.05512   0.05605   0.05738   0.07275   0.07494
     Eigenvalues ---    0.08170   0.08306   0.08314   0.11145   0.12070
     Eigenvalues ---    0.12178   0.12183   0.13691   0.15898   0.16000
     Eigenvalues ---    0.16000   0.16000   0.16000   0.16021   0.21726
     Eigenvalues ---    0.21877   0.21904   0.21932   0.24777   0.25000
     Eigenvalues ---    0.29341   0.29598   0.29757   0.30087   0.31986
     Eigenvalues ---    0.33277   0.33958   0.33985   0.34028   0.34036
     Eigenvalues ---    0.34080   0.34090   0.34110   0.34197   0.34259
     Eigenvalues ---    0.34276   0.34362   0.34465   0.34484   0.34618
     Eigenvalues ---    0.41842   0.52680   0.93586
 RFO step:  Lambda=-4.76775099D-04 EMin= 3.90818709D-03
 Quartic linear search produced a step of -0.12452.
 Iteration  1 RMS(Cart)=  0.02664844 RMS(Int)=  0.00023160
 Iteration  2 RMS(Cart)=  0.00042557 RMS(Int)=  0.00000849
 Iteration  3 RMS(Cart)=  0.00000006 RMS(Int)=  0.00000849
 Variable       Old X    -DE/DX   Delta X   Delta X   Delta X     New X
                                 (Linear)    (Quad)   (Total)
    R1        2.69886   0.00264  -0.00172   0.00816   0.00644   2.70530
    R2        2.53827   0.00235   0.00579  -0.00509   0.00070   2.53897
    R3        2.26980   0.00249   0.00529  -0.00584  -0.00055   2.26926
    R4        2.88919  -0.00084  -0.00043  -0.00179  -0.00222   2.88698
    R5        2.89066  -0.00046  -0.00031  -0.00086  -0.00117   2.88949
    R6        2.08099   0.00048  -0.00103   0.00288   0.00185   2.08284
    R7        2.08147   0.00037  -0.00108   0.00268   0.00160   2.08307
    R8        2.87118  -0.00146   0.00063  -0.00523  -0.00460   2.86657
    R9        2.07932  -0.00011  -0.00073   0.00087   0.00014   2.07946
   R10        2.07948  -0.00015  -0.00072   0.00076   0.00004   2.07952
   R11        2.89665  -0.00243  -0.00292  -0.00229  -0.00521   2.89144
   R12        2.07898   0.00029  -0.00092   0.00222   0.00129   2.08027
   R13        2.07898   0.00029  -0.00095   0.00225   0.00130   2.08028
   R14        2.07721  -0.00011  -0.00064   0.00073   0.00010   2.07730
   R15        2.07723  -0.00013  -0.00068   0.00075   0.00007   2.07730
   R16        2.07393   0.00025  -0.00065   0.00167   0.00102   2.07494
   R17        2.07405   0.00021  -0.00067   0.00162   0.00095   2.07500
   R18        2.07274  -0.00038  -0.00055  -0.00008  -0.00064   2.07211
   R19        2.84823  -0.00052  -0.00201   0.00183  -0.00018   2.84805
   R20        2.06858   0.00011  -0.00041   0.00093   0.00052   2.06909
   R21        2.06858   0.00012  -0.00043   0.00098   0.00055   2.06914
   R22        2.06424  -0.00050   0.00033  -0.00178  -0.00145   2.06279
    A1        2.00615   0.00554   0.00194   0.01620   0.01814   2.02429
    A2        1.96030  -0.00012  -0.00212   0.00431   0.00219   1.96249
    A3        1.91458   0.00002  -0.00012   0.00040   0.00028   1.91486
    A4        1.91522   0.00003  -0.00048   0.00132   0.00084   1.91606
    A5        1.90645   0.00018   0.00093   0.00013   0.00106   1.90751
    A6        1.90688   0.00018   0.00045   0.00120   0.00166   1.90854
    A7        1.85753  -0.00030   0.00151  -0.00803  -0.00651   1.85102
    A8        1.94313  -0.00052   0.00075  -0.00437  -0.00363   1.93951
    A9        1.92254   0.00006   0.00025  -0.00114  -0.00089   1.92165
   A10        1.92245   0.00010   0.00021  -0.00046  -0.00026   1.92219
   A11        1.90783   0.00016   0.00025  -0.00026  -0.00001   1.90782
   A12        1.90775   0.00014  -0.00020   0.00068   0.00048   1.90823
   A13        1.85813   0.00008  -0.00135   0.00603   0.00468   1.86280
   A14        1.95935  -0.00106  -0.00167  -0.00084  -0.00251   1.95684
   A15        1.90409   0.00039   0.00163  -0.00104   0.00061   1.90470
   A16        1.90361   0.00044   0.00179  -0.00075   0.00107   1.90468
   A17        1.91797   0.00035  -0.00144   0.00416   0.00271   1.92068
   A18        1.91849   0.00030  -0.00188   0.00473   0.00284   1.92133
   A19        1.85744  -0.00038   0.00174  -0.00663  -0.00486   1.85259
   A20        1.89166  -0.00110   0.00104  -0.00542  -0.00438   1.88728
   A21        1.90512   0.00005   0.00052  -0.00185  -0.00132   1.90380
   A22        1.90469   0.00009   0.00075  -0.00207  -0.00132   1.90337
   A23        1.94082   0.00096  -0.00258   0.01057   0.00799   1.94881
   A24        1.94200   0.00087  -0.00277   0.01021   0.00744   1.94944
   A25        1.87911  -0.00087   0.00309  -0.01172  -0.00864   1.87048
   A26        1.93598  -0.00016   0.00018  -0.00163  -0.00145   1.93453
   A27        1.93668  -0.00026   0.00006  -0.00203  -0.00196   1.93472
   A28        1.95206  -0.00002  -0.00345   0.00671   0.00327   1.95534
   A29        1.87765   0.00005   0.00159  -0.00428  -0.00269   1.87496
   A30        1.87932   0.00019   0.00087   0.00048   0.00136   1.88068
   A31        1.87909   0.00022   0.00092   0.00047   0.00140   1.88049
   A32        2.12690   0.00877   0.00905   0.01588   0.02493   2.15184
   A33        1.94661  -0.00456  -0.00350  -0.01022  -0.01372   1.93289
   A34        2.20967  -0.00421  -0.00555  -0.00566  -0.01121   2.19846
   A35        1.91743  -0.00027  -0.00010  -0.00271  -0.00282   1.91460
   A36        1.91719  -0.00025  -0.00007  -0.00264  -0.00273   1.91446
   A37        1.90993  -0.00009  -0.00011   0.00253   0.00242   1.91234
   A38        1.89262  -0.00074   0.00480  -0.01789  -0.01312   1.87950
   A39        1.91334   0.00068  -0.00228   0.01038   0.00810   1.92143
   A40        1.91325   0.00067  -0.00227   0.01027   0.00801   1.92126
    D1       -3.14149  -0.00003  -0.00001  -0.00012  -0.00014   3.14156
    D2       -1.02517   0.00050  -0.00221   0.00834   0.00613  -1.01904
    D3        1.02420  -0.00047   0.00227  -0.00800  -0.00573   1.01847
    D4       -0.00037   0.00002   0.00006   0.00103   0.00110   0.00073
    D5        3.14158  -0.00000  -0.00004  -0.00048  -0.00053   3.14105
    D6       -3.12242  -0.00005   0.00135  -0.01788  -0.01653  -3.13895
    D7        1.04135   0.00005   0.00035  -0.01384  -0.01349   1.02786
    D8       -1.00318  -0.00015   0.00173  -0.02025  -0.01852  -1.02170
    D9        1.03709  -0.00021   0.00167  -0.02123  -0.01956   1.01752
   D10       -1.08233  -0.00011   0.00067  -0.01720  -0.01652  -1.09885
   D11       -3.12685  -0.00031   0.00205  -0.02361  -0.02155   3.13478
   D12       -0.99776   0.00011   0.00018  -0.01251  -0.01233  -1.01009
   D13       -3.11717   0.00021  -0.00081  -0.00848  -0.00929  -3.12646
   D14        1.12149   0.00001   0.00057  -0.01489  -0.01432   1.10717
   D15        3.12739   0.00004  -0.00124   0.01751   0.01627  -3.13953
   D16       -1.02548   0.00005  -0.00305   0.02149   0.01846  -1.00702
   D17        0.99674   0.00005   0.00101   0.01260   0.01359   1.01033
   D18       -1.02749   0.00012  -0.00216   0.02099   0.01883  -1.00865
   D19        1.10283   0.00013  -0.00397   0.02497   0.02103   1.12385
   D20        3.12505   0.00013   0.00009   0.01607   0.01615   3.14120
   D21        0.99798  -0.00004   0.00045   0.01211   0.01255   1.01053
   D22        3.12829  -0.00003  -0.00136   0.01610   0.01474  -3.14015
   D23       -1.13267  -0.00002   0.00270   0.00720   0.00987  -1.12280
   D24        3.13521   0.00004  -0.00059   0.00821   0.00762  -3.14035
   D25        1.04106   0.00010  -0.00032   0.00753   0.00721   1.04827
   D26       -1.05363  -0.00002  -0.00069   0.00839   0.00769  -1.04593
   D27       -1.02001  -0.00012   0.00040   0.00373   0.00412  -1.01589
   D28       -3.11416  -0.00005   0.00066   0.00305   0.00371  -3.11045
   D29        1.07433  -0.00018   0.00029   0.00390   0.00419   1.07853
   D30        1.00742   0.00016  -0.00120   0.01120   0.01000   1.01742
   D31       -1.08673   0.00022  -0.00093   0.01052   0.00959  -1.07714
   D32        3.10177   0.00009  -0.00131   0.01138   0.01007   3.11184
   D33       -1.04486   0.00010  -0.00102   0.00364   0.00261  -1.04225
   D34        1.04124  -0.00012   0.00115  -0.00414  -0.00299   1.03825
   D35        3.13987  -0.00002   0.00005  -0.00039  -0.00034   3.13954
   D36        3.11592   0.00008  -0.00098   0.00262   0.00164   3.11756
   D37       -1.08116  -0.00014   0.00119  -0.00517  -0.00397  -1.08513
   D38        1.01747  -0.00004   0.00009  -0.00141  -0.00131   1.01616
   D39        1.07730   0.00016  -0.00116   0.00544   0.00427   1.08157
   D40       -3.11978  -0.00006   0.00101  -0.00234  -0.00133  -3.12112
   D41       -1.02115   0.00004  -0.00009   0.00141   0.00132  -1.01983
   D42        1.03873  -0.00060   0.00297  -0.01171  -0.00873   1.03001
   D43       -1.04177   0.00063  -0.00285   0.01356   0.01069  -1.03108
   D44        3.14020   0.00002   0.00005   0.00097   0.00101   3.14121
   D45       -2.10248  -0.00062   0.00286  -0.01331  -0.01043  -2.11290
   D46        2.10021   0.00060  -0.00296   0.01196   0.00899   2.10920
   D47       -0.00101  -0.00001  -0.00006  -0.00063  -0.00069  -0.00170
         Item               Value     Threshold  Converged?
 Maximum Force            0.008774     0.000450     NO 
 RMS     Force            0.001305     0.000300     NO 
 Maximum Displacement     0.098171     0.001800     NO 
 RMS     Displacement     0.026696     0.001200     NO 
 Predicted change in Energy=-2.916096D-04
 GradGradGradGradGradGradGradGradGradGradGradGradGradGradGradGradGradGrad

                          Input orientation:                          
 ---------------------------------------------------------------------
 Center     Atomic      Atomic             Coordinates (Angstroms)
 Number     Number       Type             X           Y           Z
 ---------------------------------------------------------------------
      1          8           0        1.491671    0.506800    0.000134
      2          8           0        2.811900   -1.302992    0.004048
      3          6           0       -2.166377   -0.325936   -0.002529
      4          6           0       -0.896203    0.522941   -0.003552
      5          6           0       -3.436956    0.524698   -0.009362
      6          6           0        0.344577   -0.349709   -0.000419
      7          6           0       -4.704273   -0.332650   -0.005365
      8          6           0        2.685918   -0.108781    0.002873
      9          6           0        3.806200    0.899376    0.002400
     10          1           0       -2.173252   -0.983685    0.881859
     11          1           0       -2.169338   -0.993975   -0.879346
     12          1           0       -0.880432    1.181062    0.878218
     13          1           0       -0.878898    1.177664   -0.887858
     14          1           0       -3.429559    1.191290    0.866669
     15          1           0       -3.427145    1.180735   -0.893307
     16          1           0        0.383831   -1.002307   -0.884134
     17          1           0        0.381793   -0.999970    0.885105
     18          1           0       -4.736859   -0.985750   -0.887424
     19          1           0       -4.737067   -0.977561    0.882728
     20          1           0       -5.614513    0.278737   -0.008181
     21          1           0        3.724393    1.542427    0.884805
     22          1           0        3.727204    1.538266   -0.883305
     23          1           0        4.765984    0.379421    0.005043
 ---------------------------------------------------------------------
                    Distance matrix (angstroms):
                    1          2          3          4          5
     1  O    0.000000
     2  O    2.240172   0.000000
     3  C    3.751635   5.073256   0.000000
     4  C    2.387931   4.133294   1.527722   0.000000
     5  C    4.928668   6.510671   1.529050   2.540760   0.000000
     6  C    1.431583   2.645081   2.511067   1.516925   3.881321
[...]
 -0.00001372,0.00001892,0.00140516,-0.01263058,-0.01622116,-0.00098623,
 0.00029977,0.00015542,-0.00059584,-0.13522499,-0.11838685,-0.00015371,
 0.00004322,0.00023546,-0.00087061,-0.01123329,-0.01478894,-0.00008903,
 0.00002973,-0.00001947,0.00001570,0.00000165,-0.00000598,-0.00053851,-
 0.00001316,0.00008519,0.00317959,-0.00152557,0.00027216,0.00051325,0.0
 0057007,0.00012024,0.00008801,0.00000806,0.00011171,0.00047573,0.14887
 851,0.00022972,0.00000934,0.00000500,0.00001695,0.00001549,0.00000265,
 -0.00004428,0.00041380,0.00028004,-0.00013622,0.00008046,0.00005483,-0
 .00060761,-0.11954040,-0.21248780,0.00002277,0.00027037,0.00030461,-0.
 00009043,0.00127022,0.00121143,-0.00004585,0.00001084,-0.00000339,0.00
 001576,0.00000055,-0.00000333,0.00047932,-0.00008048,0.00069229,-0.000
 16536,0.00032751,0.00159430,0.00065800,0.00009100,0.00013885,-0.000015
 27,-0.00011660,-0.00008102,0.00071782,0.13239895,0.22695456,-0.0000732
 3,-0.00016912,0.00011822,-0.00000247,-0.00002828,0.00001440,-0.0022809
 9,0.01700237,-0.02378811,0.00167777,0.00080988,-0.00105053,-0.04574529
 ,-0.00086559,0.00110754,0.00002656,0.00021142,0.00003346,-0.00140345,-
 0.01735161,0.02393834,0.00001229,0.00003451,-0.00001080,-0.00000129,-0
 .00000349,-0.00000768,-0.00450715,0.00310560,0.00015954,0.00096635,-0.
 00055727,0.00046531,-0.00000485,-0.00008577,0.00000837,-0.00058502,-0.
 00048691,0.00062401,-0.00092477,0.00005472,0.00002314,0.05570594,0.000
 19824,0.00006456,-0.00007980,0.00003294,-0.00001399,-0.00001881,0.0013
 6264,-0.01251136,0.01632325,-0.00098537,0.00029689,-0.00016174,-0.0009
 1393,-0.13339703,0.11777862,-0.00015353,0.00003972,-0.00023286,-0.0009
 1264,-0.01112923,0.01488188,-0.00008867,0.00002979,0.00001909,0.000015
 54,0.00000168,0.00000599,0.00318253,-0.00153047,-0.00023950,-0.0005418
 2,-0.00001294,-0.00008136,0.00008740,0.00000842,-0.00011202,0.00050774
 ,0.00056902,-0.00012172,0.00009707,0.01142984,-0.01549968,0.00083277,0
 .14684800,-0.00023144,-0.00001029,0.00000544,-0.00001722,-0.00001540,0
 .00000288,0.00002931,-0.00026970,0.00009350,0.00014817,-0.00007907,0.0
 0005247,0.00106867,0.11893409,-0.21432810,-0.00002232,-0.00026830,0.00
 030881,0.00008960,-0.00122194,0.00117255,0.00004659,-0.00001104,-0.000
 00338,-0.00001587,-0.00000060,-0.00000342,0.00012447,-0.00029595,0.001
 59946,-0.00047447,0.00008403,0.00069325,0.00001554,0.00011549,-0.00007
 989,-0.00066448,-0.00009637,0.00014082,0.00003007,0.01525241,-0.020711
 93,-0.00119248,-0.13178280,0.22899921,-0.01296538,-0.02258207,-0.02479
 594,-0.00066026,0.00355476,-0.00017969,0.00170631,0.00090759,0.0007131
 4,-0.00103892,0.01529290,0.02298420,-0.00018833,-0.00000281,-0.0000515
 0,-0.04846191,0.01226960,0.01801598,0.00000215,-0.00004249,-0.00007290
 ,0.00456754,-0.00726304,-0.00148616,-0.00028633,0.00008185,0.00093391,
 -0.00000570,-0.00008905,-0.00002737,-0.00060400,-0.00050918,-0.0006177
 9,-0.00429955,0.00300536,-0.00048000,0.00100361,-0.00050599,-0.0005667
 0,0.00009188,-0.00019416,-0.00018144,0.00004442,0.00001253,0.00001573,
 0.05990631,-0.01143998,-0.01688793,-0.01539466,-0.00052264,0.00169463,
 0.00025636,-0.00066626,0.00022017,-0.00001131,0.00227542,-0.01028816,-
 0.01562677,0.00008837,0.00008970,0.00033062,0.00830904,-0.13049940,-0.
 11559835,0.00000984,0.00003120,0.00005454,0.00398354,-0.00222231,-0.00
 008873,-0.00031846,0.00004742,-0.00001223,0.00009141,-0.00000998,0.000
 13139,0.00049620,0.00053883,0.00009153,0.00262628,-0.00118080,0.000151
 40,-0.00066363,0.00013817,-0.00002938,-0.00021331,0.00009046,0.0000656
 3,0.00001062,-0.00005642,-0.00001191,-0.00440399,0.14717149,-0.0045167
 0,0.00191102,0.00672494,0.00085819,0.00194745,0.00020129,0.00010876,-0
 .00007848,0.00003171,0.00000641,0.00151261,0.00198772,0.00018141,0.000
 30686,0.00027185,0.01094164,-0.11892229,-0.22445411,0.00006508,-0.0000
 5379,-0.00003608,0.00228002,-0.00335404,0.00056515,-0.00023045,0.00018
 713,-0.00040235,-0.00005353,-0.00011023,-0.00006088,0.00058094,0.00009
 372,0.00014529,-0.00053271,0.00049932,0.00150053,0.00051979,-0.0001237
 2,0.00076797,-0.00016648,0.00006448,-0.00002285,-0.00001817,0.00000388
 ,-0.00002356,-0.01224037,0.13085588,0.23343067,-0.01304372,-0.02243525
 ,0.02486169,-0.00065915,0.00356145,0.00015748,0.00170832,0.00090279,-0
 .00071445,-0.00097775,0.01516709,-0.02307841,-0.00018779,-0.00000218,0
 .00004936,-0.04838306,0.01183562,-0.01758315,0.00000214,-0.00004228,0.
 00007320,0.00456933,-0.00726361,0.00153726,-0.00028431,0.00007818,-0.0
 0093335,-0.00060410,-0.00050361,0.00061993,-0.00000529,-0.00009036,0.0
 0002747,0.00100271,-0.00050238,0.00057019,-0.00430130,0.00301120,0.000
 44873,0.00004492,0.00001230,-0.00001596,0.00009089,-0.00019244,0.00018
 334,0.00145492,0.00034200,0.00216300,0.05983868,-0.01145419,-0.0168079
 0,0.01548973,-0.00052617,0.00168237,-0.00026661,-0.00066851,0.00022353
 ,0.00001054,0.00223157,-0.01020709,0.01570274,0.00008850,0.00008514,-0
 .00033040,0.00792352,-0.12920729,0.11509020,0.00000955,0.00003121,-0.0
 0005479,0.00397084,-0.00220287,0.00011552,-0.00031753,0.00004741,0.000
 00849,0.00049426,0.00053754,-0.00009334,0.00009342,-0.00001068,-0.0001
 3172,-0.00066680,0.00013900,0.00003101,0.00262912,-0.00118412,-0.00013
 006,0.00001058,-0.00005620,0.00001245,-0.00021240,0.00008968,-0.000067
 10,0.00037184,0.01108943,-0.01485125,-0.00397401,0.14571950,0.00452202
 ,-0.00184759,0.00673454,-0.00085797,-0.00194537,0.00021156,-0.00009934
 ,0.00007866,0.00003079,-0.00003029,-0.00139999,0.00184312,-0.00018326,
 -0.00030559,0.00027503,-0.01048647,0.11842257,-0.22581319,-0.00006510,
 0.00005327,-0.00003609,-0.00229059,0.00334889,0.00054335,0.00023260,-0
 .00018959,-0.00040326,-0.00058511,-0.00009676,0.00014655,0.00005230,0.
 00010993,-0.00006187,-0.00051526,0.00012635,0.00076580,0.00050197,-0.0
 0047451,0.00150700,0.00001858,-0.00000392,-0.00002352,0.00016806,-0.00
 006563,-0.00002103,-0.00210298,0.01467675,-0.02060870,0.01177480,-0.13
 037613,0.23492748,0.00012916,0.00000919,0.00001103,0.00002189,-0.00000
 635,0.00000362,0.00184596,-0.00080343,-0.00119624,-0.00008949,-0.00008
 628,0.00015211,-0.00154391,-0.01676333,-0.02383143,-0.00005322,0.00007
 937,0.00007921,-0.04606557,-0.00155960,-0.00270776,-0.00005964,0.00001
 746,-0.00000491,0.00000902,0.00000219,-0.00000095,-0.00001393,0.000100
 38,0.00001981,-0.00052507,0.00050421,0.00064582,0.00011545,0.00019128,
 0.00016844,0.00003949,-0.00001189,-0.00002745,-0.00450601,-0.00310083,
 0.00015948,0.00100560,0.00056876,0.00037401,-0.00004793,0.00003419,0.0
 0001401,0.00000008,0.00000057,-0.00000159,0.05014490,-0.00012835,0.000
 01924,0.00000868,-0.00004086,0.00004129,0.00000785,0.00104336,0.000437
 48,0.00035855,0.00003234,0.00011989,0.00023186,-0.00066397,-0.01238198
 ,-0.01609753,0.00005933,0.00001606,0.00005548,-0.00191774,-0.13600245,
 -0.12381144,0.00010728,-0.00006160,-0.00001173,-0.00001267,-0.00000097
 ,-0.00000055,-0.00007967,0.00000794,0.00009873,-0.00054746,0.00056897,
 0.00008910,0.00020208,0.00005811,0.00006496,-0.00001081,-0.00006019,-0
 .00000196,-0.00352201,-0.00130340,0.00061399,0.00044539,-0.00010671,0.
 00014995,-0.00003652,0.00001492,-0.00000160,0.00000056,-0.00000232,0.0
 0000123,0.00623251,0.14726104,-0.00009005,0.00004967,0.00001033,-0.000
 01416,0.00005160,0.00000763,0.00020993,0.00018886,0.00012925,-0.000154
 26,0.00029900,0.00028675,0.00006596,0.00081527,0.00105565,-0.00002202,
 -0.00007037,-0.00003599,-0.00329083,-0.12414789,-0.21821034,0.00005417
 ,-0.00007529,-0.00000642,-0.00000625,0.00000442,-0.00000107,0.00000528
 ,-0.00011754,-0.00011186,-0.00069016,0.00007089,0.00007420,0.00017257,
 0.00005960,-0.00002011,0.00002524,0.00000911,-0.00002428,0.00035032,0.
 00031694,0.00151409,-0.00053914,-0.00005792,0.00063743,-0.00001520,0.0
 0000016,0.00001917,-0.00000418,-0.00000208,-0.00000765,0.00378558,0.13
 685967,0.23378300,0.00012904,0.00000921,-0.00001076,0.00002188,-0.0000
 0627,-0.00000356,0.00184412,-0.00079443,0.00120766,-0.00008934,-0.0000
 8743,-0.00015240,-0.00160917,-0.01657910,0.02395049,-0.00005311,0.0000
 7877,-0.00007990,-0.04608045,-0.00187614,0.00318783,-0.00005956,0.0000
 1735,0.00000469,0.00000900,0.00000220,0.00000095,-0.00052571,0.0005000
 3,-0.00065118,-0.00001389,0.00009971,-0.00002042,0.00003919,-0.0000116
 7,0.00002749,0.00011619,0.00019054,-0.00016953,0.00100495,0.00056571,-
 0.00037726,-0.00450481,-0.00310114,-0.00015214,0.00000016,0.00000055,0
 .00000158,-0.00004796,0.00003412,-0.00001436,-0.00140906,0.00018662,0.
 00005324,0.05016514,-0.00012761,0.00001876,-0.00000904,-0.00004072,0.0
 0004081,-0.00000813,0.00104330,0.00043325,-0.00035849,0.00003447,0.000
 11574,-0.00023001,-0.00070898,-0.01226459,0.01619768,0.00005963,0.0000
 1638,-0.00005589,-0.00222924,-0.13413649,0.12316881,0.00010681,-0.0000
 6090,0.00001231,-0.00001263,-0.00000100,0.00000051,-0.00054196,0.00056
 797,-0.00009440,-0.00007919,0.00000808,-0.00009984,-0.00001117,-0.0000
 6026,0.00000198,0.00020091,0.00005734,-0.00006499,0.00044983,-0.000107
 38,-0.00014310,-0.00352284,-0.00131065,-0.00060231,0.00000063,-0.00000
 235,-0.00000125,-0.00003640,0.00001492,0.00000159,0.00022960,0.0119535
 1,-0.01598458,0.00657437,0.14519922,0.00009135,-0.00004968,0.00001093,
 0.00001452,-0.00005185,0.00000805,-0.00021371,-0.00019296,0.00013590,0
 .00015286,-0.00029826,0.00029078,-0.00006753,-0.00075827,0.00100343,0.
 00002148,0.00007015,-0.00003619,0.00377317,0.12350537,-0.22007654,-0.0
 0005514,0.00007573,-0.00000711,0.00000638,-0.00000441,-0.00000102,0.00
 069282,-0.00007348,0.00007582,-0.00000455,0.00011687,-0.00011184,-0.00
 002483,-0.00000872,-0.00002423,-0.00017386,-0.00005967,-0.00002011,0.0
 0053691,0.00006522,0.00063820,-0.00033977,-0.00030370,0.00151972,0.000
 00419,0.00000205,-0.00000759,0.00001531,-0.00000008,0.00001915,-0.0000
 0506,0.01574401,-0.01980620,-0.00433282,-0.13617102,0.23583988,-0.0008
 1589,0.00016794,-0.00000156,-0.00015587,0.00016918,-0.00000069,-0.0033
 0937,-0.00539718,0.00001542,-0.00101290,0.00168717,-0.00000800,-0.0199
 7800,0.01685433,-0.00008962,0.00010666,-0.00058945,0.00000196,-0.22633
 840,0.12408501,-0.00071199,0.00042739,-0.00029510,0.00000141,-0.000065
 29,0.00000630,-0.00000009,0.00028699,-0.00010872,-0.00010104,0.0002871
 1,-0.00010844,0.00010214,0.00000025,-0.00002099,-0.00008831,0.00000041
 ,-0.00002020,0.00008854,0.00051277,-0.00002153,-0.00065531,0.00051086,
 -0.00001565,0.00065699,-0.00000289,-0.00000455,0.00002193,-0.00000278,
 -0.00000474,-0.00002193,0.00099796,-0.00134767,0.00010292,0.00105903,-
 0.00138709,-0.00009074,0.24751167,-0.00019848,0.00007493,-0.00000049,0
 .00000380,0.00003829,-0.00000010,-0.00264880,-0.00249878,0.00000687,-0
 .00100107,0.00090587,-0.00000240,-0.01766938,0.01303218,-0.00007879,-0
 .00014051,-0.00031823,0.00000078,0.12535599,-0.13279023,0.00050037,-0.
 00000214,-0.00008244,0.00000023,-0.00001062,0.00001234,-0.00000005,-0.
 00015011,-0.00000355,-0.00025803,-0.00015339,0.00000079,0.00025908,0.0
 0007276,0.00003848,-0.00003255,0.00007227,0.00003844,0.00003236,0.0007
 7476,0.00068855,-0.00020014,0.00077686,0.00068793,0.00019664,0.0000029
 8,-0.00000183,0.00001939,0.00000302,-0.00000196,-0.00001935,0.01436162
 ,-0.01057683,0.00173149,0.01419663,-0.01048037,-0.00160830,-0.13364106
 ,0.14123970,-0.00000035,-0.00000007,-0.00000722,-0.00000022,0.00000009
 ,0.00000247,0.00000510,0.00000335,0.00021906,0.00000153,0.00000095,0.0
 0059255,0.00004216,-0.00003183,-0.00144492,0.00000060,0.00000035,-0.00
 000038,-0.00071627,0.00049843,-0.04620680,0.00000059,-0.00000011,-0.00
 000587,-0.00000005,-0.00000003,0.00000138,0.00030792,-0.00031124,0.000
 21973,-0.00030683,0.00031236,0.00021490,0.00007314,0.00004090,-0.00001
 834,-0.00007355,-0.00004126,-0.00001820,-0.00029028,0.00024990,-0.0000
 5751,0.00028591,-0.00025568,-0.00005466,0.00000140,-0.00000254,0.00000
 437,-0.00000142,0.00000255,0.00000442,0.02236244,-0.01435943,0.0007070
 2,-0.02246979,0.01444033,0.00054957,0.00077797,-0.00054700,0.04529813,
 -0.00138113,0.00096248,0.00205015,-0.00213628,-0.00318923,0.00338384,-
 0.00000873,0.00000433,0.00000782,0.00007578,-0.00003503,-0.00000139,0.
 00000208,-0.00000051,-0.00000923,0.00005073,-0.00006567,0.00056739,-0.
 00000083,-0.00000019,0.00000070,0.00540473,-0.01238156,-0.02520229,-0.
 04906617,0.01220342,0.01590000,0.00000596,0.00000441,-0.00000826,0.000
 01053,0.00001039,0.00000695,-0.00004324,0.00001586,0.00003846,-0.00001
 525,0.00000708,-0.00001555,-0.00000465,0.00000221,0.00000526,-0.000002
 39,0.00000028,-0.00000251,0.00009053,0.00006189,0.00000656,-0.00012867
 ,0.00000698,-0.00007149,0.00000147,0.00000208,0.00000227,0.00000004,0.
 00000077,-0.00000174,0.00000166,-0.00000039,0.00000024,0.04746093,0.00
 085482,0.00101461,0.00133204,-0.00406041,-0.00269227,0.00316496,0.0000
 0775,-0.00000969,-0.00000140,0.00001532,0.00002248,-0.00001217,-0.0000
 0023,0.00000419,-0.00000592,-0.00031903,-0.00012179,0.00075784,0.00000
 105,-0.00000011,-0.00000100,0.00492006,-0.01476564,-0.01994364,0.01180
 202,-0.13614009,-0.13290316,-0.00000103,-0.00000343,0.00000046,-0.0000
 0080,-0.00000209,0.00000097,-0.00001956,0.00002169,-0.00000640,-0.0000
 0600,0.00001555,0.00001245,-0.00000009,0.00000183,-0.00000115,0.000000
 51,-0.00000072,0.00000386,0.00024440,0.00005758,0.00002598,-0.00009178
 ,-0.00002893,-0.00011294,0.,0.00000021,0.00000041,-0.00000101,-0.00000
 164,0.00000076,0.00000096,0.00000050,-0.00000006,-0.01109203,0.1480749
 4,-0.00030151,0.00030108,0.00032744,0.00003431,0.00164973,-0.00079161,
 -0.00001776,0.00000809,0.00000254,-0.00000022,-0.00002398,-0.00001983,
 -0.00000035,-0.00000176,-0.00000153,-0.00032196,-0.00003691,0.00014603
 ,-0.00000237,0.00000041,0.00000064,0.00098697,0.00090255,0.00130714,0.
 01595601,-0.13140768,-0.21997026,0.00000615,0.00000529,-0.00000377,0.0
 0000794,0.00000640,0.00000372,-0.00002188,-0.00000227,0.00003027,-0.00
 001411,-0.00000312,-0.00001951,-0.00000214,0.00000021,0.00000466,-0.00
 000182,0.00000005,-0.00000444,0.00006379,0.00009643,0.00001053,0.00000
 530,0.00002462,-0.00003607,0.00000107,0.00000130,0.00000128,0.00000115
 ,0.00000110,-0.00000125,-0.00000010,0.00000006,0.00000005,-0.01821909,
 0.14218598,0.23702537,-0.00137691,0.00095042,-0.00206320,-0.00211806,-
 0.00319220,-0.00336953,-0.00000887,0.00000446,-0.00000787,0.00007553,-
 0.00003557,0.00000179,0.00000201,-0.00000055,0.00000927,0.00005057,-0.
 00006866,-0.00057072,-0.00000087,-0.00000015,-0.00000069,0.00530150,-0
 .01220153,0.02531116,-0.04892928,0.01154556,-0.01527363,0.00001055,0.0
 0001036,-0.00000700,0.00000596,0.00000449,0.00000825,-0.00001524,0.000
 00717,0.00001552,-0.00004316,0.00001564,-0.00003873,-0.00000241,0.0000
 0031,0.00000252,-0.00000463,0.00000217,-0.00000531,-0.00012988,0.00000
 695,0.00007112,0.00009093,0.00006239,-0.00000662,0.00000004,0.00000078
 ,0.00000174,0.00000149,0.00000206,-0.00000228,0.00000163,-0.00000040,-
 0.00000023,-0.00079302,-0.00110500,0.00189617,0.04731749,0.00085863,0.
 00100066,-0.00133382,-0.00404219,-0.00271655,-0.00317511,0.00000782,-0
 .00000965,0.00000154,0.00001525,0.00002252,0.00001179,-0.00000025,0.00
 000420,0.00000589,-0.00031454,-0.00012603,-0.00075684,0.00000104,-0.00
 000007,0.00000100,0.00482709,-0.01462925,0.02008271,0.01115173,-0.1341
 8004,0.13229898,-0.00000087,-0.00000214,-0.00000093,-0.00000106,-0.000
 00345,-0.00000047,-0.00000586,0.00001550,-0.00001264,-0.00001933,0.000
 02169,0.00000644,0.00000052,-0.00000074,-0.00000388,-0.00000007,0.0000
 0184,0.00000116,-0.00009245,-0.00002843,0.00011256,0.00024378,0.000056
 54,-0.00002541,-0.00000101,-0.00000165,-0.00000076,0.,0.00000019,-0.00
 000039,0.00000095,0.00000050,0.00000006,-0.00105390,0.01239402,-0.0163
 2132,-0.01038629,0.14596424,0.00028945,-0.00029918,0.00033204,-0.00001
 052,-0.00164772,-0.00077556,0.00001768,-0.00000799,0.00000261,0.000000
 52,0.00002361,-0.00002015,0.00000037,0.00000171,-0.00000157,0.00032379
 ,0.00003879,0.00014991,0.00000235,-0.00000040,0.00000065,-0.00099917,-
 0.00083384,0.00126936,-0.01534223,0.13079545,-0.22203083,-0.00000791,-
 0.00000633,0.00000371,-0.00000610,-0.00000526,-0.00000370,0.00001408,0
 .00000295,-0.00001929,0.00002176,0.00000233,0.00003013,0.00000181,-0.0
 0000007,-0.00000439,0.00000211,-0.00000018,0.00000464,-0.00000482,-0.0
 0002443,-0.00003650,-0.00006513,-0.00009657,0.00001096,-0.00000113,-0.
 00000109,-0.00000123,-0.00000107,-0.00000128,0.00000128,0.00000009,-0.
 00000007,0.00000005,-0.00181209,0.01607799,-0.01970102,0.01751537,-0.1
 4153484,0.23925484,-0.00552869,-0.00478432,0.00000388,0.00342228,0.000
 04253,0.00000980,-0.00009163,0.00021512,-0.00000090,-0.00025591,-0.000
 43796,0.00000101,-0.00002566,-0.00008999,0.00000033,0.00036565,0.00116
 305,-0.00000312,-0.00002364,0.00003608,-0.00000018,-0.01994700,0.01787
 144,-0.00009892,-0.26218866,0.11524213,-0.00086081,0.00000628,-0.00000
 469,0.00000746,0.00000634,-0.00000471,-0.00000739,0.00001787,0.0000105
 3,0.00001182,0.00001783,0.00001045,-0.00001188,-0.00000035,0.00000465,
 0.00000423,-0.00000033,0.00000460,-0.00000426,-0.00017675,-0.00010346,
 -0.00006203,-0.00017704,-0.00010291,0.00006203,0.00000283,-0.00000458,
 -0.00000297,0.00000282,-0.00000455,0.00000302,-0.00002300,-0.00000436,
 -0.00000002,0.00047592,-0.00114994,-0.00005557,0.00056461,-0.00118900,
 0.00006078,0.28355620,-0.00536437,-0.00309056,0.00000685,0.00162064,0.
 00101453,0.00000053,-0.00009477,0.00014612,-0.00000061,-0.00020166,-0.
 00036789,0.00000077,-0.00002417,-0.00005544,0.00000016,-0.00069900,0.0
 0081009,0.00000036,-0.00001507,0.00002115,-0.00000009,-0.02060507,0.01
 277626,-0.00010105,0.12323629,-0.11428020,0.00048257,0.00000856,0.0000
 0295,0.00000201,0.00000857,0.00000293,-0.00000201,-0.00000409,0.000006
 00,0.00002697,-0.00000401,0.00000589,-0.00002695,-0.00000131,0.0000022
 0,0.00000482,-0.00000129,0.00000217,-0.00000484,-0.00002268,-0.0000064
 0,-0.00004362,-0.00002366,-0.00000690,0.00004353,0.00000138,-0.0000005
 7,-0.00000065,0.00000138,-0.00000056,0.00000066,-0.00000949,-0.0000042
 6,0.,0.01453633,-0.00784121,0.00261373,0.01437759,-0.00778389,-0.00248
 359,-0.12672013,0.11864756,0.00000849,0.00000763,0.00124877,0.00000145
 ,-0.00000734,-0.00047630,0.00000016,-0.00000010,0.00000567,0.00000030,
 0.00000046,-0.00001557,0.00000006,0.,-0.00000754,0.00000236,0.00000165
 ,0.00076750,0.,0.00000001,0.00000301,0.00004524,-0.00001717,-0.0029268
 3,-0.00088815,0.00046619,-0.04656584,0.00000163,0.00000101,-0.00000214
 ,-0.00000164,-0.00000106,-0.00000214,-0.00000790,-0.00000503,0.0000092
 5,0.00000795,0.00000505,0.00000935,-0.00000009,-0.00000064,0.00000022,
 0.00000009,0.00000065,0.00000023,0.00009052,0.00008757,-0.00000858,-0.
 00009102,-0.00008772,-0.00000841,-0.00000010,-0.00000002,-0.00000065,0
 .00000011,0.,-0.00000065,-0.00000001,0.,0.00000018,0.02337400,-0.01057
 589,0.00168962,-0.02348711,0.01064428,0.00153405,0.00094367,-0.0005195
 4,0.04474679\\-0.00005592,0.00000100,0.00000167,-0.00000518,-0.0000063
 6,0.00000185,-0.00001351,0.00001976,0.00000169,0.00000768,-0.00000768,
 0.00000075,-0.00001423,-0.00001915,0.00000078,0.00003258,0.00006088,-0
 .00000068,0.00001036,0.00001380,-0.00000107,0.00000973,-0.00003099,-0.
 00000566,0.00004426,-0.00001184,0.00000263,0.00000115,-0.00000249,-0.0
 0000071,0.00000176,-0.00000207,0.00000102,0.00000215,-0.00000698,-0.00
 000639,-0.00000170,-0.00000713,0.00000655,0.00000099,0.00000406,-0.000
 00362,0.00000073,0.00000102,0.00000215,-0.00000012,-0.00001164,-0.0000
 0337,-0.00000337,-0.00001452,0.00000268,0.00000041,-0.00000070,0.00000
 170,0.00000093,-0.00000207,-0.00000165,0.00000648,-0.00000427,0.000000
 38,-0.00000921,0.00000953,-0.00000078,-0.00000929,0.00000873,0.0000001
 7,-0.00000669,0.00000910,-0.00000007\\\@


 We make a living by what we get,
 we make a life by what we give.
                   -- Sir Winston Churchill
 Job cpu time:       0 days  2 hours 37 minutes 18.2 seconds.
 Elapsed time:       0 days  0 hours  9 minutes 56.0 seconds.
 File lengths (MBytes):  RWF=    178 Int=      0 D2E=      0 Chk=      8 Scr=      1
 Normal termination of Gaussian 16 at Thu Sep 18 03:54:06 2025.
