 Entering Gaussian System, Link 0=g16
 Initial command:
 /usr/local/g16/l1.exe "/dados_01/scratch/Gau-3613902.inp" -scrdir="/dados_01/scratch/"
 Entering Link 1 = /usr/local/g16/l1.exe PID=   3613903.
  
 Copyright (c) 1988-2017, Gaussian, Inc.  All Rights Reserved.
  
 This is part of the Gaussian(R) 16 program.  It is based on
 the Gaussian(R) 09 system (copyright 2009, Gaussian, Inc.),
 the Gaussian(R) 03 system (copyright 2003, Gaussian, Inc.),
 the Gaussian(R) 98 system (copyright 1998, Gaussian, Inc.),
 the Gaussian(R) 94 system (copyright 1995, Gaussian, Inc.),
 the Gaussian 92(TM) system (copyright 1992, Gaussian, Inc.),
 the Gaussian 90(TM) system (copyright 1990, Gaussian, Inc.),
 the Gaussian 88(TM) system (copyright 1988, Gaussian, Inc.),
 the Gaussian 86(TM) system (copyright 1986, Carnegie Mellon
 University), and the Gaussian 82(TM) system (copyright 1983,
 Carnegie Mellon University). Gaussian is a federally registered
 trademark of Gaussian, Inc.
  
 This software contains proprietary and confidential information,
 including trade secrets, belonging to Gaussian, Inc.
  
 This software is provided under written license and may be
 used, copied, transmitted, or stored only in accord with that
 written license.
  
 The following legend is applicable only to US Government
 contracts under FAR:
  
                    RESTRICTED RIGHTS LEGEND
  
 Use, reproduction and disclosure by the US Government is
 subject to restrictions as set forth in subparagraphs (a)
 and (c) of the Commercial Computer Software - Restricted
 Rights clause in FAR 52.227-19.
  
 Gaussian, Inc.
 340 Quinnipiac St., Bldg. 40, Wallingford CT 06492
  
  
 ---------------------------------------------------------------
 Warning -- This program may not be used in any manner that
 competes with the business of Gaussian, Inc. or will provide
 assistance to any competitor of Gaussian, Inc.  The licensee
 of this program is prohibited from giving any competitor of
 Gaussian, Inc. access to this program.  By using this program,
 the user acknowledges that Gaussian, Inc. is engaged in the
 business of creating and licensing software in the field of
 computational chemistry and represents and warrants to the
 licensee that it is not a competitor of Gaussian, Inc. and that
 it will not use this program in any manner prohibited above.
 ---------------------------------------------------------------
  

 Cite this work as:
 Gaussian 16, Revision B.01,
 M. J. Frisch, G. W. Trucks, H. B. Schlegel, G. E. Scuseria, 
 M. A. Robb, J. R. Cheeseman, G. Scalmani, V. Barone, 
 G. A. Petersson, H. Nakatsuji, X. Li, M. Caricato, A. V. Marenich, 
 J. Bloino, B. G. Janesko, R. Gomperts, B. Mennucci, H. P. Hratchian, 
 J. V. Ortiz, A. F. Izmaylov, J. L. Sonnenberg, D. Williams-Young, 
 F. Ding, F. Lipparini, F. Egidi, J. Goings, B. Peng, A. Petrone, 
 T. Henderson, D. Ranasinghe, V. G. Zakrzewski, J. Gao, N. Rega, 
 G. Zheng, W. Liang, M. Hada, M. Ehara, K. Toyota, R. Fukuda, 
 J. Hasegawa, M. Ishida, T. Nakajima, Y. Honda, O. Kitao, H. Nakai, 
 T. Vreven, K. Throssell, J. A. Montgomery, Jr., J. E. Peralta, 
 F. Ogliaro, M. J. Bearpark, J. J. Heyd, E. N. Brothers, K. N. Kudin, 
 V. N. Staroverov, T. A. Keith, R. Kobayashi, J. Normand, 
 K. Raghavachari, A. P. Rendell, J. C. Burant, S. S. Iyengar, 
 J. Tomasi, M. Cossi, J. M. Millam, M. Klene, C. Adamo, R. Cammi, 
 J. W. Ochterski, R. L. Martin, K. Morokuma, O. Farkas, 
 J. B. Foresman, and D. J. Fox, Gaussian, Inc., Wallingford CT, 2016.
 
 ******************************************
 Gaussian 16:  ES64L-G16RevB.01 20-Dec-2017
                24-Nov-2025 
 ******************************************
 %nprocs=8
 Will use up to    8 processors via shared memory.
 %mem=40GB
 %chk=AMBE0006_freq.chk
 ----------------------------------------------------------------------
 # freq=noraman M08HX/6-311++G** scf=qc Empiricaldispersion=pfd Int(Gri
 d=UltraFine)
 ----------------------------------------------------------------------
 1/10=4,30=1,38=1/1,3;
 2/12=2,17=6,18=5,40=1/2;
 3/5=4,6=6,7=1111,11=2,25=1,30=1,71=2,74=-74,75=-5,124=11,140=1/1,2,3;
 4//1;
 5/5=2,8=3,38=5,98=1/8;
 8/6=4,10=90,11=11/1;
 11/6=1,8=1,9=11,15=111,16=1/1,2,10;
 10/6=1/2;
 6/7=2,8=2,9=2,10=2,28=1/1;
 7/8=1,10=1,25=1/1,2,3,16;
 1/10=4,30=1/3;
 99//99;
 -----------------------------------------------------------
 Frequência com geometria otimizada e novo checkpoint limpo
 -----------------------------------------------------------
 Symbolic Z-matrix:
 Charge =  0 Multiplicity = 1
 O                     0.08113   0.09435  -0.00047 
 O                    -0.85766   2.12814   0.00009 
 C                     3.82927   0.2032    0.00046 
 C                     2.41675  -0.37861  -0.00099 
 C                     4.90679  -0.8811   -0.00091 
 C                     1.37075   0.71757  -0.00025 
 C                     6.3158   -0.289     0.00119 
 C                    -0.96559   0.929    -0.00013 
 C                    -2.26989   0.20404  -0.00003 
 C                    -3.43652   0.96863  -0.00002 
 C                    -2.33766  -1.18976   0.00013 
 C                    -4.67552   0.33826   0.00015 
 C                    -3.5797   -1.81705   0.00031 
 C                    -4.74664  -1.05456   0.00033 
 H                     3.96412   0.85068   0.88213 
 H                     3.96483   0.85359  -0.87895 
 H                     2.27075  -1.01944   0.88117 
 H                     2.27171  -1.01741  -0.88478 
 H                     4.76823  -1.52959   0.8777 
 H                     4.76943  -1.52618  -0.8822 
 H                     1.45391   1.36421  -0.88515 
 H                     1.45409   1.36311   0.88544 
 H                     6.47562   0.3428   -0.88246 
 H                     6.47447   0.33922   0.88759 
 H                     7.08812  -1.06689   0.0001 
 H                    -3.34807   2.05359  -0.00016 
 H                    -1.4181   -1.7704    0.00014 
 H                    -5.58802   0.9315    0.00018 
 H                    -3.63872  -2.90389   0.00044 
 H                    -5.71716  -1.54847   0.00049 
 

 GradGradGradGradGradGradGradGradGradGradGradGradGradGradGradGradGradGrad
 Berny optimization.
 Initialization pass.
 Trust Radius=3.00D-01 FncErr=1.00D-07 GrdErr=1.00D-07 EigMax=2.50D+02 EigMin=1.00D-04
 Number of steps in this run=      2 maximum allowed number of steps=      2.
 GradGradGradGradGradGradGradGradGradGradGradGradGradGradGradGradGradGrad

                          Input orientation:                          
 ---------------------------------------------------------------------
 Center     Atomic      Atomic             Coordinates (Angstroms)
 Number     Number       Type             X           Y           Z
 ---------------------------------------------------------------------
      1          8           0        0.081133    0.094346   -0.000474
      2          8           0       -0.857662    2.128141    0.000090
      3          6           0        3.829273    0.203201    0.000464
      4          6           0        2.416751   -0.378610   -0.000993
      5          6           0        4.906791   -0.881103   -0.000906
      6          6           0        1.370748    0.717571   -0.000252
      7          6           0        6.315799   -0.288997    0.001187
      8          6           0       -0.965591    0.929000   -0.000134
      9          6           0       -2.269893    0.204038   -0.000034
     10          6           0       -3.436518    0.968629   -0.000023
     11          6           0       -2.337657   -1.189758    0.000129
     12          6           0       -4.675519    0.338260    0.000154
     13          6           0       -3.579702   -1.817050    0.000311
     14          6           0       -4.746643   -1.054565    0.000329
     15          1           0        3.964121    0.850677    0.882129
     16          1           0        3.964826    0.853591   -0.878946
     17          1           0        2.270751   -1.019435    0.881173
     18          1           0        2.271711   -1.017415   -0.884780
     19          1           0        4.768225   -1.529588    0.877697
     20          1           0        4.769425   -1.526182   -0.882199
     21          1           0        1.453907    1.364205   -0.885150
     22          1           0        1.454091    1.363109    0.885437
     23          1           0        6.475615    0.342799   -0.882460
     24          1           0        6.474471    0.339218    0.887589
     25          1           0        7.088125   -1.066894    0.000103
     26          1           0       -3.348068    2.053594   -0.000157
     27          1           0       -1.418104   -1.770395    0.000143
     28          1           0       -5.588017    0.931497    0.000180
     29          1           0       -3.638725   -2.903893    0.000439
     30          1           0       -5.717159   -1.548467    0.000485
 ---------------------------------------------------------------------
                    Distance matrix (angstroms):
                    1          2          3          4          5
     1  O    0.000000
     2  O    2.240013   0.000000
     3  C    3.749720   5.066829   0.000000
     4  C    2.383023   4.123783   1.527653   0.000000
     5  C    4.923259   6.502651   1.528647   2.540236   0.000000
     6  C    1.432312   2.637332   2.511757   1.515169   3.880639
     7  C    6.246440   7.569749   2.534772   3.900078   1.528364
     8  C    1.338760   1.203988   4.849485   3.626304   6.145026
     9  C    2.353584   2.386749   6.099166   4.722723   7.258259
    10  C    3.624671   2.827537   7.305997   6.006314   8.545895
    11  C    2.738516   3.633021   6.322291   4.823107   7.251020
    12  C    4.762902   4.216599   8.505864   7.128408   9.659581
    13  C    4.129788   4.793124   7.679474   6.166568   8.537948
    14  C    4.962602   5.025315   8.667659   7.195216   9.654992
    15  H    4.053223   5.065521   1.102153   2.164580   2.160426
    16  H    4.053546   5.064936   1.102154   2.164638   2.160420
    17  H    2.610026   4.524435   2.167828   1.100086   2.783147
    18  H    2.610870   4.524433   2.167847   1.100085   2.782707
    19  H    5.037577   6.767553   2.157250   2.761571   1.100762
    20  H    5.038217   6.767320   2.157254   2.761978   1.100761
    21  H    2.068744   2.590482   2.788298   2.178579   4.212565
    22  H    2.068722   2.591007   2.787482   2.178545   4.212271
    23  H    6.459801   7.598901   2.793236   4.215660   2.176300
    24  H    6.459364   7.599215   2.793307   4.215441   2.176288
    25  H    7.102564   8.564098   3.497607   4.721808   2.189232
    26  H    3.949439   2.491521   7.412029   6.256897   8.761001
    27  H    2.392691   3.938614   5.606251   4.079605   6.387107
    28  H    5.730627   4.879366   9.445410   8.111269  10.650188
    29  H    4.777738   5.749407   8.088574   6.560933   8.781658
    30  H    6.026527   6.093616   9.705808   8.217607  10.644890
                    6          7          8          9         10
     6  C    0.000000
     7  C    5.046455   0.000000
     8  C    2.345886   7.382558   0.000000
     9  C    3.676681   8.599837   1.492238   0.000000
    10  C    4.813817   9.833072   2.471245   1.394852   0.000000
    11  C    4.170152   8.700211   2.524223   1.395442   2.422009
    12  C    6.058153  11.009202   3.756666   2.409368   1.390140
    13  C    5.561588  10.012786   3.791354   2.408401   2.789356
    14  C    6.368904  11.088901   4.269764   2.778196   2.410341
    15  H    2.742608   2.757772   5.008651   6.329240   7.453963
    16  H    2.742234   2.758118   5.008693   6.329781   7.454236
    17  H    2.145718   4.203609   3.879048   4.784439   6.107522
    18  H    2.145763   4.203591   3.879595   4.785487   6.108277
    19  H    4.166937   2.168484   6.300150   7.301437   8.621444
    20  H    4.166925   2.168472   6.300505   7.302320   8.622054
    21  H    1.099134   5.211206   2.612782   3.999513   4.985598
    22  H    1.099141   5.210332   2.612958   3.999445   4.985751
    23  H    5.194075   1.097971   7.516228   8.791009   9.970995
    24  H    5.194170   1.097971   7.516011   8.790338   9.970542
    25  H    5.989384   1.096181   8.297345   9.443928  10.719676
    26  H    4.904302   9.943745   2.634560   2.140869   1.088564
    27  H    3.737335   7.874503   2.737061   2.150333   3.402389
    28  H    6.962052  11.966221   4.622427   3.396931   2.151819
    29  H    6.181409  10.292241   4.672977   3.396018   3.877798
    30  H    7.441327  12.098692   5.358660   3.867159   3.396630
                   11         12         13         14         15
    11  C    0.000000
    12  C    2.792926   0.000000
    13  C    1.391464   2.417887   0.000000
    14  C    2.412777   1.394640   1.393964   0.000000
    15  H    6.682343   8.699645   8.050071   8.960186   0.000000
    16  H    6.683513   8.700227   8.051417   8.961243   1.761078
    17  H    4.694962   7.132335   5.969917   7.072548   2.522860
    18  H    4.696705   7.133370   5.971753   7.074043   3.078309
    19  H    7.167926   9.666604   8.398829   9.567034   2.512422
    20  H    7.169540   9.667557   8.400676   9.568533   3.067707
    21  H    4.656437   6.277435   6.020103   6.714264   3.112581
    22  H    4.655991   6.277433   6.019629   6.713990   2.561806
    23  H    8.988963  11.186010  10.322482  11.343325   3.111160
    24  H    8.987711  11.185250  10.321005  11.342101   2.561928
    25  H    9.426583  11.847269  10.694170  11.834774   3.770205
    26  H    3.397096   2.168985   3.877569   3.408323   7.462811
    27  H    1.087528   3.880358   2.162101   3.404642   6.051137
    28  H    3.881309   1.088385   3.404092   2.156931   9.593107
    29  H    2.151984   3.403895   1.088445   2.155805   8.525106
    30  H    3.398486   2.155169   2.154265   1.088963  10.013010
                   16         17         18         19         20
    16  H    0.000000
    17  H    3.078333   0.000000
    18  H    2.523358   1.765954   0.000000
    19  H    3.067701   2.549048   3.098585   0.000000
    20  H    2.512113   3.099943   2.549005   1.759900   0.000000
    21  H    2.562319   3.077153   2.518118   4.739870   4.398523
    22  H    3.110699   2.518624   3.077185   4.399004   4.739618
    23  H    2.562222   4.758883   4.418483   3.085315   2.530647
    24  H    3.111839   4.417832   4.758670   2.530575   3.085296
    25  H    3.770409   4.897513   4.897276   2.523132   2.523048
    26  H    7.462620   6.464625   6.464949   8.915382   8.915519
    27  H    6.052606   3.866239   3.868437   6.252900   6.254893
    28  H    9.593526   8.145092   8.145964  10.680764  10.681544
    29  H    8.526781   6.264885   6.267030   8.563592   8.565870
    30  H   10.014196   8.053707   8.055294  10.522031  10.523691
                   21         22         23         24         25
    21  H    0.000000
    22  H    1.770587   0.000000
    23  H    5.124532   5.420535   0.000000
    24  H    5.422109   5.123726   1.770053   0.000000
    25  H    6.199865   6.199280   1.772377   1.772386   0.000000
    26  H    4.931271   4.931711  10.010496  10.010467  10.892730
    27  H    4.342569   4.341900   8.219208   8.217711   8.535271
    28  H    7.110537   7.110644  12.110196  12.109579  12.832698
    29  H    6.703419   6.702783  10.659287  10.657464  10.883009
    30  H    7.790520   7.790202  12.370134  12.368757  12.814336
                   26         27         28         29         30
    26  H    0.000000
    27  H    4.283416   0.000000
    28  H    2.505289   4.968742   0.000000
    29  H    4.966000   2.493186   4.302320   0.000000
    30  H    4.311315   4.304779   2.483324   2.481344   0.000000
 Stoichiometry    C12H16O2
 Framework group  C1[X(C12H16O2)]
 Deg. of freedom    84
 Full point group                 C1      NOp   1
 Largest Abelian subgroup         C1      NOp   1
 Largest concise Abelian subgroup C1      NOp   1
                         Standard orientation:                         
 ---------------------------------------------------------------------
 Center     Atomic      Atomic             Coordinates (Angstroms)
 Number     Number       Type             X           Y           Z
 ---------------------------------------------------------------------
      1          8           0        0.081133    0.094346   -0.000474
      2          8           0       -0.857662    2.128141    0.000090
      3          6           0        3.829273    0.203201    0.000464
      4          6           0        2.416751   -0.378610   -0.000993
      5          6           0        4.906791   -0.881103   -0.000906
      6          6           0        1.370748    0.717571   -0.000252
      7          6           0        6.315799   -0.288997    0.001187
      8          6           0       -0.965591    0.929000   -0.000134
      9          6           0       -2.269893    0.204038   -0.000034
     10          6           0       -3.436518    0.968629   -0.000023
     11          6           0       -2.337657   -1.189758    0.000129
     12          6           0       -4.675519    0.338260    0.000154
     13          6           0       -3.579702   -1.817050    0.000311
     14          6           0       -4.746643   -1.054565    0.000329
     15          1           0        3.964121    0.850677    0.882129
     16          1           0        3.964826    0.853591   -0.878946
     17          1           0        2.270751   -1.019435    0.881173
     18          1           0        2.271711   -1.017415   -0.884780
     19          1           0        4.768225   -1.529588    0.877697
     20          1           0        4.769425   -1.526182   -0.882199
     21          1           0        1.453907    1.364205   -0.885150
     22          1           0        1.454091    1.363109    0.885437
     23          1           0        6.475615    0.342799   -0.882460
     24          1           0        6.474471    0.339218    0.887589
     25          1           0        7.088125   -1.066894    0.000103
     26          1           0       -3.348068    2.053594   -0.000157
     27          1           0       -1.418104   -1.770395    0.000143
     28          1           0       -5.588017    0.931497    0.000180
     29          1           0       -3.638725   -2.903893    0.000439
     30          1           0       -5.717159   -1.548467    0.000485
 ---------------------------------------------------------------------
 Rotational constants (GHZ):           2.2453176           0.2161750           0.1984059
 Standard basis: 6-311++G(d,p) (5D, 7F)
 There are   434 symmetry adapted cartesian basis functions of A   symmetry.
 There are   420 symmetry adapted basis functions of A   symmetry.
   420 basis functions,   648 primitive gaussians,   434 cartesian basis functions
    52 alpha electrons       52 beta electrons
       nuclear repulsion energy       823.4195272528 Hartrees.
 NAtoms=   30 NActive=   30 NUniq=   30 SFac= 1.00D+00 NAtFMM=   60 NAOKFM=F Big=F
 Integral buffers will be    131072 words long.
 Raffenetti 2 integral format.
 Two-electron integral symmetry is turned on.
 R6APFD:  NTU= -4 IXU= 1 FactS= 1.050
 Nuclear repulsion after empirical dispersion term =      823.3998869460 Hartrees.
 One-electron integrals computed using PRISM.
 NBasis=   420 RedAO= T EigKep=  1.46D-06  NBF=   420
 NBsUse=   419 1.00D-06 EigRej=  6.43D-07 NBFU=   419
 ExpMin= 3.60D-02 ExpMax= 8.59D+03 ExpMxC= 1.30D+03 IAcc=3 IRadAn=         5 AccDes= 0.00D+00
 Harris functional with IExCor= 1009 and IRadAn=       5 diagonalized for initial guess.
 HarFok:  IExCor= 1009 AccDes= 0.00D+00 IRadAn=         5 IDoV= 1 UseB2=F ITyADJ=14
 ICtDFT=  3500011 ScaDFX=  1.000000  1.000000  1.000000  1.000000
 FoFCou: FMM=F IPFlag=           0 FMFlag=      100000 FMFlg1=           0
         NFxFlg=           0 DoJE=T BraDBF=F KetDBF=T FulRan=T
         wScrn=  0.000000 ICntrl=       500 IOpCl=  0 I1Cent=   200000004 NGrid=           0
         NMat0=    1 NMatS0=      1 NMatT0=    0 NMatD0=    1 NMtDS0=    0 NMtDT0=    0
 Petite list used in FoFCou.
 Gradient too large for Newton-Raphson -- use scaled steepest descent instead.
     Minimum is close to point  3 DX=  2.75D-02 DF= -1.68D-03 DXR=  6.43D-02 DFR=  4.19D-03 which will be used.
 Gradient too large for Newton-Raphson -- use scaled steepest descent instead.
     Accept linear search using points  2 and  3.
 Gradient too large for Newton-Raphson -- use scaled steepest descent instead.
     Minimum is close to point  2 DX=  2.97D-02 DF= -1.16D-05 DXR=  5.60D-02 DFR=  3.15D-03 which will be used.
 Gradient too large for Newton-Raphson -- use scaled steepest descent instead.
     Minimum is close to point  2 DX=  2.52D-02 DF= -2.03D-06 DXR=  4.79D-02 DFR=  2.30D-03 which will be used.
 Gradient too large for Newton-Raphson -- use scaled steepest descent instead.
     Minimum is close to point  2 DX=  3.33D-02 DF= -9.21D-07 DXR=  6.24D-02 DFR=  3.91D-03 which will be used.
 Gradient too large for Newton-Raphson -- use scaled steepest descent instead.
 LinEq1:  Iter=  0 NonCon=     1 RMS=4.30D-05 Max=2.96D-03 NDo=     1
 AX will form     1 AO Fock derivatives at one time.
 LinEq1:  Iter=  1 NonCon=     1 RMS=3.44D-05 Max=8.99D-04 NDo=     1
 LinEq1:  Iter=  2 NonCon=     1 RMS=6.74D-06 Max=2.68D-04 NDo=     1
 LinEq1:  Iter=  3 NonCon=     1 RMS=2.77D-06 Max=9.07D-05 NDo=     1
 LinEq1:  Iter=  4 NonCon=     1 RMS=1.19D-06 Max=3.11D-05 NDo=     1
 LinEq1:  Iter=  5 NonCon=     1 RMS=5.12D-07 Max=2.61D-05 NDo=     1
 LinEq1:  Iter=  6 NonCon=     1 RMS=2.14D-07 Max=1.22D-05 NDo=     1
 LinEq1:  Iter=  7 NonCon=     1 RMS=1.06D-07 Max=6.59D-06 NDo=     1
 LinEq1:  Iter=  8 NonCon=     1 RMS=5.27D-08 Max=3.41D-06 NDo=     1
 LinEq1:  Iter=  9 NonCon=     1 RMS=2.23D-08 Max=1.10D-06 NDo=     1
 LinEq1:  Iter= 10 NonCon=     1 RMS=1.20D-08 Max=5.21D-07 NDo=     1
 LinEq1:  Iter= 11 NonCon=     1 RMS=5.02D-09 Max=2.78D-07 NDo=     1
 LinEq1:  Iter= 12 NonCon=     0 RMS=2.88D-09 Max=1.28D-07 NDo=     1
 Linear equations converged to 1.954D-08 1.954D-07 after    12 iterations.
     Accept linear search using points  1 and  2.
     Minimum is close to point  2 DX= -5.38D-04 DF= -9.44D-12 DXR=  5.38D-04 DFR=  2.90D-07 which will be used.
 LinEq1:  Iter=  0 NonCon=     1 RMS=1.01D-07 Max=4.83D-06 NDo=     1
 LinEq1:  Iter=  1 NonCon=     1 RMS=5.93D-08 Max=2.34D-06 NDo=     1
 LinEq1:  Iter=  2 NonCon=     1 RMS=2.21D-08 Max=8.72D-07 NDo=     1
 LinEq1:  Iter=  3 NonCon=     1 RMS=1.31D-08 Max=4.31D-07 NDo=     1
 LinEq1:  Iter=  4 NonCon=     1 RMS=8.10D-09 Max=2.77D-07 NDo=     1
 LinEq1:  Iter=  5 NonCon=     1 RMS=3.26D-09 Max=1.58D-07 NDo=     1
 LinEq1:  Iter=  6 NonCon=     1 RMS=2.11D-09 Max=1.49D-07 NDo=     1
 LinEq1:  Iter=  7 NonCon=     1 RMS=9.71D-10 Max=5.65D-08 NDo=     1
 LinEq1:  Iter=  8 NonCon=     1 RMS=3.82D-10 Max=1.13D-08 NDo=     1
 LinEq1:  Iter=  9 NonCon=     1 RMS=1.27D-10 Max=2.60D-09 NDo=     1
 LinEq1:  Iter= 10 NonCon=     1 RMS=4.50D-11 Max=1.55D-09 NDo=     1
 LinEq1:  Iter= 11 NonCon=     0 RMS=2.24D-11 Max=1.11D-09 NDo=     1
 Linear equations converged to 1.318D-10 1.318D-09 after    11 iterations.
 SCF Done:  E(RM08HX) =  -617.385714844     a.u. after    9 cycles
            Convg  =    0.8989D-09                    41 Fock formations.
              S**2 =  0.0000                  -V/T =  2.0049
 DoSCS=F DFT=T ScalE2(SS,OS)=  1.000000  1.000000
 Range of M.O.s used for correlation:     1   419
 NBasis=   420 NAE=    52 NBE=    52 NFC=     0 NFV=     0
 NROrb=    419 NOA=    52 NOB=    52 NVA=   367 NVB=   367

 **** Warning!!: The largest alpha MO coefficient is  0.18303998D+03

 R6APFD:  NTU= -4 IXU= 1 FactS= 1.050
 Symmetrizing basis deriv contribution to polar:
 IMax=3 JMax=2 DiffMx= 0.00D+00
 G2DrvN: will do    31 centers at a time, making    1 passes.
 Calling FoFCou, ICntrl=  3107 FMM=F I1Cent=   0 AccDes= 0.00D+00.
 End of G2Drv F.D. properties file   721 does not exist.
 End of G2Drv F.D. properties file   722 does not exist.
 End of G2Drv F.D. properties file   788 does not exist.
          IDoAtm=111111111111111111111111111111
          Differentiating once with respect to electric field.
                with respect to dipole field.
          Differentiating once with respect to nuclear coordinates.
 Keep R1 ints in memory in canonical form, NReq=3949380240.
          There are    93 degrees of freedom in the 1st order CPHF.  IDoFFX=6 NUNeed=     3.
     90 vectors produced by pass  0 Test12= 2.05D-14 1.08D-09 XBig12= 1.02D+02 4.29D+00.
 AX will form    90 AO Fock derivatives at one time.
     90 vectors produced by pass  1 Test12= 2.05D-14 1.08D-09 XBig12= 1.47D+01 8.56D-01.
     90 vectors produced by pass  2 Test12= 2.05D-14 1.08D-09 XBig12= 2.15D-01 6.52D-02.
     90 vectors produced by pass  3 Test12= 2.05D-14 1.08D-09 XBig12= 2.52D-03 5.22D-03.
     90 vectors produced by pass  4 Test12= 2.05D-14 1.08D-09 XBig12= 1.87D-05 4.42D-04.
     90 vectors produced by pass  5 Test12= 2.05D-14 1.08D-09 XBig12= 1.00D-07 2.98D-05.
     67 vectors produced by pass  6 Test12= 2.05D-14 1.08D-09 XBig12= 4.35D-10 1.67D-06.
     19 vectors produced by pass  7 Test12= 2.05D-14 1.08D-09 XBig12= 1.55D-12 9.14D-08.
      4 vectors produced by pass  8 Test12= 2.05D-14 1.08D-09 XBig12= 5.63D-15 5.45D-09.
 InvSVY:  IOpt=1 It=  1 EMax= 7.11D-15
 Solved reduced A of dimension   630 with    93 vectors.
 Isotropic polarizability for W=    0.000000      146.64 Bohr**3.
 End of Minotr F.D. properties file   721 does not exist.
 End of Minotr F.D. properties file   722 does not exist.
 End of Minotr F.D. properties file   788 does not exist.

 **********************************************************************

            Population analysis using the SCF Density.

 **********************************************************************

 Orbital symmetries:
       Occupied  (A) (A) (A) (A) (A) (A) (A) (A) (A) (A) (A) (A)
                 (A) (A) (A) (A) (A) (A) (A) (A) (A) (A) (A) (A)
                 (A) (A) (A) (A) (A) (A) (A) (A) (A) (A) (A) (A)
                 (A) (A) (A) (A) (A) (A) (A) (A) (A) (A) (A) (A)
                 (A) (A) (A) (A)
       Virtual   (A) (A) (A) (A) (A) (A) (A) (A) (A) (A) (A) (A)
                 (A) (A) (A) (A) (A) (A) (A) (A) (A) (A) (A) (A)
                 (A) (A) (A) (A) (A) (A) (A) (A) (A) (A) (A) (A)
                 (A) (A) (A) (A) (A) (A) (A) (A) (A) (A) (A) (A)
                 (A) (A) (A) (A) (A) (A) (A) (A) (A) (A) (A) (A)
                 (A) (A) (A) (A) (A) (A) (A) (A) (A) (A) (A) (A)
                 (A) (A) (A) (A) (A) (A) (A) (A) (A) (A) (A) (A)
                 (A) (A) (A) (A) (A) (A) (A) (A) (A) (A) (A) (A)
                 (A) (A) (A) (A) (A) (A) (A) (A) (A) (A) (A) (A)
                 (A) (A) (A) (A) (A) (A) (A) (A) (A) (A) (A) (A)
                 (A) (A) (A) (A) (A) (A) (A) (A) (A) (A) (A) (A)
                 (A) (A) (A) (A) (A) (A) (A) (A) (A) (A) (A) (A)
                 (A) (A) (A) (A) (A) (A) (A) (A) (A) (A) (A) (A)
                 (A) (A) (A) (A) (A) (A) (A) (A) (A) (A) (A) (A)
                 (A) (A) (A) (A) (A) (A) (A) (A) (A) (A) (A) (A)
                 (A) (A) (A) (A) (A) (A) (A) (A) (A) (A) (A) (A)
                 (A) (A) (A) (A) (A) (A) (A) (A) (A) (A) (A) (A)
                 (A) (A) (A) (A) (A) (A) (A) (A) (A) (A) (A) (A)
                 (A) (A) (A) (A) (A) (A) (A) (A) (A) (A) (A) (A)
                 (A) (A) (A) (A) (A) (A) (A) (A) (A) (A) (A) (A)
                 (A) (A) (A) (A) (A) (A) (A) (A) (A) (A) (A) (A)
                 (A) (A) (A) (A) (A) (A) (A) (A) (A) (A) (A) (A)
                 (A) (A) (A) (A) (A) (A) (A) (A) (A) (A) (A) (A)
                 (A) (A) (A) (A) (A) (A) (A) (A) (A) (A) (A) (A)
                 (A) (A) (A) (A) (A) (A) (A) (A) (A) (A) (A) (A)
                 (A) (A) (A) (A) (A) (A) (A) (A) (A) (A) (A) (A)
                 (A) (A) (A) (A) (A) (A) (A) (A) (A) (A) (A) (A)
                 (A) (A) (A) (A) (A) (A) (A) (A) (A) (A) (A) (A)
                 (A) (A) (A) (A) (A) (A) (A) (A) (A) (A) (A) (A)
                 (A) (A) (A) (A) (A) (A) (A) (A) (A) (A) (A) (A)
                 (A) (A) (A) (A) (A) (A) (A)
 The electronic state is 1-A.
 Alpha  occ. eigenvalues --  -19.65901 -19.59988 -10.66765 -10.58849 -10.55562
 Alpha  occ. eigenvalues --  -10.54963 -10.54899 -10.54679 -10.54626 -10.54558
 Alpha  occ. eigenvalues --  -10.53385 -10.53201 -10.52948 -10.51875  -1.24297
 Alpha  occ. eigenvalues --   -1.14425  -0.98454  -0.92505  -0.88736  -0.86340
 Alpha  occ. eigenvalues --   -0.85967  -0.79661  -0.73474  -0.70809  -0.69392
 Alpha  occ. eigenvalues --   -0.67593  -0.65440  -0.62566  -0.58771  -0.57572
 Alpha  occ. eigenvalues --   -0.56004  -0.54890  -0.53032  -0.52572  -0.50613
 Alpha  occ. eigenvalues --   -0.50309  -0.50070  -0.49026  -0.46460  -0.45926
 Alpha  occ. eigenvalues --   -0.44345  -0.43154  -0.42783  -0.41492  -0.41379
 Alpha  occ. eigenvalues --   -0.40652  -0.39439  -0.39218  -0.37738  -0.36027
 Alpha  occ. eigenvalues --   -0.32313  -0.32209
 Alpha virt. eigenvalues --   -0.02961  -0.02871  -0.02349  -0.01535  -0.01268
 Alpha virt. eigenvalues --   -0.01131  -0.00525   0.00095   0.00495   0.01328
 Alpha virt. eigenvalues --    0.01367   0.02101   0.02275   0.02814   0.03488
 Alpha virt. eigenvalues --    0.03519   0.04290   0.04755   0.05508   0.05531
 Alpha virt. eigenvalues --    0.05653   0.06521   0.07063   0.07361   0.08262
 Alpha virt. eigenvalues --    0.09111   0.09343   0.09631   0.10408   0.10573
 Alpha virt. eigenvalues --    0.10981   0.11382   0.11494   0.11519   0.11931
 Alpha virt. eigenvalues --    0.12017   0.12250   0.12352   0.12719   0.13250
 Alpha virt. eigenvalues --    0.13548   0.13870   0.14023   0.14247   0.15117
 Alpha virt. eigenvalues --    0.15381   0.15482   0.15643   0.15663   0.16002
 Alpha virt. eigenvalues --    0.16464   0.17460   0.17560   0.17701   0.18168
 Alpha virt. eigenvalues --    0.18790   0.19534   0.19553   0.20086   0.21167
 Alpha virt. eigenvalues --    0.21426   0.21708   0.22095   0.22368   0.22867
 Alpha virt. eigenvalues --    0.23080   0.23604   0.23811   0.24219   0.25139
 Alpha virt. eigenvalues --    0.25638   0.27027   0.27289   0.28717   0.29315
 Alpha virt. eigenvalues --    0.29562   0.29784   0.30068   0.30584   0.30640
 Alpha virt. eigenvalues --    0.31369   0.31576   0.32093   0.32798   0.33111
 Alpha virt. eigenvalues --    0.33284   0.33555   0.34310   0.34592   0.35909
 Alpha virt. eigenvalues --    0.36458   0.36938   0.37814   0.38049   0.39028
 Alpha virt. eigenvalues --    0.39527   0.41226   0.43253   0.43927   0.45278
 Alpha virt. eigenvalues --    0.45482   0.45932   0.47424   0.47780   0.48975
 Alpha virt. eigenvalues --    0.49460   0.52020   0.53427   0.54422   0.55798
 Alpha virt. eigenvalues --    0.56024   0.56833   0.57775   0.58474   0.58655
 Alpha virt. eigenvalues --    0.59081   0.60436   0.60649   0.61528   0.63136
 Alpha virt. eigenvalues --    0.64244   0.64642   0.65153   0.66487   0.67138
 Alpha virt. eigenvalues --    0.67644   0.68793   0.68818   0.69411   0.69594
 Alpha virt. eigenvalues --    0.71083   0.71186   0.71862   0.72109   0.73221
 Alpha virt. eigenvalues --    0.73966   0.74715   0.75220   0.75622   0.76521
 Alpha virt. eigenvalues --    0.77125   0.77177   0.77643   0.78663   0.79003
 Alpha virt. eigenvalues --    0.80705   0.80982   0.82747   0.83704   0.85832
 Alpha virt. eigenvalues --    0.87294   0.87853   0.88072   0.89657   0.91565
 Alpha virt. eigenvalues --    0.92887   0.93805   0.94531   0.95465   0.99609
 Alpha virt. eigenvalues --    0.99869   1.01160   1.02981   1.03430   1.03504
 Alpha virt. eigenvalues --    1.04633   1.05431   1.06313   1.07489   1.10648
 Alpha virt. eigenvalues --    1.11216   1.11475   1.12202   1.13948   1.15932
 Alpha virt. eigenvalues --    1.18166   1.19543   1.20389   1.21793   1.24852
 Alpha virt. eigenvalues --    1.27102   1.28149   1.28824   1.29786   1.30318
 Alpha virt. eigenvalues --    1.31793   1.35503   1.36798   1.42689   1.44843
 Alpha virt. eigenvalues --    1.45998   1.49299   1.50849   1.53391   1.54935
 Alpha virt. eigenvalues --    1.55047   1.55595   1.56459   1.56852   1.58166
 Alpha virt. eigenvalues --    1.59314   1.60058   1.60311   1.60434   1.60962
 Alpha virt. eigenvalues --    1.61382   1.62336   1.62686   1.64070   1.65455
 Alpha virt. eigenvalues --    1.66454   1.66828   1.68268   1.69100   1.70704
 Alpha virt. eigenvalues --    1.71645   1.73565   1.73750   1.74816   1.75543
 Alpha virt. eigenvalues --    1.77190   1.77774   1.78039   1.79669   1.80213
 Alpha virt. eigenvalues --    1.80394   1.83115   1.86005   1.87070   1.87752
 Alpha virt. eigenvalues --    1.90033   1.92676   1.94834   1.97133   1.97544
 Alpha virt. eigenvalues --    1.97914   1.98445   1.99560   1.99918   2.00952
 Alpha virt. eigenvalues --    2.02027   2.03273   2.06729   2.08780   2.09290
 Alpha virt. eigenvalues --    2.10322   2.11897   2.15257   2.16975   2.17792
 Alpha virt. eigenvalues --    2.20144   2.22197   2.24567   2.28313   2.29003
 Alpha virt. eigenvalues --    2.30608   2.32133   2.34377   2.38062   2.39047
 Alpha virt. eigenvalues --    2.40995   2.41317   2.44032   2.44874   2.45701
 Alpha virt. eigenvalues --    2.46470   2.47963   2.48835   2.50258   2.50917
 Alpha virt. eigenvalues --    2.53421   2.55265   2.57323   2.60534   2.61153
 Alpha virt. eigenvalues --    2.62226   2.62791   2.64518   2.65227   2.65779
 Alpha virt. eigenvalues --    2.67283   2.67415   2.69201   2.70102   2.71836
 Alpha virt. eigenvalues --    2.72957   2.73050   2.73844   2.74320   2.75206
 Alpha virt. eigenvalues --    2.75916   2.76385   2.78436   2.79635   2.81973
 Alpha virt. eigenvalues --    2.85317   2.87633   2.88218   2.88475   2.89251
 Alpha virt. eigenvalues --    2.90821   2.91073   2.92660   2.94196   2.96999
 Alpha virt. eigenvalues --    2.98487   3.02439   3.02646   3.09317   3.11929
 Alpha virt. eigenvalues --    3.15254   3.16753   3.17801   3.22933   3.28970
 Alpha virt. eigenvalues --    3.30288   3.30386   3.36925   3.38961   3.45005
 Alpha virt. eigenvalues --    3.45528   3.46232   3.50665   3.55153   3.58880
 Alpha virt. eigenvalues --    3.61297   3.68769   3.76235   3.79073   3.80658
 Alpha virt. eigenvalues --    3.81769   3.83148   3.83540   3.84355   3.91566
 Alpha virt. eigenvalues --    4.02496   4.07037   4.12731   4.14970   4.19024
 Alpha virt. eigenvalues --    4.20451   4.22225   4.27359   4.36139   4.42185
 Alpha virt. eigenvalues --    4.47430   4.91943   5.14806   5.17028   5.38736
 Alpha virt. eigenvalues --    5.53159   5.81991   5.99738  23.67684  23.92858
 Alpha virt. eigenvalues --   23.93199  23.94150  23.95631  23.96942  24.01596
 Alpha virt. eigenvalues --   24.02184  24.03116  24.12748  24.15293  24.24305
 Alpha virt. eigenvalues --   49.94997  50.07256
          Condensed to atoms (all electrons):
               1          2          3          4          5          6
     1  O    8.529781  -0.186146  -0.011844  -0.210487  -0.017534   0.404952
     2  O   -0.186146   7.964364   0.048651   0.036577   0.001485   0.171387
     3  C   -0.011844   0.048651   9.306584  -2.061783  -1.046830   0.619927
     4  C   -0.210487   0.036577  -2.061783   9.128842   0.088942  -1.886967
     5  C   -0.017534   0.001485  -1.046830   0.088942   7.295396  -0.364897
     6  C    0.404952   0.171387   0.619927  -1.886967  -0.364897  10.312323
     7  C   -0.000544   0.000308   0.405125  -0.278172  -0.342441  -0.217298
     8  C    0.658555   0.110061  -1.233657   0.860373  -0.137441  -1.222792
     9  C   -1.002679   0.135667   0.274456  -0.409716   0.040429  -0.889821
    10  C   -0.312955   0.028003  -0.024546   0.000078  -0.002250  -0.390265
    11  C   -0.011353  -0.089151  -0.149373  -0.005296  -0.012908  -0.795236
    12  C    0.036856  -0.047949  -0.005643  -0.009115  -0.000639  -0.059457
    13  C    0.108919   0.054410   0.009107   0.025972  -0.001560   0.300534
    14  C   -0.040499  -0.002884  -0.007310  -0.003762   0.000045  -0.183041
    15  H   -0.005649   0.002088   0.452534  -0.055681  -0.050528  -0.002890
    16  H   -0.005652   0.002088   0.452114  -0.055578  -0.051499  -0.001687
    17  H   -0.000349   0.000627  -0.113790   0.552775   0.009340  -0.111349
    18  H   -0.000361   0.000602  -0.113057   0.552512   0.010036  -0.111990
    19  H    0.000874  -0.000058  -0.065706   0.006463   0.457506   0.004479
    20  H    0.000870  -0.000057  -0.065574   0.005954   0.457870   0.004311
    21  H   -0.014215  -0.025927  -0.066232  -0.063590  -0.021005   0.446728
    22  H   -0.014326  -0.025992  -0.064260  -0.064718  -0.020799   0.447996
    23  H    0.000186  -0.000028  -0.038224  -0.006764  -0.007874   0.002381
    24  H    0.000185  -0.000028  -0.038166  -0.006827  -0.007942   0.002426
    25  H   -0.000222   0.000010   0.065092  -0.001268  -0.071069  -0.002097
    26  H   -0.010655   0.001943  -0.000098  -0.001267   0.000020  -0.010231
    27  H    0.001524  -0.007807  -0.019203   0.011708  -0.001577  -0.030459
    28  H    0.001839   0.000661   0.000218  -0.000275   0.000001   0.005707
    29  H   -0.000504   0.000808   0.001645   0.000414   0.000054   0.004590
    30  H   -0.000789   0.000205  -0.000141  -0.000169   0.000001  -0.003376
               7          8          9         10         11         12
     1  O   -0.000544   0.658555  -1.002679  -0.312955  -0.011353   0.036856
     2  O    0.000308   0.110061   0.135667   0.028003  -0.089151  -0.047949
     3  C    0.405125  -1.233657   0.274456  -0.024546  -0.149373  -0.005643
     4  C   -0.278172   0.860373  -0.409716   0.000078  -0.005296  -0.009115
     5  C   -0.342441  -0.137441   0.040429  -0.002250  -0.012908  -0.000639
     6  C   -0.217298  -1.222792  -0.889821  -0.390265  -0.795236  -0.059457
     7  C    6.283221  -0.027318   0.000747  -0.000444  -0.001380  -0.000036
     8  C   -0.027318  32.982948 -18.242718  -6.086323  -4.882710   2.064386
     9  C    0.000747 -18.242718  25.574663   2.884878  -1.315200  -1.492597
    10  C   -0.000444  -6.086323   2.884878  15.717362  -4.260538  -3.114405
    11  C   -0.001380  -4.882710  -1.315200  -4.260538  22.838245   1.299575
    12  C   -0.000036   2.064386  -1.492597  -3.114405   1.299575   8.027423
    13  C    0.000309   4.124831  -1.915834   1.839518  -9.052878  -0.125781
    14  C   -0.000035  -2.442769   1.294841  -0.659491   2.320656  -0.284118
    15  H    0.011742  -0.003540   0.021570   0.002248  -0.002222  -0.000490
    16  H    0.011449  -0.003210   0.021544   0.002264  -0.002228  -0.000488
    17  H   -0.002405   0.025070   0.007761   0.004228  -0.006606  -0.001217
    18  H   -0.002294   0.024395   0.007682   0.004145  -0.006668  -0.001214
    19  H   -0.057321   0.000367  -0.001472  -0.000117   0.000478   0.000030
    20  H   -0.056993   0.000287  -0.001442  -0.000119   0.000475   0.000030
    21  H   -0.004956   0.152375  -0.139604  -0.032180   0.022582   0.009267
    22  H   -0.004866   0.150082  -0.139451  -0.032305   0.022291   0.009253
    23  H    0.406268   0.000475  -0.000637  -0.000037   0.000116   0.000005
    24  H    0.406315   0.000473  -0.000637  -0.000037   0.000117   0.000005
    25  H    0.370189  -0.001374   0.000367  -0.000002  -0.000091  -0.000002
    26  H   -0.000003  -0.147404   0.051911   0.541841  -0.019999  -0.121630
    27  H   -0.000530  -0.113969  -0.127983  -0.150950   0.951398   0.066145
    28  H    0.000000   0.039087  -0.015218  -0.164807   0.041089   0.459688
    29  H    0.000019   0.008249   0.054393   0.104540  -0.288957   0.001664
    30  H   -0.000001  -0.081790   0.055023   0.012952   0.080469  -0.077181
              13         14         15         16         17         18
     1  O    0.108919  -0.040499  -0.005649  -0.005652  -0.000349  -0.000361
     2  O    0.054410  -0.002884   0.002088   0.002088   0.000627   0.000602
     3  C    0.009107  -0.007310   0.452534   0.452114  -0.113790  -0.113057
     4  C    0.025972  -0.003762  -0.055681  -0.055578   0.552775   0.552512
     5  C   -0.001560   0.000045  -0.050528  -0.051499   0.009340   0.010036
     6  C    0.300534  -0.183041  -0.002890  -0.001687  -0.111349  -0.111990
     7  C    0.000309  -0.000035   0.011742   0.011449  -0.002405  -0.002294
     8  C    4.124831  -2.442769  -0.003540  -0.003210   0.025070   0.024395
     9  C   -1.915834   1.294841   0.021570   0.021544   0.007761   0.007682
    10  C    1.839518  -0.659491   0.002248   0.002264   0.004228   0.004145
    11  C   -9.052878   2.320656  -0.002222  -0.002228  -0.006606  -0.006668
    12  C   -0.125781  -0.284118  -0.000490  -0.000488  -0.001217  -0.001214
    13  C   12.427957  -1.538821  -0.000652  -0.000653  -0.001577  -0.001566
    14  C   -1.538821   7.833827   0.000222   0.000222   0.000438   0.000430
    15  H   -0.000652   0.000222   0.589340  -0.103106  -0.026593   0.015424
    16  H   -0.000653   0.000222  -0.103106   0.589376   0.015426  -0.026555
    17  H   -0.001577   0.000438  -0.026593   0.015426   0.524712  -0.079422
    18  H   -0.001566   0.000430   0.015424  -0.026555  -0.079422   0.524881
    19  H    0.000181  -0.000016  -0.024307   0.012003   0.000189   0.001049
    20  H    0.000179  -0.000016   0.011984  -0.024308   0.001081   0.000173
    21  H    0.007160  -0.004533  -0.001427  -0.008366   0.009034  -0.020665
    22  H    0.007161  -0.004560  -0.008388  -0.001478  -0.020606   0.009111
    23  H    0.000009  -0.000002   0.001171   0.000572  -0.000437   0.001434
    24  H    0.000010  -0.000002   0.000581   0.001199   0.001442  -0.000438
    25  H   -0.000006   0.000000  -0.000748  -0.000786   0.000059   0.000077
    26  H    0.018239   0.011595   0.000125   0.000125   0.000020   0.000018
    27  H   -0.298280   0.038517   0.000252   0.000250  -0.002102  -0.002064
    28  H   -0.001856  -0.063602  -0.000006  -0.000006  -0.000029  -0.000029
    29  H    0.499407  -0.098888   0.000000   0.000000   0.000156   0.000154
    30  H   -0.118645   0.461737   0.000004   0.000004   0.000003   0.000003
              19         20         21         22         23         24
     1  O    0.000874   0.000870  -0.014215  -0.014326   0.000186   0.000185
     2  O   -0.000058  -0.000057  -0.025927  -0.025992  -0.000028  -0.000028
     3  C   -0.065706  -0.065574  -0.066232  -0.064260  -0.038224  -0.038166
     4  C    0.006463   0.005954  -0.063590  -0.064718  -0.006764  -0.006827
     5  C    0.457506   0.457870  -0.021005  -0.020799  -0.007874  -0.007942
     6  C    0.004479   0.004311   0.446728   0.447996   0.002381   0.002426
     7  C   -0.057321  -0.056993  -0.004956  -0.004866   0.406268   0.406315
     8  C    0.000367   0.000287   0.152375   0.150082   0.000475   0.000473
     9  C   -0.001472  -0.001442  -0.139604  -0.139451  -0.000637  -0.000637
    10  C   -0.000117  -0.000119  -0.032180  -0.032305  -0.000037  -0.000037
    11  C    0.000478   0.000475   0.022582   0.022291   0.000116   0.000117
    12  C    0.000030   0.000030   0.009267   0.009253   0.000005   0.000005
    13  C    0.000181   0.000179   0.007160   0.007161   0.000009   0.000010
    14  C   -0.000016  -0.000016  -0.004533  -0.004560  -0.000002  -0.000002
    15  H   -0.024307   0.011984  -0.001427  -0.008388   0.001171   0.000581
    16  H    0.012003  -0.024308  -0.008366  -0.001478   0.000572   0.001199
    17  H    0.000189   0.001081   0.009034  -0.020606  -0.000437   0.001442
    18  H    0.001049   0.000173  -0.020665   0.009111   0.001434  -0.000438
    19  H    0.558858  -0.081570  -0.000809   0.003334   0.013479  -0.022934
    20  H   -0.081570   0.558703   0.003337  -0.000821  -0.022930   0.013465
    21  H   -0.000809   0.003337   0.536980  -0.066053   0.000522   0.000571
    22  H    0.003334  -0.000821  -0.066053   0.537253   0.000576   0.000517
    23  H    0.013479  -0.022930   0.000522   0.000576   0.558597  -0.073538
    24  H   -0.022934   0.013465   0.000571   0.000517  -0.073538   0.558539
    25  H   -0.001699  -0.001676  -0.000321  -0.000315  -0.023342  -0.023343
    26  H   -0.000004  -0.000004  -0.001390  -0.001395  -0.000003  -0.000003
    27  H    0.000228   0.000227   0.001032   0.001028   0.000013   0.000013
    28  H    0.000001   0.000001   0.000208   0.000209   0.000000   0.000000
    29  H   -0.000007  -0.000007  -0.000011  -0.000011  -0.000000  -0.000000
    30  H   -0.000000  -0.000000  -0.000094  -0.000094  -0.000000  -0.000000
              25         26         27         28         29         30
     1  O   -0.000222  -0.010655   0.001524   0.001839  -0.000504  -0.000789
     2  O    0.000010   0.001943  -0.007807   0.000661   0.000808   0.000205
     3  C    0.065092  -0.000098  -0.019203   0.000218   0.001645  -0.000141
     4  C   -0.001268  -0.001267   0.011708  -0.000275   0.000414  -0.000169
     5  C   -0.071069   0.000020  -0.001577   0.000001   0.000054   0.000001
     6  C   -0.002097  -0.010231  -0.030459   0.005707   0.004590  -0.003376
     7  C    0.370189  -0.000003  -0.000530   0.000000   0.000019  -0.000001
     8  C   -0.001374  -0.147404  -0.113969   0.039087   0.008249  -0.081790
     9  C    0.000367   0.051911  -0.127983  -0.015218   0.054393   0.055023
    10  C   -0.000002   0.541841  -0.150950  -0.164807   0.104540   0.012952
    11  C   -0.000091  -0.019999   0.951398   0.041089  -0.288957   0.080469
    12  C   -0.000002  -0.121630   0.066145   0.459688   0.001664  -0.077181
    13  C   -0.000006   0.018239  -0.298280  -0.001856   0.499407  -0.118645
    14  C    0.000000   0.011595   0.038517  -0.063602  -0.098888   0.461737
    15  H   -0.000748   0.000125   0.000252  -0.000006   0.000000   0.000004
    16  H   -0.000786   0.000125   0.000250  -0.000006   0.000000   0.000004
    17  H    0.000059   0.000020  -0.002102  -0.000029   0.000156   0.000003
    18  H    0.000077   0.000018  -0.002064  -0.000029   0.000154   0.000003
    19  H   -0.001699  -0.000004   0.000228   0.000001  -0.000007  -0.000000
    20  H   -0.001676  -0.000004   0.000227   0.000001  -0.000007  -0.000000
    21  H   -0.000321  -0.001390   0.001032   0.000208  -0.000011  -0.000094
    22  H   -0.000315  -0.001395   0.001028   0.000209  -0.000011  -0.000094
    23  H   -0.023342  -0.000003   0.000013   0.000000  -0.000000  -0.000000
    24  H   -0.023343  -0.000003   0.000013   0.000000  -0.000000  -0.000000
    25  H    0.471019   0.000001  -0.000022   0.000000   0.000001   0.000000
    26  H    0.000001   0.387315  -0.001078  -0.005527   0.001322   0.001714
    27  H   -0.000022  -0.001078   0.431163   0.001648  -0.014801   0.003170
    28  H    0.000000  -0.005527   0.001648   0.406754   0.000694  -0.008581
    29  H    0.000001   0.001322  -0.014801   0.000694   0.417393  -0.010003
    30  H    0.000000   0.001714   0.003170  -0.008581  -0.010003   0.415534
 Mulliken charges:
               1
     1  O    0.102222
     2  O   -0.173916
     3  C   -0.510017
     4  C   -0.149177
     5  C   -0.202333
     6  C   -0.443887
     7  C   -0.898654
     8  C   -0.574997
     9  C    1.269078
    10  C    0.089714
    11  C   -0.674700
    12  C   -0.632365
    13  C   -0.365791
    14  C   -0.628180
    15  H    0.176941
    16  H    0.176964
    17  H    0.214121
    18  H    0.214198
    19  H    0.196501
    20  H    0.196569
    21  H    0.281583
    22  H    0.281626
    23  H    0.188012
    24  H    0.188037
    25  H    0.221570
    26  H    0.304503
    27  H    0.262512
    28  H    0.302132
    29  H    0.317688
    30  H    0.270046
 Sum of Mulliken charges =   0.00000
 Mulliken charges with hydrogens summed into heavy atoms:
               1
     1  O    0.102222
     2  O   -0.173916
     3  C   -0.156111
     4  C    0.279142
     5  C    0.190737
     6  C    0.119322
     7  C   -0.301035
     8  C   -0.574997
     9  C    1.269078
    10  C    0.394218
    11  C   -0.412188
    12  C   -0.330232
    13  C   -0.048103
    14  C   -0.358134
 APT charges:
               1
     1  O   -1.047805
     2  O   -0.826000
     3  C    0.077854
     4  C    0.045954
     5  C    0.106373
     6  C    0.580837
     7  C    0.046545
     8  C    1.448002
     9  C   -0.215007
    10  C   -0.025663
    11  C   -0.025977
    12  C   -0.071655
    13  C   -0.074819
    14  C   -0.000587
    15  H   -0.031723
    16  H   -0.031671
    17  H   -0.017541
    18  H   -0.017599
    19  H   -0.038507
    20  H   -0.038552
    21  H   -0.037273
    22  H   -0.037331
    23  H   -0.015439
    24  H   -0.015470
    25  H   -0.027580
    26  H    0.087479
    27  H    0.080254
    28  H    0.039925
    29  H    0.039510
    30  H    0.043465
 Sum of APT charges =   0.00000
 APT charges with hydrogens summed into heavy atoms:
               1
     1  O   -1.047805
     2  O   -0.826000
     3  C    0.014460
     4  C    0.010814
     5  C    0.029315
     6  C    0.506232
     7  C   -0.011944
     8  C    1.448002
     9  C   -0.215007
    10  C    0.061816
    11  C    0.054277
    12  C   -0.031730
    13  C   -0.035309
    14  C    0.042877
 Electronic spatial extent (au):  <R**2>=           5383.1092
 Charge=              0.0000 electrons
 Dipole moment (field-independent basis, Debye):
    X=              0.4399    Y=             -2.1314    Z=             -0.0001  Tot=              2.1763
 Quadrupole moment (field-independent basis, Debye-Ang):
   XX=            -71.3940   YY=            -88.3181   ZZ=            -87.9912
   XY=              2.6813   XZ=             -0.0026   YZ=             -0.0037
 Traceless Quadrupole moment (field-independent basis, Debye-Ang):
   XX=             11.1738   YY=             -5.7503   ZZ=             -5.4235
   XY=              2.6813   XZ=             -0.0026   YZ=             -0.0037
 Octapole moment (field-independent basis, Debye-Ang**2):
  XXX=            -58.1394  YYY=            -18.3830  ZZZ=             -0.0035  XYY=             -8.5297
  XXY=             -3.4370  XXZ=             -0.0071  XZZ=             18.1148  YZZ=              6.1391
  YYZ=             -0.0028  XYZ=             -0.0000
 Hexadecapole moment (field-independent basis, Debye-Ang**3):
 XXXX=          -6364.8370 YYYY=           -698.4126 ZZZZ=           -133.4144 XXXY=            -15.6155
 XXXZ=             -0.1521 YYYX=             27.5159 YYYZ=             -0.0327 ZZZX=              0.0181
 ZZZY=              0.0142 XXYY=          -1175.9359 XXZZ=          -1206.3461 YYZZ=           -139.5738
 XXYZ=             -0.0383 YYXZ=             -0.0205 ZZXY=             -7.2722
 N-N= 8.233998869460D+02 E-N=-3.083113311603D+03  KE= 6.143951834540D+02
  Exact polarizability: 194.913   5.358 147.449  -0.001   0.002  97.562
 Approx polarizability: 196.281   4.305 201.676  -0.006  -0.001 131.609
 R6APFD:  NTU= -4 IXU= 1 FactS= 1.050
 Calling FoFJK, ICntrl=    100127 FMM=F ISym2X=0 I1Cent= 0 IOpClX= 0 NMat=1 NMatS=1 NMatT=0.
 Full mass-weighted force constant matrix:
 Low frequencies ---  -22.0949   -6.0776   -0.0004   -0.0003    0.0005    4.7094
 Low frequencies ---   20.5016   30.0686   45.7770
 Diagonal vibrational polarizability:
       24.2139623       6.9491200      23.4642291
 Harmonic frequencies (cm**-1), IR intensities (KM/Mole), Raman scattering
 activities (A**4/AMU), depolarization ratios for plane and unpolarized
 incident light, reduced masses (AMU), force constants (mDyne/A),
 and normal coordinates:
                      1                      2                      3
                      A                      A                      A
 Frequencies --     12.5896                29.9407                45.7762
 Red. masses --      2.0481                 2.9209                 4.3442
 Frc consts  --      0.0002                 0.0015                 0.0054
 IR Inten    --      0.0235                 0.0051                 0.2338
  Atom  AN      X      Y      Z        X      Y      Z        X      Y      Z
     1   8    -0.00  -0.00  -0.09     0.00   0.00  -0.10    -0.01  -0.15   0.00
     2   8     0.00  -0.00  -0.02    -0.00   0.00  -0.03     0.08  -0.11  -0.00
     3   6    -0.00  -0.00   0.05    -0.00   0.00  -0.05     0.00  -0.01  -0.00
     4   6     0.00  -0.00  -0.13    -0.00   0.00  -0.01     0.05  -0.13   0.00
     5   6     0.00   0.00  -0.09    -0.00  -0.00   0.16     0.11   0.10   0.00
     6   6     0.00  -0.00  -0.06    -0.00   0.00  -0.13     0.00  -0.16   0.00
     7   6    -0.00   0.00   0.19    -0.00  -0.00   0.08     0.04   0.27  -0.00
     8   6     0.00  -0.00  -0.04    -0.00   0.00  -0.05     0.03  -0.11   0.00
     9   6    -0.00  -0.00  -0.01     0.00   0.00  -0.01    -0.01  -0.03  -0.00
    10   6     0.00   0.00   0.01    -0.00  -0.00   0.16     0.04   0.05   0.00
    11   6    -0.00  -0.00   0.01     0.00   0.00  -0.15    -0.11  -0.03  -0.00
    12   6     0.00   0.00   0.05     0.00  -0.00   0.20    -0.01   0.13   0.00
    13   6    -0.00   0.00   0.05     0.00  -0.00  -0.11    -0.15   0.06  -0.00
    14   6    -0.00   0.00   0.08     0.00  -0.00   0.06    -0.10   0.14  -0.00
    15   1    -0.05  -0.17   0.18    -0.03   0.14  -0.15    -0.06   0.00  -0.00
    16   1     0.05   0.17   0.18     0.03  -0.14  -0.15    -0.06   0.00   0.00
    17   1    -0.06  -0.12  -0.23    -0.01   0.10   0.06     0.09  -0.13   0.00
    18   1     0.06   0.12  -0.23     0.01  -0.10   0.06     0.09  -0.13  -0.00
    19   1    -0.09  -0.20  -0.25    -0.02   0.15   0.27     0.19   0.09   0.00
    20   1     0.09   0.20  -0.25     0.02  -0.16   0.27     0.19   0.09   0.00
    21   1    -0.00   0.06  -0.01     0.02  -0.08  -0.19    -0.00  -0.16   0.00
    22   1     0.00  -0.06  -0.01    -0.02   0.08  -0.19    -0.00  -0.16  -0.00
    23   1     0.08   0.22   0.36     0.02  -0.17  -0.04    -0.03   0.29  -0.00
    24   1    -0.09  -0.22   0.36    -0.02   0.17  -0.03    -0.03   0.29  -0.00
    25   1     0.00   0.00   0.07    -0.00  -0.00   0.25     0.14   0.36  -0.00
    26   1     0.00   0.00  -0.00    -0.00  -0.00   0.26     0.11   0.04   0.00
    27   1    -0.00  -0.00  -0.01     0.00   0.00  -0.28    -0.15  -0.09  -0.00
    28   1     0.00   0.00   0.07    -0.00  -0.00   0.34     0.03   0.19   0.00
    29   1    -0.00   0.00   0.07     0.00  -0.00  -0.22    -0.23   0.06  -0.00
    30   1    -0.00   0.00   0.11     0.00  -0.00   0.10    -0.13   0.20  -0.00
                      4                      5                      6
                      A                      A                      A
 Frequencies --     62.6866                99.0157               117.3059
 Red. masses --      4.1711                 3.3474                 1.8882
 Frc consts  --      0.0097                 0.0193                 0.0153
 IR Inten    --      1.4711                 0.2400                 0.5033
  Atom  AN      X      Y      Z        X      Y      Z        X      Y      Z
     1   8    -0.00  -0.00  -0.13     0.00  -0.00   0.23    -0.00   0.00  -0.07
     2   8     0.00  -0.00   0.28    -0.00  -0.00  -0.11     0.00   0.00   0.06
     3   6    -0.00   0.00  -0.16     0.00   0.00  -0.22    -0.00  -0.00   0.07
     4   6     0.00  -0.00  -0.15     0.00   0.00  -0.02    -0.00  -0.00   0.17
     5   6     0.00  -0.00   0.10     0.00   0.00  -0.10    -0.00   0.00  -0.07
     6   6    -0.00  -0.00  -0.15     0.00   0.00  -0.04    -0.00  -0.00  -0.17
     7   6    -0.00   0.00   0.09    -0.00  -0.00   0.16    -0.00   0.00  -0.01
     8   6     0.00  -0.00   0.09     0.00  -0.00   0.08     0.00   0.00   0.02
     9   6     0.00  -0.00   0.05     0.00  -0.00   0.10     0.00   0.00   0.03
    10   6     0.00   0.00  -0.07     0.00  -0.00   0.08    -0.00   0.00   0.01
    11   6    -0.00  -0.00   0.13    -0.00  -0.00   0.04     0.00   0.00   0.03
    12   6     0.00   0.00  -0.14     0.00   0.00  -0.02     0.00  -0.00  -0.02
    13   6    -0.00   0.00   0.09    -0.00  -0.00  -0.07     0.00  -0.00  -0.00
    14   6    -0.00   0.00  -0.05    -0.00   0.00  -0.10     0.00  -0.00  -0.03
    15   1    -0.06   0.14  -0.25     0.06   0.14  -0.33     0.07  -0.02   0.07
    16   1     0.06  -0.14  -0.25    -0.06  -0.14  -0.34    -0.07   0.02   0.07
    17   1     0.00   0.01  -0.14     0.09   0.12   0.08    -0.04   0.23   0.33
    18   1    -0.00  -0.01  -0.14    -0.09  -0.12   0.08     0.04  -0.23   0.33
    19   1    -0.06   0.16   0.21    -0.14  -0.03  -0.15     0.01  -0.11  -0.15
    20   1     0.06  -0.16   0.21     0.14   0.03  -0.14    -0.01   0.11  -0.15
    21   1    -0.01   0.00  -0.15    -0.12  -0.13  -0.15     0.04  -0.24  -0.34
    22   1     0.01  -0.00  -0.15     0.12   0.13  -0.15    -0.04   0.24  -0.34
    23   1     0.07  -0.18  -0.03     0.14   0.09   0.25    -0.04   0.19   0.11
    24   1    -0.07   0.18  -0.03    -0.14  -0.09   0.25     0.04  -0.19   0.11
    25   1     0.00   0.00   0.32    -0.00  -0.00   0.21     0.00   0.00  -0.22
    26   1     0.00   0.00  -0.13     0.00  -0.00   0.11    -0.00   0.00   0.02
    27   1    -0.00  -0.00   0.23    -0.00  -0.00   0.06     0.00   0.00   0.04
    28   1     0.00   0.00  -0.25     0.00   0.00  -0.04    -0.00  -0.00  -0.04
    29   1    -0.00   0.00   0.17    -0.00  -0.00  -0.13     0.00  -0.00  -0.01
    30   1    -0.00   0.00  -0.09    -0.00   0.00  -0.19     0.00  -0.00  -0.06
                      7                      8                      9
                      A                      A                      A
 Frequencies --    137.9696               145.5869               211.4690
 Red. masses --      3.8511                 2.7891                 3.8947
 Frc consts  --      0.0432                 0.0348                 0.1026
 IR Inten    --      0.7343                 0.1856                 1.7046
  Atom  AN      X      Y      Z        X      Y      Z        X      Y      Z
     1   8     0.05  -0.04  -0.00     0.00  -0.00   0.06     0.00   0.00   0.26
     2   8    -0.06  -0.10   0.00    -0.00  -0.00  -0.09    -0.00  -0.00   0.10
     3   6     0.11   0.19  -0.00     0.00   0.00   0.16    -0.00  -0.00   0.05
     4   6     0.10   0.19   0.00     0.00   0.00  -0.15    -0.00   0.00  -0.08
     5   6    -0.00   0.07  -0.00    -0.00   0.00   0.08    -0.00  -0.00   0.02
     6   6     0.00   0.10   0.00     0.00   0.00  -0.15     0.00   0.00  -0.15
     7   6     0.11  -0.19   0.00     0.00  -0.00  -0.08    -0.00   0.00  -0.01
     8   6    -0.00  -0.11  -0.00    -0.00  -0.00   0.05     0.00  -0.00   0.07
     9   6    -0.01  -0.10  -0.00    -0.00  -0.00   0.14     0.00  -0.00  -0.15
    10   6     0.03  -0.03  -0.00     0.00  -0.00   0.11     0.00  -0.00  -0.18
    11   6    -0.10  -0.09  -0.00    -0.00  -0.00   0.10    -0.00  -0.00  -0.18
    12   6    -0.01   0.06   0.00    -0.00   0.00  -0.02     0.00   0.00  -0.00
    13   6    -0.15  -0.01   0.00    -0.00  -0.00  -0.04    -0.00  -0.00   0.00
    14   6    -0.10   0.06   0.00    -0.00   0.00  -0.12     0.00   0.00   0.17
    15   1     0.14   0.18   0.00    -0.12  -0.17   0.31    -0.06  -0.09   0.13
    16   1     0.14   0.17  -0.01     0.12   0.17   0.31     0.06   0.09   0.13
    17   1     0.13   0.18  -0.00    -0.14  -0.12  -0.26    -0.08   0.01  -0.09
    18   1     0.13   0.18   0.01     0.14   0.12  -0.26     0.08  -0.01  -0.09
    19   1    -0.10   0.09  -0.00     0.08   0.01   0.11     0.02  -0.01   0.01
    20   1    -0.10   0.09   0.00    -0.08  -0.01   0.11    -0.02   0.01   0.01
    21   1    -0.07   0.11   0.00    -0.10  -0.08  -0.21    -0.19  -0.23  -0.34
    22   1    -0.07   0.11   0.00     0.10   0.08  -0.21     0.19   0.23  -0.34
    23   1     0.23  -0.22   0.00    -0.07  -0.09  -0.16    -0.00  -0.05  -0.05
    24   1     0.23  -0.22   0.00     0.07   0.09  -0.16     0.00   0.05  -0.05
    25   1    -0.05  -0.34  -0.00    -0.00  -0.00  -0.06    -0.00   0.00   0.03
    26   1     0.10  -0.04  -0.00     0.00  -0.00   0.14     0.00  -0.00  -0.23
    27   1    -0.13  -0.15  -0.00    -0.00  -0.00   0.14    -0.00  -0.00  -0.24
    28   1     0.03   0.12   0.00     0.00   0.00  -0.07     0.00   0.00   0.05
    29   1    -0.22  -0.00   0.00    -0.00  -0.00  -0.10    -0.00   0.00   0.06
    30   1    -0.13   0.12   0.00    -0.00   0.00  -0.26     0.00   0.00   0.39
                     10                     11                     12
                      A                      A                      A
 Frequencies --    224.9504               239.8535               255.7091
 Red. masses --      4.9360                 1.1274                 4.1453
 Frc consts  --      0.1472                 0.0382                 0.1597
 IR Inten    --      2.7915                 0.0044                 2.1016
  Atom  AN      X      Y      Z        X      Y      Z        X      Y      Z
     1   8    -0.05   0.08   0.00    -0.00  -0.00  -0.01    -0.10  -0.14   0.00
     2   8    -0.11   0.09   0.00     0.00   0.00  -0.00     0.20  -0.01   0.00
     3   6     0.17  -0.09  -0.00     0.00   0.00   0.04    -0.04   0.18   0.00
     4   6     0.11  -0.06  -0.00     0.00  -0.00   0.04     0.04  -0.04  -0.00
     5   6     0.25  -0.05   0.00     0.00   0.00  -0.09    -0.05   0.17   0.00
     6   6     0.05  -0.04  -0.00    -0.00  -0.00   0.00    -0.08  -0.17  -0.00
     7   6     0.26  -0.01   0.00     0.00  -0.00   0.02     0.06  -0.11  -0.00
     8   6    -0.08   0.09   0.00    -0.00   0.00  -0.00     0.00   0.01   0.00
     9   6    -0.12   0.07  -0.00    -0.00   0.00   0.00    -0.06   0.12  -0.00
    10   6    -0.18  -0.00  -0.00    -0.00   0.00   0.00    -0.11   0.06  -0.00
    11   6    -0.08   0.07  -0.00    -0.00   0.00   0.00     0.03   0.12  -0.00
    12   6    -0.15  -0.07   0.00    -0.00  -0.00  -0.00    -0.06  -0.05  -0.00
    13   6    -0.05  -0.00   0.00     0.00   0.00   0.00     0.09   0.02  -0.00
    14   6    -0.10  -0.08   0.00    -0.00  -0.00  -0.00     0.04  -0.06   0.00
    15   1     0.17  -0.09  -0.00     0.03  -0.09   0.10    -0.10   0.18   0.01
    16   1     0.17  -0.09   0.00    -0.03   0.09   0.10    -0.10   0.18  -0.01
    17   1     0.11  -0.07  -0.00    -0.00   0.02   0.05     0.16  -0.07   0.00
    18   1     0.11  -0.07   0.00     0.00  -0.02   0.05     0.16  -0.07  -0.00
    19   1     0.29  -0.06  -0.00    -0.02  -0.09  -0.16    -0.14   0.17  -0.01
    20   1     0.29  -0.06   0.00     0.02   0.09  -0.16    -0.14   0.17   0.01
    21   1     0.08  -0.04   0.00     0.02  -0.02  -0.01    -0.10  -0.16   0.01
    22   1     0.08  -0.04  -0.00    -0.02   0.02  -0.01    -0.10  -0.16  -0.01
    23   1     0.26  -0.02  -0.00     0.25  -0.40  -0.22     0.22  -0.16  -0.00
    24   1     0.26  -0.02   0.00    -0.25   0.40  -0.22     0.22  -0.16   0.00
    25   1     0.26  -0.02  -0.00    -0.00  -0.00   0.59    -0.14  -0.31  -0.00
    26   1    -0.26   0.01  -0.00    -0.00   0.00   0.00    -0.19   0.07  -0.00
    27   1    -0.06   0.10  -0.00     0.00   0.00   0.01     0.07   0.19  -0.00
    28   1    -0.18  -0.11   0.00    -0.00  -0.00  -0.00    -0.11  -0.13   0.00
    29   1     0.02  -0.01   0.00     0.00  -0.00   0.00     0.18   0.02  -0.00
    30   1    -0.07  -0.13   0.00     0.00  -0.00  -0.01     0.07  -0.13   0.00
                     13                     14                     15
                      A                      A                      A
 Frequencies --    353.6230               410.5350               410.6984
 Red. masses --      5.0729                 4.8777                 2.8692
 Frc consts  --      0.3738                 0.4844                 0.2851
 IR Inten    --      8.1486                 1.6806                 0.0001
  Atom  AN      X      Y      Z        X      Y      Z        X      Y      Z
     1   8     0.10  -0.04  -0.00     0.09   0.17  -0.00     0.00   0.00   0.01
     2   8     0.32  -0.04  -0.00     0.13   0.16   0.00     0.00   0.00  -0.01
     3   6     0.10  -0.04   0.00    -0.11   0.05  -0.00    -0.00   0.00  -0.00
     4   6     0.04   0.18   0.00     0.00  -0.17  -0.00     0.00  -0.00   0.00
     5   6    -0.03  -0.16  -0.00    -0.07   0.14   0.00    -0.00   0.00   0.00
     6   6     0.04   0.15   0.00     0.17  -0.05   0.00     0.00  -0.00   0.00
     7   6    -0.13   0.07  -0.00    -0.01  -0.04  -0.00    -0.00  -0.00   0.00
     8   6     0.09  -0.02  -0.00     0.10   0.15   0.00     0.00   0.00  -0.01
     9   6    -0.05   0.06  -0.00     0.07  -0.07   0.00     0.00  -0.00  -0.01
    10   6    -0.13  -0.02   0.00     0.03  -0.14  -0.00     0.00  -0.00   0.21
    11   6    -0.10   0.06   0.00    -0.09  -0.10   0.00    -0.00  -0.00  -0.20
    12   6    -0.13  -0.09   0.00    -0.03  -0.07   0.00    -0.00  -0.00  -0.20
    13   6    -0.07  -0.01   0.00    -0.15  -0.05  -0.00    -0.00  -0.00   0.20
    14   6    -0.12  -0.09  -0.00    -0.16  -0.05   0.00    -0.00  -0.00  -0.01
    15   1     0.22  -0.06  -0.00    -0.23   0.07   0.00    -0.00   0.00  -0.00
    16   1     0.22  -0.06   0.00    -0.23   0.07  -0.00    -0.00   0.00  -0.00
    17   1    -0.02   0.18  -0.01     0.03  -0.16   0.01     0.00  -0.00  -0.00
    18   1    -0.02   0.18   0.01     0.03  -0.16  -0.01    -0.00   0.00  -0.00
    19   1    -0.01  -0.14   0.01    -0.11   0.14  -0.01    -0.00   0.00   0.00
    20   1    -0.01  -0.14  -0.01    -0.11   0.14   0.01    -0.00   0.00   0.00
    21   1    -0.04   0.16  -0.00     0.31  -0.07  -0.00     0.00   0.00   0.00
    22   1    -0.04   0.16   0.00     0.31  -0.07   0.00     0.00  -0.00   0.00
    23   1    -0.30   0.12   0.00     0.11  -0.07  -0.00     0.00  -0.00   0.00
    24   1    -0.30   0.12  -0.00     0.11  -0.07   0.00     0.00  -0.00   0.00
    25   1     0.07   0.27   0.00    -0.16  -0.18  -0.00    -0.00  -0.00   0.00
    26   1    -0.24  -0.01   0.00     0.01  -0.13  -0.01     0.00  -0.00   0.47
    27   1    -0.10   0.05   0.00    -0.16  -0.21   0.01    -0.00  -0.00  -0.46
    28   1    -0.14  -0.10   0.00     0.04   0.04   0.00     0.00   0.00  -0.44
    29   1     0.01  -0.02   0.00    -0.16  -0.05  -0.01    -0.00  -0.00   0.45
    30   1    -0.11  -0.13  -0.00    -0.18  -0.00   0.00    -0.00  -0.00  -0.01
                     16                     17                     18
                      A                      A                      A
 Frequencies --    448.2885               451.6450               515.1380
 Red. masses --      3.6182                 3.4142                 5.3285
 Frc consts  --      0.4284                 0.4103                 0.8331
 IR Inten    --      0.4009                11.5251                 0.9143
  Atom  AN      X      Y      Z        X      Y      Z        X      Y      Z
     1   8    -0.00  -0.00  -0.08     0.04  -0.00  -0.00     0.26  -0.00  -0.00
     2   8     0.00   0.00  -0.07    -0.15   0.01   0.00    -0.13  -0.20  -0.00
     3   6     0.00  -0.00  -0.00     0.12   0.11   0.00    -0.14  -0.05  -0.00
     4   6    -0.00   0.00   0.01     0.23  -0.05   0.00    -0.09  -0.09  -0.00
     5   6     0.00  -0.00  -0.00    -0.11  -0.05  -0.00    -0.02   0.11   0.00
     6   6    -0.00   0.00   0.01     0.13  -0.14  -0.00     0.20   0.12   0.00
     7   6     0.00   0.00   0.00    -0.20   0.01  -0.00     0.04  -0.01   0.00
     8   6    -0.00  -0.00   0.13     0.00  -0.00   0.00     0.08  -0.19   0.00
     9   6     0.00   0.00   0.32    -0.01   0.03   0.00    -0.04   0.10   0.00
    10   6     0.00   0.00  -0.06    -0.03   0.02  -0.00    -0.12   0.10   0.00
    11   6     0.00  -0.00  -0.08     0.00   0.04  -0.00    -0.02   0.16   0.00
    12   6     0.00   0.00  -0.15    -0.02   0.00  -0.00    -0.08  -0.01  -0.00
    13   6     0.00  -0.00  -0.14     0.01   0.02  -0.00     0.04   0.06  -0.00
    14   6     0.00   0.00   0.23     0.00  -0.00   0.00     0.00  -0.04   0.00
    15   1     0.01   0.01  -0.01     0.17   0.08   0.01    -0.25  -0.02  -0.00
    16   1    -0.01  -0.01  -0.01     0.17   0.08  -0.01    -0.25  -0.02   0.00
    17   1     0.00  -0.00   0.01     0.38  -0.08   0.00    -0.21  -0.04   0.01
    18   1    -0.00   0.00   0.01     0.38  -0.08  -0.00    -0.21  -0.04  -0.01
    19   1     0.00  -0.00  -0.00    -0.20  -0.02   0.01    -0.00   0.09  -0.01
    20   1    -0.00   0.00  -0.00    -0.20  -0.02  -0.01    -0.00   0.09   0.01
    21   1     0.05   0.06   0.06     0.17  -0.14   0.00     0.25   0.09  -0.01
    22   1    -0.05  -0.06   0.06     0.17  -0.14  -0.00     0.25   0.09   0.02
    23   1     0.00  -0.00  -0.00    -0.32   0.05   0.01     0.16  -0.05  -0.01
    24   1    -0.00   0.00  -0.00    -0.32   0.05  -0.01     0.16  -0.05   0.01
    25   1     0.00   0.00   0.00    -0.07   0.15   0.00    -0.11  -0.16  -0.00
    26   1     0.00  -0.00  -0.32    -0.06   0.02  -0.00    -0.22   0.10  -0.00
    27   1     0.00  -0.00  -0.34     0.01   0.06  -0.00     0.03   0.23  -0.00
    28   1    -0.00  -0.00  -0.42    -0.03  -0.02  -0.00    -0.13  -0.09  -0.00
    29   1    -0.00  -0.00  -0.39     0.04   0.02  -0.00     0.15   0.05  -0.00
    30   1     0.00   0.00   0.44     0.01  -0.02   0.00     0.04  -0.10   0.00
                     19                     20                     21
                      A                      A                      A
 Frequencies --    624.1294               683.5161               690.7499
 Red. masses --      6.4254                 6.5029                 3.4223
 Frc consts  --      1.4747                 1.7900                 0.9621
 IR Inten    --      0.6286                 6.0359                 2.4922
  Atom  AN      X      Y      Z        X      Y      Z        X      Y      Z
     1   8    -0.01   0.01  -0.00     0.01  -0.13   0.00     0.00  -0.00  -0.03
     2   8    -0.02   0.02   0.00    -0.14   0.03   0.00    -0.00   0.00  -0.04
     3   6     0.00   0.00   0.00    -0.01  -0.00  -0.00    -0.00  -0.00   0.00
     4   6     0.00  -0.00   0.00    -0.04   0.06   0.00    -0.00   0.00   0.00
     5   6     0.00  -0.00  -0.00     0.01  -0.02  -0.00     0.00  -0.00   0.00
     6   6    -0.00  -0.00  -0.00    -0.11  -0.05  -0.00    -0.00  -0.00  -0.00
     7   6    -0.00  -0.00  -0.00     0.02   0.00   0.00     0.00   0.00  -0.00
     8   6     0.01   0.01   0.00     0.13   0.02  -0.00     0.00  -0.00   0.14
     9   6    -0.05   0.13  -0.00     0.27   0.13  -0.00     0.00   0.00   0.16
    10   6     0.12   0.29  -0.00     0.16  -0.18   0.00     0.00  -0.00  -0.17
    11   6    -0.31   0.09   0.00    -0.03   0.24   0.00    -0.00   0.00  -0.17
    12   6     0.34  -0.11  -0.00     0.14  -0.19  -0.00     0.00  -0.00   0.20
    13   6    -0.12  -0.32   0.00    -0.05   0.25  -0.00    -0.00   0.00   0.21
    14   6     0.05  -0.14   0.00    -0.26  -0.13   0.00    -0.00  -0.00  -0.17
    15   1     0.00   0.00   0.00     0.02  -0.01  -0.00     0.00   0.01  -0.00
    16   1     0.00   0.00  -0.00     0.02  -0.01   0.00    -0.00  -0.01  -0.00
    17   1     0.00  -0.00  -0.00    -0.05   0.05  -0.01    -0.01   0.01   0.01
    18   1     0.00  -0.00   0.00    -0.05   0.05   0.01     0.01  -0.01   0.01
    19   1    -0.00  -0.00   0.00     0.03  -0.02   0.00    -0.00  -0.01  -0.00
    20   1    -0.00  -0.00  -0.00     0.03  -0.02  -0.00     0.00   0.01  -0.00
    21   1    -0.00  -0.00   0.00    -0.20  -0.04   0.00     0.02   0.04   0.03
    22   1    -0.00  -0.00  -0.00    -0.20  -0.04  -0.00    -0.02  -0.04   0.03
    23   1    -0.00   0.00   0.00     0.01   0.01   0.00    -0.00  -0.00  -0.00
    24   1    -0.00   0.00  -0.00     0.01   0.01  -0.00     0.00   0.00  -0.00
    25   1     0.00   0.00   0.00     0.03   0.02   0.00     0.00   0.00  -0.00
    26   1    -0.05   0.30  -0.00    -0.13  -0.16   0.00    -0.00  -0.00  -0.46
    27   1    -0.23   0.22  -0.00    -0.19  -0.01   0.00    -0.00  -0.00  -0.47
    28   1     0.25  -0.24   0.00     0.33   0.10  -0.00     0.00   0.00   0.16
    29   1     0.06  -0.33   0.00     0.29   0.24  -0.00     0.00   0.00   0.16
    30   1    -0.14   0.24  -0.00    -0.25  -0.15   0.00    -0.00  -0.00  -0.54
                     22                     23                     24
                      A                      A                      A
 Frequencies --    729.8391               733.6408               767.9617
 Red. masses --      1.4862                 1.0682                 1.1126
 Frc consts  --      0.4664                 0.3387                 0.3866
 IR Inten    --    107.4045                 1.6044                 0.9715
  Atom  AN      X      Y      Z        X      Y      Z        X      Y      Z
     1   8    -0.00  -0.00  -0.04     0.00   0.00  -0.00     0.00   0.00  -0.01
     2   8    -0.00   0.00  -0.05     0.00  -0.00  -0.00     0.00  -0.00  -0.00
     3   6     0.00   0.00  -0.00    -0.00  -0.00   0.05    -0.00  -0.00   0.01
     4   6    -0.00   0.00  -0.00     0.00  -0.00   0.02    -0.00  -0.00   0.06
     5   6     0.00  -0.00   0.00    -0.00  -0.00   0.05     0.00   0.00  -0.06
     6   6    -0.00  -0.00  -0.01    -0.00   0.00   0.00    -0.00   0.00   0.03
     7   6     0.00   0.00   0.00    -0.00  -0.00   0.01     0.00   0.00  -0.02
     8   6     0.00  -0.00   0.17     0.00  -0.00   0.01     0.00  -0.00   0.00
     9   6     0.00   0.00  -0.00     0.00   0.00   0.00     0.00   0.00   0.01
    10   6     0.00  -0.00  -0.04    -0.00   0.00  -0.00    -0.00   0.00  -0.01
    11   6    -0.00   0.00  -0.04    -0.00   0.00  -0.00    -0.00   0.00  -0.01
    12   6     0.00  -0.00  -0.04    -0.00  -0.00  -0.00    -0.00  -0.00  -0.00
    13   6    -0.00   0.00  -0.04     0.00   0.00  -0.00     0.00   0.00  -0.00
    14   6    -0.00  -0.00  -0.06    -0.00  -0.00  -0.00    -0.00  -0.00  -0.01
    15   1    -0.01  -0.02   0.02     0.05   0.38  -0.24     0.16   0.03  -0.03
    16   1     0.01   0.02   0.02    -0.05  -0.38  -0.24    -0.16  -0.02  -0.04
    17   1     0.00   0.05   0.03    -0.12  -0.22  -0.16    -0.05  -0.37  -0.22
    18   1    -0.00  -0.05   0.03     0.12   0.22  -0.16     0.05   0.37  -0.22
    19   1    -0.00   0.00   0.00    -0.03  -0.34  -0.22     0.11   0.26   0.16
    20   1     0.00  -0.00   0.00     0.03   0.34  -0.22    -0.11  -0.26   0.16
    21   1     0.01   0.07   0.04     0.03  -0.07  -0.05     0.10  -0.26  -0.15
    22   1    -0.01  -0.07   0.04    -0.03   0.07  -0.05    -0.10   0.26  -0.15
    23   1    -0.00   0.00  -0.00    -0.13  -0.09  -0.08     0.20   0.11   0.10
    24   1     0.00  -0.00  -0.00     0.13   0.09  -0.08    -0.20  -0.11   0.10
    25   1     0.00   0.00  -0.00    -0.00   0.00  -0.06     0.00  -0.00   0.11
    26   1     0.00   0.00   0.35    -0.00   0.00   0.02    -0.00   0.00   0.02
    27   1     0.00   0.00   0.36     0.00   0.00   0.02     0.00   0.00   0.02
    28   1     0.00   0.00   0.47     0.00   0.00   0.03     0.00   0.00   0.05
    29   1     0.00   0.00   0.49     0.00   0.00   0.03     0.00   0.00   0.05
    30   1     0.00   0.00   0.48     0.00  -0.00   0.03     0.00  -0.00   0.05
                     25                     26                     27
                      A                      A                      A
 Frequencies --    835.1585               855.3467               874.5297
 Red. masses --      2.7659                 1.2512                 1.2477
 Frc consts  --      1.1367                 0.5393                 0.5622
 IR Inten    --      1.0365                 0.0779                 0.0898
  Atom  AN      X      Y      Z        X      Y      Z        X      Y      Z
     1   8    -0.00   0.00  -0.05     0.00  -0.00  -0.03    -0.00   0.00   0.00
     2   8     0.00  -0.00  -0.08    -0.00   0.00  -0.02     0.00  -0.00   0.00
     3   6    -0.00  -0.00   0.04     0.00   0.00  -0.08     0.00   0.00  -0.00
     4   6    -0.00  -0.00   0.01     0.00   0.00   0.02     0.00  -0.00   0.00
     5   6     0.00   0.00  -0.02    -0.00  -0.00   0.03     0.00   0.00   0.00
     6   6    -0.00   0.00  -0.04    -0.00  -0.00   0.07     0.00   0.00   0.00
     7   6     0.00   0.00  -0.02    -0.00  -0.00   0.04    -0.00  -0.00   0.00
     8   6    -0.00  -0.00   0.29     0.00   0.00   0.06    -0.00  -0.00  -0.01
     9   6    -0.00  -0.00  -0.22     0.00  -0.00  -0.04    -0.00  -0.00   0.01
    10   6     0.00  -0.00   0.03    -0.00   0.00   0.00     0.00  -0.00  -0.07
    11   6     0.00   0.00   0.04    -0.00  -0.00   0.00     0.00   0.00   0.07
    12   6     0.00  -0.00   0.01    -0.00   0.00   0.00     0.00  -0.00  -0.08
    13   6     0.00   0.00   0.03    -0.00  -0.00   0.00     0.00   0.00   0.08
    14   6    -0.00  -0.00   0.10     0.00   0.00   0.02    -0.00  -0.00  -0.01
    15   1     0.06   0.12  -0.06    -0.07  -0.27   0.13    -0.00  -0.00   0.00
    16   1    -0.06  -0.12  -0.06     0.07   0.27   0.13     0.00   0.00   0.00
    17   1    -0.11   0.01  -0.00     0.23  -0.15  -0.05     0.00  -0.00  -0.00
    18   1     0.11  -0.01  -0.00    -0.23   0.15  -0.05    -0.00   0.00  -0.00
    19   1     0.10   0.06   0.04    -0.24  -0.07  -0.06    -0.00  -0.00  -0.00
    20   1    -0.10  -0.06   0.04     0.24   0.07  -0.06     0.00   0.00  -0.00
    21   1     0.00   0.15   0.07     0.11  -0.31  -0.15     0.00  -0.00  -0.00
    22   1    -0.00  -0.15   0.07    -0.11   0.31  -0.15    -0.00   0.00  -0.00
    23   1     0.12   0.06   0.05    -0.26  -0.14  -0.11    -0.00  -0.00  -0.00
    24   1    -0.12  -0.06   0.05     0.27   0.14  -0.11     0.00   0.00  -0.00
    25   1     0.00  -0.00   0.07    -0.00   0.00  -0.16     0.00   0.00  -0.00
    26   1     0.00  -0.00   0.13    -0.00   0.00   0.03     0.00   0.00   0.46
    27   1     0.00   0.00   0.05     0.00  -0.00   0.03    -0.00  -0.00  -0.48
    28   1     0.00  -0.00  -0.38    -0.00  -0.00  -0.07     0.00   0.00   0.54
    29   1     0.00  -0.00  -0.47    -0.00  -0.00  -0.07    -0.00  -0.00  -0.50
    30   1    -0.00  -0.00  -0.51     0.00  -0.00  -0.09    -0.00   0.00   0.04
                     28                     29                     30
                      A                      A                      A
 Frequencies --    878.1704               906.8045               967.6920
 Red. masses --      8.0605                 1.8332                 1.4432
 Frc consts  --      3.6624                 0.8882                 0.7963
 IR Inten    --      5.1258                 2.9598                 1.9941
  Atom  AN      X      Y      Z        X      Y      Z        X      Y      Z
     1   8    -0.21   0.35   0.00     0.03   0.03   0.00    -0.00  -0.00   0.01
     2   8     0.15  -0.28  -0.00    -0.00  -0.01   0.00     0.00  -0.00   0.01
     3   6     0.06   0.04  -0.00    -0.06   0.15   0.00    -0.00   0.00   0.00
     4   6     0.06  -0.14  -0.00    -0.07  -0.02  -0.00     0.00   0.00  -0.01
     5   6     0.01   0.01   0.00    -0.00  -0.12  -0.00    -0.00  -0.00   0.01
     6   6     0.02   0.10   0.00    -0.01  -0.03  -0.00     0.00   0.00   0.01
     7   6    -0.02  -0.02   0.00     0.14  -0.06   0.00     0.00   0.00  -0.01
     8   6    -0.28  -0.17  -0.00     0.02  -0.01  -0.00    -0.00   0.00  -0.06
     9   6    -0.07  -0.04   0.00     0.01   0.00   0.00    -0.00   0.00   0.08
    10   6     0.10  -0.06   0.00    -0.01   0.01   0.00    -0.00  -0.00  -0.09
    11   6     0.01   0.11  -0.00    -0.00  -0.00   0.00    -0.00  -0.00  -0.10
    12   6     0.18  -0.10   0.00    -0.01   0.01  -0.00     0.00  -0.00  -0.01
    13   6     0.02   0.20  -0.00    -0.00  -0.01  -0.00     0.00   0.00   0.01
    14   6    -0.10  -0.05  -0.00     0.00  -0.00  -0.00     0.00   0.00   0.10
    15   1     0.02   0.04   0.01    -0.13   0.16   0.01    -0.04   0.02  -0.00
    16   1     0.02   0.04  -0.01    -0.13   0.16  -0.01     0.04  -0.02  -0.00
    17   1     0.16  -0.15   0.01    -0.02  -0.02   0.01     0.04   0.02   0.01
    18   1     0.16  -0.15  -0.01    -0.02  -0.02  -0.01    -0.04  -0.02   0.01
    19   1    -0.04   0.02   0.00    -0.20  -0.07   0.00     0.04  -0.02  -0.01
    20   1    -0.04   0.02  -0.00    -0.20  -0.07  -0.00    -0.04   0.02  -0.01
    21   1     0.19   0.09   0.01     0.05  -0.04  -0.00    -0.00  -0.03  -0.01
    22   1     0.19   0.09  -0.01     0.05  -0.04   0.00     0.00   0.03  -0.01
    23   1    -0.08   0.00   0.01    -0.25   0.11   0.05     0.03   0.02   0.01
[...]
 ,-0.00000108,0.00009667,0.00004751,0.00002516,-0.00003277,-0.00002703,
 0.00019288,0.00016732,0.00018047,0.00127539,0.00033998,0.00042533,-0.0
 0586143,-0.00228983,0.00028440,0.00000160,-0.00000063,-0.00000137,-0.0
 0004732,0.00004711,0.00001232,-0.00066701,0.00278027,0.00311760,0.0559
 7260,-0.00015087,0.00004324,0.00000556,-0.00003861,0.00003927,0.000007
 57,0.00078725,0.00047203,0.00059005,0.00008002,0.00010878,0.00019969,-
 0.00211284,-0.00849821,-0.01115752,0.00007509,-0.00000965,0.00003648,-
 0.01884690,-0.13042346,-0.12022880,0.00011610,-0.00007270,-0.00001300,
 -0.00001847,0.00000232,0.00000669,-0.00000081,-0.00000765,-0.00000018,
 0.00000224,-0.00000009,-0.00000129,-0.00000233,-0.00000145,0.00000137,
 -0.00000489,0.00000401,0.00000373,-0.00000290,-0.00000169,-0.00000056,
 -0.00034221,0.00054979,-0.00003438,-0.00007515,-0.00000063,0.00009626,
 -0.00003121,-0.00005353,0.00000369,0.00017659,-0.00001512,0.00003058,0
 .00021775,-0.00025792,0.00007942,-0.00270840,-0.00017646,0.00057129,-0
 .00000068,-0.00000251,0.00000173,-0.00002489,0.00001296,-0.00000512,0.
 00277195,0.01137321,0.01561830,0.02420289,0.13944159,-0.00008173,0.000
 06440,0.00001124,-0.00000474,0.00004958,0.00000840,0.00024296,0.000142
 81,0.00013718,-0.00009141,0.00032587,0.00029086,0.00016362,0.00071275,
 0.00099774,-0.00002647,-0.00006676,-0.00003637,-0.02820869,-0.12050871
 ,-0.21956972,0.00004039,-0.00007861,-0.00001024,-0.00000722,0.00000562
 ,0.00000117,-0.00000192,-0.00000339,0.00000101,0.00000504,-0.00000102,
 0.00000072,-0.00000064,0.00000179,0.00000060,-0.00000275,0.00000179,0.
 00000082,0.00000063,-0.00000085,0.00000076,-0.00066764,0.00021480,0.00
 007220,-0.00001540,-0.00011872,-0.00011188,0.00002591,0.00000341,-0.00
 002407,0.00018402,0.00002491,-0.00002052,-0.00056383,0.00003458,0.0006
 5387,0.00041251,0.00024463,0.00153209,-0.00000487,-0.00000131,-0.00000
 750,-0.00001435,0.00000185,0.00001836,-0.00308097,-0.01548322,-0.01995
 829,0.03129775,0.13282334,0.23534422,-0.00084759,0.00034965,0.00000018
 ,-0.00013456,0.00016856,0.00000005,-0.00490465,-0.00502321,-0.00001209
 ,-0.00085023,0.00209633,0.00000213,-0.01911963,0.02332576,0.00003458,-
 0.00001851,-0.00066352,-0.00000093,-0.17444119,0.13290269,0.00019244,0
 .00042082,-0.00034817,-0.00000006,-0.00007861,0.00002822,0.00000003,-0
 .00000376,-0.00003806,-0.00000004,-0.00000526,0.00000536,0.,-0.0000110
 0,-0.00000875,0.,-0.00001140,0.00001410,-0.00000001,-0.00001406,-0.000
 00440,0.,0.00025136,-0.00017577,0.00015208,0.00025152,-0.00017449,-0.0
 0015295,0.00002074,-0.00001389,0.00009584,0.00002064,-0.00001369,-0.00
 009584,0.00074906,0.00000629,0.00068281,0.00074723,0.00000777,-0.00068
 092,-0.00000388,-0.00000735,-0.00002552,-0.00000387,-0.00000746,0.0000
 2551,0.00317770,-0.00409426,-0.00041131,0.00315139,-0.00407280,0.00039
 888,0.19164692,-0.00002593,0.00004953,0.00000002,0.00003830,0.00000521
 ,0.,-0.00226430,-0.00100700,-0.00000453,-0.00067227,0.00072543,-0.0000
 0014,-0.01113417,0.01194203,0.00002007,-0.00020169,-0.00016612,-0.0000
 0019,0.13394664,-0.18469779,-0.00019546,-0.00010129,-0.00001559,-0.000
 00005,0.00000637,0.00000923,0.00000002,-0.00000175,0.00000243,0.,-0.00
 000045,-0.00000015,0.,-0.00000004,0.00000287,0.00000001,0.00000462,-0.
 00000356,0.,0.00000182,0.00000159,0.,-0.00018736,0.00005110,0.00023353
 ,-0.00018784,0.00005306,-0.00023406,0.00008025,0.00002820,0.00001577,0
 .00008005,0.00002817,-0.00001554,0.00082661,0.00055157,0.00007671,0.00
 082582,0.00055045,-0.00007310,0.00000443,-0.00000231,-0.00001560,0.000
 00438,-0.00000235,0.00001559,0.01165912,-0.01259772,-0.00164659,0.0115
 7613,-0.01252939,0.00160944,-0.14427326,0.19702379,-0.00000058,0.00000
 034,-0.00000810,0.,0.00000013,0.00000189,-0.00000866,-0.00000686,0.000
 22268,-0.00000224,0.00000207,0.00059291,-0.00003408,0.00004242,-0.0014
 2842,-0.00000035,-0.00000079,0.00000042,0.00019550,-0.00019552,-0.0460
 9352,0.,-0.00000025,-0.00000795,-0.00000004,0.00000004,-0.00000417,0.,
 -0.00000002,0.00000571,0.,0.,0.00000326,0.,0.,-0.00000192,0.,0.,-0.000
 00274,0.,0.,0.00000078,-0.00024702,0.00037955,0.00022305,0.00024701,-0
 .00037999,0.00022088,-0.00008381,-0.00002744,-0.00001934,0.00008409,0.
 00002748,-0.00001932,0.00025611,-0.00030774,-0.00005357,-0.00025165,0.
 00031026,-0.00005352,-0.00000133,0.00000383,0.00000370,0.00000131,-0.0
 0000380,0.00000377,-0.01912019,0.01856940,0.00071559,0.01917082,-0.018
 62721,0.00067242,-0.00020488,0.00021411,0.04502262,0.00140027,-0.00136
 475,-0.00000056,-0.00095736,-0.00222696,0.00000014,0.00000518,-0.00005
 023,-0.00000004,0.00001746,0.00004417,0.00000004,0.00000524,0.00002934
 ,0.00000005,-0.00030960,-0.00014472,-0.00000013,0.00000729,-0.00001618
 ,-0.00000003,-0.00052086,0.00394917,0.00000040,0.00778010,0.02548222,-
 0.00000318,-0.05936683,-0.02095471,0.00000518,-0.00473888,0.00273621,0
 .00000050,0.00371888,-0.02722261,0.00000301,-0.00137674,0.00009411,0.0
 0000003,-0.00473097,-0.00233715,0.00000125,-0.00000601,0.00000140,-0.0
 0000303,-0.00000605,0.00000139,0.00000304,0.00001317,-0.00001324,0.000
 01363,0.00001316,-0.00001320,-0.00001364,0.00000096,-0.00000379,0.0000
 0420,0.00000097,-0.00000377,-0.00000420,-0.00000816,0.00002775,0.00002
 093,-0.00000812,0.00002781,-0.00002087,-0.00000223,0.00000300,0.000000
 11,-0.00000222,0.00000301,-0.00000010,0.00001219,-0.00000325,0.,0.0580
 7847,0.00020883,0.00024541,-0.00000001,-0.00183331,0.00127529,0.000000
 24,0.00000092,-0.00000232,-0.00000003,0.00002354,0.00000904,0.00000005
 ,0.00000057,0.00000215,0.,-0.00001715,-0.00003406,-0.00000003,0.000000
 63,-0.00000078,0.,-0.00086927,-0.00246585,-0.00000074,-0.00248127,-0.0
 1370365,0.00000218,-0.01907659,-0.33775085,0.00003697,0.00316495,0.000
 37362,0.00000040,0.00214994,-0.00668983,0.00000096,-0.00003423,0.00080
 666,-0.00000021,-0.00222955,0.00085098,0.00000089,0.00000148,0.0000010
 3,0.00000067,0.00000148,0.00000103,-0.00000067,-0.00000660,0.00000251,
 -0.00000599,-0.00000658,0.00000249,0.00000597,-0.00000023,-0.00000022,
 -0.00000055,-0.00000023,-0.00000022,0.00000054,0.00002202,0.00001116,-
 0.00000648,0.00002201,0.00001112,0.00000649,0.00000004,0.00000028,0.00
 000001,0.00000004,0.00000027,-0.00000001,0.00000014,-0.00000006,0.,0.0
 2138654,0.35761614,0.00000065,-0.00000028,0.00014832,-0.00000010,-0.00
 000025,-0.00035130,0.,-0.00000002,0.00000716,0.,-0.00000001,0.00001048
 ,0.,0.00000001,0.00000045,-0.00000010,-0.00000014,0.00018449,0.,0.,0.0
 0000206,-0.00000047,-0.00000053,-0.00408703,0.00000144,-0.00000029,0.0
 0442847,0.00000363,0.00003717,-0.04008551,0.00000031,0.00000072,0.0065
 9897,-0.00000006,0.00000369,0.00433314,-0.00000011,-0.00000028,-0.0012
 1463,0.00000145,0.00000088,0.00779970,-0.00000491,-0.00000330,-0.00000
 365,0.00000491,0.00000332,-0.00000362,-0.00000365,0.00000689,-0.000004
 14,0.00000366,-0.00000688,-0.00000418,-0.00000078,0.00000258,-0.000001
 76,0.00000078,-0.00000259,-0.00000178,-0.00000197,-0.00000696,-0.00000
 664,0.00000200,0.00000700,-0.00000666,0.00000081,0.00000125,-0.0000011
 8,-0.00000081,-0.00000124,-0.00000120,0.,0.,0.00000037,-0.00000621,-0.
 00004028,0.02724517,-0.00282952,-0.00301090,0.00000105,0.00008014,0.00
 047489,0.00000030,-0.00004238,-0.00000460,-0.00000028,0.00012554,-0.00
 000623,0.00000058,0.00000325,0.00003780,0.00000010,-0.00025824,-0.0002
 8520,-0.00000027,0.00000478,-0.00001823,-0.00000005,0.00004170,0.00030
 823,-0.00000058,0.00443257,-0.00110882,0.00000026,0.00168312,-0.001301
 59,0.00000040,-0.25886667,0.13044637,-0.00000272,0.00002367,-0.0011014
 5,0.00000005,-0.01550958,0.01626134,-0.00000043,-0.00333634,-0.0033328
 3,0.00000122,0.00002351,0.00001395,0.00000897,0.00002361,0.00001403,-0
 .00000889,-0.00004369,0.00001691,-0.00007836,-0.00004344,0.00001661,0.
 00007795,-0.00000387,-0.00000199,-0.00000127,-0.00000384,-0.00000200,0
 .00000124,0.00003894,0.00003285,-0.00002136,0.00003900,0.00003280,0.00
 002143,-0.00000087,0.00000484,-0.00000155,-0.00000087,0.00000484,0.000
 00157,0.00001646,-0.00000368,0.,0.00023228,-0.00023232,0.00000010,0.27
 446068,-0.00161267,0.00010290,0.00000073,-0.00060295,0.00102590,0.0000
 0039,-0.00001280,-0.00006888,-0.00000012,-0.00002537,0.00003405,0.0000
 0010,0.00000846,0.00005528,0.00000007,-0.00113898,0.00018951,-0.000000
 45,0.00001172,-0.00002920,-0.00000004,0.00340607,-0.00135889,-0.000001
 15,0.02737395,-0.01055272,-0.00000035,-0.00178485,-0.00576998,0.000001
 61,0.12816685,-0.14028808,0.00000390,-0.00092960,-0.00063075,-0.000000
 04,-0.01342231,0.01194787,0.00000006,-0.00332393,-0.00056444,0.0000014
 2,0.00000354,0.00000599,0.00000166,0.00000351,0.00000599,-0.00000162,-
 0.00002534,0.00001307,-0.00000061,-0.00002516,0.00001296,0.00000056,-0
 .00000017,-0.00000444,0.00000838,-0.00000014,-0.00000441,-0.00000837,0
 .00018089,0.00011196,-0.00004776,0.00018066,0.00011174,0.00004785,-0.0
 0000345,0.00000458,-0.00000069,-0.00000343,0.00000459,0.00000070,0.000
 02257,-0.00000369,0.,0.00150693,-0.00062041,0.00000004,-0.13774946,0.1
 4521665,0.00000090,0.00000094,0.00016716,-0.00000012,-0.00000104,0.000
 54651,0.00000010,0.00000004,-0.00007173,-0.00000012,-0.00000034,0.0002
 1325,-0.00000002,-0.00000009,0.00003260,0.00000034,0.,-0.00018509,0.,0
 .00000002,-0.00000612,0.,0.00000006,-0.00410082,-0.00000448,0.00000181
 ,0.00364018,0.00000114,0.00000138,0.00685224,-0.00000281,0.00000386,-0
 .03943500,-0.00000027,-0.00000027,-0.00122011,0.00000392,-0.00000204,0
 .00432759,0.00000116,0.00000158,0.00776230,-0.00002192,-0.00001822,-0.
 00000334,0.00002185,0.00001815,-0.00000322,-0.00005595,0.00002658,-0.0
 0006087,0.00005605,-0.00002618,-0.00006133,-0.00000242,0.00000644,-0.0
 0000859,0.00000245,-0.00000638,-0.00000868,0.00007203,0.00007134,-0.00
 000973,-0.00007213,-0.00007155,-0.00000984,0.00000282,0.00000344,-0.00
 000193,-0.00000283,-0.00000344,-0.00000196,0.,0.,0.00000123,-0.0000001
 8,0.00000013,0.00035147,0.00000094,-0.00000553,0.02663152,-0.00099120,
 -0.00022353,0.00000004,-0.00016318,-0.00048118,-0.00000004,-0.00000430
 ,0.00004878,0.00000008,-0.00004999,-0.00006374,-0.00000008,-0.00000838
 ,-0.00002187,-0.00000005,0.00017630,0.00018236,0.00000013,-0.00000416,
 0.00001188,0.00000002,0.00021397,0.00165569,-0.00000008,-0.00348593,-0
 .00388648,0.00000140,-0.01771343,0.01757475,0.00000011,0.00015353,-0.0
 0108923,-0.00000004,-0.25503545,0.12788270,0.00000725,0.00174230,-0.00
 086006,0.00000074,0.00510429,-0.00343515,0.00000020,0.00000070,-0.0000
 0252,-0.00000220,0.00000071,-0.00000253,0.00000219,0.00000315,0.000003
 43,-0.00000120,0.00000312,0.00000345,0.00000122,0.00000050,0.00000140,
 -0.00000054,0.00000049,0.00000140,0.00000055,-0.00002827,-0.00001568,0
 .00000437,-0.00002827,-0.00001567,-0.00000440,0.00000076,-0.00000237,0
 .00000125,0.00000076,-0.00000236,-0.00000126,-0.00000858,0.00000137,0.
 ,0.00066605,-0.00033563,-0.00000043,-0.00004954,0.00008888,-0.00000011
 ,0.26882546,-0.00033152,-0.00012341,0.,0.00010717,-0.00009151,0.,-0.00
 000496,0.00001184,0.,-0.00001726,-0.00002355,0.,-0.00000283,-0.0000025
 8,0.,-0.00001829,0.00005134,0.00000005,-0.00000048,0.00000111,0.,-0.00
 047979,0.00073432,0.00000003,-0.00322258,-0.00034474,0.00000100,-0.013
 38456,0.01168870,0.00000036,-0.00111602,-0.00086554,0.00000005,0.12795
 918,-0.14170428,-0.00000111,-0.00143830,-0.00563271,0.00000164,0.02773
 735,-0.01091335,-0.00000102,0.00000110,0.00000052,-0.00000001,0.000001
 11,0.00000052,0.00000001,-0.00000096,0.00000047,-0.00000357,-0.0000009
 7,0.00000046,0.00000356,-0.00000026,0.00000009,-0.00000089,-0.00000026
 ,0.00000008,0.00000089,-0.00000499,-0.00000141,0.00000255,-0.00000498,
 -0.00000140,-0.00000255,0.00000011,0.00000042,-0.00000012,0.00000011,0
 .00000041,0.00000012,-0.00000006,-0.00000073,0.,0.00043582,0.00052808,
 -0.00000051,0.00005471,0.00005565,-0.00000014,-0.13720200,0.14677107,0
 .00000012,0.,-0.00015930,-0.00000010,0.,0.00003621,0.,0.,0.00000222,0.
 00000001,0.00000003,0.00000431,0.,0.,0.00000249,-0.00000006,-0.0000000
 2,-0.00006911,0.,-0.00000001,-0.00000023,0.00000014,-0.00000032,0.0003
 2230,0.00000128,0.00000125,0.00795818,0.00000300,-0.00000258,0.0033919
 6,0.00000014,0.00000021,-0.00119914,0.00000811,-0.00000124,-0.03816126
 ,0.00000049,0.00000167,0.00752386,-0.00000347,0.00000190,0.00330047,-0
 .00000083,-0.00000147,-0.00000099,0.00000083,0.00000147,-0.00000098,-0
 .00000115,0.00000276,-0.00000100,0.00000116,-0.00000276,-0.00000101,0.
 00000007,0.00000145,-0.00000083,-0.00000007,-0.00000145,-0.00000085,0.
 00001413,0.00000345,0.00000057,-0.00001411,-0.00000344,0.00000056,0.00
 000051,0.00000067,-0.00000059,-0.00000052,-0.00000067,-0.00000060,0.,0
 .,-0.00000005,-0.00000042,-0.00000047,-0.00421037,-0.00000008,-0.00000
 014,-0.00105991,-0.00000863,0.00000015,0.02615161,-0.00031410,0.000201
 37,0.,-0.00069261,-0.00062872,-0.00000016,-0.00000872,0.00002476,0.,-0
 .00000923,-0.00003974,0.00000003,-0.00000374,-0.00001327,0.,0.00011181
 ,0.00003496,0.00000002,-0.00000405,0.00000691,0.,0.00125952,-0.0011084
 9,0.00000023,-0.00492332,-0.00230371,0.00000140,-0.00156287,0.00015686
 ,0.00000002,0.00336382,-0.02885213,0.00000349,-0.00421252,0.00288350,0
 .00000079,-0.05908636,-0.01498444,0.00000344,0.00629875,0.02699211,-0.
 00000348,0.00000481,0.00000175,0.00000367,0.00000484,0.00000178,-0.000
 00367,-0.00000699,0.00000296,-0.00001464,-0.00000699,0.00000293,0.0000
 1461,-0.00000154,0.00000181,-0.00000521,-0.00000154,0.00000178,0.00000
 520,-0.00001026,-0.00000844,-0.00000681,-0.00001027,-0.00000845,0.0000
 0680,0.00000133,0.00000029,-0.00000133,0.00000133,0.00000027,0.0000013
 3,-0.00000343,-0.00000026,0.,0.00007845,-0.00004405,-0.00000010,0.0005
 9566,0.00044371,-0.00000047,0.00011521,0.00135103,-0.00000018,0.058472
 59,-0.00047435,0.00009869,0.00000009,-0.00044139,-0.00043325,-0.000000
 07,-0.00000312,0.00002812,0.00000004,-0.00001523,-0.00003557,-0.000000
 02,-0.00000412,-0.00001740,-0.00000003,0.00017003,0.00005060,0.0000000
 2,-0.00000424,0.00000926,0.00000002,0.00115043,-0.00020749,-0.00000002
 ,-0.00299859,0.00099206,0.00000107,0.00022192,0.00089509,-0.00000027,0
 .00223075,-0.00955413,0.00000120,0.00346489,0.00021750,0.00000045,-0.0
 1509754,-0.33717127,0.00003589,-0.00427438,-0.01206213,0.00000218,0.00
 000216,-0.00000077,0.00000169,0.00000218,-0.00000076,-0.00000170,-0.00
 000158,0.00000355,-0.00000594,-0.00000160,0.00000355,0.00000594,-0.000
 00039,0.00000229,-0.00000292,-0.00000040,0.00000228,0.00000292,-0.0000
 2021,-0.00001346,-0.00000275,-0.00002023,-0.00001346,0.00000272,0.0000
 0121,-0.00000146,-0.00000042,0.00000120,-0.00000146,0.00000042,-0.0000
 0682,0.00000132,0.,-0.00002195,-0.00007717,-0.00000010,-0.00034941,0.0
 0058854,-0.00000047,-0.00023696,-0.00069753,0.00000012,0.01630006,0.35
 683181,0.00000014,-0.00000004,0.00001815,0.00000020,0.00000013,-0.0003
 2063,0.,0.,-0.00000117,-0.00000002,-0.00000002,0.00001876,0.,0.,0.0000
 0487,-0.00000003,0.,0.00000650,0.,0.,-0.00000093,-0.00000021,0.0000002
 4,0.00047582,0.00000138,0.00000099,0.00782966,-0.00000005,-0.00000031,
 -0.00121811,-0.00000019,0.00000433,0.00321604,0.00000075,0.00000066,0.
 00751279,0.00000325,0.00003541,-0.03758535,0.00000021,-0.00000063,0.00
 324424,-0.00000202,-0.00000269,-0.00000155,0.00000201,0.00000269,-0.00
 000153,-0.00000179,0.00000369,-0.00000382,0.00000182,-0.00000367,-0.00
 000387,-0.00000080,0.00000197,-0.00000257,0.00000081,-0.00000196,-0.00
 000260,-0.00000442,0.00000580,-0.00000233,0.00000443,-0.00000580,-0.00
 000236,0.00000077,0.00000167,-0.00000070,-0.00000078,-0.00000167,-0.00
 000072,0.,0.,0.00000088,-0.00000010,-0.00000009,-0.00099128,-0.0000003
 1,-0.00000066,-0.00417385,0.00000003,-0.00000002,0.00008520,-0.0000046
 1,-0.00003952,0.02584471,-0.00016989,-0.00015702,0.00000001,-0.0000596
 3,-0.00012436,-0.00000003,0.00000563,0.00001428,0.00000004,-0.00001017
 ,-0.00000668,-0.00000006,-0.00000188,-0.00001136,-0.00000002,0.0001389
 8,0.00002576,0.00000005,-0.00000179,0.00000607,0.00000001,-0.00007752,
 0.00012136,-0.00000009,0.00050496,0.00111938,-0.00000026,0.00185806,0.
 00005855,0.00000061,-0.00312532,0.00392627,0.00000056,0.00239817,0.001
 97564,-0.00000008,-0.01711529,-0.01485464,0.00000377,-0.27967124,-0.11
 215712,0.00003746,-0.00000177,-0.00000217,-0.00000147,-0.00000176,-0.0
 0000218,0.00000147,0.00000613,0.00000060,0.00000609,0.00000610,0.00000
 062,-0.00000606,0.00000078,0.00000075,-0.00000019,0.00000077,0.0000007
 5,0.00000019,-0.00001686,-0.00001348,0.00000425,-0.00001686,-0.0000134
 7,-0.00000427,0.00000048,-0.00000170,0.00000061,0.00000048,-0.00000170
 ,-0.00000062,-0.00000582,0.00000163,0.,0.00000391,0.00018389,-0.000000
 03,-0.00083607,-0.00073713,0.00000012,0.00056337,-0.00041659,-0.000000
 39,0.00055041,0.00042771,-0.00000047,0.29507364,-0.00014274,0.00016273
 ,0.00000004,-0.00020917,0.00022232,0.00000004,-0.00000236,0.00000690,0
 .,-0.00000535,-0.00001035,0.,-0.00000086,-0.00000201,0.,0.00000568,0.0
 0002971,0.00000002,-0.00000041,0.00000172,0.,0.00014284,-0.00038025,-0
 .00000025,0.00111873,-0.00111927,-0.00000012,0.00034137,-0.00607812,0.
 00000166,0.00363356,-0.00110938,0.00000074,-0.02909947,-0.00770077,0.0
 0000423,0.01628308,0.01176206,-0.00000253,-0.11214877,-0.11633778,0.00
 001957,0.00000132,-0.00000006,0.00000021,0.00000133,-0.00000006,-0.000
 00021,-0.00000222,0.00000201,-0.00000263,-0.00000221,0.00000200,0.0000
 0263,-0.00000024,0.00000032,-0.00000011,-0.00000024,0.00000032,0.00000
 011,0.00000541,0.00000051,-0.00000327,0.00000540,0.00000050,0.00000327
 ,0.00000025,-0.00000053,0.00000021,0.00000025,-0.00000053,-0.00000021,
 -0.00000147,0.00000050,0.,-0.00135235,-0.00039181,0.00000015,0.0007885
 4,0.00040863,-0.00000009,0.00042088,0.00055765,-0.00000059,-0.00041712
 ,0.00056269,-0.00000050,0.12063635,0.11941036,0.00000015,0.00000005,0.
 00008147,-0.00000007,-0.00000012,0.00016763,0.,-0.00000001,0.00000297,
 0.,0.,0.00001095,0.,0.,0.00000253,0.,0.,-0.00002757,0.,0.,0.00000055,0
 .00000002,-0.00000010,-0.00134581,-0.00000045,-0.00000008,-0.00072336,
 0.00000020,0.00000148,0.00750591,0.00000073,0.00000057,0.00757834,0.00
 000376,0.00000152,0.00402666,-0.00000019,0.00000069,0.00392333,0.00003
 774,0.00001930,-0.03927522,-0.00000119,-0.00000152,-0.00000121,0.00000
 119,0.00000152,-0.00000120,-0.00000181,0.00000158,-0.00000291,0.000001
 83,-0.00000156,-0.00000294,0.00000008,0.00000092,-0.00000113,-0.000000
 08,-0.00000092,-0.00000115,0.00001381,0.00000395,0.00000195,-0.0000137
 8,-0.00000397,0.00000195,0.00000023,0.00000065,-0.00000059,-0.00000023
 ,-0.00000064,-0.00000060,0.,0.,0.00000045,0.00000018,0.00000003,-0.000
 13529,0.,0.00000003,-0.00010392,-0.00000052,-0.00000048,-0.00391371,-0
 .00000036,-0.00000053,-0.00394424,-0.00004120,-0.00002236,0.02617616\\
 0.00002489,-0.00000089,-0.00000041,-0.00000008,-0.00001030,-0.00000082
 ,-0.00000019,-0.00000466,-0.00000045,0.00000119,0.00000275,0.,0.000002
 61,0.00000269,0.00000048,-0.00002006,-0.00001893,-0.00000020,0.0000008
 3,-0.00000249,-0.00000041,-0.00001237,0.00002298,0.00000146,0.00000578
 ,0.00000047,0.00000007,0.00000101,-0.00000197,0.00000059,-0.00001032,-
 0.00000920,-0.00000095,-0.00000404,-0.00000330,-0.00000091,0.00000309,
 0.00000471,0.00000109,-0.00000033,0.00000363,0.00000021,0.00000041,0.0
 0000063,0.,0.00000081,0.00000034,0.00000067,-0.00000145,0.00000089,-0.
 00000056,0.00000017,0.00000138,0.00000061,-0.00000076,-0.00000060,-0.0
 0000049,-0.00000024,-0.00000052,0.00000015,0.00000155,0.00000301,-0.00
 000078,0.00000317,0.00000391,0.00000001,-0.00000024,-0.00000034,0.0000
 0022,-0.00000072,-0.00000009,-0.00000003,-0.00000061,0.00000033,-0.000
 00014,0.00000052,0.00000069,-0.00000115,0.00000203,0.00000266,0.000001
 27,0.00000155,0.00000134,0.00000085,0.00000146,0.00000040,-0.00000073,
 0.00000035,0.00000045,0.00000033\\\@


 WHEN ALL ELSE FAILS, TRY THE BOSS'S SUGGESTION.
 Job cpu time:       0 days  6 hours  3 minutes 46.5 seconds.
 Elapsed time:       0 days  0 hours 45 minutes 37.6 seconds.
 File lengths (MBytes):  RWF=    455 Int=      0 D2E=      0 Chk=     12 Scr=      1
 Normal termination of Gaussian 16 at Mon Nov 24 11:53:03 2025.
