 Entering Gaussian System, Link 0=g16
 Input=ANYE0002.gjf
 Output=ANYE0002.log
 Initial command:
 /usr/local/g16/l1.exe "/dados_01/scratch/Gau-2341278.inp" -scrdir="/dados_01/scratch/"
 Entering Link 1 = /usr/local/g16/l1.exe PID=   2341282.
  
 Copyright (c) 1988-2017, Gaussian, Inc.  All Rights Reserved.
  
 This is part of the Gaussian(R) 16 program.  It is based on
 the Gaussian(R) 09 system (copyright 2009, Gaussian, Inc.),
 the Gaussian(R) 03 system (copyright 2003, Gaussian, Inc.),
 the Gaussian(R) 98 system (copyright 1998, Gaussian, Inc.),
 the Gaussian(R) 94 system (copyright 1995, Gaussian, Inc.),
 the Gaussian 92(TM) system (copyright 1992, Gaussian, Inc.),
 the Gaussian 90(TM) system (copyright 1990, Gaussian, Inc.),
 the Gaussian 88(TM) system (copyright 1988, Gaussian, Inc.),
 the Gaussian 86(TM) system (copyright 1986, Carnegie Mellon
 University), and the Gaussian 82(TM) system (copyright 1983,
 Carnegie Mellon University). Gaussian is a federally registered
 trademark of Gaussian, Inc.
  
 This software contains proprietary and confidential information,
 including trade secrets, belonging to Gaussian, Inc.
  
 This software is provided under written license and may be
 used, copied, transmitted, or stored only in accord with that
 written license.
  
 The following legend is applicable only to US Government
 contracts under FAR:
  
                    RESTRICTED RIGHTS LEGEND
  
 Use, reproduction and disclosure by the US Government is
 subject to restrictions as set forth in subparagraphs (a)
 and (c) of the Commercial Computer Software - Restricted
 Rights clause in FAR 52.227-19.
  
 Gaussian, Inc.
 340 Quinnipiac St., Bldg. 40, Wallingford CT 06492
  
  
 ---------------------------------------------------------------
 Warning -- This program may not be used in any manner that
 competes with the business of Gaussian, Inc. or will provide
 assistance to any competitor of Gaussian, Inc.  The licensee
 of this program is prohibited from giving any competitor of
 Gaussian, Inc. access to this program.  By using this program,
 the user acknowledges that Gaussian, Inc. is engaged in the
 business of creating and licensing software in the field of
 computational chemistry and represents and warrants to the
 licensee that it is not a competitor of Gaussian, Inc. and that
 it will not use this program in any manner prohibited above.
 ---------------------------------------------------------------
  

 Cite this work as:
 Gaussian 16, Revision B.01,
 M. J. Frisch, G. W. Trucks, H. B. Schlegel, G. E. Scuseria, 
 M. A. Robb, J. R. Cheeseman, G. Scalmani, V. Barone, 
 G. A. Petersson, H. Nakatsuji, X. Li, M. Caricato, A. V. Marenich, 
 J. Bloino, B. G. Janesko, R. Gomperts, B. Mennucci, H. P. Hratchian, 
 J. V. Ortiz, A. F. Izmaylov, J. L. Sonnenberg, D. Williams-Young, 
 F. Ding, F. Lipparini, F. Egidi, J. Goings, B. Peng, A. Petrone, 
 T. Henderson, D. Ranasinghe, V. G. Zakrzewski, J. Gao, N. Rega, 
 G. Zheng, W. Liang, M. Hada, M. Ehara, K. Toyota, R. Fukuda, 
 J. Hasegawa, M. Ishida, T. Nakajima, Y. Honda, O. Kitao, H. Nakai, 
 T. Vreven, K. Throssell, J. A. Montgomery, Jr., J. E. Peralta, 
 F. Ogliaro, M. J. Bearpark, J. J. Heyd, E. N. Brothers, K. N. Kudin, 
 V. N. Staroverov, T. A. Keith, R. Kobayashi, J. Normand, 
 K. Raghavachari, A. P. Rendell, J. C. Burant, S. S. Iyengar, 
 J. Tomasi, M. Cossi, J. M. Millam, M. Klene, C. Adamo, R. Cammi, 
 J. W. Ochterski, R. L. Martin, K. Morokuma, O. Farkas, 
 J. B. Foresman, and D. J. Fox, Gaussian, Inc., Wallingford CT, 2016.
 
 ******************************************
 Gaussian 16:  ES64L-G16RevB.01 20-Dec-2017
                30-Sep-2025 
 ******************************************
 %nprocs=16
 Will use up to   16 processors via shared memory.
 %mem=40GB
 %chk=ANYE0002.chk
 ----------------------------------------------------------------------
 # opt freq=noraman M08HX/6-311++G** scf=xqc Empiricaldispersion=pfd In
 t(Grid=ultraFine)
 ----------------------------------------------------------------------
 1/18=20,19=15,26=4,38=1/1,3;
 2/9=110,12=2,17=6,18=5,40=1/2;
 3/5=4,6=6,7=1111,11=2,25=1,30=1,71=1,74=-74,75=-5,124=11/1,2,3;
 4//1;
 5/5=2,8=3,13=1,38=5/2,8;
 6/7=2,8=2,9=2,10=2,28=1/1;
 7//1,2,3,16;
 1/18=20,19=15,26=4/3(2);
 2/9=110/2;
 99//99;
 2/9=110/2;
 3/5=4,6=6,7=1111,11=2,25=1,30=1,71=1,74=-74,75=-5,124=11/1,2,3;
 4/5=5,16=3,69=1/1;
 5/5=2,8=3,13=1,38=5/2,8;
 7//1,2,3,16;
 1/18=20,19=15,26=4/3(-5);
 2/9=110/2;
 6/7=2,8=2,9=2,10=2,19=2,28=1/1;
 99/9=1/99;
 --------
 ANYE0002
 --------
 Symbolic Z-matrix:
 Charge =  0 Multiplicity = 1
 O                     3.1966   -1.1445    0.0008 
 C                     1.1109   -0.0428    0.0007 
 C                     0.4351    1.1774    0.0005 
 C                     0.3921   -1.2381   -0.0001 
 C                     2.565    -0.0692    0.0002 
 C                    -0.9595    1.2024   -0.0004 
 C                    -1.0026   -1.2132   -0.0011 
 C                    -1.6784    0.0071   -0.0013 
 C                     3.3573    1.2338   -0.0006 
 C                    -3.107     0.0328    0.0001 
 C                    -4.3095    0.0544    0.0012 
 H                     0.9552    2.1302    0.0011 
 H                     0.8957   -2.2011   -0.0002 
 H                    -1.4723    2.1614   -0.0001 
 H                    -1.549    -2.1535   -0.0014 
 H                     3.1379    1.8103    0.9017 
 H                     3.1364    1.8102   -0.9027 
 H                     4.4272    1.0019   -0.0015 
 H                    -5.3743    0.0735    0.0022 
 

 GradGradGradGradGradGradGradGradGradGradGradGradGradGradGradGradGradGrad
 Berny optimization.
 Initialization pass.
                           ----------------------------
                           !    Initial Parameters    !
                           ! (Angstroms and Degrees)  !
 --------------------------                            --------------------------
 ! Name  Definition              Value          Derivative Info.                !
 --------------------------------------------------------------------------------
 ! R1    R(1,5)                  1.2471         estimate D2E/DX2                !
 ! R2    R(2,3)                  1.3948         estimate D2E/DX2                !
 ! R3    R(2,4)                  1.3948         estimate D2E/DX2                !
 ! R4    R(2,5)                  1.4543         estimate D2E/DX2                !
 ! R5    R(3,6)                  1.3948         estimate D2E/DX2                !
 ! R6    R(3,12)                 1.0855         estimate D2E/DX2                !
 ! R7    R(4,7)                  1.3949         estimate D2E/DX2                !
 ! R8    R(4,13)                 1.0867         estimate D2E/DX2                !
 ! R9    R(5,9)                  1.525          estimate D2E/DX2                !
 ! R10   R(6,8)                  1.3948         estimate D2E/DX2                !
 ! R11   R(6,14)                 1.0875         estimate D2E/DX2                !
 ! R12   R(7,8)                  1.3949         estimate D2E/DX2                !
 ! R13   R(7,15)                 1.0875         estimate D2E/DX2                !
 ! R14   R(8,10)                 1.4288         estimate D2E/DX2                !
 ! R15   R(9,16)                 1.093          estimate D2E/DX2                !
 ! R16   R(9,17)                 1.0931         estimate D2E/DX2                !
 ! R17   R(9,18)                 1.0947         estimate D2E/DX2                !
 ! R18   R(10,11)                1.2027         estimate D2E/DX2                !
 ! R19   R(11,19)                1.065          estimate D2E/DX2                !
 ! A1    A(3,2,4)              119.9996         estimate D2E/DX2                !
 ! A2    A(3,2,5)              120.0197         estimate D2E/DX2                !
 ! A3    A(4,2,5)              119.9807         estimate D2E/DX2                !
 ! A4    A(2,3,6)              120.0066         estimate D2E/DX2                !
 ! A5    A(2,3,12)             122.3918         estimate D2E/DX2                !
 ! A6    A(6,3,12)             117.6016         estimate D2E/DX2                !
 ! A7    A(2,4,7)              119.998          estimate D2E/DX2                !
 ! A8    A(2,4,13)             121.3719         estimate D2E/DX2                !
 ! A9    A(7,4,13)             118.6301         estimate D2E/DX2                !
 ! A10   A(1,5,2)              121.4688         estimate D2E/DX2                !
 ! A11   A(1,5,9)              118.2692         estimate D2E/DX2                !
 ! A12   A(2,5,9)              120.2619         estimate D2E/DX2                !
 ! A13   A(3,6,8)              119.9974         estimate D2E/DX2                !
 ! A14   A(3,6,14)             119.1614         estimate D2E/DX2                !
 ! A15   A(8,6,14)             120.8412         estimate D2E/DX2                !
 ! A16   A(4,7,8)              120.0004         estimate D2E/DX2                !
 ! A17   A(4,7,15)             119.1377         estimate D2E/DX2                !
 ! A18   A(8,7,15)             120.8619         estimate D2E/DX2                !
 ! A19   A(6,8,7)              119.998          estimate D2E/DX2                !
 ! A20   A(6,8,10)             119.9937         estimate D2E/DX2                !
 ! A21   A(7,8,10)             120.0082         estimate D2E/DX2                !
 ! A22   A(5,9,16)             110.2399         estimate D2E/DX2                !
 ! A23   A(5,9,17)             110.2428         estimate D2E/DX2                !
 ! A24   A(5,9,18)             109.0724         estimate D2E/DX2                !
 ! A25   A(16,9,17)            111.2598         estimate D2E/DX2                !
 ! A26   A(16,9,18)            107.9741         estimate D2E/DX2                !
 ! A27   A(17,9,18)            107.9705         estimate D2E/DX2                !
 ! A28   L(8,10,11,14,-1)      180.0016         estimate D2E/DX2                !
 ! A29   L(10,11,19,14,-1)     180.0014         estimate D2E/DX2                !
 ! A30   L(8,10,11,14,-2)      179.9954         estimate D2E/DX2                !
 ! A31   L(10,11,19,14,-2)     180.0023         estimate D2E/DX2                !
 ! D1    D(4,2,3,6)              0.0047         estimate D2E/DX2                !
 ! D2    D(4,2,3,12)           180.0            estimate D2E/DX2                !
 ! D3    D(5,2,3,6)            179.9346         estimate D2E/DX2                !
 ! D4    D(5,2,3,12)            -0.0702         estimate D2E/DX2                !
 ! D5    D(3,2,4,7)              0.0            estimate D2E/DX2                !
 ! D6    D(3,2,4,13)           179.9854         estimate D2E/DX2                !
 ! D7    D(5,2,4,7)           -179.9298         estimate D2E/DX2                !
 ! D8    D(5,2,4,13)             0.0556         estimate D2E/DX2                !
 ! D9    D(3,2,5,1)            179.9765         estimate D2E/DX2                !
 ! D10   D(3,2,5,9)             -0.0024         estimate D2E/DX2                !
 ! D11   D(4,2,5,1)             -0.0937         estimate D2E/DX2                !
 ! D12   D(4,2,5,9)            179.9274         estimate D2E/DX2                !
 ! D13   D(2,3,6,8)             -0.0095         estimate D2E/DX2                !
 ! D14   D(2,3,6,14)           179.9731         estimate D2E/DX2                !
 ! D15   D(12,3,6,8)           179.9951         estimate D2E/DX2                !
 ! D16   D(12,3,6,14)           -0.0223         estimate D2E/DX2                !
 ! D17   D(2,4,7,8)              0.0            estimate D2E/DX2                !
 ! D18   D(2,4,7,15)          -179.981          estimate D2E/DX2                !
 ! D19   D(13,4,7,8)          -179.9858         estimate D2E/DX2                !
 ! D20   D(13,4,7,15)            0.0332         estimate D2E/DX2                !
 ! D21   D(1,5,9,16)          -118.336          estimate D2E/DX2                !
 ! D22   D(1,5,9,17)           118.4425         estimate D2E/DX2                !
 ! D23   D(1,5,9,18)             0.0546         estimate D2E/DX2                !
 ! D24   D(2,5,9,16)            61.6436         estimate D2E/DX2                !
 ! D25   D(2,5,9,17)           -61.5779         estimate D2E/DX2                !
 ! D26   D(2,5,9,18)          -179.9658         estimate D2E/DX2                !
 ! D27   D(3,6,8,7)              0.0095         estimate D2E/DX2                !
 ! D28   D(3,6,8,10)           179.8925         estimate D2E/DX2                !
 ! D29   D(14,6,8,7)          -179.9728         estimate D2E/DX2                !
 ! D30   D(14,6,8,10)           -0.0898         estimate D2E/DX2                !
 ! D31   D(4,7,8,6)             -0.0047         estimate D2E/DX2                !
 ! D32   D(4,7,8,10)          -179.8877         estimate D2E/DX2                !
 ! D33   D(15,7,8,6)           179.9759         estimate D2E/DX2                !
 ! D34   D(15,7,8,10)            0.0929         estimate D2E/DX2                !
 --------------------------------------------------------------------------------
 Trust Radius=3.00D-01 FncErr=1.00D-07 GrdErr=1.00D-06 EigMax=2.50D+02 EigMin=1.00D-04
 Number of steps in this run=     94 maximum allowed number of steps=    114.
 GradGradGradGradGradGradGradGradGradGradGradGradGradGradGradGradGradGrad

                          Input orientation:                          
 ---------------------------------------------------------------------
 Center     Atomic      Atomic             Coordinates (Angstroms)
 Number     Number       Type             X           Y           Z
 ---------------------------------------------------------------------
      1          8           0        3.196600   -1.144500    0.000800
      2          6           0        1.110900   -0.042800    0.000700
      3          6           0        0.435100    1.177400    0.000500
      4          6           0        0.392100   -1.238100   -0.000100
      5          6           0        2.565000   -0.069200    0.000200
      6          6           0       -0.959500    1.202400   -0.000400
      7          6           0       -1.002600   -1.213200   -0.001100
      8          6           0       -1.678400    0.007100   -0.001300
      9          6           0        3.357300    1.233800   -0.000600
     10          6           0       -3.107000    0.032800    0.000100
     11          6           0       -4.309500    0.054400    0.001200
     12          1           0        0.955200    2.130200    0.001100
     13          1           0        0.895700   -2.201100   -0.000200
     14          1           0       -1.472300    2.161400   -0.000100
     15          1           0       -1.549000   -2.153500   -0.001400
     16          1           0        3.137900    1.810300    0.901700
     17          1           0        3.136400    1.810200   -0.902700
     18          1           0        4.427200    1.001900   -0.001500
     19          1           0       -5.374300    0.073500    0.002200
 ---------------------------------------------------------------------
                    Distance matrix (angstroms):
                    1          2          3          4          5
     1  O    0.000000
     2  C    2.358789   0.000000
     3  C    3.607922   1.394845   0.000000
     4  C    2.806062   1.394782   2.415883   0.000000
     5  C    1.247072   1.454340   2.467891   2.467351   0.000000
     6  C    4.772956   2.416005   1.394824   2.789778   3.746874
     7  C    4.199762   2.415931   2.789615   1.394923   3.746533
     8  C    5.009173   2.789747   2.415882   2.416091   4.244086
     9  C    2.383723   2.583800   2.922744   3.860402   1.524975
    10  C    6.412598   4.218578   3.722443   3.722753   5.672917
    11  C    7.601243   5.421271   4.875691   4.876023   6.875611
    12  H    3.968316   2.178571   1.085510   3.415044   2.725586
    13  H    2.531905   2.169002   3.409753   1.086730   2.707685
    14  H    5.720804   3.395795   2.146260   3.877188   4.612523
    15  H    4.851681   3.395604   3.877054   2.146119   4.611866
    16  H    3.089646   2.890417   2.918536   4.200643   2.161813
    17  H    3.090338   2.890050   2.917744   4.199762   2.161914
    18  H    2.474149   3.476960   3.995956   4.615153   2.148266
    19  H    8.657012   6.486243   5.913352   5.913685   7.940583
                    6          7          8          9         10
     6  C    0.000000
     7  C    2.415985   0.000000
     8  C    1.394833   1.394933   0.000000
     9  C    4.316914   4.999654   5.182959   0.000000
    10  C    2.445347   2.445612   1.428832   6.574920   0.000000
    11  C    3.541244   3.541525   2.631526   7.756985   1.202694
    12  H    2.127649   3.874443   3.382811   2.563907   4.571713
    13  H    3.876284   2.139974   3.391480   4.225874   4.583876
    14  H    1.087495   3.407131   2.164137   4.917873   2.683874
    15  H    3.407283   1.087528   2.164471   5.962012   2.684637
    16  H    4.239341   5.205799   5.221464   1.092993   6.555239
    17  H    4.237920   5.204340   5.219769   1.093077   6.553949
    18  H    5.390430   5.864247   6.186112   1.094744   7.596271
    19  H    4.556850   4.557123   3.696498   8.808356   2.267666
                   11         12         13         14         15
    11  C    0.000000
    12  H    5.659153   0.000000
    13  H    5.672864   4.331709   0.000000
    14  H    3.534000   2.427701   4.963752   0.000000
    15  H    3.534854   4.961966   2.445164   4.315582   0.000000
    16  H    7.704405   2.382771   4.683184   4.710675   6.204380
    17  H    7.703330   2.382622   4.682496   4.709368   6.202921
    18  H    8.787929   3.650733   4.767673   6.012366   6.758070
    19  H    1.064972   6.655268   6.669836   4.425487   4.426337
                   16         17         18         19
    16  H    0.000000
    17  H    1.804401   0.000000
    18  H    1.769626   1.769654   0.000000
    19  H    8.734021   8.733097   9.845372   0.000000
 Stoichiometry    C10H8O
 Framework group  C1[X(C10H8O)]
 Deg. of freedom    51
 Full point group                 C1      NOp   1
 Largest Abelian subgroup         C1      NOp   1
 Largest concise Abelian subgroup C1      NOp   1
                         Standard orientation:                         
 ---------------------------------------------------------------------
 Center     Atomic      Atomic             Coordinates (Angstroms)
 Number     Number       Type             X           Y           Z
 ---------------------------------------------------------------------
      1          8           0        3.033019    1.237854   -0.000791
      2          6           0        0.970368    0.093583   -0.000691
      3          6           0        0.319752   -1.140229   -0.000491
      4          6           0        0.227189    1.273879    0.000109
      5          6           0        2.423620    0.149819   -0.000191
      6          6           0       -1.074041   -1.193845    0.000409
      7          6           0       -1.166706    1.220362    0.001109
      8          6           0       -1.817320   -0.013550    0.001309
      9          6           0        3.242494   -1.136647    0.000609
     10          6           0       -3.245092   -0.068563   -0.000091
     11          6           0       -4.446896   -0.114837   -0.001191
     12          1           0        0.859296   -2.082155   -0.001091
     13          1           0        0.710920    2.247012    0.000209
     14          1           0       -1.567052   -2.163167    0.000109
     15          1           0       -1.732288    2.149251    0.001409
     16          1           0        3.034971   -1.717528   -0.901691
     17          1           0        3.033470   -1.717459    0.902709
     18          1           0        4.307409   -0.882839    0.001509
     19          1           0       -5.511079   -0.155785   -0.002191
 ---------------------------------------------------------------------
 Rotational constants (GHZ):           3.6758071           0.5829940           0.5048365
 Standard basis: 6-311++G(d,p) (5D, 7F)
 There are   309 symmetry adapted cartesian basis functions of A   symmetry.
 There are   298 symmetry adapted basis functions of A   symmetry.
   298 basis functions,   468 primitive gaussians,   309 cartesian basis functions
    38 alpha electrons       38 beta electrons
       nuclear repulsion energy       517.5212047345 Hartrees.
 NAtoms=   19 NActive=   19 NUniq=   19 SFac= 1.00D+00 NAtFMM=   60 NAOKFM=F Big=F
 Integral buffers will be    131072 words long.
 Raffenetti 2 integral format.
 Two-electron integral symmetry is turned on.
 R6APFD:  NTU= -4 IXU= 1 FactS= 1.050
 Nuclear repulsion after empirical dispersion term =      517.5105494480 Hartrees.
 One-electron integrals computed using PRISM.
 NBasis=   298 RedAO= T EigKep=  1.22D-06  NBF=   298
 NBsUse=   295 1.00D-06 EigRej=  8.74D-07 NBFU=   295
 ExpMin= 3.60D-02 ExpMax= 8.59D+03 ExpMxC= 1.30D+03 IAcc=3 IRadAn=         5 AccDes= 0.00D+00
 Harris functional with IExCor= 1009 and IRadAn=       5 diagonalized for initial guess.
 HarFok:  IExCor= 1009 AccDes= 0.00D+00 IRadAn=         5 IDoV= 1 UseB2=F ITyADJ=14
 ICtDFT=  3500011 ScaDFX=  1.000000  1.000000  1.000000  1.000000
 FoFCou: FMM=F IPFlag=           0 FMFlag=      100000 FMFlg1=           0
         NFxFlg=           0 DoJE=T BraDBF=F KetDBF=T FulRan=T
         wScrn=  0.000000 ICntrl=       500 IOpCl=  0 I1Cent=   200000004 NGrid=           0
         NMat0=    1 NMatS0=      1 NMatT0=    0 NMatD0=    1 NMtDS0=    0 NMtDT0=    0
 Petite list used in FoFCou.
 Requested convergence on RMS density matrix=1.00D-08 within  32 cycles.
 Requested convergence on MAX density matrix=1.00D-06.
 Requested convergence on             energy=1.00D-06.
 No special actions if energy rises.
 SCF Done:  E(RM08HX) =  -461.027582061     A.U. after   16 cycles
            NFock= 16  Conv=0.33D-08     -V/T= 2.0048
 QCSCF skips out because SCF is already converged.

 **********************************************************************

            Population analysis using the SCF Density.

 **********************************************************************

 Orbital symmetries:
       Occupied  (A) (A) (A) (A) (A) (A) (A) (A) (A) (A) (A) (A)
                 (A) (A) (A) (A) (A) (A) (A) (A) (A) (A) (A) (A)
                 (A) (A) (A) (A) (A) (A) (A) (A) (A) (A) (A) (A)
                 (A) (A)
       Virtual   (A) (A) (A) (A) (A) (A) (A) (A) (A) (A) (A) (A)
                 (A) (A) (A) (A) (A) (A) (A) (A) (A) (A) (A) (A)
                 (A) (A) (A) (A) (A) (A) (A) (A) (A) (A) (A) (A)
                 (A) (A) (A) (A) (A) (A) (A) (A) (A) (A) (A) (A)
                 (A) (A) (A) (A) (A) (A) (A) (A) (A) (A) (A) (A)
                 (A) (A) (A) (A) (A) (A) (A) (A) (A) (A) (A) (A)
                 (A) (A) (A) (A) (A) (A) (A) (A) (A) (A) (A) (A)
                 (A) (A) (A) (A) (A) (A) (A) (A) (A) (A) (A) (A)
                 (A) (A) (A) (A) (A) (A) (A) (A) (A) (A) (A) (A)
                 (A) (A) (A) (A) (A) (A) (A) (A) (A) (A) (A) (A)
                 (A) (A) (A) (A) (A) (A) (A) (A) (A) (A) (A) (A)
                 (A) (A) (A) (A) (A) (A) (A) (A) (A) (A) (A) (A)
                 (A) (A) (A) (A) (A) (A) (A) (A) (A) (A) (A) (A)
                 (A) (A) (A) (A) (A) (A) (A) (A) (A) (A) (A) (A)
                 (A) (A) (A) (A) (A) (A) (A) (A) (A) (A) (A) (A)
                 (A) (A) (A) (A) (A) (A) (A) (A) (A) (A) (A) (A)
                 (A) (A) (A) (A) (A) (A) (A) (A) (A) (A) (A) (A)
                 (A) (A) (A) (A) (A) (A) (A) (A) (A) (A) (A) (A)
                 (A) (A) (A) (A) (A) (A) (A) (A) (A) (A) (A) (A)
                 (A) (A) (A) (A) (A) (A) (A) (A) (A) (A) (A) (A)
                 (A) (A) (A) (A) (A) (A) (A) (A) (A) (A) (A) (A)
                 (A) (A) (A) (A) (A)
 The electronic state is 1-A.
 Alpha  occ. eigenvalues --  -19.60411 -10.63283 -10.58500 -10.56483 -10.56276
 Alpha  occ. eigenvalues --  -10.56214 -10.56052 -10.55894 -10.55035 -10.54298
 Alpha  occ. eigenvalues --  -10.53879  -1.15603  -1.00496  -0.92373  -0.87897
 Alpha  occ. eigenvalues --   -0.86488  -0.83725  -0.75639  -0.72118  -0.65677
 Alpha  occ. eigenvalues --   -0.64966  -0.59772  -0.56919  -0.55878  -0.53853
 Alpha  occ. eigenvalues --   -0.52895  -0.51518  -0.49948  -0.47890  -0.47294
 Alpha  occ. eigenvalues --   -0.45026  -0.43696  -0.43452  -0.38837  -0.35935
 Alpha  occ. eigenvalues --   -0.33744  -0.33575  -0.31062
 Alpha virt. eigenvalues --   -0.06220  -0.03208  -0.01961  -0.01304  -0.01046
 Alpha virt. eigenvalues --   -0.00335   0.00360   0.01113   0.01728   0.01847
 Alpha virt. eigenvalues --    0.02440   0.03065   0.04123   0.04744   0.05169
 Alpha virt. eigenvalues --    0.05393   0.05602   0.06256   0.07762   0.08614
 Alpha virt. eigenvalues --    0.08799   0.09358   0.09737   0.10743   0.10942
 Alpha virt. eigenvalues --    0.11301   0.11656   0.11806   0.12507   0.12896
 Alpha virt. eigenvalues --    0.12900   0.13477   0.13987   0.14191   0.14307
 Alpha virt. eigenvalues --    0.15005   0.15602   0.16477   0.17161   0.17211
 Alpha virt. eigenvalues --    0.17840   0.18356   0.19378   0.20213   0.21361
 Alpha virt. eigenvalues --    0.21409   0.21473   0.22278   0.22720   0.24314
 Alpha virt. eigenvalues --    0.24900   0.25234   0.26713   0.28319   0.29038
 Alpha virt. eigenvalues --    0.29317   0.29810   0.30441   0.31152   0.31967
 Alpha virt. eigenvalues --    0.33049   0.33351   0.34165   0.36265   0.37752
 Alpha virt. eigenvalues --    0.38765   0.39620   0.40769   0.43699   0.43994
 Alpha virt. eigenvalues --    0.47311   0.48490   0.49643   0.51955   0.53467
 Alpha virt. eigenvalues --    0.53977   0.55290   0.55432   0.57976   0.58608
 Alpha virt. eigenvalues --    0.59605   0.59667   0.61354   0.61932   0.63599
 Alpha virt. eigenvalues --    0.63719   0.65173   0.65824   0.66417   0.67150
 Alpha virt. eigenvalues --    0.67419   0.67840   0.69102   0.72150   0.72228
 Alpha virt. eigenvalues --    0.72695   0.73474   0.73561   0.74983   0.75753
 Alpha virt. eigenvalues --    0.77648   0.78412   0.80869   0.81204   0.84948
 Alpha virt. eigenvalues --    0.86717   0.87525   0.88345   0.90651   0.91909
 Alpha virt. eigenvalues --    0.93996   0.95328   0.97250   0.98299   0.99270
 Alpha virt. eigenvalues --    0.99721   1.01393   1.02979   1.06009   1.08318
 Alpha virt. eigenvalues --    1.10195   1.11586   1.12012   1.12204   1.14950
 Alpha virt. eigenvalues --    1.18005   1.18728   1.22573   1.23133   1.24483
 Alpha virt. eigenvalues --    1.24899   1.25722   1.29738   1.32305   1.40222
 Alpha virt. eigenvalues --    1.40612   1.43047   1.46617   1.46945   1.50584
 Alpha virt. eigenvalues --    1.52434   1.53320   1.53497   1.55467   1.56371
 Alpha virt. eigenvalues --    1.57395   1.58148   1.59375   1.61498   1.62814
 Alpha virt. eigenvalues --    1.65094   1.66858   1.68132   1.71601   1.72459
 Alpha virt. eigenvalues --    1.73885   1.76688   1.79340   1.80110   1.80327
 Alpha virt. eigenvalues --    1.84018   1.85558   1.89049   1.89511   1.90907
 Alpha virt. eigenvalues --    1.96565   1.96572   1.97150   1.99695   2.00208
 Alpha virt. eigenvalues --    2.01668   2.02570   2.06350   2.07994   2.09934
 Alpha virt. eigenvalues --    2.12947   2.17388   2.18790   2.21909   2.25740
 Alpha virt. eigenvalues --    2.29564   2.30828   2.38990   2.39539   2.44467
 Alpha virt. eigenvalues --    2.46215   2.48799   2.49394   2.54110   2.58243
 Alpha virt. eigenvalues --    2.59134   2.60523   2.62039   2.63424   2.64553
 Alpha virt. eigenvalues --    2.67362   2.68993   2.70763   2.72061   2.74217
 Alpha virt. eigenvalues --    2.74598   2.77254   2.80567   2.80936   2.83769
 Alpha virt. eigenvalues --    2.85548   2.87252   2.88275   2.94335   2.95017
 Alpha virt. eigenvalues --    2.97426   2.97908   3.03114   3.03269   3.03378
 Alpha virt. eigenvalues --    3.08106   3.12050   3.15732   3.16423   3.18401
 Alpha virt. eigenvalues --    3.19933   3.29456   3.32329   3.37912   3.40402
 Alpha virt. eigenvalues --    3.43107   3.49105   3.52084   3.54625   3.60441
 Alpha virt. eigenvalues --    3.64127   3.66734   3.76984   3.82219   3.83265
 Alpha virt. eigenvalues --    3.87394   4.01655   4.18564   4.23252   4.26466
 Alpha virt. eigenvalues --    4.31527   4.51198   4.90333   5.15709   5.36120
 Alpha virt. eigenvalues --    5.83841  23.56878  23.79056  23.89599  23.99529
 Alpha virt. eigenvalues --   24.00789  24.02760  24.10546  24.13541  24.21658
 Alpha virt. eigenvalues --   25.19193  50.00222
          Condensed to atoms (all electrons):
               1          2          3          4          5          6
     1  O    7.985211  -0.069708  -0.272363   0.224962   0.331481  -0.064305
     2  C   -0.069708  20.179282  -0.837216   0.733423  -9.346949  -3.299321
     3  C   -0.272363  -0.837216  11.177170  -2.026959   1.121209   2.271988
     4  C    0.224962   0.733423  -2.026959   9.588264  -1.734550  -1.225580
     5  C    0.331481  -9.346949   1.121209  -1.734550  18.547967  -0.129540
     6  C   -0.064305  -3.299321   2.271988  -1.225580  -0.129540  10.732474
     7  C    0.103934  -1.719658  -1.539821   0.771718   0.839997  -1.404998
     8  C   -0.007523  -0.758302  -1.239599  -0.682069  -1.311016   0.711994
     9  C   -0.005884   0.467826  -1.276045   0.182635  -2.164326  -0.668890
    10  C   -0.003714  -1.855532  -0.567670   0.198148  -0.151815  -0.502883
    11  C   -0.000349   1.153890   0.126841  -0.248023   0.259279   0.250126
    12  H   -0.003412  -0.172865   0.454323   0.021568  -0.046752   0.028693
    13  H   -0.013767   0.049195   0.055076   0.419292  -0.091440   0.044323
    14  H    0.000079   0.057290  -0.052180   0.022084  -0.000586   0.335326
    15  H    0.002833  -0.025006   0.013435  -0.111498   0.017835   0.032953
    16  H    0.003611   0.037122  -0.027464   0.005432   0.046021  -0.010389
    17  H    0.003758   0.034606  -0.028087   0.005249   0.049559  -0.010770
    18  H   -0.012027  -0.082156  -0.009498   0.017525   0.027055  -0.027400
    19  H   -0.000006   0.004337  -0.001484   0.001569  -0.000804   0.008535
               7          8          9         10         11         12
     1  O    0.103934  -0.007523  -0.005884  -0.003714  -0.000349  -0.003412
     2  C   -1.719658  -0.758302   0.467826  -1.855532   1.153890  -0.172865
     3  C   -1.539821  -1.239599  -1.276045  -0.567670   0.126841   0.454323
     4  C    0.771718  -0.682069   0.182635   0.198148  -0.248023   0.021568
     5  C    0.839997  -1.311016  -2.164326  -0.151815   0.259279  -0.046752
     6  C   -1.404998   0.711994  -0.668890  -0.502883   0.250126   0.028693
     7  C   10.602027  -0.776474   0.275716  -2.412029   1.514930   0.008555
     8  C   -0.776474  10.134826  -0.283917  -2.137195   2.029394   0.025051
     9  C    0.275716  -0.283917   9.232256  -0.055401  -0.002619  -0.001908
    10  C   -2.412029  -2.137195  -0.055401  29.856771 -18.427384   0.032036
    11  C    1.514930   2.029394  -0.002619 -18.427384  20.549551  -0.025329
    12  H    0.008555   0.025051  -0.001908   0.032036  -0.025329   0.465685
    13  H   -0.144056   0.017091  -0.017938   0.011834  -0.012866  -0.000639
    14  H    0.043782  -0.047104   0.007047  -0.101439   0.050906  -0.012358
    15  H    0.449930  -0.026665   0.011292  -0.069326   0.025694   0.001403
    16  H   -0.006279   0.001013   0.311432   0.000620   0.000324  -0.011343
    17  H   -0.006102   0.000435   0.311797   0.000554   0.000375  -0.011332
    18  H    0.018705  -0.017019   0.407678  -0.001432   0.000673   0.004437
    19  H    0.023103   0.084442  -0.000089  -0.455051   0.732131  -0.000047
              13         14         15         16         17         18
     1  O   -0.013767   0.000079   0.002833   0.003611   0.003758  -0.012027
     2  C    0.049195   0.057290  -0.025006   0.037122   0.034606  -0.082156
     3  C    0.055076  -0.052180   0.013435  -0.027464  -0.028087  -0.009498
     4  C    0.419292   0.022084  -0.111498   0.005432   0.005249   0.017525
     5  C   -0.091440  -0.000586   0.017835   0.046021   0.049559   0.027055
     6  C    0.044323   0.335326   0.032953  -0.010389  -0.010770  -0.027400
     7  C   -0.144056   0.043782   0.449930  -0.006279  -0.006102   0.018705
     8  C    0.017091  -0.047104  -0.026665   0.001013   0.000435  -0.017019
     9  C   -0.017938   0.007047   0.011292   0.311432   0.311797   0.407678
    10  C    0.011834  -0.101439  -0.069326   0.000620   0.000554  -0.001432
    11  C   -0.012866   0.050906   0.025694   0.000324   0.000375   0.000673
    12  H   -0.000639  -0.012358   0.001403  -0.011343  -0.011332   0.004437
    13  H    0.390529   0.001300  -0.008168   0.000300   0.000305  -0.001309
    14  H    0.001300   0.423564   0.000074   0.000679   0.000667   0.000291
    15  H   -0.008168   0.000074   0.420195  -0.000220  -0.000225   0.000266
    16  H    0.000300   0.000679  -0.000220   0.521286  -0.064534  -0.013647
    17  H    0.000305   0.000667  -0.000225  -0.064534   0.521399  -0.013407
    18  H   -0.001309   0.000291   0.000266  -0.013647  -0.013407   0.387057
    19  H   -0.000004   0.001232   0.001027   0.000001   0.000002  -0.000004
              19
     1  O   -0.000006
     2  C    0.004337
     3  C   -0.001484
     4  C    0.001569
     5  C   -0.000804
     6  C    0.008535
     7  C    0.023103
     8  C    0.084442
     9  C   -0.000089
    10  C   -0.455051
    11  C    0.732131
    12  H   -0.000047
    13  H   -0.000004
    14  H    0.001232
    15  H    0.001027
    16  H    0.000001
    17  H    0.000002
    18  H   -0.000004
    19  H    0.385263
 Mulliken charges:
               1
     1  O   -0.202813
     2  C    1.449740
     3  C   -1.341656
     4  C   -0.163191
     5  C   -0.262626
     6  C   -1.072336
     7  C   -0.642979
     8  C    0.282636
     9  C   -0.730664
    10  C    2.640907
    11  C   -1.977543
    12  H    0.244232
    13  H    0.300940
    14  H    0.269343
    15  H    0.264170
    16  H    0.206035
    17  H    0.205750
    18  H    0.314211
    19  H    0.215845
 Sum of Mulliken charges =  -0.00000
 Mulliken charges with hydrogens summed into heavy atoms:
               1
     1  O   -0.202813
     2  C    1.449740
     3  C   -1.097424
     4  C    0.137749
     5  C   -0.262626
     6  C   -0.802994
     7  C   -0.378809
     8  C    0.282636
     9  C   -0.004668
    10  C    2.640907
    11  C   -1.761698
 Electronic spatial extent (au):  <R**2>=           2112.4694
 Charge=             -0.0000 electrons
 Dipole moment (field-independent basis, Debye):
    X=             -1.9077    Y=             -2.5536    Z=              0.0007  Tot=              3.1875
 Quadrupole moment (field-independent basis, Debye-Ang):
   XX=            -62.8336   YY=            -61.3767   ZZ=            -67.6194
   XY=             -9.1537   XZ=              0.0110   YZ=              0.0059
 Traceless Quadrupole moment (field-independent basis, Debye-Ang):
   XX=              1.1096   YY=              2.5665   ZZ=             -3.6762
   XY=             -9.1537   XZ=              0.0110   YZ=              0.0059
 Octapole moment (field-independent basis, Debye-Ang**2):
  XXX=            -67.3267  YYY=              0.9109  ZZZ=             -0.0033  XYY=             -1.8165
  XXY=            -30.4860  XXZ=             -0.0346  XZZ=             14.1436  YZZ=              0.3161
  YYZ=              0.0022  XYZ=              0.0054
 Hexadecapole moment (field-independent basis, Debye-Ang**3):
 XXXX=          -1983.7617 YYYY=           -423.8657 ZZZZ=            -83.3703 XXXY=            -71.7973
 XXXZ=              0.3699 YYYX=             -6.8771 YYYZ=              0.0246 ZZZX=             -0.0403
 ZZZY=             -0.0066 XXYY=           -516.6006 XXZZ=           -436.4894 YYZZ=            -93.9297
 XXYZ=              0.0427 YYXZ=             -0.0183 ZZXY=             -0.3008
 N-N= 5.175105494480D+02 E-N=-2.106459658083D+03  KE= 4.588412029728D+02
 R6APFD:  NTU= -4 IXU= 1 FactS= 1.050
 Calling FoFJK, ICntrl=      2127 FMM=F ISym2X=0 I1Cent= 0 IOpClX= 0 NMat=1 NMatS=1 NMatT=0.
 ***** Axes restored to original set *****
 -------------------------------------------------------------------
 Center     Atomic                   Forces (Hartrees/Bohr)
 Number     Number              X              Y              Z
 -------------------------------------------------------------------
      1        8          -0.030320254    0.040347184   -0.000046038
      2        6          -0.011350501    0.003992546   -0.000087828
      3        6          -0.015382064   -0.000024451   -0.000020091
      4        6          -0.014500609   -0.002823783   -0.000036287
      5        6           0.059659542   -0.042458970    0.000113254
      6        6           0.010210639    0.004521089    0.000007414
      7        6           0.014128372   -0.005156586    0.000013238
      8        6          -0.005634986    0.001582898    0.000155940
      9        6           0.000815261   -0.008708706   -0.000078125
     10        6          -0.004626595    0.000285425   -0.000085701
     11        6           0.002922424   -0.000033053   -0.000002799
     12        1           0.003938325   -0.000516800    0.000000610
     13        1           0.005342667    0.002108178    0.000010350
     14        1          -0.002831458   -0.001516683   -0.000006288
     15        1          -0.002635697    0.001586605   -0.000006686
     16        1          -0.002817993    0.004733033   -0.000753055
     17        1          -0.002805114    0.004708911    0.000807061
     18        1          -0.002290315   -0.002627387    0.000008840
     19        1          -0.001821645    0.000000550    0.000006190
 -------------------------------------------------------------------
 Cartesian Forces:  Max     0.059659542 RMS     0.012667291

 GradGradGradGradGradGradGradGradGradGradGradGradGradGradGradGradGradGrad
 Berny optimization.
 FormGI is forming the generalized inverse of G from B-inverse, IUseBI=4.
 Internal  Forces:  Max     0.050144376 RMS     0.006564245
 Search for a local minimum.
 Step number   1 out of a maximum of   94
 All quantities printed in internal units (Hartrees-Bohrs-Radians)
 Mixed Optimization -- RFO/linear search
 Second derivative matrix not updated -- first step.
 ITU=  0
     Eigenvalues ---    0.00436   0.00566   0.00566   0.00824   0.01370
     Eigenvalues ---    0.01915   0.02156   0.02156   0.02156   0.02157
     Eigenvalues ---    0.02157   0.02157   0.02157   0.02157   0.04699
     Eigenvalues ---    0.04699   0.07111   0.07431   0.16000   0.16000
     Eigenvalues ---    0.16000   0.16000   0.16000   0.16000   0.16000
     Eigenvalues ---    0.22000   0.22982   0.24000   0.25000   0.25000
     Eigenvalues ---    0.25000   0.25000   0.29892   0.34270   0.34459
     Eigenvalues ---    0.34469   0.35100   0.35104   0.35193   0.35337
     Eigenvalues ---    0.37682   0.37873   0.41158   0.42135   0.42511
     Eigenvalues ---    0.46475   0.46479   0.46488   0.46493   0.84328
     Eigenvalues ---    1.03481
 RFO step:  Lambda=-6.91664370D-03 EMin= 4.35575378D-03
 Linear search not attempted -- first point.
 Iteration  1 RMS(Cart)=  0.02693675 RMS(Int)=  0.00037299
 Iteration  2 RMS(Cart)=  0.00040642 RMS(Int)=  0.00001161
 Iteration  3 RMS(Cart)=  0.00000026 RMS(Int)=  0.00001161
 Variable       Old X    -DE/DX   Delta X   Delta X   Delta X     New X
                                 (Linear)    (Quad)   (Total)
    R1        2.35662  -0.05014   0.00000  -0.05898  -0.05898   2.29765
    R2        2.63588   0.00421   0.00000   0.00879   0.00879   2.64467
    R3        2.63576   0.00201   0.00000   0.00395   0.00395   2.63971
    R4        2.74830   0.02231   0.00000   0.05815   0.05815   2.80645
    R5        2.63584  -0.00364   0.00000  -0.00755  -0.00755   2.62829
    R6        2.05132   0.00143   0.00000   0.00398   0.00398   2.05530
    R7        2.63602  -0.00604   0.00000  -0.01298  -0.01298   2.62304
    R8        2.05362   0.00061   0.00000   0.00169   0.00169   2.05531
    R9        2.88179  -0.00531   0.00000  -0.01737  -0.01737   2.86441
   R10        2.63585   0.00360   0.00000   0.00794   0.00793   2.64378
   R11        2.05507  -0.00000   0.00000  -0.00001  -0.00001   2.05506
   R12        2.63604   0.00597   0.00000   0.01280   0.01279   2.64883
   R13        2.05513  -0.00005   0.00000  -0.00013  -0.00013   2.05500
   R14        2.70010   0.00353   0.00000   0.00844   0.00844   2.70854
   R15        2.06546   0.00244   0.00000   0.00694   0.00694   2.07239
   R16        2.06562   0.00238   0.00000   0.00678   0.00678   2.07239
   R17        2.06877  -0.00168   0.00000  -0.00481  -0.00481   2.06396
   R18        2.27276  -0.00110   0.00000  -0.00106  -0.00106   2.27171
   R19        2.01250   0.00182   0.00000   0.00472   0.00472   2.01723
    A1        2.09439  -0.00265   0.00000  -0.01148  -0.01147   2.08292
    A2        2.09474   0.00778   0.00000   0.03087   0.03087   2.12560
    A3        2.09406  -0.00513   0.00000  -0.01939  -0.01939   2.07466
    A4        2.09451   0.00205   0.00000   0.00870   0.00870   2.10321
    A5        2.13614  -0.00483   0.00000  -0.02712  -0.02712   2.10902
    A6        2.05254   0.00277   0.00000   0.01843   0.01842   2.07096
    A7        2.09436   0.00201   0.00000   0.00745   0.00745   2.10181
    A8        2.11834  -0.00687   0.00000  -0.03885  -0.03885   2.07949
    A9        2.07049   0.00486   0.00000   0.03140   0.03139   2.10188
   A10        2.12003  -0.00548   0.00000  -0.02132  -0.02132   2.09871
   A11        2.06419   0.00798   0.00000   0.03107   0.03107   2.09526
   A12        2.09897  -0.00251   0.00000  -0.00975  -0.00975   2.08921
   A13        2.09435  -0.00023   0.00000  -0.00044  -0.00045   2.09390
   A14        2.07976   0.00341   0.00000   0.01998   0.01998   2.09974
   A15        2.10908  -0.00318   0.00000  -0.01954  -0.01954   2.08954
   A16        2.09440   0.00083   0.00000   0.00318   0.00317   2.09758
   A17        2.07934   0.00275   0.00000   0.01736   0.01736   2.09671
   A18        2.10944  -0.00358   0.00000  -0.02054  -0.02054   2.08890
   A19        2.09436  -0.00202   0.00000  -0.00740  -0.00741   2.08695
   A20        2.09428   0.00077   0.00000   0.00277   0.00278   2.09706
   A21        2.09454   0.00125   0.00000   0.00463   0.00464   2.09917
   A22        1.92405   0.00224   0.00000   0.00970   0.00974   1.93378
   A23        1.92410   0.00225   0.00000   0.00981   0.00984   1.93394
   A24        1.90367  -0.00408   0.00000  -0.01725  -0.01720   1.88647
   A25        1.94185  -0.00496   0.00000  -0.04311  -0.04309   1.89876
   A26        1.88450   0.00225   0.00000   0.02071   0.02076   1.90526
   A27        1.88444   0.00226   0.00000   0.02079   0.02084   1.90528
   A28        3.14162   0.00006   0.00000   0.00120   0.00120   3.14282
   A29        3.14162   0.00006   0.00000   0.00438   0.00438   3.14600
   A30        3.14151   0.00002   0.00000   0.00028   0.00028   3.14179
   A31        3.14163   0.00001   0.00000   0.00044   0.00044   3.14207
    D1        0.00008   0.00000   0.00000   0.00010   0.00010   0.00018
    D2        3.14159   0.00000   0.00000   0.00003   0.00003  -3.14156
    D3        3.14045   0.00002   0.00000   0.00085   0.00086   3.14131
    D4       -0.00123   0.00002   0.00000   0.00078   0.00079  -0.00043
    D5       -0.00000  -0.00000   0.00000  -0.00013  -0.00013  -0.00013
    D6        3.14134   0.00000   0.00000   0.00012   0.00011   3.14144
    D7       -3.14037  -0.00003   0.00000  -0.00092  -0.00090  -3.14127
    D8        0.00097  -0.00002   0.00000  -0.00067  -0.00067   0.00030
    D9        3.14118   0.00000   0.00000   0.00036   0.00035   3.14153
   D10       -0.00004  -0.00001   0.00000  -0.00073  -0.00072  -0.00077
   D11       -0.00164   0.00002   0.00000   0.00111   0.00111  -0.00053
   D12        3.14033   0.00000   0.00000   0.00002   0.00003   3.14036
   D13       -0.00017   0.00000   0.00000   0.00013   0.00013  -0.00003
   D14        3.14112   0.00001   0.00000   0.00047   0.00047   3.14159
   D15        3.14151   0.00000   0.00000   0.00020   0.00020  -3.14148
   D16       -0.00039   0.00001   0.00000   0.00053   0.00054   0.00015
   D17        0.00000  -0.00000   0.00000  -0.00007  -0.00007  -0.00007
   D18       -3.14126  -0.00001   0.00000  -0.00043  -0.00043   3.14149
   D19       -3.14134  -0.00001   0.00000  -0.00030  -0.00030   3.14154
   D20        0.00058  -0.00002   0.00000  -0.00066  -0.00067  -0.00009
   D21       -2.06535  -0.00162   0.00000  -0.02119  -0.02118  -2.08654
   D22        2.06721   0.00160   0.00000   0.02006   0.02004   2.08726
   D23        0.00095  -0.00001   0.00000  -0.00064  -0.00065   0.00031
   D24        1.07588  -0.00160   0.00000  -0.02014  -0.02012   1.05576
   D25       -1.07474   0.00162   0.00000   0.02111   0.02110  -1.05363
   D26       -3.14100   0.00000   0.00000   0.00041   0.00041  -3.14058
   D27        0.00017  -0.00001   0.00000  -0.00034  -0.00034  -0.00017
   D28        3.13972   0.00005   0.00000   0.00177   0.00177   3.14148
   D29       -3.14112  -0.00002   0.00000  -0.00068  -0.00068   3.14139
   D30       -0.00157   0.00004   0.00000   0.00143   0.00143  -0.00014
   D31       -0.00008   0.00001   0.00000   0.00031   0.00030   0.00022
   D32       -3.13963  -0.00005   0.00000  -0.00180  -0.00180  -3.14143
   D33        3.14117   0.00002   0.00000   0.00068   0.00068  -3.14134
   D34        0.00162  -0.00004   0.00000  -0.00143  -0.00143   0.00019
         Item               Value     Threshold  Converged?
 Maximum Force            0.050144     0.000450     NO 
 RMS     Force            0.006564     0.000300     NO 
 Maximum Displacement     0.090737     0.001800     NO 
 RMS     Displacement     0.026922     0.001200     NO 
 Predicted change in Energy=-3.531369D-03
 GradGradGradGradGradGradGradGradGradGradGradGradGradGradGradGradGradGrad

                          Input orientation:                          
 ---------------------------------------------------------------------
 Center     Atomic      Atomic             Coordinates (Angstroms)
 Number     Number       Type             X           Y           Z
 ---------------------------------------------------------------------
      1          8           0        3.166600   -1.147826    0.000148
      2          6           0        1.108556   -0.021994    0.000436
      3          6           0        0.415025    1.193574    0.000604
      4          6           0        0.390134   -1.219962   -0.000101
      5          6           0        2.592686   -0.075939    0.000224
      6          6           0       -0.975669    1.212958    0.000462
      7          6           0       -0.997859   -1.207216   -0.000306
      8          6           0       -1.691412    0.010877    0.000109
      9          6           0        3.391093    1.212524   -0.000823
     10          6           0       -3.124625    0.026328    0.000095
     11          6           0       -4.326706    0.037815    0.000276
     12          1           0        0.949861    2.140600    0.000990
     13          1           0        0.932347   -2.162795   -0.000372
     14          1           0       -1.511306    2.159390    0.000593
     15          1           0       -1.552379   -2.142668   -0.000821
     16          1           0        3.167095    1.810141    0.891001
     17          1           0        3.165293    1.809994   -0.892291
     18          1           0        4.452228    0.953884   -0.001866
     19          1           0       -5.394163    0.043312    0.000742
 ---------------------------------------------------------------------
                    Distance matrix (angstroms):
                    1          2          3          4          5
     1  O    0.000000
     2  C    2.345856   0.000000
     3  C    3.612937   1.399497   0.000000
     4  C    2.777403   1.396875   2.413665   0.000000
     5  C    1.215861   1.485110   2.520688   2.481939   0.000000
     6  C    4.767777   2.422623   1.390830   2.790075   3.793997
     7  C    4.164883   2.416969   2.785684   1.388052   3.764546
     8  C    4.994284   2.800162   2.415751   2.418223   4.284978
     9  C    2.371002   2.594997   2.976128   3.862997   1.515781
    10  C    6.399856   4.233457   3.727142   3.729178   5.718226
    11  C    7.586526   5.435591   4.880552   4.881658   6.920327
    12  H    3.965814   2.168409   1.087616   3.406857   2.758971
    13  H    2.453986   2.148041   3.396003   1.087625   2.666776
    14  H    5.728916   3.409122   2.154890   3.877563   4.673269
    15  H    4.822704   3.402622   3.873138   2.150522   4.631732
    16  H    3.089205   2.896102   2.957507   4.205603   2.163499
    17  H    3.089523   2.895394   2.956553   4.204538   2.163610
    18  H    2.463743   3.483171   4.044312   4.607191   2.125661
    19  H    8.643232   6.503047   5.921974   5.920638   7.987739
                    6          7          8          9         10
     6  C    0.000000
     7  C    2.420276   0.000000
     8  C    1.399031   1.401702   0.000000
     9  C    4.366763   5.011791   5.222626   0.000000
    10  C    2.454812   2.458610   1.433296   6.622813   0.000000
    11  C    3.551113   3.554057   2.635431   7.806687   1.202135
    12  H    2.137332   3.873176   3.392941   2.611693   4.590380
    13  H    3.877659   2.153794   3.407193   4.175908   4.609912
    14  H    1.087492   3.405534   2.156049   4.993002   2.674463
    15  H    3.404823   1.087457   2.158029   5.974549   2.678899
    16  H    4.279274   5.219743   5.257008   1.096664   6.600110
    17  H    4.277970   5.218336   5.255548   1.096664   6.598552
    18  H    5.434077   5.862917   6.215592   1.092201   7.633417
    19  H    4.570684   4.570701   3.702892   8.862718   2.269601
                   11         12         13         14         15
    11  C    0.000000
    12  H    5.680129   0.000000
    13  H    5.700905   4.303431   0.000000
    14  H    3.525274   2.461239   4.965151   0.000000
    15  H    3.528653   4.960605   2.484808   4.302254   0.000000
    16  H    7.751876   2.411939   4.644660   4.775169   6.220409
    17  H    7.750312   2.411511   4.643772   4.773876   6.218898
    18  H    8.826599   3.697955   4.701409   6.084158   6.756030
    19  H    1.067471   6.681711   6.700122   4.422032   4.420159
                   16         17         18         19
    16  H    0.000000
    17  H    1.783293   0.000000
    18  H    1.783802   1.783812   0.000000
    19  H    8.786887   8.785383   9.888405   0.000000
 Stoichiometry    C10H8O
 Framework group  C1[X(C10H8O)]
 Deg. of freedom    51
 Full point group                 C1      NOp   1
 Largest Abelian subgroup         C1      NOp   1
 Largest concise Abelian subgroup C1      NOp   1
                         Standard orientation:                         
 ---------------------------------------------------------------------
 Center     Atomic      Atomic             Coordinates (Angstroms)
 Number     Number       Type             X           Y           Z
 ---------------------------------------------------------------------
      1          8           0        3.006858    1.242659   -0.000082
      2          6           0        0.972629    0.074346   -0.000370
      3          6           0        0.304482   -1.155357   -0.000538
      4          6           0        0.229493    1.257142    0.000167
      5          6           0        2.455319    0.159089   -0.000158
      6          6           0       -1.085511   -1.203606   -0.000396
      7          6           0       -1.157937    1.215586    0.000372
      8          6           0       -1.826054   -0.016642   -0.000043
      9          6           0        3.280301   -1.112523    0.000889
     10          6           0       -3.258637   -0.061842   -0.000029
     11          6           0       -4.460220   -0.098281   -0.000210
     12          1           0        0.858862   -2.091076   -0.000924
     13          1           0        0.752017    2.211028    0.000438
     14          1           0       -1.601385   -2.160953   -0.000527
     15          1           0       -1.731757    2.139325    0.000887
     16          1           0        3.068758   -1.714660   -0.890935
     17          1           0        3.066953   -1.714551    0.892357
     18          1           0        4.335838   -0.831910    0.001932
     19          1           0       -5.527333   -0.125936   -0.000676
 ---------------------------------------------------------------------
 Rotational constants (GHZ):           3.6970754           0.5789091           0.5021267
 Standard basis: 6-311++G(d,p) (5D, 7F)
 There are   309 symmetry adapted cartesian basis functions of A   symmetry.
 There are   298 symmetry adapted basis functions of A   symmetry.
   298 basis functions,   468 primitive gaussians,   309 cartesian basis functions
    38 alpha electrons       38 beta electrons
       nuclear repulsion energy       517.0544610377 Hartrees.
 NAtoms=   19 NActive=   19 NUniq=   19 SFac= 1.00D+00 NAtFMM=   60 NAOKFM=F Big=F
 Integral buffers will be    131072 words long.
 Raffenetti 2 integral format.
 Two-electron integral symmetry is turned on.
 R6APFD:  NTU= -4 IXU= 1 FactS= 1.050
 Nuclear repulsion after empirical dispersion term =      517.0438450471 Hartrees.
 One-electron integrals computed using PRISM.
 NBasis=   298 RedAO= T EigKep=  1.30D-06  NBF=   298
 NBsUse=   295 1.00D-06 EigRej=  8.86D-07 NBFU=   295
 Initial guess from the checkpoint file:  "ANYE0002.chk"
 B after Tr=     0.000000    0.000000   -0.000000
         Rot=    1.000000   -0.000030    0.000021   -0.000308 Ang=  -0.04 deg.
 ExpMin= 3.60D-02 ExpMax= 8.59D+03 ExpMxC= 1.30D+03 IAcc=3 IRadAn=         5 AccDes= 0.00D+00
 Harris functional with IExCor= 1009 and IRadAn=       5 diagonalized for initial guess.
 HarFok:  IExCor= 1009 AccDes= 0.00D+00 IRadAn=         5 IDoV= 1 UseB2=F ITyADJ=14
 ICtDFT=  3500011 ScaDFX=  1.000000  1.000000  1.000000  1.000000
 FoFCou: FMM=F IPFlag=           0 FMFlag=      100000 FMFlg1=           0
         NFxFlg=           0 DoJE=T BraDBF=F KetDBF=T FulRan=T
         wScrn=  0.000000 ICntrl=       500 IOpCl=  0 I1Cent=   200000004 NGrid=           0
         NMat0=    1 NMatS0=      1 NMatT0=    0 NMatD0=    1 NMtDS0=    0 NMtDT0=    0
 Petite list used in FoFCou.
 Requested convergence on RMS density matrix=1.00D-08 within  32 cycles.
 Requested convergence on MAX density matrix=1.00D-06.
 Requested convergence on             energy=1.00D-06.
 No special actions if energy rises.
 SCF Done:  E(RM08HX) =  -461.031864225     A.U. after   13 cycles
            NFock= 13  Conv=0.82D-08     -V/T= 2.0047
 QCSCF skips out because SCF is already converged.
 R6APFD:  NTU= -4 IXU= 1 FactS= 1.050
 Calling FoFJK, ICntrl=      2127 FMM=F ISym2X=0 I1Cent= 0 IOpClX= 0 NMat=1 NMatS=1 NMatT=0.
 ***** Axes restored to original set *****
 -------------------------------------------------------------------
 Center     Atomic                   Forces (Hartrees/Bohr)
 Number     Number              X              Y              Z
 -------------------------------------------------------------------
      1        8          -0.005999918    0.008818976    0.000029797
      2        6          -0.006999779    0.004975177   -0.000003442
      3        6          -0.002465634   -0.001429381    0.000013473
      4        6          -0.003738012   -0.000837416    0.000005980
      5        6           0.015137712   -0.012122604   -0.000078992
      6        6           0.002899419    0.000554065    0.000004139
      7        6           0.003265036   -0.000945992    0.000005754
      8        6          -0.001408311    0.000143480   -0.000017686
      9        6          -0.000462553   -0.001813240    0.000025305
     10        6           0.000842428   -0.000108661    0.000002715
     11        6          -0.000342940   -0.000168943    0.000010730
     12        1           0.001438628    0.000044277   -0.000004479
     13        1           0.001507893    0.000392147   -0.000001540
     14        1          -0.000783287   -0.000359544    0.000004612
     15        1          -0.001072465    0.000403856    0.000005255
     16        1          -0.000986609    0.001077668   -0.000695984
     17        1          -0.000993828    0.001062305    0.000699857
     18        1          -0.000009269    0.000183196    0.000004324
     19        1           0.000171487    0.000130636   -0.000009818
 -------------------------------------------------------------------
 Cartesian Forces:  Max     0.015137712 RMS     0.003311168

 GradGradGradGradGradGradGradGradGradGradGradGradGradGradGradGradGradGrad
 Berny optimization.
 Using GEDIIS/GDIIS optimizer.
 FormGI is forming the generalized inverse of G from B-inverse, IUseBI=4.
 Internal  Forces:  Max     0.010606460 RMS     0.001647074
 Search for a local minimum.
 Step number   2 out of a maximum of   94
 All quantities printed in internal units (Hartrees-Bohrs-Radians)
 Mixed Optimization -- RFO/linear search
 Update second derivatives using D2CorX and points    1    2
 DE= -4.28D-03 DEPred=-3.53D-03 R= 1.21D+00
 TightC=F SS=  1.41D+00  RLast= 1.45D-01 DXNew= 5.0454D-01 4.3641D-01
 Trust test= 1.21D+00 RLast= 1.45D-01 DXMaxT set to 4.36D-01
 ITU=  1  0
 Use linear search instead of GDIIS.
     Eigenvalues ---    0.00436   0.00566   0.00566   0.00810   0.01370
     Eigenvalues ---    0.01912   0.02156   0.02156   0.02157   0.02157
     Eigenvalues ---    0.02157   0.02157   0.02157   0.02157   0.04699
     Eigenvalues ---    0.04699   0.06869   0.07419   0.14981   0.16000
     Eigenvalues ---    0.16000   0.16000   0.16000   0.16000   0.16199
     Eigenvalues ---    0.22007   0.22949   0.23321   0.24139   0.25000
     Eigenvalues ---    0.25000   0.26126   0.29904   0.34280   0.34453
     Eigenvalues ---    0.34466   0.34929   0.35103   0.35111   0.35226
     Eigenvalues ---    0.35530   0.37901   0.41303   0.42165   0.42511
     Eigenvalues ---    0.46132   0.46482   0.46492   0.47036   0.78264
     Eigenvalues ---    1.03495
 RFO step:  Lambda=-3.65955097D-04 EMin= 4.35575321D-03
 Quartic linear search produced a step of  0.29061.
 Iteration  1 RMS(Cart)=  0.02150406 RMS(Int)=  0.00049759
 Iteration  2 RMS(Cart)=  0.00054851 RMS(Int)=  0.00001266
 Iteration  3 RMS(Cart)=  0.00000013 RMS(Int)=  0.00001266
 Variable       Old X    -DE/DX   Delta X   Delta X   Delta X     New X
                                 (Linear)    (Quad)   (Total)
    R1        2.29765  -0.01061  -0.01714  -0.00189  -0.01903   2.27861
    R2        2.64467  -0.00167   0.00255  -0.00699  -0.00443   2.64023
    R3        2.63971   0.00065   0.00115   0.00072   0.00187   2.64158
    R4        2.80645   0.00678   0.01690   0.00870   0.02559   2.83204
    R5        2.62829  -0.00162  -0.00219  -0.00270  -0.00490   2.62339
    R6        2.05530   0.00075   0.00116   0.00173   0.00288   2.05818
    R7        2.62304  -0.00196  -0.00377  -0.00214  -0.00591   2.61713
    R8        2.05531   0.00041   0.00049   0.00108   0.00158   2.05689
    R9        2.86441  -0.00086  -0.00505   0.00068  -0.00437   2.86005
   R10        2.64378   0.00060   0.00231  -0.00021   0.00210   2.64588
   R11        2.05506   0.00007  -0.00000   0.00027   0.00027   2.05533
   R12        2.64883   0.00046   0.00372  -0.00170   0.00201   2.65084
   R13        2.05500   0.00020  -0.00004   0.00077   0.00073   2.05572
   R14        2.70854  -0.00067   0.00245  -0.00420  -0.00175   2.70679
   R15        2.07239   0.00022   0.00202  -0.00091   0.00111   2.07350
   R16        2.07239   0.00021   0.00197  -0.00090   0.00107   2.07347
   R17        2.06396  -0.00005  -0.00140   0.00101  -0.00039   2.06357
   R18        2.27171   0.00017  -0.00031   0.00047   0.00016   2.27187
   R19        2.01723  -0.00017   0.00137  -0.00176  -0.00039   2.01684
    A1        2.08292   0.00065  -0.00333   0.00587   0.00254   2.08546
    A2        2.12560   0.00034   0.00897  -0.00593   0.00303   2.12864
    A3        2.07466  -0.00099  -0.00564   0.00006  -0.00558   2.06909
    A4        2.10321  -0.00015   0.00253  -0.00355  -0.00102   2.10219
    A5        2.10902  -0.00119  -0.00788  -0.00235  -0.01024   2.09878
    A6        2.07096   0.00134   0.00535   0.00591   0.01126   2.08222
    A7        2.10181  -0.00005   0.00217  -0.00216   0.00001   2.10182
    A8        2.07949  -0.00152  -0.01129  -0.00201  -0.01330   2.06619
    A9        2.10188   0.00157   0.00912   0.00417   0.01329   2.11517
   A10        2.09871   0.00108  -0.00620   0.01102   0.00482   2.10354
   A11        2.09526   0.00367   0.00903   0.01098   0.02001   2.11527
   A12        2.08921  -0.00475  -0.00283  -0.02200  -0.02484   2.06438
   A13        2.09390  -0.00009  -0.00013  -0.00025  -0.00038   2.09352
   A14        2.09974   0.00093   0.00581   0.00197   0.00778   2.10752
   A15        2.08954  -0.00084  -0.00568  -0.00172  -0.00740   2.08214
   A16        2.09758  -0.00053   0.00092  -0.00326  -0.00234   2.09524
   A17        2.09671   0.00142   0.00505   0.00593   0.01098   2.10769
   A18        2.08890  -0.00090  -0.00597  -0.00267  -0.00864   2.08026
   A19        2.08695   0.00017  -0.00215   0.00336   0.00120   2.08815
   A20        2.09706   0.00001   0.00081  -0.00095  -0.00014   2.09692
   A21        2.09917  -0.00018   0.00135  -0.00241  -0.00106   2.09811
   A22        1.93378   0.00010   0.00283  -0.00439  -0.00161   1.93217
   A23        1.93394   0.00007   0.00286  -0.00466  -0.00185   1.93209
   A24        1.88647   0.00067  -0.00500   0.01494   0.00991   1.89638
   A25        1.89876  -0.00141  -0.01252  -0.00928  -0.02187   1.87689
   A26        1.90526   0.00030   0.00603   0.00183   0.00784   1.91310
   A27        1.90528   0.00031   0.00606   0.00187   0.00790   1.91318
   A28        3.14282  -0.00018   0.00035  -0.00531  -0.00497   3.13785
   A29        3.14600  -0.00027   0.00127  -0.06154  -0.06027   3.08573
   A30        3.14179  -0.00001   0.00008  -0.00048  -0.00040   3.14139
   A31        3.14207  -0.00001   0.00013  -0.00301  -0.00289   3.13918
    D1        0.00018  -0.00000   0.00003  -0.00031  -0.00028  -0.00010
    D2       -3.14156  -0.00000   0.00001  -0.00014  -0.00014   3.14149
    D3        3.14131   0.00000   0.00025  -0.00015   0.00010   3.14141
    D4       -0.00043   0.00001   0.00023   0.00002   0.00025  -0.00018
    D5       -0.00013   0.00000  -0.00004   0.00029   0.00025   0.00011
    D6        3.14144   0.00000   0.00003   0.00018   0.00020  -3.14154
    D7       -3.14127  -0.00000  -0.00026   0.00013  -0.00013  -3.14140
    D8        0.00030  -0.00000  -0.00019   0.00002  -0.00017   0.00013
    D9        3.14153  -0.00002   0.00010  -0.00240  -0.00229   3.13924
   D10       -0.00077   0.00001  -0.00021   0.00209   0.00187   0.00111
   D11       -0.00053  -0.00001   0.00032  -0.00224  -0.00190  -0.00243
   D12        3.14036   0.00002   0.00001   0.00226   0.00226  -3.14056
   D13       -0.00003   0.00000   0.00004  -0.00005  -0.00001  -0.00004
   D14        3.14159   0.00000   0.00014  -0.00020  -0.00006   3.14153
   D15       -3.14148  -0.00000   0.00006  -0.00021  -0.00015   3.14155
   D16        0.00015  -0.00000   0.00016  -0.00037  -0.00021  -0.00006
   D17       -0.00007   0.00000  -0.00002   0.00010   0.00008   0.00001
   D18        3.14149   0.00000  -0.00013   0.00025   0.00012  -3.14157
   D19        3.14154   0.00000  -0.00009   0.00022   0.00013  -3.14152
   D20       -0.00009   0.00000  -0.00019   0.00036   0.00017   0.00008
   D21       -2.08654  -0.00082  -0.00616  -0.00695  -0.01308  -2.09962
   D22        2.08726   0.00084   0.00583   0.01082   0.01663   2.10389
   D23        0.00031   0.00001  -0.00019   0.00199   0.00181   0.00211
   D24        1.05576  -0.00085  -0.00585  -0.01143  -0.01727   1.03849
   D25       -1.05363   0.00082   0.00613   0.00634   0.01245  -1.04119
   D26       -3.14058  -0.00001   0.00012  -0.00249  -0.00238   3.14022
   D27       -0.00017   0.00000  -0.00010   0.00044   0.00034   0.00017
   D28        3.14148   0.00000   0.00051  -0.00069  -0.00018   3.14130
   D29        3.14139   0.00000  -0.00020   0.00059   0.00039  -3.14140
   D30       -0.00014   0.00000   0.00041  -0.00054  -0.00013  -0.00027
   D31        0.00022  -0.00001   0.00009  -0.00047  -0.00038  -0.00015
   D32       -3.14143  -0.00000  -0.00052   0.00067   0.00015  -3.14129
   D33       -3.14134  -0.00001   0.00020  -0.00061  -0.00042   3.14143
   D34        0.00019  -0.00000  -0.00042   0.00052   0.00011   0.00030
         Item               Value     Threshold  Converged?
 Maximum Force            0.010606     0.000450     NO 
 RMS     Force            0.001647     0.000300     NO 
 Maximum Displacement     0.125966     0.001800     NO 
 RMS     Displacement     0.021619     0.001200     NO 
 Predicted change in Energy=-4.285864D-04
 GradGradGradGradGradGradGradGradGradGradGradGradGradGradGradGradGradGrad

                          Input orientation:                          
 ---------------------------------------------------------------------
 Center     Atomic      Atomic             Coordinates (Angstroms)
 Number     Number       Type             X           Y           Z
 ---------------------------------------------------------------------
      1          8           0        3.176753   -1.151655    0.000485
      2          6           0        1.109507   -0.028277   -0.000794
      3          6           0        0.418555    1.186062   -0.000335
      4          6           0        0.392224   -1.228082   -0.000615
      5          6           0        2.606929   -0.089005   -0.001578
      6          6           0       -0.969547    1.205609    0.000174
      7          6           0       -0.992657   -1.217280   -0.000125
      8          6           0       -1.685569    0.002402    0.000180
      9          6           0        3.377404    1.213669   -0.000398
     10          6           0       -3.117856    0.017695    0.001064
     11          6           0       -4.319952    0.035028    0.001608
     12          1           0        0.964921    2.128246   -0.000371
     13          1           0        0.948642   -2.163572   -0.000927
     14          1           0       -1.512467    2.148044    0.000593
     15          1           0       -1.556327   -2.147698    0.000035
     16          1           0        3.126960    1.811713    0.884802
     17          1           0        3.128124    1.812528   -0.885352
     18          1           0        4.445743    0.987603    0.000244
     19          1           0       -5.384584    0.109970    0.000410
 ---------------------------------------------------------------------
                    Distance matrix (angstroms):
                    1          2          3          4          5
     1  O    0.000000
     2  C    2.352762   0.000000
     3  C    3.615602   1.397152   0.000000
     4  C    2.785578   1.397865   2.414288   0.000000
     5  C    1.205790   1.498653   2.532741   2.490465   0.000000
     6  C    4.769539   2.417631   1.388240   2.788776   3.803579
     7  C    4.169927   2.415124   2.787037   1.384923   3.772271
     8  C    4.997402   2.795245   2.414206   2.414812   4.293472
     9  C    2.373820   2.585689   2.958978   3.856611   1.513471
    10  C    6.402303   4.227613   3.724418   3.724597   5.725780
    11  C    7.590047   5.429829   4.876303   4.878530   6.927992
    12  H    3.956002   2.161364   1.089141   3.404838   2.759057
    13  H    2.447132   2.141347   3.391319   1.088459   2.655888
    14  H    5.733830   3.407510   2.157373   3.876349   4.687624
    15  H    4.836749   3.405674   3.874805   2.154656   4.644450
    16  H    3.092903   2.870533   2.917253   4.183671   2.160748
    17  H    3.094100   2.871554   2.918472   4.184880   2.160678
    18  H    2.487320   3.487475   4.032075   4.619554   2.130804
    19  H    8.653796   6.495562   5.902067   5.929746   7.993990
                    6          7          8          9         10
     6  C    0.000000
     7  C    2.422999   0.000000
     8  C    1.400141   1.402766   0.000000
     9  C    4.346959   5.000695   5.205849   0.000000
    10  C    2.454867   2.457974   1.432369   6.604450   0.000000
    11  C    3.549011   3.555161   2.634585   7.787072   1.202221
    12  H    2.143229   3.876166   3.397693   2.580024   4.596031
    13  H    3.876962   2.159656   3.410354   4.159885   4.614579
    14  H    1.087634   3.405233   2.152614   4.978343   2.667520
    15  H    3.404259   1.087842   2.153981   5.969965   2.669701
    16  H    4.234536   5.189330   5.216953   1.097251   6.557227
    17  H    4.235967   5.190781   5.218464   1.097231   6.558920
    18  H    5.419676   5.868365   6.209961   1.091995   7.625533
    19  H    4.548953   4.588094   3.700578   8.831228   2.268605
                   11         12         13         14         15
    11  C    0.000000
    12  H    5.684317   0.000000
    13  H    5.708935   4.291850   0.000000
    14  H    3.513803   2.477468   4.964585   0.000000
    15  H    3.521636   4.963909   2.505020   4.295966   0.000000
    16  H    7.706695   2.357570   4.618710   4.734895   6.196202
    17  H    7.708440   2.358456   4.619710   4.736302   6.197691
    18  H    8.817302   3.662948   4.707401   6.070164   6.771628
    19  H    1.067266   6.662556   6.728949   4.375732   4.444392
                   16         17         18         19
    16  H    0.000000
    17  H    1.770155   0.000000
    18  H    1.789075   1.789106   0.000000
    19  H    8.724933   8.726366   9.869425   0.000000
 Stoichiometry    C10H8O
 Framework group  C1[X(C10H8O)]
 Deg. of freedom    51
 Full point group                 C1      NOp   1
 Largest Abelian subgroup         C1      NOp   1
 Largest concise Abelian subgroup C1      NOp   1
                         Standard orientation:                         
 ---------------------------------------------------------------------
 Center     Atomic      Atomic             Coordinates (Angstroms)
 Number     Number       Type             X           Y           Z
 ---------------------------------------------------------------------
      1          8           0        3.014789    1.238731   -0.001152
      2          6           0        0.970203    0.074622    0.000570
      3          6           0        0.303441   -1.153165    0.000271
      4          6           0        0.229293    1.259983    0.000525
      5          6           0        2.466128    0.165002    0.001043
      6          6           0       -1.084001   -1.200206    0.000050
      7          6           0       -1.155103    1.221750    0.000323
      8          6           0       -1.823717   -0.011419    0.000177
      9          6           0        3.262257   -1.122154   -0.000280
     10          6           0       -3.255421   -0.055082   -0.000409
     11          6           0       -4.456937   -0.096224   -0.000704
     12          1           0        0.868365   -2.084342    0.000205
     13          1           0        0.767071    2.206312    0.000709
     14          1           0       -1.608146   -2.153211   -0.000244
     15          1           0       -1.737092    2.140819    0.000268
     16          1           0        3.023525   -1.725057   -0.885421
     17          1           0        3.025072   -1.725819    0.884733
     18          1           0        4.325908   -0.874969   -0.001147
     19          1           0       -5.519875   -0.192241    0.000717
 ---------------------------------------------------------------------
 Rotational constants (GHZ):           3.6892512           0.5799432           0.5027360
 Standard basis: 6-311++G(d,p) (5D, 7F)
 There are   309 symmetry adapted cartesian basis functions of A   symmetry.
 There are   298 symmetry adapted basis functions of A   symmetry.
   298 basis functions,   468 primitive gaussians,   309 cartesian basis functions
    38 alpha electrons       38 beta electrons
       nuclear repulsion energy       517.3139083840 Hartrees.
 NAtoms=   19 NActive=   19 NUniq=   19 SFac= 1.00D+00 NAtFMM=   60 NAOKFM=F Big=F
 Integral buffers will be    131072 words long.
 Raffenetti 2 integral format.
 Two-electron integral symmetry is turned on.
 R6APFD:  NTU= -4 IXU= 1 FactS= 1.050
 Nuclear repulsion after empirical dispersion term =      517.3032907269 Hartrees.
 One-electron integrals computed using PRISM.
 NBasis=   298 RedAO= T EigKep=  1.33D-06  NBF=   298
 NBsUse=   295 1.00D-06 EigRej=  8.79D-07 NBFU=   295
 Initial guess from the checkpoint file:  "ANYE0002.chk"
 B after Tr=    -0.000000   -0.000000   -0.000000
         Rot=    1.000000    0.000025   -0.000038    0.000715 Ang=   0.08 deg.
 ExpMin= 3.60D-02 ExpMax= 8.59D+03 ExpMxC= 1.30D+03 IAcc=3 IRadAn=         5 AccDes= 0.00D+00
 Harris functional with IExCor= 1009 and IRadAn=       5 diagonalized for initial guess.
 HarFok:  IExCor= 1009 AccDes= 0.00D+00 IRadAn=         5 IDoV= 1 UseB2=F ITyADJ=14
 ICtDFT=  3500011 ScaDFX=  1.000000  1.000000  1.000000  1.000000
 FoFCou: FMM=F IPFlag=           0 FMFlag=      100000 FMFlg1=           0
         NFxFlg=           0 DoJE=T BraDBF=F KetDBF=T FulRan=T
         wScrn=  0.000000 ICntrl=       500 IOpCl=  0 I1Cent=   200000004 NGrid=           0
         NMat0=    1 NMatS0=      1 NMatT0=    0 NMatD0=    1 NMtDS0=    0 NMtDT0=    0
 Petite list used in FoFCou.
 Requested convergence on RMS density matrix=1.00D-08 within  32 cycles.
 Requested convergence on MAX density matrix=1.00D-06.
 Requested convergence on             energy=1.00D-06.
 No special actions if energy rises.
 SCF Done:  E(RM08HX) =  -461.032153131     A.U. after   13 cycles
            NFock= 13  Conv=0.61D-08     -V/T= 2.0047
 QCSCF skips out because SCF is already converged.
 R6APFD:  NTU= -4 IXU= 1 FactS= 1.050
 Calling FoFJK, ICntrl=      2127 FMM=F ISym2X=0 I1Cent= 0 IOpClX= 0 NMat=1 NMatS=1 NMatT=0.
 ***** Axes restored to original set *****
 -------------------------------------------------------------------
 Center     Atomic                   Forces (Hartrees/Bohr)
 Number     Number              X              Y              Z
 -------------------------------------------------------------------
      1        8           0.000820264   -0.002292354   -0.000162398
      2        6          -0.001849317    0.000854683   -0.000135275
      3        6           0.000810418    0.000202553   -0.000018648
      4        6           0.000761410   -0.000197377   -0.000012269
      5        6           0.000143117    0.001326874    0.000461833
      6        6          -0.000789209   -0.000069982    0.000003685
      7        6          -0.000109265   -0.000259620   -0.000001635
      8        6           0.000140483   -0.000554294    0.000060336
      9        6           0.000485381    0.000164090   -0.000146639
     10        6           0.000292965   -0.000119332   -0.000013770
     11        6          -0.000066509    0.002873568   -0.000071148
     12        1          -0.000612951   -0.000206901   -0.000006796
     13        1           0.000095477   -0.000013298    0.000000865
     14        1          -0.000097005   -0.000032556    0.000000765
     15        1          -0.000114031    0.000097497    0.000000227
     16        1           0.000067343   -0.000179001    0.000079963
     17        1           0.000096775   -0.000118529   -0.000082809
     18        1           0.000071318    0.000428003   -0.000005026
     19        1          -0.000146663   -0.001904024    0.000048739
 -------------------------------------------------------------------
 Cartesian Forces:  Max     0.002873568 RMS     0.000694523

 GradGradGradGradGradGradGradGradGradGradGradGradGradGradGradGradGradGrad
 Berny optimization.
 Using GEDIIS/GDIIS optimizer.
 FormGI is forming the generalized inverse of G from B-inverse, IUseBI=4.
 Internal  Forces:  Max     0.003848743 RMS     0.000641730
 Search for a local minimum.
 Step number   3 out of a maximum of   94
 All quantities printed in internal units (Hartrees-Bohrs-Radians)
 Mixed Optimization -- En-DIIS/RFO-DIIS
 Update second derivatives using D2CorX and points    1    2    3
 DE= -2.89D-04 DEPred=-4.29D-04 R= 6.74D-01
 TightC=F SS=  1.41D+00  RLast= 9.18D-02 DXNew= 7.3396D-01 2.7555D-01
 Trust test= 6.74D-01 RLast= 9.18D-02 DXMaxT set to 4.36D-01
 ITU=  1  1  0
 Use linear search instead of GDIIS.
     Eigenvalues ---    0.00436   0.00566   0.00752   0.00816   0.01370
     Eigenvalues ---    0.01913   0.02156   0.02156   0.02157   0.02157
     Eigenvalues ---    0.02157   0.02157   0.02157   0.02157   0.04627
     Eigenvalues ---    0.04699   0.07023   0.07312   0.14146   0.16000
     Eigenvalues ---    0.16000   0.16000   0.16000   0.16055   0.16482
     Eigenvalues ---    0.21179   0.22041   0.22992   0.24190   0.25000
     Eigenvalues ---    0.25105   0.27058   0.30029   0.32913   0.34282
     Eigenvalues ---    0.34464   0.34520   0.35103   0.35105   0.35208
     Eigenvalues ---    0.35411   0.37901   0.41301   0.42177   0.42550
     Eigenvalues ---    0.46344   0.46491   0.46584   0.47068   0.80882
     Eigenvalues ---    1.03508
 RFO step:  Lambda=-1.44311925D-03 EMin= 4.35574229D-03
 Quartic linear search produced a step of -0.23598.
 Iteration  1 RMS(Cart)=  0.04609593 RMS(Int)=  0.02075610
 Iteration  2 RMS(Cart)=  0.03691931 RMS(Int)=  0.00366203
 Iteration  3 RMS(Cart)=  0.00356066 RMS(Int)=  0.00003166
 Iteration  4 RMS(Cart)=  0.00000436 RMS(Int)=  0.00003156
 Iteration  5 RMS(Cart)=  0.00000000 RMS(Int)=  0.00003156
 Variable       Old X    -DE/DX   Delta X   Delta X   Delta X     New X
                                 (Linear)    (Quad)   (Total)
    R1        2.27861   0.00241   0.00449  -0.03785  -0.03336   2.24525
    R2        2.64023   0.00027   0.00105  -0.00523  -0.00418   2.63605
    R3        2.64158  -0.00003  -0.00044   0.00361   0.00317   2.64475
    R4        2.83204   0.00171  -0.00604   0.05425   0.04821   2.88026
    R5        2.62339   0.00056   0.00116  -0.00810  -0.00695   2.61644
    R6        2.05818  -0.00049  -0.00068   0.00416   0.00348   2.06166
    R7        2.61713   0.00033   0.00140  -0.01105  -0.00965   2.60747
    R8        2.05689   0.00006  -0.00037   0.00295   0.00258   2.05947
    R9        2.86005   0.00062   0.00103  -0.00815  -0.00712   2.85293
   R10        2.64588  -0.00034  -0.00050   0.00404   0.00354   2.64943
   R11        2.05533   0.00002  -0.00006   0.00048   0.00041   2.05574
   R12        2.65084   0.00013  -0.00047   0.00550   0.00503   2.65587
   R13        2.05572  -0.00002  -0.00017   0.00109   0.00092   2.05664
   R14        2.70679  -0.00007   0.00041  -0.00160  -0.00119   2.70560
   R15        2.07350  -0.00005  -0.00026   0.00279   0.00253   2.07603
   R16        2.07347  -0.00002  -0.00025   0.00277   0.00252   2.07598
   R17        2.06357  -0.00002   0.00009  -0.00144  -0.00135   2.06222
   R18        2.27187   0.00023  -0.00004   0.00027   0.00023   2.27210
   R19        2.01684   0.00001   0.00009   0.00017   0.00026   2.01710
    A1        2.08546   0.00008  -0.00060   0.00258   0.00198   2.08744
    A2        2.12864   0.00148  -0.00072   0.01463   0.01391   2.14255
    A3        2.06909  -0.00156   0.00132  -0.01721  -0.01589   2.05319
    A4        2.10219  -0.00017   0.00024  -0.00079  -0.00054   2.10164
    A5        2.09878   0.00053   0.00242  -0.01830  -0.01589   2.08289
    A6        2.08222  -0.00035  -0.00266   0.01909   0.01643   2.09865
    A7        2.10182  -0.00001  -0.00000   0.00122   0.00122   2.10304
    A8        2.06619  -0.00007   0.00314  -0.02799  -0.02485   2.04134
    A9        2.11517   0.00008  -0.00314   0.02677   0.02363   2.13881
   A10        2.10354  -0.00072  -0.00114   0.00199   0.00085   2.10438
   A11        2.11527   0.00011  -0.00472   0.03751   0.03278   2.14805
[...]
 62,0.07282266,-0.02764729,-0.00001589,0.71929386,0.00296675,-0.0084825
 4,-0.00000147,-0.11396291,-0.27787722,-0.00002609,0.02537762,-0.058751
 57,-0.00001743,-0.03976979,0.71150154,-0.00000026,-0.00000081,-0.00015
 162,-0.00000955,-0.00003661,-0.06520200,-0.00000485,-0.00000952,0.0061
 1628,-0.00008930,0.00012370,0.13958171,-0.23972328,0.25926604,0.000041
 05,-0.18745431,-0.01725757,0.00001250,-0.01286734,0.01355019,0.0000035
 8,-0.02986176,-0.01454525,0.00000287,0.60090648,0.26858646,-0.63057526
 ,-0.00006749,-0.03118245,-0.10588439,0.00000217,0.02951944,0.00450954,
 -0.00000330,-0.02567206,0.01554977,0.00000533,-0.17393789,0.90044332,0
 .00003986,-0.00006216,-0.06830154,0.00001717,-0.00000088,-0.07767718,0
 .00000735,-0.00000106,-0.00075545,-0.00000044,0.00000365,0.00363767,-0
 .00007598,0.00004982,0.22223874,-0.00374706,0.00151900,0.00000032,-0.0
 2772047,0.08383759,0.00002252,-0.34913266,-0.03376675,0.00003711,-0.06
 105507,-0.03510105,0.00000136,0.00573287,0.00391658,0.00000113,0.70168
 071,0.00127583,0.00068080,0.00000038,0.02757130,0.03666601,0.00000144,
 0.04279741,-0.13071636,-0.00002123,-0.03208374,-0.01889531,0.00000193,
 0.00239717,-0.00533058,-0.00000309,-0.04244802,0.71763502,0.00000093,-
 0.00000016,-0.00167705,0.00001088,-0.00000525,0.00852821,0.00005391,-0
 .00001043,-0.06242893,0.00000173,0.00000227,-0.00510164,0.00000117,-0.
 00000327,0.00844253,-0.00009783,0.00013193,0.13341164,0.00097803,0.002
 42276,0.00000029,-0.03032616,-0.08082942,-0.00001053,-0.06021937,0.034
 42477,0.00001545,-0.36082801,0.03925678,0.00004862,0.00488595,-0.00719
 517,-0.00000090,0.07373930,0.02494800,-0.00000453,0.71162014,0.0019656
 9,0.00116178,-0.00000003,-0.02562041,0.04050350,0.00000879,0.03348751,
 -0.02012905,-0.00000843,-0.03629366,-0.13309894,-0.00000881,-0.0044751
 6,-0.00628906,-0.00000164,-0.02735780,-0.05656880,-0.00000943,0.045858
 75,0.70805602,0.00000071,-0.00000003,-0.00059713,0.00000005,0.00001962
 ,0.00752299,0.00001498,-0.00000810,-0.00509310,0.00003472,-0.00002099,
 -0.06173537,-0.00000065,-0.00000222,0.00706892,-0.00001518,-0.00001751
 ,0.00797572,-0.00007327,0.00011687,0.13378071,0.00022583,-0.00147773,-
 0.00000027,0.00403513,-0.00167623,-0.00000198,-0.03069963,-0.02662117,
 -0.00000002,-0.02808737,0.02899843,0.00001148,-0.00145947,0.00141015,0
 .00000029,-0.16591285,-0.11480991,-0.00000832,-0.16105803,0.10909649,0
 .00003817,0.69657088,0.00189606,0.00032383,0.00000003,-0.00100054,-0.0
 7745369,-0.00001345,-0.08470977,0.04103294,0.00001992,0.08509997,0.040
 18512,-0.00000626,-0.00000574,-0.00431211,-0.00000068,-0.04680872,-0.2
 7793887,-0.00003762,0.04100579,-0.27532909,-0.00005152,0.00293597,0.65
 146660,0.00000044,0.00000046,-0.00009945,-0.00000183,-0.00001500,-0.00
 692059,-0.00001264,0.00001200,0.00604793,0.00002295,0.00000282,0.00573
 778,0.00000024,-0.00000114,-0.00114473,0.00000685,-0.00002719,-0.06486
 074,0.00002424,-0.00006157,-0.06430360,-0.00008170,0.00010638,0.147212
 71,0.02021455,0.01831252,0.00000314,-0.01323190,-0.02641274,0.00000703
 ,-0.00353944,-0.00045126,0.00000089,-0.00495422,0.00255487,0.00000176,
 -0.13826706,-0.06043597,0.00001164,0.00020960,-0.00056985,-0.00000065,
 -0.00060449,-0.00172013,-0.00000080,-0.00001029,-0.00017814,0.00000009
 ,0.57723227,-0.00640321,-0.04890860,0.00000193,-0.00223184,0.00527445,
 0.00000197,-0.00114481,-0.00061567,0.00000046,0.00328081,0.00069238,0.
 00000009,-0.05474964,-0.14453455,0.00001293,0.00010649,0.00005800,-0.0
 0000020,-0.00054769,0.00126806,0.00000033,0.00007739,-0.00051891,-0.00
 000008,-0.05684224,0.48856762,0.00000214,-0.00000576,0.02576373,0.0000
 0517,0.00000588,0.01646626,0.00000035,0.00000049,-0.00092361,0.0000022
 4,-0.00000079,0.00099230,0.00001664,0.00002116,-0.08650636,-0.00000054
 ,0.00000045,-0.00161505,-0.00000007,0.00000100,-0.00069512,0.00000014,
 -0.00000004,0.00042243,-0.00000988,0.00000749,0.52445978,-0.00002187,0
 .00068100,0.00000015,-0.00338366,-0.00003167,0.00000019,0.00603643,-0.
 00423527,-0.00000019,0.00615043,0.00422781,0.00000141,0.00067259,-0.00
 070674,-0.00000041,-0.03699798,-0.01499775,0.00000260,-0.03580734,0.01
 571276,0.00000886,-0.30848102,0.00242679,0.00003207,0.00017716,-0.0000
 2967,-0.00000008,1.46957835,0.00003201,0.00036578,0.,0.00002093,-0.001
 79430,-0.00000014,-0.00332011,-0.00470778,-0.00000149,0.00318156,-0.00
 502506,-0.00000378,0.00010601,-0.00027283,0.00000033,-0.03126930,0.006
 10468,0.00000494,0.03193360,0.00532381,-0.00000375,0.00233986,-0.08011
 591,-0.00000597,-0.00001663,0.00004639,-0.00000006,-0.01401086,0.11201
 319,-0.00000059,0.00000027,0.00022689,-0.00000108,-0.00000044,-0.00204
 847,-0.00000036,-0.00000139,0.00790019,0.00000120,-0.00000379,0.007716
 30,0.00000095,0.00000025,-0.00104543,-0.00000097,0.00000276,0.00285203
 ,0.00001212,-0.00000142,0.00269989,0.00003568,-0.00000620,-0.05428889,
 -0.00000012,-0.00000004,0.00011964,-0.00013358,0.00000876,0.07553247,-
 0.00112157,0.00029153,0.00000019,0.00019161,-0.00021764,-0.00000004,-0
 .00218553,-0.00039915,-0.00000031,-0.00211854,0.00052663,-0.00000011,0
 .00189290,0.00012051,-0.00000021,0.00270984,0.00819461,0.00000156,0.00
 251219,-0.00828184,-0.00000185,-0.01609180,0.00013464,0.00000954,-0.00
 035367,-0.00013287,0.00000009,-1.10760423,0.01116974,0.00009625,1.5458
 0051,-0.00000890,0.00001290,-0.00000001,-0.00000582,0.00073856,0.00000
 027,0.00079108,0.00031413,-0.00000086,-0.00072206,0.00030734,0.0000010
 7,-0.00004278,0.00006549,-0.00000002,-0.00008518,-0.00143691,0.0000003
 1,0.00003250,-0.00128731,-0.00000171,0.00020861,0.00811089,0.00000078,
 0.00002509,0.00000991,-0.00000002,0.01111574,-0.03686519,-0.00000080,-
 0.01570667,0.05528737,0.00000096,-0.00000052,0.00000084,0.00000170,0.0
 0000039,0.00045683,0.00000031,-0.00000070,-0.00051364,-0.00000022,0.00
 000097,-0.00065283,-0.00000210,0.00000012,0.00002010,-0.00000044,-0.00
 000228,0.00168742,-0.00000029,0.00000093,0.00185535,0.00000597,0.00000
 086,0.00444804,0.00000023,0.00000015,-0.00003264,0.00006582,-0.0000004
 7,-0.03643544,0.00004406,0.,0.05288994,0.00020426,-0.00067989,0.000000
 14,0.01211595,0.01202765,0.00000129,-0.12664016,-0.12004152,-0.0000128
 1,-0.00101665,0.00362941,0.00000196,0.00093836,0.00021786,-0.00000105,
 -0.01018418,-0.02839290,-0.00000405,-0.00087140,0.00093532,0.00000013,
 -0.00529548,0.00090584,0.00000226,-0.00227589,0.00025523,0.00000115,-0
 .00029293,-0.00132607,-0.00000016,-0.00051837,0.00011036,0.00000004,0.
 13607923,0.00060196,0.00054100,-0.00000025,-0.01585369,-0.01763319,-0.
 00000191,-0.12038224,-0.26901105,-0.00003135,0.00417969,-0.00331481,-0
 .00000272,-0.00233155,-0.00082247,0.00000143,0.00252349,0.00412271,-0.
 00000045,0.00085687,0.00027020,0.00000019,0.00100585,0.00184966,-0.000
 00139,-0.00046477,0.00034617,-0.00000012,0.00002323,0.00013588,-0.0000
 0005,-0.00001232,-0.00005331,0.00000010,0.13079601,0.28293122,-0.00000
 004,0.00000048,0.00068932,-0.00000509,-0.00000611,0.00227465,-0.000012
 44,-0.00003152,-0.03744185,0.00000201,-0.00000279,0.00703861,-0.000001
 22,0.00000078,-0.00417198,0.00000267,0.00000431,0.00418842,0.00000016,
 0.00000007,-0.00123655,0.00000227,-0.00000133,0.00770478,0.00000096,-0
 .00000011,0.00145025,0.00000011,0.00000016,0.00011563,0.00000004,0.000
 00002,-0.00013429,0.00001102,0.00003528,0.02563803,-0.00270662,-0.0000
 3392,0.00000042,0.01356440,-0.01206161,-0.00000387,-0.00157546,-0.0034
 9404,0.00000038,-0.12880184,0.12312579,0.00003832,0.00024260,-0.000925
 87,-0.00000058,-0.00090104,-0.00095286,-0.00000026,-0.00891124,0.02633
 147,0.00000715,-0.00491654,-0.00063573,0.00000164,0.00000663,0.0004802
 2,-0.00000002,-0.00029757,0.00119122,0.00000041,-0.00042421,-0.0000858
 3,-0.00000001,0.00055914,-0.00098186,-0.00000032,0.13327917,0.00056189
 ,0.00252603,0.00000034,0.01442800,-0.01898219,-0.00000692,-0.00383508,
 -0.00314747,-0.00000137,0.12239419,-0.26836449,-0.00006363,0.00236674,
 -0.00279503,0.00000040,-0.00081496,0.00032888,0.00000043,-0.00296630,0
 .00536447,0.00000062,-0.00125466,0.00165428,-0.00000101,-0.00011913,0.
 00029964,-0.00000004,-0.00001314,0.00023281,0.00000010,-0.00010054,-0.
 00005250,-0.00000001,0.00077408,-0.00095902,-0.00000037,-0.13190193,0.
 28331267,0.00000016,0.00000038,-0.00026761,0.00000309,-0.00000243,0.00
 419410,0.00000043,-0.00000157,0.00658910,0.00003704,-0.00006439,-0.040
 53075,-0.00000082,0.00000080,-0.00397131,-0.00000036,0.00000037,-0.001
 34751,0.00000163,-0.00000361,0.00441821,0.00000154,-0.00000124,0.00807
 332,0.00000007,0.00000008,0.00021778,0.00000006,-0.00000004,0.00002463
 ,0.00000002,0.,-0.00012843,0.00000011,-0.00000016,0.00030166,-0.000042
 31,0.00007045,0.02758312,-0.00105894,0.00044999,0.00000013,-0.00579040
 ,-0.00144183,0.00000184,-0.00922534,0.02776097,0.00000808,-0.00073294,
 -0.00091767,-0.00000029,0.00098665,0.00130672,0.00000016,-0.12781478,0
 .12355423,0.00004076,-0.00122119,-0.00324153,0.00000059,0.01054807,-0.
 01585903,-0.00000459,-0.00007890,-0.00002498,0.,0.00123700,-0.00042010
 ,-0.00000094,-0.00014741,0.00034993,0.00000023,0.00054540,-0.00029789,
 -0.00000079,0.00000273,0.00008840,-0.00000013,0.13227612,0.00004986,-0
 .00005689,0.00000005,-0.00062459,0.00181798,-0.00000116,-0.00267212,0.
 00436730,0.00000067,-0.00101679,0.00020284,0.00000047,-0.00040940,0.00
 020047,0.,0.12157117,-0.27169631,-0.00006993,-0.00394458,-0.00297270,-
 0.00000150,0.01576427,-0.01767564,-0.00000709,0.00005717,0.00001671,0.
 ,0.00101429,0.00041580,0.00000081,-0.00052234,0.00027060,0.00000015,0.
 00038015,0.00059802,0.00000096,0.00006561,-0.00001255,0.00000018,-0.13
 045300,0.28551661,0.00000023,-0.00000005,-0.00030203,0.00000197,-0.000
 00106,0.00765188,0.00000112,-0.00000411,0.00337711,-0.00000022,0.00000
 052,-0.00120119,-0.00000030,-0.00000025,0.00037637,0.00004060,-0.00007
 001,-0.03721496,0.00000031,-0.00000148,0.00675233,0.00000219,-0.000002
 55,0.00350667,0.00000008,0.00000001,0.00000506,-0.00000062,0.00000102,
 -0.00375139,0.00000012,0.00000014,-0.00004338,-0.00000067,0.00000106,-
 0.00419610,-0.00000010,0.00000016,-0.00087766,-0.00004479,0.00007684,0
 .02549357,-0.00013605,0.00054364,0.00000010,-0.00562818,0.00125204,0.0
 0000198,-0.00077685,0.00097890,0.00000016,-0.00989017,-0.02746180,-0.0
 0000384,0.00035984,-0.00206960,-0.00000034,-0.00098985,0.00324154,0.00
 000187,-0.13338037,-0.12675969,-0.00001377,0.01045649,0.01525808,0.000
 00222,-0.00048455,0.00018480,0.00000012,0.00125302,0.00039453,-0.00000
 069,-0.00014032,-0.00035310,0.00000005,0.00002565,-0.00010016,-0.00000
 017,0.00068659,0.00033574,-0.00000063,0.00053584,0.00077881,0.00000010
 ,0.13821497,-0.00015714,0.00003893,-0.00000002,0.00081165,0.00167053,-
 0.00000146,0.00097316,0.00026591,0.00000015,0.00268834,0.00506475,-0.0
 0000016,0.00033983,0.00010962,0.,0.00389809,-0.00308784,-0.00000272,-0
 .12458990,-0.26558699,-0.00003080,-0.01619569,-0.01770764,-0.00000213,
 0.00002159,0.00002895,0.00000002,-0.00109050,0.00042377,0.00000100,0.0
 0055044,0.00025833,-0.00000003,-0.00007429,-0.00002140,0.00000022,-0.0
 0033882,0.00050327,0.00000109,-0.00080080,-0.00094615,-0.00000011,0.13
 390784,0.27905212,-0.00000011,-0.00000010,0.00014122,0.00000219,-0.000
 00150,0.00814388,0.00000032,0.00000016,-0.00116049,0.00000248,0.000004
 27,0.00382306,0.00000004,0.00000039,0.00006050,0.00000187,-0.00000267,
 0.00673241,-0.00001309,-0.00003081,-0.03810621,-0.00000466,-0.00000628
 ,0.00340598,-0.00000002,-0.00000003,-0.00019457,-0.00000101,0.00000074
 ,-0.00354354,0.00000031,0.00000002,-0.00008585,-0.00000017,0.00000022,
 -0.00100479,-0.00000075,0.00000091,-0.00441085,-0.00000023,-0.00000036
 ,0.00018419,0.00001287,0.00003499,0.02584816,-0.00023231,-0.00263467,0
 .00213767,-0.00098110,0.00015746,0.00197456,-0.00093749,-0.00029804,-0
 .00004739,0.00049409,0.00029121,0.00021018,0.00640670,-0.00427284,-0.0
 1712941,0.00007936,0.00016001,-0.00033333,-0.00024202,0.00029699,-0.00
 015586,0.00001861,-0.00022553,0.00005292,-0.06034396,0.03039885,0.0482
 7680,-0.00004296,0.00002299,0.00005696,0.00004045,0.00000538,-0.000006
 34,-0.00178900,0.00024898,-0.00076798,0.00009020,0.00005889,0.00002977
 ,-0.00000276,0.00000042,-0.00000723,0.00000617,0.00000256,-0.00002651,
 0.06073558,-0.00339898,-0.00549852,0.00376901,-0.00011416,0.00032633,0
 .00228376,0.00024625,0.00034130,0.00018048,-0.00023323,-0.00022335,0.0
 0027628,0.01136045,-0.01318809,-0.02457254,-0.00041079,-0.00007110,-0.
 00004778,0.00026073,-0.00004568,-0.00014662,0.00002256,0.00029800,0.00
 002427,0.03187520,-0.12159072,-0.12279509,-0.00003137,0.00000988,-0.00
 000825,0.00002164,-0.00000445,-0.00000107,0.00010923,0.00023584,0.0000
 6784,0.00012833,0.00004996,0.00003574,-0.00000180,0.00000111,0.0000064
 5,-0.00000335,-0.00001153,-0.00003818,-0.03568694,0.13228499,-0.000489
 67,0.00109081,-0.00090747,-0.00006194,-0.00047928,-0.00022953,0.000394
 55,-0.00093808,0.00033310,-0.00023962,0.00007547,0.00000972,-0.0000012
 0,0.00169235,0.00155702,0.00000806,0.00040703,0.00019167,0.00009634,-0
 .00000624,0.00000921,0.00007098,0.00004862,-0.00004976,0.04904290,-0.1
 1927215,-0.21675830,-0.00001432,0.00005424,-0.00003295,0.00004999,0.00
 000080,0.00000265,-0.00051012,0.00047789,-0.00039885,0.00006177,0.0000
 4926,0.00001720,-0.00002438,-0.00001277,0.00000874,-0.00001591,0.00000
 455,0.00000156,-0.05363710,0.12979505,0.23480711,-0.00023343,-0.002636
 16,-0.00213875,-0.00098217,0.00015780,-0.00197355,-0.00093814,-0.00029
 768,0.00004835,0.00049419,0.00029141,-0.00021011,0.00641887,-0.0042751
 5,0.01712572,0.00007955,0.00015962,0.00033341,-0.00024217,0.00029689,0
 .00015602,0.00001855,-0.00022567,-0.00005310,-0.06042033,0.03049503,-0
 .04839209,-0.00004297,0.00002300,-0.00005694,0.00004046,0.00000537,0.0
 0000631,-0.00178796,0.00024869,0.00076909,0.00009020,0.00005887,-0.000
 02970,-0.00000274,0.00000042,0.00000725,0.00000619,0.00000256,0.000026
 52,0.00040596,-0.00411506,0.00604293,0.06081867,-0.00340195,-0.0054992
 6,-0.00376606,-0.00011467,0.00032698,-0.00228291,0.00024657,0.00034145
 ,-0.00018070,-0.00023361,-0.00022329,-0.00027653,0.01137845,-0.0131896
 7,0.02456146,-0.00041095,-0.00007124,0.00004790,0.00026096,-0.00004587
 ,0.00014658,0.00002255,0.00029820,-0.00002419,0.03197178,-0.12162002,0
 .12278648,-0.00003138,0.00000989,0.00000829,0.00002167,-0.00000446,0.0
 0000102,0.00010935,0.00023575,-0.00006801,0.00012839,0.00005000,-0.000
 03568,-0.00000179,0.00000111,-0.00000645,-0.00000334,-0.00001155,0.000
 03819,-0.00412595,0.01068049,-0.01513791,-0.03579010,0.13231582,0.0004
 8888,-0.00108895,-0.00090617,0.00006178,0.00047874,-0.00022811,-0.0003
 9377,0.00093802,0.00033397,0.00023940,-0.00007557,0.00000976,-0.000001
 78,-0.00169238,0.00154639,-0.00000779,-0.00040712,0.00019130,-0.000096
 41,0.00000609,0.00000916,-0.00007102,-0.00004865,-0.00004978,-0.049155
 06,0.11926615,-0.21666621,0.00001435,-0.00005425,-0.00003298,-0.000050
 02,-0.00000079,0.00000270,0.00051116,-0.00047788,-0.00040018,-0.000061
 85,-0.00004933,0.00001722,0.00002439,0.00001277,0.00000874,0.00001590,
 -0.00000455,0.00000154,-0.00605832,0.01514406,-0.01984202,0.05376290,-
 0.12978387,0.23470514,0.00365234,0.00183932,-0.00000159,-0.00029696,-0
 .00302041,0.00000071,0.00058425,-0.00031411,-0.00000019,-0.00071149,0.
 00047810,0.00000026,-0.01931332,0.00555457,0.00000599,0.00008197,0.000
 01976,0.00000011,-0.00013703,-0.00030504,-0.00000010,0.00002964,-0.000
 06839,-0.00000006,-0.31333389,0.05679128,0.00009785,0.00003263,-0.0000
 0378,-0.00000005,-0.00009253,0.00000170,0.00000006,0.00018425,-0.00007
 676,-0.00000026,0.00000308,-0.00006003,0.00000003,-0.00003327,0.000007
 98,0.00000002,-0.00009579,0.00000469,0.,-0.00370000,-0.00002601,-0.000
 76602,-0.00371721,-0.00002325,0.00076998,0.33684526,0.00238703,0.00273
 546,-0.00000107,-0.00139177,-0.00540453,0.00000010,0.00053613,-0.00110
 858,-0.00000054,-0.00137710,0.00055371,0.00000015,-0.03301159,0.006283
 80,0.00001207,0.00007052,0.00042711,0.00000011,-0.00016188,-0.00039378
 ,-0.00000010,0.00009344,-0.00008577,-0.00000005,0.06239897,-0.05881033
 ,-0.00002106,0.00001340,0.00004965,0.,-0.00000732,0.00000134,0.0000000
 1,0.00021014,0.00055701,0.00000014,0.00000956,0.00000471,0.00000003,-0
 .00003768,-0.00000295,0.,-0.00013920,0.00000434,0.00000003,0.01560326,
 -0.00359564,0.00215607,0.01560319,-0.00359549,-0.00216821,-0.06080007,
 0.06238340,-0.00000156,0.00000016,-0.00098375,0.00000007,0.00000040,0.
 00153663,-0.00000039,-0.00000004,0.00020972,0.00000036,-0.00000015,0.0
 0026458,0.00000421,-0.00000308,-0.00141691,0.00000015,0.00000006,0.000
 18254,-0.00000006,0.00000019,-0.00014717,-0.00000005,-0.00000009,-0.00
 003195,0.00009785,-0.00001889,-0.04651292,0.,0.,-0.00002381,0.00000002
 ,0.,0.00000251,-0.00000024,0.00000015,-0.00043048,0.,0.,0.00008037,0.0
 0000001,0.,0.00001447,0.00000002,0.,-0.00003958,0.02543249,-0.00397460
 ,0.00127960,-0.02542616,0.00397357,0.00129826,-0.00010671,0.00002232,0
 .04471662,0.00024413,-0.00013504,-0.00000006,0.00036137,0.00004456,0.0
 0000010,-0.00004995,-0.00004361,0.00000007,-0.00004985,0.00003365,0.00
 000010,-0.00049726,0.00004145,0.00000003,0.00014273,-0.00006446,0.0000
 0004,0.00011321,0.00007340,0.00000010,0.00010927,0.00005412,-0.0000015
 3,0.00005839,0.00003686,-0.00000001,0.00783492,-0.00004860,-0.00000808
 ,-0.42238978,0.00436459,-0.00011634,0.00001979,0.00001646,0.,0.0000097
 8,-0.00000102,0.,-0.00002313,-0.00004733,-0.00000006,-0.00002267,0.000
 04640,-0.00000004,-0.00000551,-0.00000269,-0.00000724,-0.00000552,-0.0
 0000270,0.00000725,0.00001806,0.00000098,0.,0.41413201,0.00000044,-0.0
 0004610,0.,-0.00000072,0.00003757,-0.00000008,0.00005969,0.00018239,0.
 00000050,-0.00006671,0.00019914,-0.00000021,0.00000170,0.00003203,0.,0
 .00103059,-0.00020988,-0.00000064,-0.00102658,-0.00020057,0.00000063,0
 .00005982,0.00591812,0.00000012,-0.00000632,-0.00000948,0.00000001,-0.
 00003667,0.00364955,0.00000015,0.00434928,-0.02567273,0.00000038,0.000
 05404,-0.00000823,-0.00000001,-0.00004813,-0.00001346,0.00000001,-0.00
 001212,-0.00004536,-0.00000014,0.00001431,-0.00004742,0.00000002,-0.00
 000303,0.00000117,-0.00000572,-0.00000303,0.00000117,0.00000571,0.0000
 0045,-0.00000347,0.,-0.00436701,0.01623556,-0.00000036,0.00000020,-0.0
 0001929,-0.00000062,-0.00000011,0.00008227,-0.00000006,0.00000050,-0.0
 0040483,-0.00000003,-0.00000022,-0.00035237,0.00000081,-0.00000006,0.0
 0004266,0.00000047,0.00000043,-0.00013800,-0.00000002,-0.00000046,-0.0
 0017824,-0.00000070,0.00000010,0.00518985,-0.00000008,-0.00000006,0.00
 000755,0.00002461,-0.00000025,0.00401521,-0.00014965,0.00000078,-0.023
 33988,0.00000001,-0.00000004,0.00001372,0.,0.,0.00001741,-0.00000003,-
 0.00000008,0.00020758,-0.00000002,-0.00000003,0.00020338,-0.00000189,0
 .00000118,0.00000130,0.00000190,-0.00000116,0.00000128,-0.00000002,0.,
 0.00000127,0.00012568,-0.00000073,0.01464913\\-0.00003937,0.00005638,-
 0.00000604,0.00000607,-0.00002673,-0.00000624,0.00000964,0.00001182,0.
 00000055,0.00002743,0.00000377,0.00000017,0.00000196,-0.00003640,0.000
 01970,-0.00000664,-0.00000471,0.00000002,-0.00001209,0.00001225,-0.000
 00021,0.00001524,-0.00001317,-0.00000594,0.00001125,-0.00000676,-0.000
 00835,-0.00003117,0.00003355,-0.00000064,0.00001866,-0.00003753,0.0000
 2053,-0.00001420,-0.00000645,-0.00000011,-0.00000309,0.00000247,0.0000
 0004,-0.00000332,-0.00000044,-0.00000013,0.00000072,0.00000020,-0.0000
 0029,0.00000317,-0.00000889,0.00000219,0.00000452,-0.00000593,-0.00000
 134,0.00000110,0.00000903,-0.00000002,0.00001013,0.00001752,-0.0000138
 7\\\@


 WHEN A MATHEMATICIAN ENGAGED IN INVESTIGATING
 PHYSICAL ACTIONS AND RESULTS HAS ARRIVED AT HIS
 CONCLUSIONS, MAY THEY NOT BE EXPRESSED IN COMMON
 LANGUAGE AS FULLY, CLEARLY, AND DEFINITELY AS IN
 MATHEMATICAL FORMULAE?
           - LETTER FROM M. FARADAY TO J.C. MAXWELL, 1857.
 Job cpu time:       0 days  2 hours 15 minutes  5.5 seconds.
 Elapsed time:       0 days  0 hours  8 minutes 32.4 seconds.
 File lengths (MBytes):  RWF=    157 Int=      0 D2E=      0 Chk=      8 Scr=      1
 Normal termination of Gaussian 16 at Tue Sep 30 21:05:23 2025.
