 Entering Gaussian System, Link 0=g16
 Input=APHE0003.gjf
 Output=APHE0003.log
 Initial command:
 /usr/local/g16/l1.exe "/dados_01/scratch/Gau-2343372.inp" -scrdir="/dados_01/scratch/"
 Entering Link 1 = /usr/local/g16/l1.exe PID=   2343373.
  
 Copyright (c) 1988-2017, Gaussian, Inc.  All Rights Reserved.
  
 This is part of the Gaussian(R) 16 program.  It is based on
 the Gaussian(R) 09 system (copyright 2009, Gaussian, Inc.),
 the Gaussian(R) 03 system (copyright 2003, Gaussian, Inc.),
 the Gaussian(R) 98 system (copyright 1998, Gaussian, Inc.),
 the Gaussian(R) 94 system (copyright 1995, Gaussian, Inc.),
 the Gaussian 92(TM) system (copyright 1992, Gaussian, Inc.),
 the Gaussian 90(TM) system (copyright 1990, Gaussian, Inc.),
 the Gaussian 88(TM) system (copyright 1988, Gaussian, Inc.),
 the Gaussian 86(TM) system (copyright 1986, Carnegie Mellon
 University), and the Gaussian 82(TM) system (copyright 1983,
 Carnegie Mellon University). Gaussian is a federally registered
 trademark of Gaussian, Inc.
  
 This software contains proprietary and confidential information,
 including trade secrets, belonging to Gaussian, Inc.
  
 This software is provided under written license and may be
 used, copied, transmitted, or stored only in accord with that
 written license.
  
 The following legend is applicable only to US Government
 contracts under FAR:
  
                    RESTRICTED RIGHTS LEGEND
  
 Use, reproduction and disclosure by the US Government is
 subject to restrictions as set forth in subparagraphs (a)
 and (c) of the Commercial Computer Software - Restricted
 Rights clause in FAR 52.227-19.
  
 Gaussian, Inc.
 340 Quinnipiac St., Bldg. 40, Wallingford CT 06492
  
  
 ---------------------------------------------------------------
 Warning -- This program may not be used in any manner that
 competes with the business of Gaussian, Inc. or will provide
 assistance to any competitor of Gaussian, Inc.  The licensee
 of this program is prohibited from giving any competitor of
 Gaussian, Inc. access to this program.  By using this program,
 the user acknowledges that Gaussian, Inc. is engaged in the
 business of creating and licensing software in the field of
 computational chemistry and represents and warrants to the
 licensee that it is not a competitor of Gaussian, Inc. and that
 it will not use this program in any manner prohibited above.
 ---------------------------------------------------------------
  

 Cite this work as:
 Gaussian 16, Revision B.01,
 M. J. Frisch, G. W. Trucks, H. B. Schlegel, G. E. Scuseria, 
 M. A. Robb, J. R. Cheeseman, G. Scalmani, V. Barone, 
 G. A. Petersson, H. Nakatsuji, X. Li, M. Caricato, A. V. Marenich, 
 J. Bloino, B. G. Janesko, R. Gomperts, B. Mennucci, H. P. Hratchian, 
 J. V. Ortiz, A. F. Izmaylov, J. L. Sonnenberg, D. Williams-Young, 
 F. Ding, F. Lipparini, F. Egidi, J. Goings, B. Peng, A. Petrone, 
 T. Henderson, D. Ranasinghe, V. G. Zakrzewski, J. Gao, N. Rega, 
 G. Zheng, W. Liang, M. Hada, M. Ehara, K. Toyota, R. Fukuda, 
 J. Hasegawa, M. Ishida, T. Nakajima, Y. Honda, O. Kitao, H. Nakai, 
 T. Vreven, K. Throssell, J. A. Montgomery, Jr., J. E. Peralta, 
 F. Ogliaro, M. J. Bearpark, J. J. Heyd, E. N. Brothers, K. N. Kudin, 
 V. N. Staroverov, T. A. Keith, R. Kobayashi, J. Normand, 
 K. Raghavachari, A. P. Rendell, J. C. Burant, S. S. Iyengar, 
 J. Tomasi, M. Cossi, J. M. Millam, M. Klene, C. Adamo, R. Cammi, 
 J. W. Ochterski, R. L. Martin, K. Morokuma, O. Farkas, 
 J. B. Foresman, and D. J. Fox, Gaussian, Inc., Wallingford CT, 2016.
 
 ******************************************
 Gaussian 16:  ES64L-G16RevB.01 20-Dec-2017
                30-Sep-2025 
 ******************************************
 %nprocs=16
 Will use up to   16 processors via shared memory.
 %mem=40GB
 %chk=APHE0003.chk
 ----------------------------------------------------------------------
 # opt freq=noraman M08HX/6-311++G** scf=xqc Empiricaldispersion=pfd In
 t(Grid=ultraFine)
 ----------------------------------------------------------------------
 1/18=20,19=15,26=4,38=1/1,3;
 2/9=110,12=2,17=6,18=5,40=1/2;
 3/5=4,6=6,7=1111,11=2,25=1,30=1,71=1,74=-74,75=-5,124=11/1,2,3;
 4//1;
 5/5=2,8=3,13=1,38=5/2,8;
 6/7=2,8=2,9=2,10=2,28=1/1;
 7//1,2,3,16;
 1/18=20,19=15,26=4/3(2);
 2/9=110/2;
 99//99;
 2/9=110/2;
 3/5=4,6=6,7=1111,11=2,25=1,30=1,71=1,74=-74,75=-5,124=11/1,2,3;
 4/5=5,16=3,69=1/1;
 5/5=2,8=3,13=1,38=5/2,8;
 7//1,2,3,16;
 1/18=20,19=15,26=4/3(-5);
 2/9=110/2;
 6/7=2,8=2,9=2,10=2,19=2,28=1/1;
 99/9=1/99;
 --------
 APHE0003
 --------
 Symbolic Z-matrix:
 Charge =  0 Multiplicity = 1
 O                     2.3824   -1.1634    0.0004 
 C                     0.2856   -0.044    -0.0003 
 C                    -0.3633    1.1908   -0.0001 
 C                    -0.4592   -1.2233   -0.0002 
 C                     1.7385   -0.1016   -0.0003 
 C                    -1.7571    1.2462    0.0002 
 C                    -1.853    -1.1679    0. 
 C                    -2.502     0.0668    0.0002 
 C                     2.5282    1.1963    0.0001 
 H                     0.173     2.1344   -0.0001 
 H                     0.0253   -2.1961   -0.0003 
 H                    -2.2631    2.2073    0.0003 
 H                    -2.4332   -2.086     0.0001 
 H                    -3.5872    0.11      0.0004 
 H                     2.313     1.7744   -0.9025 
 H                     3.5985    0.965    -0.0003 
 H                     2.3133    1.7735    0.9032 
 

 GradGradGradGradGradGradGradGradGradGradGradGradGradGradGradGradGradGrad
 Berny optimization.
 Initialization pass.
                           ----------------------------
                           !    Initial Parameters    !
                           ! (Angstroms and Degrees)  !
 --------------------------                            --------------------------
 ! Name  Definition              Value          Derivative Info.                !
 --------------------------------------------------------------------------------
 ! R1    R(1,5)                  1.2418         estimate D2E/DX2                !
 ! R2    R(2,3)                  1.3949         estimate D2E/DX2                !
 ! R3    R(2,4)                  1.3948         estimate D2E/DX2                !
 ! R4    R(2,5)                  1.454          estimate D2E/DX2                !
 ! R5    R(3,6)                  1.3949         estimate D2E/DX2                !
 ! R6    R(3,10)                 1.0854         estimate D2E/DX2                !
 ! R7    R(4,7)                  1.3949         estimate D2E/DX2                !
 ! R8    R(4,11)                 1.0868         estimate D2E/DX2                !
 ! R9    R(5,9)                  1.5193         estimate D2E/DX2                !
 ! R10   R(6,8)                  1.3949         estimate D2E/DX2                !
 ! R11   R(6,12)                 1.0862         estimate D2E/DX2                !
 ! R12   R(7,8)                  1.3949         estimate D2E/DX2                !
 ! R13   R(7,13)                 1.0861         estimate D2E/DX2                !
 ! R14   R(8,14)                 1.0861         estimate D2E/DX2                !
 ! R15   R(9,15)                 1.0933         estimate D2E/DX2                !
 ! R16   R(9,16)                 1.095          estimate D2E/DX2                !
 ! R17   R(9,17)                 1.0931         estimate D2E/DX2                !
 ! A1    A(3,2,4)              120.0027         estimate D2E/DX2                !
 ! A2    A(3,2,5)              119.9927         estimate D2E/DX2                !
 ! A3    A(4,2,5)              120.0046         estimate D2E/DX2                !
 ! A4    A(2,3,6)              119.9985         estimate D2E/DX2                !
 ! A5    A(2,3,10)             122.6657         estimate D2E/DX2                !
 ! A6    A(6,3,10)             117.3358         estimate D2E/DX2                !
 ! A7    A(2,4,7)              119.9988         estimate D2E/DX2                !
 ! A8    A(2,4,11)             121.2496         estimate D2E/DX2                !
 ! A9    A(7,4,11)             118.7516         estimate D2E/DX2                !
 ! A10   A(1,5,2)              123.5039         estimate D2E/DX2                !
 ! A11   A(1,5,9)              117.4482         estimate D2E/DX2                !
 ! A12   A(2,5,9)              119.0479         estimate D2E/DX2                !
 ! A13   A(3,6,8)              120.0            estimate D2E/DX2                !
 ! A14   A(3,6,12)             120.0421         estimate D2E/DX2                !
 ! A15   A(8,6,12)             119.9579         estimate D2E/DX2                !
 ! A16   A(4,7,8)              120.0041         estimate D2E/DX2                !
 ! A17   A(4,7,13)             120.015          estimate D2E/DX2                !
 ! A18   A(8,7,13)             119.9809         estimate D2E/DX2                !
 ! A19   A(6,8,7)              119.9959         estimate D2E/DX2                !
 ! A20   A(6,8,14)             119.9965         estimate D2E/DX2                !
 ! A21   A(7,8,14)             120.0076         estimate D2E/DX2                !
 ! A22   A(5,9,15)             110.4388         estimate D2E/DX2                !
 ! A23   A(5,9,16)             109.1237         estimate D2E/DX2                !
 ! A24   A(5,9,17)             110.4335         estimate D2E/DX2                !
 ! A25   A(15,9,16)            107.6859         estimate D2E/DX2                !
 ! A26   A(15,9,17)            111.3568         estimate D2E/DX2                !
 ! A27   A(16,9,17)            107.6976         estimate D2E/DX2                !
 ! D1    D(4,2,3,6)              0.0            estimate D2E/DX2                !
 ! D2    D(4,2,3,10)           179.9958         estimate D2E/DX2                !
 ! D3    D(5,2,3,6)           -179.9858         estimate D2E/DX2                !
 ! D4    D(5,2,3,10)             0.01           estimate D2E/DX2                !
 ! D5    D(3,2,4,7)              0.0047         estimate D2E/DX2                !
 ! D6    D(3,2,4,11)          -179.9968         estimate D2E/DX2                !
 ! D7    D(5,2,4,7)            179.9905         estimate D2E/DX2                !
 ! D8    D(5,2,4,11)            -0.011          estimate D2E/DX2                !
 ! D9    D(3,2,5,1)            179.9518         estimate D2E/DX2                !
 ! D10   D(3,2,5,9)              0.0078         estimate D2E/DX2                !
 ! D11   D(4,2,5,1)             -0.034          estimate D2E/DX2                !
 ! D12   D(4,2,5,9)           -179.978          estimate D2E/DX2                !
 ! D13   D(2,3,6,8)             -0.0047         estimate D2E/DX2                !
 ! D14   D(2,3,6,12)          -179.9966         estimate D2E/DX2                !
 ! D15   D(10,3,6,8)           179.9993         estimate D2E/DX2                !
 ! D16   D(10,3,6,12)            0.0074         estimate D2E/DX2                !
 ! D17   D(2,4,7,8)             -0.0047         estimate D2E/DX2                !
 ! D18   D(2,4,7,13)          -179.9987         estimate D2E/DX2                !
 ! D19   D(11,4,7,8)           179.9968         estimate D2E/DX2                !
 ! D20   D(11,4,7,13)            0.0029         estimate D2E/DX2                !
 ! D21   D(1,5,9,15)           118.2596         estimate D2E/DX2                !
 ! D22   D(1,5,9,16)             0.0716         estimate D2E/DX2                !
 ! D23   D(1,5,9,17)          -118.1275         estimate D2E/DX2                !
 ! D24   D(2,5,9,15)           -61.793          estimate D2E/DX2                !
 ! D25   D(2,5,9,16)          -179.981          estimate D2E/DX2                !
 ! D26   D(2,5,9,17)            61.8199         estimate D2E/DX2                !
 ! D27   D(3,6,8,7)              0.0047         estimate D2E/DX2                !
 ! D28   D(3,6,8,14)          -179.998          estimate D2E/DX2                !
 ! D29   D(12,6,8,7)           179.9966         estimate D2E/DX2                !
 ! D30   D(12,6,8,14)           -0.0061         estimate D2E/DX2                !
 ! D31   D(4,7,8,6)              0.0            estimate D2E/DX2                !
 ! D32   D(4,7,8,14)          -179.9973         estimate D2E/DX2                !
 ! D33   D(13,7,8,6)           179.9939         estimate D2E/DX2                !
 ! D34   D(13,7,8,14)           -0.0034         estimate D2E/DX2                !
 --------------------------------------------------------------------------------
 Trust Radius=3.00D-01 FncErr=1.00D-07 GrdErr=1.00D-06 EigMax=2.50D+02 EigMin=1.00D-04
 Number of steps in this run=     88 maximum allowed number of steps=    102.
 GradGradGradGradGradGradGradGradGradGradGradGradGradGradGradGradGradGrad

                          Input orientation:                          
 ---------------------------------------------------------------------
 Center     Atomic      Atomic             Coordinates (Angstroms)
 Number     Number       Type             X           Y           Z
 ---------------------------------------------------------------------
      1          8           0        2.382400   -1.163400    0.000400
      2          6           0        0.285600   -0.044000   -0.000300
      3          6           0       -0.363300    1.190800   -0.000100
      4          6           0       -0.459200   -1.223300   -0.000200
      5          6           0        1.738500   -0.101600   -0.000300
      6          6           0       -1.757100    1.246200    0.000200
      7          6           0       -1.853000   -1.167900    0.000000
      8          6           0       -2.502000    0.066800    0.000200
      9          6           0        2.528200    1.196300    0.000100
     10          1           0        0.173000    2.134400   -0.000100
     11          1           0        0.025300   -2.196100   -0.000300
     12          1           0       -2.263100    2.207300    0.000300
     13          1           0       -2.433200   -2.086000    0.000100
     14          1           0       -3.587200    0.110000    0.000400
     15          1           0        2.313000    1.774400   -0.902500
     16          1           0        3.598500    0.965000   -0.000300
     17          1           0        2.313300    1.773500    0.903200
 ---------------------------------------------------------------------
                    Distance matrix (angstroms):
                    1          2          3          4          5
     1  O    0.000000
     2  C    2.376894   0.000000
     3  C    3.616784   1.394920   0.000000
     4  C    2.842231   1.394803   2.416004   0.000000
     5  C    1.241784   1.454041   2.467359   2.467407   0.000000
     6  C    4.789742   2.416038   1.394901   2.789798   3.746436
     7  C    4.235402   2.415939   2.789744   1.394901   3.746447
     8  C    5.036939   2.789801   2.416074   2.416069   4.243842
     9  C    2.364200   2.562733   2.891505   3.844349   1.519266
    10  H    3.969500   2.181308   1.085356   3.416698   2.729558
    11  H    2.573401   2.167785   3.409120   1.086775   2.705917
    12  H    5.739537   3.400621   2.154649   3.875961   4.619937
    13  H    4.903182   3.400241   3.875810   2.154281   4.619624
    14  H    6.103906   3.875861   3.400244   3.400305   5.329902
    15  H    3.074201   2.868953   2.884007   4.181560   2.159489
    16  H    2.451323   3.463147   3.968229   4.610161   2.144116
    17  H    3.073305   2.869004   2.884385   4.181351   2.159330
                    6          7          8          9         10
     6  C    0.000000
     7  C    2.416004   0.000000
     8  C    1.394941   1.394878   0.000000
     9  C    4.285591   4.978389   5.155452   0.000000
    10  H    2.124661   3.874256   3.380916   2.535153   0.000000
    11  H    3.876387   2.141309   3.392339   4.215790   4.333018
    12  H    1.086163   3.400023   2.153790   4.896803   2.437191
    13  H    3.400098   1.086066   2.153899   5.948864   4.960247
    14  H    2.154116   2.154177   1.086060   6.211132   4.270515
    15  H    4.202330   5.179497   5.187966   1.093251   2.350218
    16  H    5.362977   5.853897   6.166268   1.095008   3.619606
    17  H    4.202572   5.179349   5.188000   1.093129   2.350975
                   11         12         13         14         15
    11  H    0.000000
    12  H    4.962530   0.000000
    13  H    2.460964   4.296668   0.000000
    14  H    4.285820   2.480304   2.480752   0.000000
    15  H    4.670375   4.684351   6.184156   6.196597   0.000000
    16  H    4.770777   5.991800   6.759438   7.236388   1.766806
    17  H    4.670009   4.684746   6.183898   6.196627   1.805700
                   16         17
    16  H    0.000000
    17  H    1.766840   0.000000
 Stoichiometry    C8H8O
 Framework group  C1[X(C8H8O)]
 Deg. of freedom    45
 Full point group                 C1      NOp   1
 Largest Abelian subgroup         C1      NOp   1
 Largest concise Abelian subgroup C1      NOp   1
                         Standard orientation:                         
 ---------------------------------------------------------------------
 Center     Atomic      Atomic             Coordinates (Angstroms)
 Number     Number       Type             X           Y           Z
 ---------------------------------------------------------------------
      1          8           0        2.255755   -1.291732    0.000375
      2          6           0        0.205550   -0.089116   -0.000325
      3          6           0       -0.393292    1.170722   -0.000125
      4          6           0       -0.585960   -1.237588   -0.000225
      5          6           0        1.654969   -0.204955   -0.000325
      6          6           0       -1.783747    1.281992    0.000175
      7          6           0       -1.976416   -1.126318   -0.000025
      8          6           0       -2.575361    0.133424    0.000175
      9          6           0        2.496101    1.060220    0.000075
     10          1           0        0.180431    2.092047   -0.000125
     11          1           0       -0.140876   -2.229041   -0.000325
     12          1           0       -2.250784    2.262617    0.000275
     13          1           0       -2.592980   -2.020403    0.000075
     14          1           0       -3.657955    0.220124    0.000375
     15          1           0        2.304266    1.646487   -0.902525
     16          1           0        3.556261    0.786169   -0.000325
     17          1           0        2.304530    1.645576    0.903175
 ---------------------------------------------------------------------
 Rotational constants (GHZ):           3.6974347           1.2294802           0.9282402
 Standard basis: 6-311++G(d,p) (5D, 7F)
 There are   263 symmetry adapted cartesian basis functions of A   symmetry.
 There are   254 symmetry adapted basis functions of A   symmetry.
   254 basis functions,   396 primitive gaussians,   263 cartesian basis functions
    32 alpha electrons       32 beta electrons
       nuclear repulsion energy       402.1774119217 Hartrees.
 NAtoms=   17 NActive=   17 NUniq=   17 SFac= 1.00D+00 NAtFMM=   60 NAOKFM=F Big=F
 Integral buffers will be    131072 words long.
 Raffenetti 2 integral format.
 Two-electron integral symmetry is turned on.
 R6APFD:  NTU= -4 IXU= 1 FactS= 1.050
 Nuclear repulsion after empirical dispersion term =      402.1687119169 Hartrees.
 One-electron integrals computed using PRISM.
 NBasis=   254 RedAO= T EigKep=  2.94D-06  NBF=   254
 NBsUse=   253 1.00D-06 EigRej=  8.51D-07 NBFU=   253
 ExpMin= 3.60D-02 ExpMax= 8.59D+03 ExpMxC= 1.30D+03 IAcc=3 IRadAn=         5 AccDes= 0.00D+00
 Harris functional with IExCor= 1009 and IRadAn=       5 diagonalized for initial guess.
 HarFok:  IExCor= 1009 AccDes= 0.00D+00 IRadAn=         5 IDoV= 1 UseB2=F ITyADJ=14
 ICtDFT=  3500011 ScaDFX=  1.000000  1.000000  1.000000  1.000000
 FoFCou: FMM=F IPFlag=           0 FMFlag=      100000 FMFlg1=           0
         NFxFlg=           0 DoJE=T BraDBF=F KetDBF=T FulRan=T
         wScrn=  0.000000 ICntrl=       500 IOpCl=  0 I1Cent=   200000004 NGrid=           0
         NMat0=    1 NMatS0=      1 NMatT0=    0 NMatD0=    1 NMtDS0=    0 NMtDT0=    0
 Petite list used in FoFCou.
 Requested convergence on RMS density matrix=1.00D-08 within  32 cycles.
 Requested convergence on MAX density matrix=1.00D-06.
 Requested convergence on             energy=1.00D-06.
 No special actions if energy rises.
 SCF Done:  E(RM08HX) =  -384.883185115     A.U. after   14 cycles
            NFock= 14  Conv=0.75D-08     -V/T= 2.0048
 QCSCF skips out because SCF is already converged.

 **********************************************************************

            Population analysis using the SCF Density.

 **********************************************************************

 Orbital symmetries:
       Occupied  (A) (A) (A) (A) (A) (A) (A) (A) (A) (A) (A) (A)
                 (A) (A) (A) (A) (A) (A) (A) (A) (A) (A) (A) (A)
                 (A) (A) (A) (A) (A) (A) (A) (A)
       Virtual   (A) (A) (A) (A) (A) (A) (A) (A) (A) (A) (A) (A)
                 (A) (A) (A) (A) (A) (A) (A) (A) (A) (A) (A) (A)
                 (A) (A) (A) (A) (A) (A) (A) (A) (A) (A) (A) (A)
                 (A) (A) (A) (A) (A) (A) (A) (A) (A) (A) (A) (A)
                 (A) (A) (A) (A) (A) (A) (A) (A) (A) (A) (A) (A)
                 (A) (A) (A) (A) (A) (A) (A) (A) (A) (A) (A) (A)
                 (A) (A) (A) (A) (A) (A) (A) (A) (A) (A) (A) (A)
                 (A) (A) (A) (A) (A) (A) (A) (A) (A) (A) (A) (A)
                 (A) (A) (A) (A) (A) (A) (A) (A) (A) (A) (A) (A)
                 (A) (A) (A) (A) (A) (A) (A) (A) (A) (A) (A) (A)
                 (A) (A) (A) (A) (A) (A) (A) (A) (A) (A) (A) (A)
                 (A) (A) (A) (A) (A) (A) (A) (A) (A) (A) (A) (A)
                 (A) (A) (A) (A) (A) (A) (A) (A) (A) (A) (A) (A)
                 (A) (A) (A) (A) (A) (A) (A) (A) (A) (A) (A) (A)
                 (A) (A) (A) (A) (A) (A) (A) (A) (A) (A) (A) (A)
                 (A) (A) (A) (A) (A) (A) (A) (A) (A) (A) (A) (A)
                 (A) (A) (A) (A) (A) (A) (A) (A) (A) (A) (A) (A)
                 (A) (A) (A) (A) (A) (A) (A) (A) (A) (A) (A) (A)
                 (A) (A) (A) (A) (A)
 The electronic state is 1-A.
 Alpha  occ. eigenvalues --  -19.60014 -10.62763 -10.55862 -10.55670 -10.55633
 Alpha  occ. eigenvalues --  -10.55321 -10.55317 -10.55145 -10.53296  -1.15463
 Alpha  occ. eigenvalues --   -0.99091  -0.89450  -0.86908  -0.83566  -0.73759
 Alpha  occ. eigenvalues --   -0.70975  -0.65032  -0.59965  -0.55458  -0.54655
 Alpha  occ. eigenvalues --   -0.53014  -0.52545  -0.50867  -0.49270  -0.46332
 Alpha  occ. eigenvalues --   -0.45943  -0.43417  -0.42546  -0.42274  -0.33263
 Alpha  occ. eigenvalues --   -0.33042  -0.32646
 Alpha virt. eigenvalues --   -0.04752  -0.03155  -0.01814  -0.00928  -0.00707
 Alpha virt. eigenvalues --    0.00550   0.00581   0.01336   0.02402   0.03673
 Alpha virt. eigenvalues --    0.03863   0.04504   0.05524   0.05578   0.06095
 Alpha virt. eigenvalues --    0.07887   0.07933   0.08641   0.08735   0.10032
 Alpha virt. eigenvalues --    0.11034   0.11280   0.11631   0.12003   0.12189
 Alpha virt. eigenvalues --    0.12721   0.13006   0.13337   0.13902   0.14207
 Alpha virt. eigenvalues --    0.14962   0.15085   0.15689   0.16754   0.17564
 Alpha virt. eigenvalues --    0.19073   0.19373   0.19626   0.20447   0.20682
 Alpha virt. eigenvalues --    0.22522   0.22739   0.23344   0.23854   0.25197
 Alpha virt. eigenvalues --    0.26356   0.28347   0.28868   0.29663   0.30295
 Alpha virt. eigenvalues --    0.30928   0.31113   0.32904   0.33463   0.35011
 Alpha virt. eigenvalues --    0.36194   0.36598   0.37574   0.40427   0.42829
 Alpha virt. eigenvalues --    0.43592   0.47538   0.49035   0.51294   0.52352
 Alpha virt. eigenvalues --    0.54557   0.55386   0.56597   0.57373   0.57747
 Alpha virt. eigenvalues --    0.58468   0.60061   0.60341   0.61633   0.63626
 Alpha virt. eigenvalues --    0.64652   0.65982   0.66798   0.67872   0.68146
 Alpha virt. eigenvalues --    0.70638   0.71529   0.71875   0.73301   0.75340
 Alpha virt. eigenvalues --    0.75980   0.76428   0.78772   0.82083   0.84091
 Alpha virt. eigenvalues --    0.85950   0.86755   0.87383   0.88776   0.91909
 Alpha virt. eigenvalues --    0.92429   0.94150   0.94967   0.98432   0.98908
 Alpha virt. eigenvalues --    1.00922   1.03797   1.05820   1.06999   1.08803
 Alpha virt. eigenvalues --    1.09128   1.10816   1.12770   1.17330   1.18712
 Alpha virt. eigenvalues --    1.24340   1.24775   1.28899   1.32199   1.35513
 Alpha virt. eigenvalues --    1.46052   1.46969   1.47408   1.50934   1.53273
 Alpha virt. eigenvalues --    1.53870   1.54050   1.56866   1.58125   1.58623
 Alpha virt. eigenvalues --    1.59526   1.60734   1.65207   1.65731   1.68406
 Alpha virt. eigenvalues --    1.69646   1.72696   1.74381   1.76933   1.77353
 Alpha virt. eigenvalues --    1.79805   1.80852   1.85260   1.86538   1.89435
 Alpha virt. eigenvalues --    1.93610   1.95264   1.96684   1.96871   1.98738
 Alpha virt. eigenvalues --    1.99802   2.00422   2.03851   2.06924   2.10475
 Alpha virt. eigenvalues --    2.10925   2.14706   2.17549   2.22209   2.27340
 Alpha virt. eigenvalues --    2.34502   2.38187   2.39242   2.43796   2.45531
 Alpha virt. eigenvalues --    2.46592   2.47544   2.49693   2.50002   2.59080
 Alpha virt. eigenvalues --    2.60778   2.63089   2.63520   2.66656   2.69083
 Alpha virt. eigenvalues --    2.69579   2.71202   2.71825   2.74256   2.76438
 Alpha virt. eigenvalues --    2.78449   2.81464   2.87133   2.88700   2.91800
 Alpha virt. eigenvalues --    2.92072   2.95377   2.96208   2.98291   2.98645
 Alpha virt. eigenvalues --    3.04110   3.07630   3.15828   3.20800   3.28519
 Alpha virt. eigenvalues --    3.32878   3.41373   3.42575   3.43079   3.51579
 Alpha virt. eigenvalues --    3.54439   3.56643   3.64440   3.67645   3.81829
 Alpha virt. eigenvalues --    3.83994   3.88209   4.02055   4.06849   4.18934
 Alpha virt. eigenvalues --    4.20552   4.27696   4.47117   4.90797   5.16048
 Alpha virt. eigenvalues --    5.36707   5.84269  23.66069  23.91318  24.00134
 Alpha virt. eigenvalues --   24.01509  24.03856  24.12462  24.13740  24.22988
 Alpha virt. eigenvalues --   50.01103
          Condensed to atoms (all electrons):
               1          2          3          4          5          6
     1  O    7.995389  -0.098942  -0.298769   0.289294   0.337366  -0.046169
     2  C   -0.098942  18.164884  -1.667910  -0.448898  -8.701908  -2.111096
     3  C   -0.298769  -1.667910  15.201830  -6.446202   0.907483  -0.442526
     4  C    0.289294  -0.448898  -6.446202  13.647701  -1.888705   1.479808
     5  C    0.337366  -8.701908   0.907483  -1.888705  17.682658   0.089135
     6  C   -0.046169  -2.111096  -0.442526   1.479808   0.089135   8.265862
     7  C    0.055318  -1.278467   1.765095  -1.062971  -0.011476  -0.750448
     8  C   -0.005736   0.126715  -1.026498  -0.643047   0.645585   0.625351
     9  C   -0.013839   0.513400  -1.059447   0.093026  -2.529731  -0.734257
    10  H   -0.003603  -0.112838   0.530974  -0.062580   0.014319  -0.093262
    11  H   -0.009864   0.096164   0.016785   0.416756  -0.088204   0.053572
    12  H    0.000213   0.034287  -0.059786   0.062204  -0.046541   0.377439
    13  H    0.002097  -0.012831   0.050045  -0.085372  -0.017792  -0.009195
    14  H   -0.000157   0.052039  -0.049167  -0.003102  -0.002198  -0.055716
    15  H    0.004356   0.061587  -0.046624   0.020522   0.017283   0.002733
    16  H   -0.014256  -0.129880   0.007090   0.002192   0.068246  -0.023994
    17  H    0.004190   0.060557  -0.045349   0.019778   0.017803   0.002483
               7          8          9         10         11         12
     1  O    0.055318  -0.005736  -0.013839  -0.003603  -0.009864   0.000213
     2  C   -1.278467   0.126715   0.513400  -0.112838   0.096164   0.034287
     3  C    1.765095  -1.026498  -1.059447   0.530974   0.016785  -0.059786
     4  C   -1.062971  -0.643047   0.093026  -0.062580   0.416756   0.062204
     5  C   -0.011476   0.645585  -2.529731   0.014319  -0.088204  -0.046541
     6  C   -0.750448   0.625351  -0.734257  -0.093262   0.053572   0.377439
     7  C    7.509069  -0.234967   0.254884   0.071954  -0.134459  -0.003024
     8  C   -0.234967   6.732127  -0.220779  -0.020505  -0.018233  -0.072034
     9  C    0.254884  -0.220779   9.369975   0.007094  -0.016377   0.004258
    10  H    0.071954  -0.020505   0.007094   0.454503  -0.002084  -0.009067
    11  H   -0.134459  -0.018233  -0.016377  -0.002084   0.386485   0.001939
    12  H   -0.003024  -0.072034   0.004258  -0.009067   0.001939   0.415948
    13  H    0.439478  -0.071500   0.011626   0.002194  -0.005728   0.000306
    14  H   -0.079054   0.464036  -0.004700  -0.000069   0.000065  -0.008305
    15  H   -0.009230   0.004292   0.304632  -0.011775   0.000646   0.000725
    16  H    0.012372  -0.004890   0.416641   0.005438  -0.001648  -0.000079
    17  H   -0.009089   0.004268   0.305015  -0.011780   0.000628   0.000717
              13         14         15         16         17
     1  O    0.002097  -0.000157   0.004356  -0.014256   0.004190
     2  C   -0.012831   0.052039   0.061587  -0.129880   0.060557
     3  C    0.050045  -0.049167  -0.046624   0.007090  -0.045349
     4  C   -0.085372  -0.003102   0.020522   0.002192   0.019778
     5  C   -0.017792  -0.002198   0.017283   0.068246   0.017803
     6  C   -0.009195  -0.055716   0.002733  -0.023994   0.002483
     7  C    0.439478  -0.079054  -0.009230   0.012372  -0.009089
     8  C   -0.071500   0.464036   0.004292  -0.004890   0.004268
     9  C    0.011626  -0.004700   0.304632   0.416641   0.305015
    10  H    0.002194  -0.000069  -0.011775   0.005438  -0.011780
    11  H   -0.005728   0.000065   0.000646  -0.001648   0.000628
    12  H    0.000306  -0.008305   0.000725  -0.000079   0.000717
    13  H    0.411125  -0.008103  -0.000301   0.000167  -0.000297
    14  H   -0.008103   0.423696   0.000097  -0.000202   0.000096
    15  H   -0.000301   0.000097   0.528176  -0.017004  -0.064878
    16  H    0.000167  -0.000202  -0.017004   0.401774  -0.016852
    17  H   -0.000297   0.000096  -0.064878  -0.016852   0.527815
 Mulliken charges:
               1
     1  O   -0.196889
     2  C    1.453138
     3  C   -1.337022
     4  C    0.609594
     5  C   -0.493326
     6  C   -0.629720
     7  C   -0.534985
     8  C   -0.284185
     9  C   -0.701419
    10  H    0.241086
    11  H    0.303559
    12  H    0.300802
    13  H    0.294079
    14  H    0.270743
    15  H    0.204764
    16  H    0.294885
    17  H    0.204896
 Sum of Mulliken charges =  -0.00000
 Mulliken charges with hydrogens summed into heavy atoms:
               1
     1  O   -0.196889
     2  C    1.453138
     3  C   -1.095936
     4  C    0.913153
     5  C   -0.493326
     6  C   -0.328918
     7  C   -0.240906
     8  C   -0.013442
     9  C    0.003126
 Electronic spatial extent (au):  <R**2>=           1226.7420
 Charge=             -0.0000 electrons
 Dipole moment (field-independent basis, Debye):
    X=             -2.4157    Y=              2.6142    Z=             -0.0006  Tot=              3.5594
 Quadrupole moment (field-independent basis, Debye-Ang):
   XX=            -52.4293   YY=            -51.1450   ZZ=            -56.3552
   XY=              7.2549   XZ=             -0.0033   YZ=              0.0020
 Traceless Quadrupole moment (field-independent basis, Debye-Ang):
   XX=              0.8805   YY=              2.1648   ZZ=             -3.0454
   XY=              7.2549   XZ=             -0.0033   YZ=              0.0020
 Octapole moment (field-independent basis, Debye-Ang**2):
  XXX=            -20.2658  YYY=              1.0181  ZZZ=              0.0040  XYY=            -11.3962
  XXY=             15.6418  XXZ=             -0.0007  XZZ=              9.8405  YZZ=             -0.5921
  YYZ=             -0.0007  XYZ=              0.0032
 Hexadecapole moment (field-independent basis, Debye-Ang**3):
 XXXX=          -1108.9371 YYYY=           -413.7409 ZZZZ=            -70.6868 XXXY=             33.9698
 XXXZ=             -0.0276 YYYX=              4.6408 YYYZ=              0.0001 ZZZX=              0.0091
 ZZZY=             -0.0014 XXYY=           -271.9502 XXZZ=           -217.5711 YYZZ=            -89.4289
 XXYZ=              0.0083 YYXZ=             -0.0041 ZZXY=             -0.1368
 N-N= 4.021687119169D+02 E-N=-1.699286664640D+03  KE= 3.830291255647D+02
 R6APFD:  NTU= -4 IXU= 1 FactS= 1.050
 Calling FoFJK, ICntrl=      2127 FMM=F ISym2X=0 I1Cent= 0 IOpClX= 0 NMat=1 NMatS=1 NMatT=0.
 ***** Axes restored to original set *****
 -------------------------------------------------------------------
 Center     Atomic                   Forces (Hartrees/Bohr)
 Number     Number              X              Y              Z
 -------------------------------------------------------------------
      1        8          -0.032367764    0.031863297   -0.000065982
      2        6          -0.012824232    0.000230662   -0.000017116
      3        6          -0.013857918    0.002505102    0.000002957
      4        6          -0.012221318   -0.003958933   -0.000006652
      5        6           0.058993478   -0.033789906    0.000131399
      6        6           0.000895586   -0.003976789   -0.000013423
      7        6           0.004880484    0.002898265    0.000006666
      8        6           0.002986971    0.001251314    0.000003463
      9        6           0.004471520   -0.005119415   -0.000125520
     10        1           0.004601007   -0.000897377   -0.000002595
     11        1           0.005726334    0.001786269    0.000000330
     12        1          -0.000455735    0.001446481    0.000004946
     13        1          -0.000573234   -0.001486896   -0.000003079
     14        1          -0.001977320    0.000206231   -0.000000378
     15        1          -0.002974368    0.004863138    0.001026842
     16        1          -0.002316531   -0.002715715    0.000011308
     17        1          -0.002986959    0.004894273   -0.000953166
 -------------------------------------------------------------------
 Cartesian Forces:  Max     0.058993478 RMS     0.012098602

 GradGradGradGradGradGradGradGradGradGradGradGradGradGradGradGradGradGrad
 Berny optimization.
 FormGI is forming the generalized inverse of G from B-inverse, IUseBI=4.
 Internal  Forces:  Max     0.044029503 RMS     0.006414713
 Search for a local minimum.
 Step number   1 out of a maximum of   88
 All quantities printed in internal units (Hartrees-Bohrs-Radians)
 Mixed Optimization -- RFO/linear search
 Second derivative matrix not updated -- first step.
 ITU=  0
     Eigenvalues ---    0.00511   0.00882   0.01374   0.01916   0.02156
     Eigenvalues ---    0.02156   0.02156   0.02156   0.02156   0.02156
     Eigenvalues ---    0.02157   0.02157   0.07103   0.07462   0.16000
     Eigenvalues ---    0.16000   0.16000   0.16000   0.16000   0.16000
     Eigenvalues ---    0.16000   0.16000   0.22000   0.22000   0.23486
     Eigenvalues ---    0.25000   0.25000   0.25000   0.30437   0.34240
     Eigenvalues ---    0.34440   0.34454   0.35188   0.35260   0.35271
     Eigenvalues ---    0.35272   0.35355   0.37720   0.42131   0.42324
     Eigenvalues ---    0.46472   0.46476   0.46477   0.46487   0.86348
 RFO step:  Lambda=-6.96205682D-03 EMin= 5.11088833D-03
 Linear search not attempted -- first point.
 Iteration  1 RMS(Cart)=  0.04112266 RMS(Int)=  0.00087526
 Iteration  2 RMS(Cart)=  0.00094261 RMS(Int)=  0.00001461
 Iteration  3 RMS(Cart)=  0.00000101 RMS(Int)=  0.00001459
 Iteration  4 RMS(Cart)=  0.00000000 RMS(Int)=  0.00001459
 Variable       Old X    -DE/DX   Delta X   Delta X   Delta X     New X
                                 (Linear)    (Quad)   (Total)
    R1        2.34663  -0.04403   0.00000  -0.05058  -0.05058   2.29605
    R2        2.63602   0.00375   0.00000   0.00829   0.00829   2.64431
    R3        2.63580   0.00163   0.00000   0.00362   0.00362   2.63942
    R4        2.74774   0.02280   0.00000   0.05935   0.05935   2.80709
    R5        2.63598  -0.00166   0.00000  -0.00334  -0.00334   2.63264
    R6        2.05103   0.00149   0.00000   0.00414   0.00414   2.05517
    R7        2.63598  -0.00408   0.00000  -0.00883  -0.00883   2.62715
    R8        2.05371   0.00095   0.00000   0.00266   0.00266   2.05637
    R9        2.87100  -0.00033   0.00000  -0.00107  -0.00107   2.86993
   R10        2.63606  -0.00158   0.00000  -0.00353  -0.00353   2.63252
   R11        2.05255   0.00149   0.00000   0.00415   0.00415   2.05670
   R12        2.63594   0.00036   0.00000   0.00040   0.00040   2.63634
   R13        2.05237   0.00156   0.00000   0.00435   0.00435   2.05672
   R14        2.05236   0.00198   0.00000   0.00552   0.00552   2.05787
   R15        2.06594   0.00231   0.00000   0.00658   0.00658   2.07252
   R16        2.06926  -0.00169   0.00000  -0.00484  -0.00484   2.06442
   R17        2.06571   0.00239   0.00000   0.00679   0.00679   2.07250
    A1        2.09444  -0.00278   0.00000  -0.01003  -0.01002   2.08442
    A2        2.09427   0.00909   0.00000   0.03500   0.03499   2.12926
    A3        2.09448  -0.00632   0.00000  -0.02497  -0.02497   2.06950
    A4        2.09437   0.00078   0.00000   0.00434   0.00435   2.09872
    A5        2.14092  -0.00495   0.00000  -0.02946  -0.02946   2.11146
    A6        2.04790   0.00416   0.00000   0.02511   0.02511   2.07301
    A7        2.09437   0.00137   0.00000   0.00578   0.00578   2.10015
    A8        2.11621  -0.00677   0.00000  -0.03932  -0.03932   2.07688
    A9        2.07261   0.00540   0.00000   0.03354   0.03354   2.10615
   A10        2.15555  -0.01469   0.00000  -0.05718  -0.05718   2.09837
   A11        2.04986   0.01148   0.00000   0.04467   0.04467   2.09453
   A12        2.07778   0.00321   0.00000   0.01251   0.01251   2.09029
   A13        2.09440  -0.00010   0.00000  -0.00063  -0.00063   2.09376
   A14        2.09513  -0.00023   0.00000  -0.00134  -0.00134   2.09379
   A15        2.09366   0.00032   0.00000   0.00196   0.00197   2.09563
   A16        2.09447   0.00042   0.00000   0.00051   0.00051   2.09497
   A17        2.09466  -0.00053   0.00000  -0.00217  -0.00217   2.09249
   A18        2.09406   0.00011   0.00000   0.00166   0.00166   2.09573
   A19        2.09432   0.00031   0.00000   0.00003   0.00002   2.09434
   A20        2.09433  -0.00028   0.00000  -0.00078  -0.00078   2.09356
   A21        2.09453  -0.00002   0.00000   0.00076   0.00076   2.09529
   A22        1.92752   0.00228   0.00000   0.00963   0.00966   1.93718
   A23        1.90457  -0.00412   0.00000  -0.01682  -0.01678   1.88779
   A24        1.92743   0.00226   0.00000   0.00947   0.00950   1.93693
   A25        1.87947   0.00239   0.00000   0.02226   0.02230   1.90177
   A26        1.94354  -0.00524   0.00000  -0.04578  -0.04577   1.89777
   A27        1.87968   0.00238   0.00000   0.02211   0.02215   1.90183
    D1       -0.00000   0.00000   0.00000   0.00003   0.00003   0.00003
    D2        3.14152   0.00000   0.00000   0.00007   0.00007   3.14159
    D3       -3.14134  -0.00000   0.00000  -0.00008  -0.00008  -3.14143
    D4        0.00017  -0.00000   0.00000  -0.00004  -0.00005   0.00013
    D5        0.00008  -0.00000   0.00000  -0.00010  -0.00010  -0.00002
    D6       -3.14154  -0.00000   0.00000  -0.00004  -0.00004  -3.14158
    D7        3.14143   0.00000   0.00000   0.00002   0.00002   3.14145
    D8       -0.00019   0.00000   0.00000   0.00008   0.00008  -0.00011
    D9        3.14075   0.00002   0.00000   0.00114   0.00111  -3.14133
   D10        0.00014  -0.00002   0.00000  -0.00094  -0.00090  -0.00077
   D11       -0.00059   0.00002   0.00000   0.00102   0.00099   0.00039
   D12       -3.14121  -0.00002   0.00000  -0.00105  -0.00102   3.14096
   D13       -0.00008   0.00000   0.00000   0.00005   0.00005  -0.00003
   D14       -3.14153  -0.00000   0.00000  -0.00007  -0.00007   3.14159
   D15        3.14158   0.00000   0.00000   0.00002   0.00002  -3.14159
   D16        0.00013  -0.00000   0.00000  -0.00010  -0.00010   0.00003
   D17       -0.00008   0.00000   0.00000   0.00008   0.00008  -0.00001
   D18       -3.14157  -0.00000   0.00000  -0.00000  -0.00000  -3.14157
   D19        3.14154   0.00000   0.00000   0.00002   0.00002   3.14156
   D20        0.00005  -0.00000   0.00000  -0.00006  -0.00006  -0.00001
   D21        2.06402   0.00175   0.00000   0.02154   0.02151   2.08553
   D22        0.00125  -0.00002   0.00000  -0.00111  -0.00113   0.00012
   D23       -2.06171  -0.00177   0.00000  -0.02349  -0.02350  -2.08521
   D24       -1.07849   0.00177   0.00000   0.02344   0.02345  -1.05504
   D25       -3.14126   0.00000   0.00000   0.00079   0.00082  -3.14044
   D26        1.07896  -0.00174   0.00000  -0.02159  -0.02155   1.05741
   D27        0.00008  -0.00000   0.00000  -0.00008  -0.00008   0.00001
   D28       -3.14156  -0.00000   0.00000  -0.00003  -0.00003  -3.14159
   D29        3.14153   0.00000   0.00000   0.00004   0.00004   3.14158
   D30       -0.00011   0.00000   0.00000   0.00009   0.00009  -0.00002
   D31       -0.00000   0.00000   0.00000   0.00001   0.00001   0.00001
   D32       -3.14155  -0.00000   0.00000  -0.00004  -0.00004  -3.14158
   D33        3.14149   0.00000   0.00000   0.00009   0.00009   3.14158
   D34       -0.00006   0.00000   0.00000   0.00004   0.00004  -0.00001
         Item               Value     Threshold  Converged?
 Maximum Force            0.044030     0.000450     NO 
 RMS     Force            0.006415     0.000300     NO 
 Maximum Displacement     0.137061     0.001800     NO 
 RMS     Displacement     0.041042     0.001200     NO 
 Predicted change in Energy=-3.563201D-03
 GradGradGradGradGradGradGradGradGradGradGradGradGradGradGradGradGradGrad

                          Input orientation:                          
 ---------------------------------------------------------------------
 Center     Atomic      Atomic             Coordinates (Angstroms)
 Number     Number       Type             X           Y           Z
 ---------------------------------------------------------------------
      1          8           0        2.309871   -1.176258    0.000147
      2          6           0        0.272783   -0.014215    0.000206
      3          6           0       -0.403216    1.210976    0.000292
      4          6           0       -0.460818   -1.202768   -0.000016
      5          6           0        1.756042   -0.094806    0.000509
      6          6           0       -1.795955    1.244038    0.000197
      7          6           0       -1.850660   -1.169923   -0.000131
      8          6           0       -2.520175    0.054015   -0.000018
      9          6           0        2.580398    1.180691   -0.000082
     10          1           0        0.142768    2.151540    0.000466
     11          1           0        0.072044   -2.151557   -0.000069
     12          1           0       -2.317037    2.199546    0.000271
     13          1           0       -2.415185   -2.100436   -0.000285
     14          1           0       -3.608841    0.080085   -0.000097
     15          1           0        2.369685    1.784269   -0.891212
     16          1           0        3.637026    0.903250   -0.000931
     17          1           0        2.370972    1.783953    0.891551
 ---------------------------------------------------------------------
                    Distance matrix (angstroms):
                    1          2          3          4          5
     1  O    0.000000
     2  C    2.345223   0.000000
     3  C    3.613824   1.399309   0.000000
     4  C    2.770816   1.396721   2.414431   0.000000
     5  C    1.215016   1.485447   2.523382   2.478316   0.000000
     6  C    4.766092   2.421338   1.393132   2.787374   3.795943
     7  C    4.160536   2.417575   2.786355   1.390230   3.763532
     8  C    4.984267   2.793791   2.412483   2.412562   4.278806
     9  C    2.372424   2.598632   2.983767   3.863919   1.518702
    10  H    3.971218   2.169654   1.087548   3.408181   2.765632
    11  H    2.441122   2.146748   3.395953   1.088183   2.658209
    12  H    5.727506   3.407038   2.154062   3.875731   4.674828
    13  H    4.814588   3.402571   3.874722   2.150664   4.628356
    14  H    6.050582   3.882769   3.399257   3.399376   5.367733
    15  H    3.092380   2.902787   2.968573   4.210507   2.168559
    16  H    2.466920   3.487102   4.051944   4.607346   2.129371
    17  H    3.092117   2.903499   2.969640   4.211227   2.168371
                    6          7          8          9         10
     6  C    0.000000
     7  C    2.414581   0.000000
     8  C    1.393071   1.395090   0.000000
     9  C    4.376811   5.015941   5.223528   0.000000
    10  H    2.140610   3.873742   3.389820   2.623849   0.000000
    11  H    3.875498   2.158795   3.403549   4.170818   4.303678
    12  H    1.088358   3.401593   2.155126   5.002293   2.460274
    13  H    3.401316   1.088367   2.157008   5.976758   4.962099
    14  H    2.154378   2.157248   1.088978   6.286335   4.285499
    15  H    4.294068   5.228058   5.262959   1.096730   2.426754
    16  H    5.443659   5.866238   6.215491   1.092446   3.710534
    17  H    4.295265   5.229022   5.264115   1.096720   2.427765
                   11         12         13         14         15
    11  H    0.000000
    12  H    4.963850   0.000000
    13  H    2.487754   4.301103   0.000000
    14  H    4.304548   2.482111   2.485857   0.000000
    15  H    4.643707   4.788795   6.227332   6.280215   0.000000
    16  H    4.694779   6.093541   6.756581   7.292475   1.781838
    17  H    4.644169   4.790045   6.228254   6.281431   1.782764
                   16         17
    16  H    0.000000
    17  H    1.781868   0.000000
 Stoichiometry    C8H8O
 Framework group  C1[X(C8H8O)]
 Deg. of freedom    45
 Full point group                 C1      NOp   1
 Largest Abelian subgroup         C1      NOp   1
 Largest concise Abelian subgroup C1      NOp   1
                         Standard orientation:                         
 ---------------------------------------------------------------------
 Center     Atomic      Atomic             Coordinates (Angstroms)
 Number     Number       Type             X           Y           Z
 ---------------------------------------------------------------------
      1          8           0        2.193116   -1.305143    0.000044
      2          6           0        0.204822   -0.061456    0.000103
      3          6           0       -0.420941    1.190138    0.000189
      4          6           0       -0.576369   -1.219285   -0.000119
      5          6           0        1.683593   -0.202124    0.000406
      6          6           0       -1.811194    1.279646    0.000094
      7          6           0       -1.963737   -1.130111   -0.000235
      8          6           0       -2.583072    0.119969   -0.000122
      9          6           0        2.558991    1.038898   -0.000185
     10          1           0        0.162732    2.107790    0.000363
     11          1           0       -0.082418   -2.188900   -0.000172
     12          1           0       -2.293103    2.255498    0.000167
     13          1           0       -2.565528   -2.036968   -0.000388
     14          1           0       -3.669786    0.190160   -0.000201
     15          1           0        2.372926    1.650523   -0.891315
     16          1           0        3.603500    0.718841   -0.001034
     17          1           0        2.374199    1.650156    0.891448
 ---------------------------------------------------------------------
 Rotational constants (GHZ):           3.7037203           1.2212843           0.9238123
 Standard basis: 6-311++G(d,p) (5D, 7F)
 There are   263 symmetry adapted cartesian basis functions of A   symmetry.
 There are   254 symmetry adapted basis functions of A   symmetry.
   254 basis functions,   396 primitive gaussians,   263 cartesian basis functions
    32 alpha electrons       32 beta electrons
       nuclear repulsion energy       401.8280105131 Hartrees.
 NAtoms=   17 NActive=   17 NUniq=   17 SFac= 1.00D+00 NAtFMM=   60 NAOKFM=F Big=F
 Integral buffers will be    131072 words long.
 Raffenetti 2 integral format.
 Two-electron integral symmetry is turned on.
 R6APFD:  NTU= -4 IXU= 1 FactS= 1.050
 Nuclear repulsion after empirical dispersion term =      401.8193153415 Hartrees.
 One-electron integrals computed using PRISM.
 NBasis=   254 RedAO= T EigKep=  3.33D-06  NBF=   254
 NBsUse=   253 1.00D-06 EigRej=  8.67D-07 NBFU=   253
 Initial guess from the checkpoint file:  "APHE0003.chk"
 B after Tr=    -0.000000    0.000000    0.000000
         Rot=    0.999999   -0.000013    0.000009    0.001249 Ang=  -0.14 deg.
 ExpMin= 3.60D-02 ExpMax= 8.59D+03 ExpMxC= 1.30D+03 IAcc=3 IRadAn=         5 AccDes= 0.00D+00
 Harris functional with IExCor= 1009 and IRadAn=       5 diagonalized for initial guess.
 HarFok:  IExCor= 1009 AccDes= 0.00D+00 IRadAn=         5 IDoV= 1 UseB2=F ITyADJ=14
 ICtDFT=  3500011 ScaDFX=  1.000000  1.000000  1.000000  1.000000
 FoFCou: FMM=F IPFlag=           0 FMFlag=      100000 FMFlg1=           0
         NFxFlg=           0 DoJE=T BraDBF=F KetDBF=T FulRan=T
         wScrn=  0.000000 ICntrl=       500 IOpCl=  0 I1Cent=   200000004 NGrid=           0
         NMat0=    1 NMatS0=      1 NMatT0=    0 NMatD0=    1 NMtDS0=    0 NMtDT0=    0
 Petite list used in FoFCou.
 Requested convergence on RMS density matrix=1.00D-08 within  32 cycles.
 Requested convergence on MAX density matrix=1.00D-06.
 Requested convergence on             energy=1.00D-06.
 No special actions if energy rises.
 SCF Done:  E(RM08HX) =  -384.887240881     A.U. after   13 cycles
            NFock= 13  Conv=0.76D-08     -V/T= 2.0048
 QCSCF skips out because SCF is already converged.
 R6APFD:  NTU= -4 IXU= 1 FactS= 1.050
 Calling FoFJK, ICntrl=      2127 FMM=F ISym2X=0 I1Cent= 0 IOpClX= 0 NMat=1 NMatS=1 NMatT=0.
 ***** Axes restored to original set *****
 -------------------------------------------------------------------
 Center     Atomic                   Forces (Hartrees/Bohr)
 Number     Number              X              Y              Z
 -------------------------------------------------------------------
      1        8          -0.004563432    0.008063444    0.000052130
      2        6          -0.007046461    0.004815215    0.000046163
      3        6          -0.001787055   -0.001040888    0.000003686
      4        6          -0.002858038   -0.001844313    0.000001718
      5        6           0.014442571   -0.010054391   -0.000152454
      6        6           0.000259255   -0.000644638   -0.000006341
      7        6           0.001061515    0.000428553   -0.000001509
      8        6           0.000290172    0.000289718    0.000000200
      9        6          -0.000425117   -0.002284885    0.000036634
     10        1           0.002058747    0.000034380    0.000002718
     11        1           0.001395883    0.000609251    0.000000849
     12        1           0.000089340    0.000087487    0.000000533
     13        1          -0.000104509   -0.000037274   -0.000001089
     14        1           0.000052143   -0.000001246    0.000000399
     15        1          -0.001371269    0.000846950    0.000714327
     16        1          -0.000138775   -0.000141613    0.000008094
     17        1          -0.001354970    0.000874250   -0.000706057
 -------------------------------------------------------------------
 Cartesian Forces:  Max     0.014442571 RMS     0.003144983

 GradGradGradGradGradGradGradGradGradGradGradGradGradGradGradGradGradGrad
 Berny optimization.
 Using GEDIIS/GDIIS optimizer.
 FormGI is forming the generalized inverse of G from B-inverse, IUseBI=4.
 Internal  Forces:  Max     0.009257504 RMS     0.001648401
 Search for a local minimum.
 Step number   2 out of a maximum of   88
 All quantities printed in internal units (Hartrees-Bohrs-Radians)
 Mixed Optimization -- RFO/linear search
 Update second derivatives using D2CorX and points    1    2
 DE= -4.06D-03 DEPred=-3.56D-03 R= 1.14D+00
 TightC=F SS=  1.41D+00  RLast= 1.54D-01 DXNew= 5.0454D-01 4.6145D-01
 Trust test= 1.14D+00 RLast= 1.54D-01 DXMaxT set to 4.61D-01
 ITU=  1  0
 Use linear search instead of GDIIS.
     Eigenvalues ---    0.00511   0.00857   0.01374   0.01913   0.02156
     Eigenvalues ---    0.02156   0.02156   0.02156   0.02156   0.02156
     Eigenvalues ---    0.02157   0.02157   0.06799   0.07442   0.14944
     Eigenvalues ---    0.16000   0.16000   0.16000   0.16000   0.16000
     Eigenvalues ---    0.16000   0.16146   0.21987   0.22001   0.23362
     Eigenvalues ---    0.23523   0.25000   0.28961   0.30712   0.34248
     Eigenvalues ---    0.34444   0.34456   0.34811   0.35194   0.35263
     Eigenvalues ---    0.35272   0.35342   0.35590   0.42154   0.42577
     Eigenvalues ---    0.46366   0.46474   0.46484   0.46740   0.79986
 RFO step:  Lambda=-6.07174540D-04 EMin= 5.11088739D-03
 Quartic linear search produced a step of  0.18906.
 Iteration  1 RMS(Cart)=  0.01970979 RMS(Int)=  0.00021927
 Iteration  2 RMS(Cart)=  0.00032271 RMS(Int)=  0.00002506
 Iteration  3 RMS(Cart)=  0.00000008 RMS(Int)=  0.00002506
 Variable       Old X    -DE/DX   Delta X   Delta X   Delta X     New X
                                 (Linear)    (Quad)   (Total)
    R1        2.29605  -0.00926  -0.00956  -0.00745  -0.01701   2.27904
    R2        2.64431  -0.00188   0.00157  -0.00579  -0.00422   2.64009
    R3        2.63942   0.00066   0.00069   0.00129   0.00198   2.64140
    R4        2.80709   0.00672   0.01122   0.01477   0.02599   2.83308
    R5        2.63264  -0.00067  -0.00063  -0.00145  -0.00208   2.63056
    R6        2.05517   0.00106   0.00078   0.00312   0.00390   2.05907
    R7        2.62715  -0.00098  -0.00167  -0.00146  -0.00312   2.62403
    R8        2.05637   0.00015   0.00050   0.00023   0.00073   2.05710
    R9        2.86993  -0.00238  -0.00020  -0.00915  -0.00935   2.86058
   R10        2.63252  -0.00010  -0.00067   0.00013  -0.00054   2.63199
   R11        2.05670   0.00003   0.00078  -0.00033   0.00045   2.05715
   R12        2.63634   0.00029   0.00008   0.00082   0.00089   2.63723
   R13        2.05672   0.00009   0.00082  -0.00018   0.00064   2.05736
   R14        2.05787  -0.00005   0.00104  -0.00077   0.00027   2.05814
   R15        2.07252   0.00015   0.00124  -0.00020   0.00105   2.07357
   R16        2.06442  -0.00010  -0.00092   0.00018  -0.00073   2.06369
   R17        2.07250   0.00017   0.00128  -0.00016   0.00112   2.07362
    A1        2.08442   0.00074  -0.00189   0.00447   0.00258   2.08700
    A2        2.12926  -0.00111   0.00662  -0.00905  -0.00244   2.12682
    A3        2.06950   0.00037  -0.00472   0.00458  -0.00014   2.06937
    A4        2.09872  -0.00000   0.00082  -0.00089  -0.00007   2.09865
    A5        2.11146  -0.00181  -0.00557  -0.00983  -0.01540   2.09606
    A6        2.07301   0.00181   0.00475   0.01072   0.01547   2.08847
    A7        2.10015  -0.00055   0.00109  -0.00330  -0.00221   2.09795
    A8        2.07688  -0.00129  -0.00743  -0.00570  -0.01314   2.06375
    A9        2.10615   0.00183   0.00634   0.00901   0.01535   2.12149
   A10        2.09837   0.00238  -0.01081   0.01760   0.00678   2.10515
   A11        2.09453   0.00327   0.00845   0.01056   0.01900   2.11353
   A12        2.09029  -0.00565   0.00236  -0.02816  -0.02579   2.06449
   A13        2.09376  -0.00022  -0.00012  -0.00124  -0.00136   2.09240
   A14        2.09379  -0.00001  -0.00025  -0.00010  -0.00035   2.09344
   A15        2.09563   0.00023   0.00037   0.00134   0.00171   2.09734
   A16        2.09497  -0.00019   0.00010  -0.00054  -0.00044   2.09453
   A17        2.09249   0.00017  -0.00041   0.00102   0.00061   2.09309
   A18        2.09573   0.00002   0.00031  -0.00048  -0.00016   2.09556
   A19        2.09434   0.00022   0.00000   0.00150   0.00150   2.09584
   A20        2.09356  -0.00011  -0.00015  -0.00066  -0.00080   2.09275
   A21        2.09529  -0.00011   0.00014  -0.00085  -0.00070   2.09459
   A22        1.93718  -0.00041   0.00183  -0.00701  -0.00527   1.93191
   A23        1.88779   0.00042  -0.00317   0.01053   0.00735   1.89514
   A24        1.93693  -0.00036   0.00180  -0.00661  -0.00490   1.93203
   A25        1.90177   0.00076   0.00422   0.00851   0.01272   1.91449
   A26        1.89777  -0.00110  -0.00865  -0.01309  -0.02190   1.87588
   A27        1.90183   0.00074   0.00419   0.00842   0.01259   1.91443
    D1        0.00003  -0.00000   0.00001  -0.00013  -0.00012  -0.00009
    D2        3.14159  -0.00000   0.00001  -0.00007  -0.00005   3.14154
    D3       -3.14143  -0.00001  -0.00002  -0.00026  -0.00028   3.14148
    D4        0.00013  -0.00000  -0.00001  -0.00020  -0.00021  -0.00008
    D5       -0.00002   0.00000  -0.00002   0.00012   0.00010   0.00009
    D6       -3.14158   0.00000  -0.00001   0.00001   0.00001  -3.14157
    D7        3.14145   0.00000   0.00000   0.00025   0.00025  -3.14149
    D8       -0.00011   0.00000   0.00001   0.00014   0.00015   0.00004
    D9       -3.14133  -0.00002   0.00021  -0.00294  -0.00273   3.13913
   D10       -0.00077   0.00002  -0.00017   0.00273   0.00256   0.00179
   D11        0.00039  -0.00002   0.00019  -0.00307  -0.00288  -0.00248
   D12        3.14096   0.00002  -0.00019   0.00260   0.00240  -3.13982
   D13       -0.00003   0.00000   0.00001   0.00007   0.00008   0.00005
   D14        3.14159   0.00000  -0.00001   0.00005   0.00004  -3.14156
   D15       -3.14159   0.00000   0.00000   0.00001   0.00001  -3.14158
   D16        0.00003  -0.00000  -0.00002  -0.00001  -0.00003  -0.00000
   D17       -0.00001  -0.00000   0.00001  -0.00005  -0.00004  -0.00004
   D18       -3.14157  -0.00000  -0.00000  -0.00007  -0.00007   3.14154
   D19        3.14156   0.00000   0.00000   0.00006   0.00006  -3.14157
   D20       -0.00001   0.00000  -0.00001   0.00004   0.00003   0.00002
   D21        2.08553   0.00097   0.00407   0.01540   0.01941   2.10494
   D22        0.00012   0.00002  -0.00021   0.00253   0.00233   0.00245
   D23       -2.08521  -0.00094  -0.00444  -0.01044  -0.01483  -2.10004
   D24       -1.05504   0.00093   0.00443   0.00974   0.01411  -1.04093
   D25       -3.14044  -0.00002   0.00015  -0.00313  -0.00298   3.13976
   D26        1.05741  -0.00098  -0.00407  -0.01610  -0.02013   1.03728
   D27        0.00001  -0.00000  -0.00001  -0.00000  -0.00002  -0.00001
   D28       -3.14159  -0.00000  -0.00001  -0.00002  -0.00002   3.14157
   D29        3.14158   0.00000   0.00001   0.00002   0.00003  -3.14158
   D30       -0.00002   0.00000   0.00002   0.00000   0.00002   0.00000
   D31        0.00001  -0.00000   0.00000  -0.00001  -0.00001   0.00000
   D32       -3.14158   0.00000  -0.00001   0.00001   0.00000  -3.14158
   D33        3.14158   0.00000   0.00002   0.00001   0.00003  -3.14158
   D34       -0.00001   0.00000   0.00001   0.00003   0.00003   0.00002
         Item               Value     Threshold  Converged?
 Maximum Force            0.009258     0.000450     NO 
 RMS     Force            0.001648     0.000300     NO 
 Maximum Displacement     0.087640     0.001800     NO 
 RMS     Displacement     0.019837     0.001200     NO 
 Predicted change in Energy=-4.141939D-04
 GradGradGradGradGradGradGradGradGradGradGradGradGradGradGradGradGradGrad

                          Input orientation:                          
 ---------------------------------------------------------------------
 Center     Atomic      Atomic             Coordinates (Angstroms)
 Number     Number       Type             X           Y           Z
 ---------------------------------------------------------------------
      1          8           0        2.324056   -1.182014    0.000549
      2          6           0        0.274768   -0.022643   -0.000847
      3          6           0       -0.392174    1.204960   -0.000493
      4          6           0       -0.464055   -1.209191   -0.000410
      5          6           0        1.771419   -0.110072   -0.001715
      6          6           0       -1.783570    1.246963    0.000179
      7          6           0       -1.852017   -1.167860    0.000267
      8          6           0       -2.513680    0.060879    0.000565
      9          6           0        2.565279    1.178817    0.000172
     10          1           0        0.175361    2.135101   -0.000777
     11          1           0        0.077709   -2.153371   -0.000680
     12          1           0       -2.298258    2.206201    0.000422
     13          1           0       -2.422986   -2.094831    0.000559
     14          1           0       -3.602317    0.093359    0.001107
     15          1           0        2.326423    1.782560   -0.884406
     16          1           0        3.629147    0.932298    0.001122
     17          1           0        2.324595    1.781245    0.885185
 ---------------------------------------------------------------------
                    Distance matrix (angstroms):
                    1          2          3          4          5
     1  O    0.000000
     2  C    2.354511   0.000000
     3  C    3.616013   1.397076   0.000000
     4  C    2.788243   1.397768   2.415221   0.000000
     5  C    1.206015   1.499203   2.531886   2.491065   0.000000
     6  C    4.772056   2.418400   1.392030   2.788156   3.805193
     7  C    4.176096   2.415519   2.785931   1.388577   3.774679
     8  C    4.994844   2.789698   2.410333   2.411233   4.288508
     9  C    2.373123   2.586494   2.957569   3.857388   1.513755
    10  H    3.952232   2.160032   1.089614   3.404870   2.754669
    11  H    2.447368   2.139821   3.391043   1.088569   2.654001
    12  H    5.731125   3.404146   2.153054   3.876752   4.682670
    13  H    4.834009   3.401741   3.874638   2.149831   4.640292
    14  H    6.062052   3.878820   3.397157   3.397842   5.377586
    15  H    3.093840   2.872059   2.916452   4.185545   2.160839
    16  H    2.484669   3.487661   4.030555   4.619554   2.130188
    17  H    3.092488   2.870689   2.915024   4.183725   2.160944
                    6          7          8          9         10
     6  C    0.000000
     7  C    2.415793   0.000000
     8  C    1.392787   1.395563   0.000000
     9  C    4.349383   5.001939   5.200539   0.000000
    10  H    2.150860   3.875540   3.396077   2.574138   0.000000
    11  H    3.876420   2.166812   3.408548   4.158303   4.289583
    12  H    1.088596   3.403442   2.156111   4.970866   2.474641
    13  H    3.402417   1.088707   2.157617   5.966537   4.964246
    14  H    2.153751   2.157365   1.089122   6.262384   4.294132
    15  H    4.238089   5.191048   5.212864   1.097285   2.352053
    16  H    5.421856   5.869738   6.204329   1.092057   3.657236
    17  H    4.236238   5.188871   5.210673   1.097313   2.351457
                   11         12         13         14         15
    11  H    0.000000
    12  H    4.964986   0.000000
    13  H    2.501380   4.302841   0.000000
    14  H    4.311657   2.482876   2.485759   0.000000
    15  H    4.618359   4.727586   6.194692   6.227961   0.000000
    16  H    4.704686   6.062752   6.766966   7.279965   1.790026
    17  H    4.616758   4.725904   6.192419   6.225660   1.769592
                   16         17
    16  H    0.000000
    17  H    1.790010   0.000000
 Stoichiometry    C8H8O
 Framework group  C1[X(C8H8O)]
 Deg. of freedom    45
 Full point group                 C1      NOp   1
 Largest Abelian subgroup         C1      NOp   1
 Largest concise Abelian subgroup C1      NOp   1
                         Standard orientation:                         
 ---------------------------------------------------------------------
 Center     Atomic      Atomic             Coordinates (Angstroms)
 Number     Number       Type             X           Y           Z
 ---------------------------------------------------------------------
      1          8           0        2.207630   -1.301605    0.000655
      2          6           0        0.203083   -0.066488   -0.000741
      3          6           0       -0.417534    1.185173   -0.000387
      4          6           0       -0.579549   -1.224608   -0.000304
      5          6           0        1.695423   -0.209766   -0.001610
      6          6           0       -1.806390    1.279125    0.000285
      7          6           0       -1.964998   -1.131455    0.000373
      8          6           0       -2.580298    0.121143    0.000670
      9          6           0        2.536878    1.048568    0.000278
     10          1           0        0.184352    2.093463   -0.000671
     11          1           0       -0.073436   -2.188367   -0.000574
     12          1           0       -2.284885    2.256920    0.000528
     13          1           0       -2.570198   -2.036450    0.000665
     14          1           0       -3.666962    0.194268    0.001213
     15          1           0        2.320743    1.660811   -0.884300
     16          1           0        3.590795    0.762478    0.001228
     17          1           0        2.318867    1.659566    0.885291
 ---------------------------------------------------------------------
 Rotational constants (GHZ):           3.6977539           1.2237051           0.9247444
 Standard basis: 6-311++G(d,p) (5D, 7F)
 There are   263 symmetry adapted cartesian basis functions of A   symmetry.
 There are   254 symmetry adapted basis functions of A   symmetry.
   254 basis functions,   396 primitive gaussians,   263 cartesian basis functions
    32 alpha electrons       32 beta electrons
       nuclear repulsion energy       402.0334542325 Hartrees.
 NAtoms=   17 NActive=   17 NUniq=   17 SFac= 1.00D+00 NAtFMM=   60 NAOKFM=F Big=F
 Integral buffers will be    131072 words long.
 Raffenetti 2 integral format.
 Two-electron integral symmetry is turned on.
 R6APFD:  NTU= -4 IXU= 1 FactS= 1.050
 Nuclear repulsion after empirical dispersion term =      402.0247690352 Hartrees.
 One-electron integrals computed using PRISM.
 NBasis=   254 RedAO= T EigKep=  3.40D-06  NBF=   254
 NBsUse=   253 1.00D-06 EigRej=  8.62D-07 NBFU=   253
 Initial guess from the checkpoint file:  "APHE0003.chk"
 B after Tr=     0.000000   -0.000000   -0.000000
         Rot=    0.999999    0.000025   -0.000041   -0.001102 Ang=   0.13 deg.
 ExpMin= 3.60D-02 ExpMax= 8.59D+03 ExpMxC= 1.30D+03 IAcc=3 IRadAn=         5 AccDes= 0.00D+00
 Harris functional with IExCor= 1009 and IRadAn=       5 diagonalized for initial guess.
 HarFok:  IExCor= 1009 AccDes= 0.00D+00 IRadAn=         5 IDoV= 1 UseB2=F ITyADJ=14
 ICtDFT=  3500011 ScaDFX=  1.000000  1.000000  1.000000  1.000000
 FoFCou: FMM=F IPFlag=           0 FMFlag=      100000 FMFlg1=           0
         NFxFlg=           0 DoJE=T BraDBF=F KetDBF=T FulRan=T
         wScrn=  0.000000 ICntrl=       500 IOpCl=  0 I1Cent=   200000004 NGrid=           0
         NMat0=    1 NMatS0=      1 NMatT0=    0 NMatD0=    1 NMtDS0=    0 NMtDT0=    0
 Petite list used in FoFCou.
 Requested convergence on RMS density matrix=1.00D-08 within  32 cycles.
 Requested convergence on MAX density matrix=1.00D-06.
 Requested convergence on             energy=1.00D-06.
 No special actions if energy rises.
 SCF Done:  E(RM08HX) =  -384.887615066     A.U. after   12 cycles
            NFock= 12  Conv=0.85D-08     -V/T= 2.0048
 QCSCF skips out because SCF is already converged.
 R6APFD:  NTU= -4 IXU= 1 FactS= 1.050
 Calling FoFJK, ICntrl=      2127 FMM=F ISym2X=0 I1Cent= 0 IOpClX= 0 NMat=1 NMatS=1 NMatT=0.
 ***** Axes restored to original set *****
 -------------------------------------------------------------------
 Center     Atomic                   Forces (Hartrees/Bohr)
 Number     Number              X              Y              Z
 -------------------------------------------------------------------
      1        8           0.000870441   -0.002170244   -0.000197240
      2        6          -0.001799586    0.000990522   -0.000159086
      3        6           0.000951431    0.000208291   -0.000019442
      4        6           0.000854423    0.000043443   -0.000011274
      5        6          -0.000446705    0.001083686    0.000561427
      6        6          -0.000413115    0.000145970    0.000015969
      7        6          -0.000140759   -0.000359423    0.000008027
      8        6          -0.000008382    0.000166605   -0.000000871
      9        6           0.000503065    0.000129488   -0.000177204
     10        1          -0.000860182   -0.000234625   -0.000007808
     11        1          -0.000029901   -0.000148511   -0.000000172
     12        1          -0.000020974   -0.000150878    0.000001503
     13        1          -0.000089706    0.000177771    0.000001546
     14        1           0.000166234   -0.000042698   -0.000001927
     15        1           0.000204159   -0.000176662   -0.000074996
     16        1           0.000093513    0.000589511   -0.000006232
     17        1           0.000166044   -0.000252245    0.000067778
 -------------------------------------------------------------------
 Cartesian Forces:  Max     0.002170244 RMS     0.000546520

 GradGradGradGradGradGradGradGradGradGradGradGradGradGradGradGradGradGrad
 Berny optimization.
 Using GEDIIS/GDIIS optimizer.
 FormGI is forming the generalized inverse of G from B-inverse, IUseBI=4.
 Internal  Forces:  Max     0.002327171 RMS     0.000479323
 Search for a local minimum.
 Step number   3 out of a maximum of   88
 All quantities printed in internal units (Hartrees-Bohrs-Radians)
 Mixed Optimization -- En-DIIS/RFO-DIIS
 Update second derivatives using D2CorX and points    1    2    3
 DE= -3.74D-04 DEPred=-4.14D-04 R= 9.03D-01
 TightC=F SS=  1.41D+00  RLast= 7.24D-02 DXNew= 7.7606D-01 2.1719D-01
 Trust test= 9.03D-01 RLast= 7.24D-02 DXMaxT set to 4.61D-01
 ITU=  1  1  0
 Use linear search instead of GDIIS.
     Eigenvalues ---    0.00511   0.00857   0.01374   0.01914   0.02156
     Eigenvalues ---    0.02156   0.02156   0.02156   0.02156   0.02156
     Eigenvalues ---    0.02157   0.02157   0.06797   0.07360   0.15093
     Eigenvalues ---    0.16000   0.16000   0.16000   0.16000   0.16000
     Eigenvalues ---    0.16091   0.16638   0.21646   0.22012   0.22107
     Eigenvalues ---    0.23589   0.25527   0.29325   0.32146   0.33134
     Eigenvalues ---    0.34262   0.34446   0.34507   0.35197   0.35262
     Eigenvalues ---    0.35272   0.35330   0.35669   0.42179   0.42632
     Eigenvalues ---    0.46443   0.46484   0.46528   0.46840   0.85136
 RFO step:  Lambda=-4.80974346D-05 EMin= 5.11095181D-03
 Quartic linear search produced a step of -0.08451.
 Iteration  1 RMS(Cart)=  0.00666694 RMS(Int)=  0.00001974
 Iteration  2 RMS(Cart)=  0.00003632 RMS(Int)=  0.00000801
 Iteration  3 RMS(Cart)=  0.00000000 RMS(Int)=  0.00000801
 Variable       Old X    -DE/DX   Delta X   Delta X   Delta X     New X
                                 (Linear)    (Quad)   (Total)
    R1        2.27904   0.00233   0.00144   0.00039   0.00183   2.28086
    R2        2.64009   0.00021   0.00036  -0.00018   0.00018   2.64027
    R3        2.64140  -0.00012  -0.00017   0.00003  -0.00014   2.64126
    R4        2.83308   0.00143  -0.00220   0.00685   0.00465   2.83773
    R5        2.63056   0.00037   0.00018   0.00048   0.00066   2.63122
    R6        2.05907  -0.00065  -0.00033  -0.00118  -0.00151   2.05756
    R7        2.62403   0.00014   0.00026  -0.00014   0.00012   2.62415
    R8        2.05710   0.00011  -0.00006   0.00039   0.00033   2.05743
    R9        2.86058   0.00076   0.00079   0.00101   0.00180   2.86238
   R10        2.63199  -0.00014   0.00005  -0.00034  -0.00030   2.63169
   R11        2.05715  -0.00012  -0.00004  -0.00028  -0.00032   2.05683
   R12        2.63723  -0.00004  -0.00008   0.00001  -0.00006   2.63717
   R13        2.05736  -0.00010  -0.00005  -0.00021  -0.00026   2.05710
   R14        2.05814  -0.00017  -0.00002  -0.00043  -0.00045   2.05769
   R15        2.07357  -0.00008  -0.00009  -0.00010  -0.00019   2.07338
   R16        2.06369  -0.00004   0.00006  -0.00019  -0.00013   2.06356
   R17        2.07362  -0.00012  -0.00009  -0.00020  -0.00029   2.07333
    A1        2.08700   0.00012  -0.00022   0.00094   0.00072   2.08772
    A2        2.12682   0.00165   0.00021   0.00558   0.00579   2.13261
    A3        2.06937  -0.00177   0.00001  -0.00652  -0.00651   2.06285
    A4        2.09865  -0.00025   0.00001  -0.00096  -0.00095   2.09770
    A5        2.09606   0.00076   0.00130   0.00211   0.00341   2.09947
    A6        2.08847  -0.00050  -0.00131  -0.00115  -0.00246   2.08602
    A7        2.09795   0.00004   0.00019  -0.00017   0.00002   2.09796
    A8        2.06375   0.00008   0.00111  -0.00114  -0.00003   2.06372
    A9        2.12149  -0.00012  -0.00130   0.00131   0.00001   2.12151
   A10        2.10515  -0.00064  -0.00057  -0.00114  -0.00175   2.10340
   A11        2.11353  -0.00014  -0.00161   0.00195   0.00030   2.11383
   A12        2.06449   0.00077   0.00218  -0.00075   0.00139   2.06589
   A13        2.09240   0.00005   0.00012   0.00007   0.00018   2.09258
   A14        2.09344   0.00007   0.00003   0.00037   0.00040   2.09384
   A15        2.09734  -0.00012  -0.00014  -0.00044  -0.00058   2.09676
   A16        2.09453  -0.00010   0.00004  -0.00057  -0.00053   2.09400
   A17        2.09309   0.00022  -0.00005   0.00135   0.00130   2.09440
   A18        2.09556  -0.00013   0.00001  -0.00078  -0.00077   2.09479
   A19        2.09584   0.00013  -0.00013   0.00069   0.00057   2.09641
   A20        2.09275  -0.00003   0.00007  -0.00012  -0.00005   2.09270
   A21        2.09459  -0.00011   0.00006  -0.00057  -0.00051   2.09407
   A22        1.93191  -0.00011   0.00044  -0.00134  -0.00089   1.93103
   A23        1.89514   0.00085  -0.00062   0.00593   0.00531   1.90045
   A24        1.93203  -0.00025   0.00041  -0.00216  -0.00174   1.93029
   A25        1.91449  -0.00039  -0.00107  -0.00059  -0.00167   1.91282
   A26        1.87588   0.00022   0.00185  -0.00141   0.00045   1.87633
   A27        1.91443  -0.00035  -0.00106  -0.00054  -0.00161   1.91282
    D1       -0.00009   0.00001   0.00001   0.00035   0.00036   0.00027
    D2        3.14154   0.00000   0.00000   0.00019   0.00019  -3.14146
    D3        3.14148   0.00001   0.00002   0.00051   0.00053  -3.14117
    D4       -0.00008   0.00001   0.00002   0.00035   0.00037   0.00029
    D5        0.00009  -0.00001  -0.00001  -0.00029  -0.00030  -0.00021
    D6       -3.14157  -0.00000  -0.00000  -0.00005  -0.00005   3.14156
    D7       -3.14149  -0.00001  -0.00002  -0.00045  -0.00047   3.14123
    D8        0.00004  -0.00001  -0.00001  -0.00020  -0.00022  -0.00018
    D9        3.13913   0.00008   0.00023   0.00840   0.00862  -3.13544
   D10        0.00179  -0.00007  -0.00022  -0.00734  -0.00755  -0.00576
   D11       -0.00248   0.00009   0.00024   0.00856   0.00879   0.00631
   D12       -3.13982  -0.00007  -0.00020  -0.00718  -0.00738   3.13598
   D13        0.00005  -0.00001  -0.00001  -0.00023  -0.00023  -0.00018
   D14       -3.14156  -0.00000  -0.00000  -0.00015  -0.00015   3.14147
   D15       -3.14158  -0.00000  -0.00000  -0.00007  -0.00007   3.14154
   D16       -0.00000   0.00000   0.00000   0.00001   0.00001   0.00001
   D17       -0.00004   0.00000   0.00000   0.00011   0.00011   0.00007
   D18        3.14154   0.00000   0.00001   0.00014   0.00015  -3.14149
   D19       -3.14157  -0.00000  -0.00001  -0.00014  -0.00015   3.14147
   D20        0.00002  -0.00000  -0.00000  -0.00011  -0.00011  -0.00009
   D21        2.10494  -0.00009  -0.00164  -0.00535  -0.00699   2.09794
   D22        0.00245  -0.00009  -0.00020  -0.00758  -0.00778  -0.00533
   D23       -2.10004  -0.00005   0.00125  -0.00936  -0.00811  -2.10815
   D24       -1.04093   0.00006  -0.00119   0.01046   0.00927  -1.03166
   D25        3.13976   0.00007   0.00025   0.00823   0.00849  -3.13493
   D26        1.03728   0.00011   0.00170   0.00645   0.00816   1.04544
   D27       -0.00001   0.00000   0.00000   0.00004   0.00005   0.00004
   D28        3.14157   0.00000   0.00000   0.00007   0.00008  -3.14153
   D29       -3.14158  -0.00000  -0.00000  -0.00003  -0.00003   3.14157
   D30        0.00000  -0.00000  -0.00000  -0.00000  -0.00000   0.00000
   D31        0.00000   0.00000   0.00000   0.00001   0.00001   0.00002
   D32       -3.14158  -0.00000  -0.00000  -0.00002  -0.00002   3.14159
   D33       -3.14158  -0.00000  -0.00000  -0.00002  -0.00002   3.14158
   D34        0.00002  -0.00000  -0.00000  -0.00005  -0.00005  -0.00003
         Item               Value     Threshold  Converged?
 Maximum Force            0.002327     0.000450     NO 
 RMS     Force            0.000479     0.000300     NO 
 Maximum Displacement     0.025484     0.001800     NO 
 RMS     Displacement     0.006655     0.001200     NO 
 Predicted change in Energy=-2.732475D-05
 GradGradGradGradGradGradGradGradGradGradGradGradGradGradGradGradGradGrad

                          Input orientation:                          
 ---------------------------------------------------------------------
 Center     Atomic      Atomic             Coordinates (Angstroms)
 Number     Number       Type             X           Y           Z
 ---------------------------------------------------------------------
      1          8           0        2.318524   -1.185950   -0.001045
      2          6           0        0.272561   -0.016975    0.002554
      3          6           0       -0.396946    1.209340    0.002073
      4          6           0       -0.462926   -1.205505    0.000904
      5          6           0        1.771329   -0.110150    0.005001
      6          6           0       -1.788810    1.247170    0.000282
      7          6           0       -1.851061   -1.168047   -0.000948
      8          6           0       -2.515483    0.059163   -0.001250
      9          6           0        2.572304    1.175440   -0.000681
     10          1           0        0.165088    2.141882    0.003216
     11          1           0        0.081570   -2.148312    0.001292
     12          1           0       -2.306681    2.204501    0.000027
     13          1           0       -2.420577   -2.095751   -0.002136
     14          1           0       -3.603967    0.088618   -0.002707
     15          1           0        2.330559    1.777816   -0.885280
     16          1           0        3.636137    0.929108   -0.004884
     17          1           0        2.338080    1.780054    0.884382
 ---------------------------------------------------------------------
                    Distance matrix (angstroms):
                    1          2          3          4          5
     1  O    0.000000
     2  C    2.356370   0.000000
     3  C    3.620939   1.397171   0.000000
     4  C    2.781520   1.397694   2.415747   0.000000
     5  C    1.206982   1.501663   2.538204   2.488316   0.000000
     6  C    4.773916   2.418123   1.392380   2.788115   3.810109
     7  C    4.169624   2.415523   2.786832   1.388642   3.773711
     8  C    4.991786   2.789086   2.410626   2.410888   4.290159
     9  C    2.374988   2.590499   2.969444   3.857658   1.514707
    10  H    3.963808   2.161531   1.088815   3.405791   2.766164
    11  H    2.435181   2.139878   3.391579   1.088743   2.647527
    12  H    5.734778   3.404035   2.153472   3.876542   4.689115
    13  H    4.825642   3.402106   3.875401   2.150569   4.638398
    14  H    6.058087   3.877969   3.397208   3.397191   5.378975
    15  H    3.092883   2.871390   2.924012   4.181996   2.160962
    16  H    2.491904   3.494105   4.042812   4.621571   2.134868
    17  H    3.095406   2.876335   2.929940   4.188046   2.160414
                    6          7          8          9         10
     6  C    0.000000
     7  C    2.416020   0.000000
[...]
   iso        0.924683D+02      0.137024D+02      0.152460D+02
   aniso      0.579568D+02      0.858831D+01      0.955578D+01
   xx         0.908475D+02      0.134622D+02      0.149787D+02
   yx         0.274933D+02      0.407409D+01      0.453304D+01
   yy         0.771763D+02      0.114363D+02      0.127246D+02
   zx        -0.797203D+01     -0.118133D+01     -0.131441D+01
   zy        -0.624253D+01     -0.925047D+00     -0.102925D+01
   zz         0.109381D+03      0.162086D+02      0.180345D+02

 ----------------------------------------------------------------------
 1\1\GINC-PITOMBA\Freq\RM08HX\6-311++G(d,p)\C8H8O1\VALTER\30-Sep-2025\0
 \\#N Geom=AllCheck Guess=TCheck SCRF=Check GenChk RM08HX/6-311++G(d,p)
  Freq\\APHE0003\\0,1\O,2.3188784476,-1.1867231697,0.0001228487\C,0.272
 8397639,-0.0170594577,-0.0000525453\C,-0.3957775776,1.2093277247,0.000
 1425602\C,-0.4625695684,-1.2056846634,-0.0001247054\C,1.7714615762,-0.
 1106491723,-0.000177146\C,-1.7878377261,1.2472016173,0.0002495279\C,-1
 .8508249106,-1.168071774,-0.0000275312\C,-2.5148485216,0.0594109266,0.
 0001612061\C,2.5711474261,1.1754390363,-0.0000347691\H,0.1655903217,2.
 1422593944,0.0002193053\H,0.0812340037,-2.1487947083,-0.0002667139\H,-
 2.305598054,2.2045698366,0.0004042917\H,-2.4208828627,-2.0954132491,-0
 .0000972504\H,-3.6033356535,0.089163958,0.0002420217\H,2.3323765709,1.
 7782472174,-0.8851744527\H,3.6354370555,0.9311648165,-0.0000693185\H,2
 .3324097089,1.7780116666,0.8852826708\\Version=ES64L-G16RevB.01\State=
 1-A\HF=-384.8876424\RMSD=3.232e-09\RMSF=4.922e-05\ZeroPoint=0.1380329\
 Thermal=0.1458053\Dipole=-0.7643692,0.9777149,-0.0000966\DipoleDeriv=-
 1.0298859,0.2277799,0.0000236,0.4044768,-0.9602697,-0.0000068,-0.00006
 54,0.0001363,-0.3263505,-0.660463,-0.0065606,0.0000224,-0.0900044,-0.0
 856002,0.000005,0.0001118,0.0000154,-0.0179858,0.0745717,0.0948503,-0.
 0000093,-0.0541554,-0.0220831,0.0000142,0.0000558,-0.0000005,-0.107323
 4,0.0072458,-0.1302413,-0.0000248,0.0707879,0.0006141,0.0000119,0.0000
 117,0.0000014,-0.099462,1.7510684,-0.0213342,-0.0000424,-0.0981016,1.1
 221688,0.0000042,-0.000068,-0.0000465,0.1534109,-0.1285799,-0.1396708,
 -0.0000205,-0.1457392,0.0346774,0.0000347,-0.0000324,0.0000424,-0.1525
 375,-0.0762468,0.1722769,0.0000115,0.113194,0.0232966,0.0000105,-0.000
 0039,0.0000063,-0.1432207,0.0841455,-0.0032803,-0.0000155,0.0149186,0.
 0437888,0.0000172,-0.0000067,0.0000193,-0.1154554,-0.1888061,-0.187799
 5,0.0000042,-0.2141968,-0.3004706,-0.0000487,-0.0000733,-0.0001545,0.0
 477961,0.0537024,-0.0684417,-0.0000016,-0.079683,-0.0164483,-0.0000117
 ,-0.0000073,-0.0000142,0.1274693,0.1000896,0.0468832,0.0000126,0.01999
 8,0.0269285,-0.0000203,0.0000195,-0.000012,0.1364213,0.0260368,0.05596
 23,0.0000132,0.0682673,-0.0436925,-0.0000281,0.0000084,-0.0000342,0.14
 21969,0.0155704,-0.0657596,-0.0000006,-0.0737994,-0.0341255,-0.0000162
 ,-0.0000033,-0.0000154,0.1413125,-0.0803071,0.0040976,0.0000151,0.0035
 463,0.0762477,-0.0000081,0.0000204,-0.0000081,0.138376,0.0635188,0.016
 7057,-0.0678759,0.0060793,0.0352654,0.0376798,-0.0440842,0.0629239,-0.
 0103295,-0.0751689,-0.0121376,0.0000117,0.0483416,0.0644079,0.0000003,
 0.0000075,0.0000058,0.0960113,0.0635084,0.0166697,0.0678764,0.0060698,
 0.0352945,-0.0376377,0.0441095,-0.0628656,-0.0103295\Polar=121.0450221
 ,-1.00654,100.6782494,-0.0023788,0.0028955,55.6815183\Quadrupole=0.810
 6205,1.7235773,-2.5341978,5.094951,-0.0009367,0.0011307\PG=C01 [X(C8H8
 O1)]\NImag=0\\0.26460151,-0.30772818,0.70394963,0.00008379,-0.00016045
 ,0.02523014,-0.03970667,0.04289001,-0.00000563,0.63120343,0.05533573,-
 0.01080917,0.00000788,-0.00801011,0.71536065,-0.00001148,0.00000908,0.
 01965197,-0.00003488,0.00005572,0.14157509,-0.00612479,-0.00013181,-0.
 00000225,-0.17043816,0.04824579,0.00002194,0.69403286,-0.00784079,0.00
 465057,-0.00000232,0.11291639,-0.28882454,-0.00003613,0.03405879,0.716
 09808,-0.00000080,-0.00000039,0.00269400,0.00002783,-0.00003316,-0.062
 89589,-0.00004234,0.00006948,0.13799115,-0.00147030,-0.00646500,0.0000
 0150,-0.17273443,-0.05189547,0.00000279,0.07244348,-0.02976943,-0.0000
 0818,0.71259901,0.00293492,-0.00844313,0.00000176,-0.11528559,-0.27648
 629,-0.00001413,0.02316759,-0.05856542,-0.00000927,-0.03922399,0.71321
 064,-0.00000085,-0.00000209,-0.00017412,-0.00000479,-0.00001883,-0.066
 44711,-0.00000196,-0.00000479,0.00617556,-0.00004512,0.00006658,0.1414
 0480,-0.23385717,0.25451428,-0.00007286,-0.19017931,-0.01561284,0.0000
 2203,-0.01218248,0.01405915,0.00000030,-0.03039864,-0.01408133,0.00000
 080,0.60002859,0.26292920,-0.63551921,0.00014604,-0.02876896,-0.105431
 96,-0.00000385,0.02979395,0.00392171,-0.00000226,-0.02520821,0.0160613
 4,0.00000481,-0.17102940,0.90263671,-0.00007348,0.00013846,-0.06856163
 ,0.00000828,-0.00000863,-0.07916891,0.00000527,0.00000274,-0.00066340,
 -0.00000384,-0.00000143,0.00388566,0.00006314,-0.00012393,0.22365669,-
 0.00354203,0.00137922,-0.00000022,-0.02474758,0.08434143,0.00001081,-0
 .34136220,-0.03124451,0.00001959,-0.06331426,-0.03490327,0.00000064,0.
 00539328,0.00395891,0.00000084,0.68445360,0.00136050,0.00058463,0.0000
 0145,0.02858146,0.03539051,-0.00000160,0.04572359,-0.13022768,-0.00001
 027,-0.03272421,-0.01865402,0.00000077,0.00218957,-0.00530455,-0.00000
 305,-0.03211389,0.73077721,0.00000176,-0.00000070,-0.00177581,0.000006
 41,-0.00000278,0.00795373,0.00002650,-0.00000527,-0.06331341,0.0000009
 0,0.00000147,-0.00500264,-0.00000068,-0.00000184,0.00877123,-0.0000444
 6,0.00007642,0.13510931,0.00130571,0.00216135,-0.00000064,-0.03100047,
 -0.07945833,-0.00000551,-0.06014463,0.03561962,0.00000805,-0.35283345,
 0.04301755,0.00002496,0.00423470,-0.00717678,0.00000073,0.07654474,0.0
 2476770,-0.00000295,0.69603778,0.00190852,0.00121823,0.00000009,-0.024
 66896,0.04270411,0.00000564,0.03552452,-0.02228294,-0.00000472,-0.0330
 1916,-0.13269333,-0.00000574,-0.00451179,-0.00607215,-0.00000055,-0.03
 165772,-0.05813629,-0.00000499,0.03794345,0.71961035,0.00000040,-0.000
 00057,-0.00055291,0.00000115,0.00001177,0.00669813,0.00000798,-0.00000
 514,-0.00499641,0.00001588,-0.00001245,-0.06297884,-0.00000137,-0.0000
 0066,0.00726590,-0.00000900,-0.00000905,0.00629679,-0.00003527,0.00006
 564,0.13596029,-0.00092426,-0.00034877,0.00000036,-0.00112885,-0.00314
 853,-0.00000089,-0.02875406,-0.02781779,-0.00000041,-0.02207746,0.0324
 5420,0.00000580,0.00159147,0.00065974,-0.00000109,-0.18938100,-0.13232
 176,-0.00000682,-0.17814269,0.12328094,0.00002402,0.74378746,0.0019037
 5,0.00029604,-0.00000032,-0.00214707,-0.07817070,-0.00000653,-0.086175
 58,0.04383219,0.00001024,0.08862281,0.03919760,-0.00000309,-0.00013442
 ,-0.00435959,0.00000017,-0.05465736,-0.28740319,-0.00002468,0.04562297
 ,-0.29066670,-0.00003036,0.00115496,0.66786370,0.00000032,0.00000019,-
 0.00006996,-0.00000086,-0.00000832,-0.00697212,-0.00000768,0.00000675,
 0.00631601,0.00001229,0.00000160,0.00576764,0.00000021,-0.00000065,-0.
 00091834,0.00000290,-0.00001806,-0.06354704,0.00001483,-0.00003610,-0.
 06306550,-0.00004417,0.00006376,0.13898194,0.02042841,0.01709387,-0.00
 000387,-0.01351118,-0.02611758,-0.00000568,-0.00357712,-0.00038620,-0.
 00000006,-0.00488835,0.00268023,0.00000085,-0.14021841,-0.06048277,0.0
 0000110,0.00025119,-0.00057375,0.00000014,-0.00061208,-0.00167499,0.00
 000011,-0.00017037,-0.00016204,-0.00000017,0.57519874,-0.00748439,-0.0
 5106847,0.00000374,-0.00195821,0.00556254,-0.00000217,-0.00116547,-0.0
 0062206,0.00000066,0.00329742,0.00065231,-0.00000055,-0.05485930,-0.14
 253117,-0.00000293,0.00014593,0.00008872,-0.00000005,-0.00049883,0.001
 28107,0.00000036,-0.00011285,-0.00050758,-0.00000012,-0.05829349,0.492
 80271,0.00000121,0.00001614,0.02584463,0.00000279,0.00000346,0.0164923
 0,-0.00000192,-0.00000070,-0.00082505,0.00000156,0.00000012,0.00100833
 ,-0.00000803,-0.00001584,-0.08670953,0.00000020,0.00000070,-0.00172651
 ,-0.00000082,0.00000063,-0.00067588,0.00000003,-0.00000062,0.00034657,
 -0.00000561,-0.00002614,0.52413404,0.00023602,-0.00067171,0.00000018,0
 .01180211,0.01157919,0.00000034,-0.13097555,-0.12191412,-0.00000873,-0
 .00080706,0.00358904,0.00000100,0.00086606,0.00019806,-0.00000030,-0.0
 1017720,-0.02816320,-0.00000215,-0.00087338,0.00097377,0.00000011,-0.0
 0572912,0.00116930,0.00000110,-0.00230434,0.00030681,0.00000002,0.1408
 2342,0.00065581,0.00054668,0.00000002,-0.01633235,-0.01769159,-0.00000
 115,-0.12198981,-0.26362402,-0.00001863,0.00421692,-0.00339741,-0.0000
 0170,-0.00247162,-0.00082060,0.00000038,0.00286406,0.00451527,-0.00000
 028,0.00084892,0.00026526,0.00000013,0.00071481,0.00170662,-0.00000081
 ,-0.00040049,0.00038675,0.,0.13270220,0.27736805,-0.00000052,0.0000007
 7,0.00068801,-0.00000424,-0.00000208,0.00241322,-0.00000751,-0.0000206
 3,-0.03760203,0.00000091,-0.00000195,0.00711107,0.00000022,0.00000024,
 -0.00427741,0.00000081,0.00000232,0.00423703,0.00000056,-0.00000014,-0
 .00124653,0.00000127,-0.00000028,0.00764981,0.00000010,-0.00000010,0.0
 0147151,0.00000882,0.00002098,0.02567670,-0.00267769,-0.00000516,0.000
 00008,0.01349526,-0.01253927,-0.00000258,-0.00161680,-0.00354789,0.000
 00022,-0.12555845,0.12063675,0.00002008,0.00022430,-0.00100695,-0.0000
 0021,-0.00097408,-0.00095403,-0.00000007,-0.00810968,0.02652053,0.0000
 0395,-0.00541263,-0.00061508,0.00000065,0.00002475,0.00048143,0.,0.000
 53884,-0.00101716,-0.00000020,0.12967234,0.00056416,0.00260106,-0.0000
 0031,0.01408992,-0.01908734,-0.00000346,-0.00394499,-0.00296858,-0.000
 00061,0.11959448,-0.27109298,-0.00003413,0.00239309,-0.00285186,0.0000
 0068,-0.00075810,0.00037129,0.00000021,-0.00283745,0.00501869,0.000000
 37,-0.00079989,0.00155044,-0.00000054,-0.00012567,0.00029950,0.0000000
 8,0.00076275,-0.00097096,-0.00000025,-0.12921290,0.28637217,-0.0000003
 0,0.00000028,-0.00023589,0.00000164,-0.00000260,0.00441275,-0.00000018
 ,-0.00000047,0.00670752,0.00001957,-0.00003323,-0.04086177,-0.00000004
 ,0.00000070,-0.00408283,0.00000031,0.00000031,-0.00139403,0.00000014,-
 0.00000196,0.00457562,0.00000092,-0.00000112,0.00805755,-0.00000012,0.
 00000011,0.00020637,0.00000008,-0.00000009,0.00036393,-0.00002172,0.00
 003741,0.02759675,-0.00110601,0.00047897,-0.00000034,-0.00598767,-0.00
 121480,0.00000137,-0.00930223,0.02893172,0.00000439,-0.00092267,-0.001
 00828,-0.00000012,0.00101165,0.00135332,0.00000043,-0.12167809,0.11661
 150,0.00001929,-0.00097286,-0.00342982,0.00000014,0.01178481,-0.015742
 35,-0.00000258,-0.00008388,-0.00002588,-0.00000013,0.00057616,-0.00035
 167,-0.00000043,0.00001778,0.00009067,-0.00000005,0.12574489,0.0001584
 1,-0.00011049,0.00000002,-0.00020785,0.00202089,-0.00000062,-0.0022413
 2,0.00312487,0.00000012,-0.00111908,0.00022686,0.00000024,-0.00057378,
 0.00014953,0.00000006,0.11674913,-0.27477156,-0.00003796,-0.00397610,-
 0.00305885,-0.00000097,0.01554763,-0.01743600,-0.00000370,0.00007787,0
 .00002421,0.00000002,0.00038884,0.00062612,0.00000049,0.00007109,-0.00
 002125,0.00000011,-0.12523350,0.28963880,0.00000019,-0.00000006,-0.000
 30895,0.00000085,-0.00000067,0.00779165,0.00000087,-0.00000222,0.00310
 325,-0.00000034,0.00000026,-0.00127858,-0.00000008,0.00000005,0.000398
 96,0.00001914,-0.00003814,-0.03780386,0.00000033,-0.00000105,0.0075640
 6,0.00000128,-0.00000112,0.00344048,0.00000002,0.00000002,0.00000067,-
 0.00000028,0.00000063,-0.00406975,-0.00000006,0.00000009,-0.00097534,-
 0.00002167,0.00004178,0.02604834,-0.00015623,0.00056217,-0.00000014,-0
 .00576890,0.00126225,0.00000124,-0.00090827,0.00108668,0.00000010,-0.0
 1080031,-0.02816940,-0.00000227,0.00036029,-0.00212248,0.,-0.00049915,
 0.00333723,0.00000086,-0.13491472,-0.12436634,-0.00000863,0.01160763,0
 .01416870,0.00000109,-0.00050724,0.00019598,0.,0.00003374,-0.00010362,
 -0.00000007,0.00070065,0.00038643,-0.00000031,0.00040055,0.00076373,0.
 00000008,0.13998128,-0.00021638,0.00009485,-0.00000005,0.00064826,0.00
 179778,-0.00000077,0.00108871,0.00021878,0.00000011,0.00272055,0.00465
 123,-0.00000008,0.00046710,0.00004417,-0.00000003,0.00384444,-0.003398
 07,-0.00000154,-0.12431038,-0.26146028,-0.00001710,-0.01697978,-0.0173
 4546,-0.00000122,0.00000034,0.00002398,0.00000003,-0.00007940,-0.00002
 753,0.00000012,-0.00033842,0.00053101,0.00000060,-0.00082905,-0.000970
 77,-0.00000007,0.13356697,0.27530606,-0.00000017,0.00000007,0.00011831
 ,0.00000093,-0.00000077,0.00829873,0.00000010,0.00000012,-0.00125294,0
 .00000144,0.00000204,0.00362641,0.00000009,-0.00000007,0.00010599,0.00
 000099,-0.00000148,0.00752221,-0.00000851,-0.00001706,-0.03883489,-0.0
 0000252,-0.00000334,0.00343289,0.,0.00000003,-0.00021885,-0.00000010,0
 .00000014,-0.00109412,-0.00000028,0.00000043,-0.00429270,-0.00000010,-
 0.00000017,0.00007456,0.00000839,0.00001952,0.02640526,-0.00013420,-0.
 00004392,-0.00000004,0.00103024,-0.00001890,-0.00000012,0.00024062,-0.
 00325188,0.00000009,0.00048292,0.00310424,0.00000087,-0.00008985,0.000
 01919,-0.00000004,-0.01122259,0.00392735,0.00000150,-0.00989844,-0.003
 12531,0.00000058,-0.33700806,0.00751893,0.00002210,-0.00007543,0.00000
 556,0.,-0.00064761,0.00020891,0.00000008,-0.00050995,-0.00025946,0.,0.
 00055375,-0.00041787,-0.00000035,0.00055880,0.00040942,-0.00000027,0.3
 5668943,0.00009109,0.00028169,-0.00000004,-0.00009385,-0.00166535,-0.0
 0000005,-0.00299229,-0.00430620,-0.00000120,0.00280389,-0.00478812,-0.
 00000164,0.00006771,-0.00023626,0.00000019,-0.02720793,0.00587017,0.00
 000204,0.02791658,0.00476984,-0.00000179,0.00759744,-0.05907614,-0.000
 00292,-0.00002470,0.00001959,-0.00000003,-0.00135467,0.00007020,0.0000
 0015,0.00126564,0.00014451,-0.00000008,0.00040943,0.00055580,0.0000005
 1,-0.00041970,0.00055599,0.00000055,-0.00809021,0.05773899,-0.00000003
 ,0.00000008,0.00022568,-0.00000019,-0.00000032,-0.00090869,0.00000049,
 -0.00000134,0.00770281,0.00000104,-0.00000133,0.00748630,-0.00000006,0
 .00000014,-0.00134318,-0.00000242,-0.00000029,0.00406282,0.00000390,0.
 00000050,0.00411108,0.00002213,-0.00000292,-0.03929254,0.00000003,0.00
 000003,0.00018786,-0.00000017,0.,-0.00007864,0.00000017,0.00000006,-0.
 00019239,-0.00000021,0.00000059,-0.00401789,-0.00000031,0.00000049,-0.
 00385671,-0.00002441,0.00000429,0.02601283,-0.00030804,-0.00274921,-0.
 00220486,-0.00101080,0.00017463,-0.00204447,-0.00095353,-0.00027889,0.
 00005819,0.00049731,0.00028845,-0.00022771,0.00654989,-0.00454222,0.01
 753706,0.00008545,0.00016375,0.00034284,-0.00024270,0.00030263,0.00017
 281,-0.00001085,-0.00022697,-0.00004603,-0.05938571,0.02943656,-0.0463
 9617,-0.00177656,0.00026511,0.00076434,0.00009051,0.00006005,-0.000029
 94,-0.00000048,-0.00000052,0.00000655,0.00000758,0.00000457,0.00003010
 ,0.00002374,0.00001720,-0.00006187,0.05962181,-0.00345426,-0.00545658,
 -0.00376294,-0.00010277,0.00031386,-0.00223217,0.00025949,0.00035269,-
 0.00017354,-0.00024354,-0.00022537,-0.00028860,0.01108336,-0.01316122,
 0.02427900,-0.00040300,-0.00006876,0.00003332,0.00026633,-0.00005753,0
 .00014262,0.00001431,0.00030278,-0.00002741,0.03087432,-0.12267212,0.1
 2352712,0.00013700,0.00023980,-0.00008355,0.00012515,0.00005035,-0.000
 03387,-0.00000170,0.00000072,-0.00000624,-0.00000323,-0.00001195,0.000
 04070,-0.00000054,0.00001225,0.00001331,-0.03456334,0.13342986,0.00048
 562,-0.00106723,-0.00089649,0.00007421,0.00046390,-0.00022713,-0.00038
 359,0.00096479,0.00033098,0.00023993,-0.00008219,0.00000892,-0.0000745
 5,-0.00171391,0.00153271,-0.00000777,-0.00041442,0.00020867,-0.0000878
 4,0.00000497,0.00001147,-0.00008917,-0.00004412,-0.00004982,-0.0471718
 1,0.11999595,-0.21642333,0.00049050,-0.00049659,-0.00040249,-0.0000625
 8,-0.00005005,0.00001723,0.00002527,0.00001255,0.00000810,0.00001555,-
 0.00000645,0.00000304,-0.00002909,-0.00004637,-0.00003700,0.05166047,-
 0.13058834,0.23451086,0.00374437,0.00180874,-0.00000039,-0.00030639,-0
 .00309806,-0.00000066,0.00057736,-0.00034161,-0.00000006,-0.00071497,0
 .00051026,0.00000021,-0.01988150,0.00596765,0.00000124,0.00008438,0.00
 002427,0.,-0.00013484,-0.00030308,-0.00000006,-0.00002116,-0.00007336,
 0.00000002,-0.31119420,0.06110897,0.00000990,0.00019140,-0.00007537,-0
 .00000002,0.00000436,-0.00006315,-0.00000001,-0.00003518,0.00001383,0.
 ,-0.00010325,-0.00000153,0.,-0.00001712,-0.00000280,0.,-0.00347876,-0.
 00003600,0.00072496,0.33476570,0.00233503,0.00263287,-0.00000080,-0.00
 144837,-0.00529777,-0.00000080,0.00051970,-0.00113019,-0.00000014,-0.0
 0134497,0.00057145,0.00000023,-0.03257907,0.00663553,0.00000225,0.0000
 6562,0.00043503,0.00000007,-0.00017272,-0.00038203,-0.00000005,0.00009
 097,-0.00008663,0.,0.06665492,-0.06113720,-0.00000164,0.00023888,0.000
 56753,0.00000006,0.00001118,0.00000364,-0.00000002,-0.00003686,0.00000
 040,0.,-0.00014213,0.00000216,0.,0.00001504,0.00004080,0.,0.01560188,-
 0.00385379,-0.00217505,-0.06540355,0.06485132,0.00000056,0.00000082,-0
 .00098011,0.00000015,-0.00000069,0.00155865,0.00000017,-0.00000024,0.0
 0019720,-0.00000021,0.00000005,0.00025935,-0.00000531,-0.00000024,-0.0
 0141975,0.,0.00000008,0.00019264,0.,-0.00000008,-0.00014383,0.00000003
 ,0.00000002,-0.00002772,0.00000982,-0.00000097,-0.04662573,0.00000004,
 0.00000019,-0.00043811,0.,0.,0.00007997,0.,0.,0.00001619,-0.00000002,0
 .,-0.00004021,0.,0.00000001,-0.00002532,-0.02537001,0.00439351,0.00130
 268,-0.00001010,0.00000326,0.04479287,-0.00030862,-0.00274484,0.002205
 34,-0.00101063,0.00017487,0.00204577,-0.00095449,-0.00027924,-0.000058
 17,0.00049765,0.00028863,0.00022763,0.00654712,-0.00454224,-0.01753912
 ,0.00008556,0.00016394,-0.00034306,-0.00024299,0.00030280,-0.00017281,
 -0.00001086,-0.00022718,0.00004597,-0.05937479,0.02941975,0.04639692,-
 0.00177690,0.00026534,-0.00076410,0.00009049,0.00006007,0.00003003,-0.
 00000052,-0.00000051,-0.00000652,0.00000756,0.00000458,-0.00003009,0.0
 0002375,0.00001718,0.00006192,0.00029115,-0.00395158,-0.00581010,-0.00
 348021,0.01559445,0.02537488,0.05961672,-0.00345313,-0.00544920,0.0037
 6622,-0.00010193,0.00031437,0.00223300,0.00025914,0.00035274,0.0001735
 7,-0.00024300,-0.00022536,0.00028862,0.01107931,-0.01316042,-0.0242833
 7,-0.00040295,-0.00006869,-0.00003344,0.00026610,-0.00005745,-0.000142
 75,0.00001438,0.00030264,0.00002755,0.03086012,-0.12260279,-0.12350333
 ,0.00013727,0.00023982,0.00008386,0.00012508,0.00005032,0.00003393,-0.
 00000171,0.00000071,0.00000623,-0.00000323,-0.00001193,-0.00004071,-0.
 00000054,0.00001223,-0.00001328,-0.00395369,0.01080502,0.01524255,-0.0
 0003520,-0.00385313,-0.00439573,-0.03454603,0.13335112,-0.00048621,0.0
 0106561,-0.00089686,-0.00007365,-0.00046386,-0.00022637,0.00038412,-0.
 00096463,0.00033068,-0.00024009,0.00008209,0.00000903,0.00007618,0.001
 71126,0.00152783,0.00000764,0.00041431,0.00020888,0.00008804,-0.000005
 08,0.00001147,0.00008924,0.00004431,-0.00004986,0.04717515,-0.11996786
 ,-0.21648739,-0.00049047,0.00049676,-0.00040220,0.00006256,0.00005003,
 0.00001726,-0.00002525,-0.00001257,0.00000811,-0.00001554,0.00000645,0
 .00000302,0.00002909,0.00004638,-0.00003701,0.00580871,-0.01523290,-0.
 01989841,-0.00072503,0.00217262,0.00130123,-0.05166449,0.13055708,0.23
 458060\\0.00008575,-0.00008474,0.00002368,0.00011106,-0.00010146,0.000
 01757,-0.00013150,0.00005435,0.00000230,-0.00001193,0.00001825,0.00000
 140,-0.00017166,0.00009714,-0.00006464,0.00007594,0.00003748,-0.000001
 84,-0.00003846,0.00004508,-0.00000096,-0.00000508,-0.00006620,0.000000
 08,0.00003533,0.00002202,0.00001824,0.00004625,-0.00000839,0.00000123,
 0.00000774,-0.00000691,0.00000006,0.00000410,-0.00000416,-0.00000017,0
 .00001041,-0.00000729,-0.00000021,0.00000377,-0.00000257,0.00000022,-0
 .00000733,0.00001401,0.00001287,-0.00001136,-0.00002910,0.00000098,-0.
 00000304,0.00002248,-0.00001082\\\@


 KNOWLEDGE IS CHIMERA - FOR BEYOND IT LIES OTHER KNOWLEDGE,
 AND THE INCOMPLETENESS OF WHAT IS KNOWN RENDERS THE KNOWING FALSE.
     -- THE THOMAS COVENANT CHRONICLES
 Job cpu time:       0 days  1 hours 44 minutes  1.5 seconds.
 Elapsed time:       0 days  0 hours  6 minutes 32.3 seconds.
 File lengths (MBytes):  RWF=    105 Int=      0 D2E=      0 Chk=      6 Scr=      1
 Normal termination of Gaussian 16 at Tue Sep 30 21:15:57 2025.
