 Entering Gaussian System, Link 0=g16
 Input=ATHE0088.gjf
 Output=ATHE0088.log
 Initial command:
 /usr/local/g16/l1.exe "/dados_01/scratch/Gau-1907515.inp" -scrdir="/dados_01/scratch/"
 Entering Link 1 = /usr/local/g16/l1.exe PID=   1907519.
  
 Copyright (c) 1988-2017, Gaussian, Inc.  All Rights Reserved.
  
 This is part of the Gaussian(R) 16 program.  It is based on
 the Gaussian(R) 09 system (copyright 2009, Gaussian, Inc.),
 the Gaussian(R) 03 system (copyright 2003, Gaussian, Inc.),
 the Gaussian(R) 98 system (copyright 1998, Gaussian, Inc.),
 the Gaussian(R) 94 system (copyright 1995, Gaussian, Inc.),
 the Gaussian 92(TM) system (copyright 1992, Gaussian, Inc.),
 the Gaussian 90(TM) system (copyright 1990, Gaussian, Inc.),
 the Gaussian 88(TM) system (copyright 1988, Gaussian, Inc.),
 the Gaussian 86(TM) system (copyright 1986, Carnegie Mellon
 University), and the Gaussian 82(TM) system (copyright 1983,
 Carnegie Mellon University). Gaussian is a federally registered
 trademark of Gaussian, Inc.
  
 This software contains proprietary and confidential information,
 including trade secrets, belonging to Gaussian, Inc.
  
 This software is provided under written license and may be
 used, copied, transmitted, or stored only in accord with that
 written license.
  
 The following legend is applicable only to US Government
 contracts under FAR:
  
                    RESTRICTED RIGHTS LEGEND
  
 Use, reproduction and disclosure by the US Government is
 subject to restrictions as set forth in subparagraphs (a)
 and (c) of the Commercial Computer Software - Restricted
 Rights clause in FAR 52.227-19.
  
 Gaussian, Inc.
 340 Quinnipiac St., Bldg. 40, Wallingford CT 06492
  
  
 ---------------------------------------------------------------
 Warning -- This program may not be used in any manner that
 competes with the business of Gaussian, Inc. or will provide
 assistance to any competitor of Gaussian, Inc.  The licensee
 of this program is prohibited from giving any competitor of
 Gaussian, Inc. access to this program.  By using this program,
 the user acknowledges that Gaussian, Inc. is engaged in the
 business of creating and licensing software in the field of
 computational chemistry and represents and warrants to the
 licensee that it is not a competitor of Gaussian, Inc. and that
 it will not use this program in any manner prohibited above.
 ---------------------------------------------------------------
  

 Cite this work as:
 Gaussian 16, Revision B.01,
 M. J. Frisch, G. W. Trucks, H. B. Schlegel, G. E. Scuseria, 
 M. A. Robb, J. R. Cheeseman, G. Scalmani, V. Barone, 
 G. A. Petersson, H. Nakatsuji, X. Li, M. Caricato, A. V. Marenich, 
 J. Bloino, B. G. Janesko, R. Gomperts, B. Mennucci, H. P. Hratchian, 
 J. V. Ortiz, A. F. Izmaylov, J. L. Sonnenberg, D. Williams-Young, 
 F. Ding, F. Lipparini, F. Egidi, J. Goings, B. Peng, A. Petrone, 
 T. Henderson, D. Ranasinghe, V. G. Zakrzewski, J. Gao, N. Rega, 
 G. Zheng, W. Liang, M. Hada, M. Ehara, K. Toyota, R. Fukuda, 
 J. Hasegawa, M. Ishida, T. Nakajima, Y. Honda, O. Kitao, H. Nakai, 
 T. Vreven, K. Throssell, J. A. Montgomery, Jr., J. E. Peralta, 
 F. Ogliaro, M. J. Bearpark, J. J. Heyd, E. N. Brothers, K. N. Kudin, 
 V. N. Staroverov, T. A. Keith, R. Kobayashi, J. Normand, 
 K. Raghavachari, A. P. Rendell, J. C. Burant, S. S. Iyengar, 
 J. Tomasi, M. Cossi, J. M. Millam, M. Klene, C. Adamo, R. Cammi, 
 J. W. Ochterski, R. L. Martin, K. Morokuma, O. Farkas, 
 J. B. Foresman, and D. J. Fox, Gaussian, Inc., Wallingford CT, 2016.
 
 ******************************************
 Gaussian 16:  ES64L-G16RevB.01 20-Dec-2017
                18-Sep-2025 
 ******************************************
 %nprocs=16
 Will use up to   16 processors via shared memory.
 %mem=40GB
 %chk=ATHE0088.chk
 ----------------------------------------------------------------------
 # opt freq=noraman M08HX/6-311++G** scf=xqc Empiricaldispersion=pfd In
 t(Grid=ultraFine)
 ----------------------------------------------------------------------
 1/18=20,19=15,26=4,38=1/1,3;
 2/9=110,12=2,17=6,18=5,40=1/2;
 3/5=4,6=6,7=1111,11=2,25=1,30=1,71=1,74=-74,75=-5,124=11/1,2,3;
 4//1;
 5/5=2,8=3,13=1,38=5/2,8;
 6/7=2,8=2,9=2,10=2,28=1/1;
 7//1,2,3,16;
 1/18=20,19=15,26=4/3(2);
 2/9=110/2;
 99//99;
 2/9=110/2;
 3/5=4,6=6,7=1111,11=2,25=1,30=1,71=1,74=-74,75=-5,124=11/1,2,3;
 4/5=5,16=3,69=1/1;
 5/5=2,8=3,13=1,38=5/2,8;
 7//1,2,3,16;
 1/18=20,19=15,26=4/3(-5);
 2/9=110/2;
 6/7=2,8=2,9=2,10=2,19=2,28=1/1;
 99/9=1/99;
 --------
 ATHE0088
 --------
 Symbolic Z-matrix:
 Charge =  0 Multiplicity = 1
 O                     3.2018    0.5781    0.0532 
 C                    -0.8635   -0.2451   -0.0982 
 C                    -0.419     1.077    -0.1021 
 C                     0.0582   -1.2906   -0.0432 
 C                     1.8689    0.3081    0.0038 
 C                     0.9473    1.3536   -0.0512 
 C                     1.4244   -1.014     0.0078 
 C                    -2.2879   -0.5338   -0.152 
 C                    -3.2833    0.3242    0.1679 
 C                    -4.7361   -0.0196    0.1062 
 C                     4.0892   -0.5379    0.1079 
 H                    -1.0982    1.9221   -0.1641 
 H                    -0.2705   -2.3272   -0.038 
 H                     1.2884    2.3852   -0.059 
 H                     2.0853   -1.8731    0.0493 
 H                    -2.5559   -1.5394   -0.4697 
 H                    -3.0689    1.3301    0.5163 
 H                    -5.1869    0.0874    1.0975 
 H                    -5.2504    0.6586   -0.5815 
 H                    -4.9044   -1.0454   -0.2366 
 H                     4.0173   -1.1537   -0.7951 
 H                     3.9437   -1.1231    1.0222 
 H                     5.1083   -0.1391    0.1425 
 

 GradGradGradGradGradGradGradGradGradGradGradGradGradGradGradGradGradGrad
 Berny optimization.
 Initialization pass.
                           ----------------------------
                           !    Initial Parameters    !
                           ! (Angstroms and Degrees)  !
 --------------------------                            --------------------------
 ! Name  Definition              Value          Derivative Info.                !
 --------------------------------------------------------------------------------
 ! R1    R(1,5)                  1.3609         estimate D2E/DX2                !
 ! R2    R(1,11)                 1.4269         estimate D2E/DX2                !
 ! R3    R(2,3)                  1.3948         estimate D2E/DX2                !
 ! R4    R(2,4)                  1.3949         estimate D2E/DX2                !
 ! R5    R(2,8)                  1.4544         estimate D2E/DX2                !
 ! R6    R(3,6)                  1.3949         estimate D2E/DX2                !
 ! R7    R(3,12)                 1.086          estimate D2E/DX2                !
 ! R8    R(4,7)                  1.3949         estimate D2E/DX2                !
 ! R9    R(4,13)                 1.0875         estimate D2E/DX2                !
 ! R10   R(5,6)                  1.3948         estimate D2E/DX2                !
 ! R11   R(5,7)                  1.3948         estimate D2E/DX2                !
 ! R12   R(6,14)                 1.0866         estimate D2E/DX2                !
 ! R13   R(7,15)                 1.0847         estimate D2E/DX2                !
 ! R14   R(8,9)                  1.3525         estimate D2E/DX2                !
 ! R15   R(8,16)                 1.0881         estimate D2E/DX2                !
 ! R16   R(9,10)                 1.4942         estimate D2E/DX2                !
 ! R17   R(9,17)                 1.0859         estimate D2E/DX2                !
 ! R18   R(10,18)                1.0942         estimate D2E/DX2                !
 ! R19   R(10,19)                1.0943         estimate D2E/DX2                !
 ! R20   R(10,20)                1.0946         estimate D2E/DX2                !
 ! R21   R(11,21)                1.0953         estimate D2E/DX2                !
 ! R22   R(11,22)                1.0953         estimate D2E/DX2                !
 ! R23   R(11,23)                1.0949         estimate D2E/DX2                !
 ! A1    A(5,1,11)             117.0879         estimate D2E/DX2                !
 ! A2    A(3,2,4)              119.9994         estimate D2E/DX2                !
 ! A3    A(3,2,8)              120.011          estimate D2E/DX2                !
 ! A4    A(4,2,8)              119.9896         estimate D2E/DX2                !
 ! A5    A(2,3,6)              119.9986         estimate D2E/DX2                !
 ! A6    A(2,3,12)             122.5793         estimate D2E/DX2                !
 ! A7    A(6,3,12)             117.4104         estimate D2E/DX2                !
 ! A8    A(2,4,7)              120.0013         estimate D2E/DX2                !
 ! A9    A(2,4,13)             120.9929         estimate D2E/DX2                !
 ! A10   A(7,4,13)             119.0058         estimate D2E/DX2                !
 ! A11   A(1,5,6)              119.992          estimate D2E/DX2                !
 ! A12   A(1,5,7)              120.0054         estimate D2E/DX2                !
 ! A13   A(6,5,7)              120.0026         estimate D2E/DX2                !
 ! A14   A(3,6,5)              119.9989         estimate D2E/DX2                !
 ! A15   A(3,6,14)             119.7012         estimate D2E/DX2                !
 ! A16   A(5,6,14)             120.2994         estimate D2E/DX2                !
 ! A17   A(4,7,5)              119.9992         estimate D2E/DX2                !
 ! A18   A(4,7,15)             116.1754         estimate D2E/DX2                !
 ! A19   A(5,7,15)             123.8254         estimate D2E/DX2                !
 ! A20   A(2,8,9)              125.8822         estimate D2E/DX2                !
 ! A21   A(2,8,16)             115.8158         estimate D2E/DX2                !
 ! A22   A(9,8,16)             118.298          estimate D2E/DX2                !
 ! A23   A(8,9,10)             124.0446         estimate D2E/DX2                !
 ! A24   A(8,9,17)             121.2123         estimate D2E/DX2                !
 ! A25   A(10,9,17)            114.7308         estimate D2E/DX2                !
 ! A26   A(9,10,18)            109.9168         estimate D2E/DX2                !
 ! A27   A(9,10,19)            109.8966         estimate D2E/DX2                !
 ! A28   A(9,10,20)            112.2137         estimate D2E/DX2                !
 ! A29   A(18,10,19)           108.3675         estimate D2E/DX2                !
 ! A30   A(18,10,20)           108.1807         estimate D2E/DX2                !
 ! A31   A(19,10,20)           108.1647         estimate D2E/DX2                !
 ! A32   A(1,11,21)            111.5484         estimate D2E/DX2                !
 ! A33   A(1,11,22)            111.5482         estimate D2E/DX2                !
 ! A34   A(1,11,23)            107.1695         estimate D2E/DX2                !
 ! A35   A(21,11,22)           112.2772         estimate D2E/DX2                !
 ! A36   A(21,11,23)           106.9729         estimate D2E/DX2                !
 ! A37   A(22,11,23)           106.9707         estimate D2E/DX2                !
 ! D1    D(11,1,5,6)          -179.9951         estimate D2E/DX2                !
 ! D2    D(11,1,5,7)            -0.0126         estimate D2E/DX2                !
 ! D3    D(5,1,11,21)           63.2278         estimate D2E/DX2                !
 ! D4    D(5,1,11,22)          -63.2231         estimate D2E/DX2                !
 ! D5    D(5,1,11,23)         -179.9963         estimate D2E/DX2                !
 ! D6    D(4,2,3,6)              0.0097         estimate D2E/DX2                !
 ! D7    D(4,2,3,12)           178.7347         estimate D2E/DX2                !
 ! D8    D(8,2,3,6)           -179.9663         estimate D2E/DX2                !
 ! D9    D(8,2,3,12)            -1.2413         estimate D2E/DX2                !
 ! D10   D(3,2,4,7)             -0.0047         estimate D2E/DX2                !
 ! D11   D(3,2,4,13)           179.9181         estimate D2E/DX2                !
 ! D12   D(8,2,4,7)            179.9712         estimate D2E/DX2                !
 ! D13   D(8,2,4,13)            -0.1059         estimate D2E/DX2                !
 ! D14   D(3,2,8,9)            -20.0067         estimate D2E/DX2                !
 ! D15   D(3,2,8,16)           160.7317         estimate D2E/DX2                !
 ! D16   D(4,2,8,9)            160.0173         estimate D2E/DX2                !
 ! D17   D(4,2,8,16)           -19.2443         estimate D2E/DX2                !
 ! D18   D(2,3,6,5)             -0.0099         estimate D2E/DX2                !
 ! D19   D(2,3,6,14)           179.7256         estimate D2E/DX2                !
 ! D20   D(12,3,6,5)          -178.7997         estimate D2E/DX2                !
 ! D21   D(12,3,6,14)            0.9358         estimate D2E/DX2                !
 ! D22   D(2,4,7,5)              0.0            estimate D2E/DX2                !
 ! D23   D(2,4,7,15)           179.9863         estimate D2E/DX2                !
 ! D24   D(13,4,7,5)          -179.9243         estimate D2E/DX2                !
 ! D25   D(13,4,7,15)            0.0619         estimate D2E/DX2                !
 ! D26   D(1,5,6,3)            179.9877         estimate D2E/DX2                !
 ! D27   D(1,5,6,14)             0.2538         estimate D2E/DX2                !
 ! D28   D(7,5,6,3)              0.0051         estimate D2E/DX2                !
 ! D29   D(7,5,6,14)          -179.7288         estimate D2E/DX2                !
 ! D30   D(1,5,7,4)           -179.9828         estimate D2E/DX2                !
 ! D31   D(1,5,7,15)             0.0321         estimate D2E/DX2                !
 ! D32   D(6,5,7,4)             -0.0002         estimate D2E/DX2                !
 ! D33   D(6,5,7,15)          -179.9854         estimate D2E/DX2                !
 ! D34   D(2,8,9,10)          -179.5696         estimate D2E/DX2                !
 ! D35   D(2,8,9,17)            -0.9133         estimate D2E/DX2                !
 ! D36   D(16,8,9,10)           -0.3246         estimate D2E/DX2                !
 ! D37   D(16,8,9,17)          178.3317         estimate D2E/DX2                !
 ! D38   D(8,9,10,18)          119.938          estimate D2E/DX2                !
 ! D39   D(8,9,10,19)         -120.8811         estimate D2E/DX2                !
 ! D40   D(8,9,10,20)           -0.4886         estimate D2E/DX2                !
 ! D41   D(17,9,10,18)         -58.7968         estimate D2E/DX2                !
 ! D42   D(17,9,10,19)          60.3841         estimate D2E/DX2                !
 ! D43   D(17,9,10,20)        -179.2234         estimate D2E/DX2                !
 --------------------------------------------------------------------------------
 Trust Radius=3.00D-01 FncErr=1.00D-07 GrdErr=1.00D-06 EigMax=2.50D+02 EigMin=1.00D-04
 Number of steps in this run=    113 maximum allowed number of steps=    138.
 GradGradGradGradGradGradGradGradGradGradGradGradGradGradGradGradGradGrad

                          Input orientation:                          
 ---------------------------------------------------------------------
 Center     Atomic      Atomic             Coordinates (Angstroms)
 Number     Number       Type             X           Y           Z
 ---------------------------------------------------------------------
      1          8           0        3.201800    0.578100    0.053200
      2          6           0       -0.863500   -0.245100   -0.098200
      3          6           0       -0.419000    1.077000   -0.102100
      4          6           0        0.058200   -1.290600   -0.043200
      5          6           0        1.868900    0.308100    0.003800
      6          6           0        0.947300    1.353600   -0.051200
      7          6           0        1.424400   -1.014000    0.007800
      8          6           0       -2.287900   -0.533800   -0.152000
      9          6           0       -3.283300    0.324200    0.167900
     10          6           0       -4.736100   -0.019600    0.106200
     11          6           0        4.089200   -0.537900    0.107900
     12          1           0       -1.098200    1.922100   -0.164100
     13          1           0       -0.270500   -2.327200   -0.038000
     14          1           0        1.288400    2.385200   -0.059000
     15          1           0        2.085300   -1.873100    0.049300
     16          1           0       -2.555900   -1.539400   -0.469700
     17          1           0       -3.068900    1.330100    0.516300
     18          1           0       -5.186900    0.087400    1.097500
     19          1           0       -5.250400    0.658600   -0.581500
     20          1           0       -4.904400   -1.045400   -0.236600
     21          1           0        4.017300   -1.153700   -0.795100
     22          1           0        3.943700   -1.123100    1.022200
     23          1           0        5.108300   -0.139100    0.142500
 ---------------------------------------------------------------------
                    Distance matrix (angstroms):
                    1          2          3          4          5
     1  O    0.000000
     2  C    4.150572   0.000000
     3  C    3.658307   1.394828   0.000000
     4  C    3.658354   1.394857   2.415930   0.000000
     5  C    1.360868   2.789703   2.415969   2.415923   0.000000
     6  C    2.386435   2.415998   1.394946   2.789688   1.394791
     7  C    2.386628   2.415974   2.789710   1.394852   1.394828
     8  C    5.604930   1.454358   2.467783   2.467543   4.244061
     9  C    6.491082   2.500069   2.973856   3.717225   5.154838
    10  C    7.960547   3.884541   4.459066   4.962164   6.613917
    11  C    1.426859   4.965626   4.793315   4.103456   2.378295
    12  H    4.510383   2.180867   1.085979   3.416624   3.381844
    13  H    4.528350   2.165736   3.408040   1.087479   3.394641
    14  H    2.634255   3.398630   2.151386   3.876228   2.157607
    15  H    2.693505   3.371581   3.872665   2.111160   2.192381
    16  H    6.156975   2.162740   3.398091   2.660324   4.818331
    17  H    6.332586   2.778966   2.732846   4.118235   5.068433
    18  H    8.467682   4.498004   5.015099   5.541765   7.143473
    19  H    8.476379   4.505013   4.873121   5.680703   7.151913
    20  H    8.272256   4.121712   4.964019   4.972416   6.911393
    21  H    2.093749   5.013325   5.013684   4.032191   2.718588
    22  H    2.093671   5.013517   5.013745   4.032399   2.718505
    23  H    2.038895   5.977589   5.664784   5.183044   3.273062
                    6          7          8          9         10
     6  C    0.000000
     7  C    2.415913   0.000000
     8  C    3.746860   3.746638   0.000000
     9  C    4.359546   4.896820   1.352524   0.000000
    10  C    5.849059   6.241015   2.514906   1.494200   0.000000
    11  C    3.670779   2.708847   6.382395   7.422976   8.840507
    12  H    2.126031   3.874757   2.728915   2.727301   4.132503
    13  H    3.877048   2.144593   2.701700   4.018617   5.028657
    14  H    1.086558   3.402575   4.617265   5.019925   6.488833
    15  H    3.422972   1.084695   4.578114   5.802074   7.068960
    16  H    4.562565   4.043122   1.088112   2.099678   2.719324
    17  H    4.056165   5.093439   2.128546   1.085903   2.183902
    18  H    6.367981   6.790421   3.217350   2.131648   1.094233
    19  H    6.259052   6.906361   3.222219   2.131409   1.094254
    20  H    6.327082   6.333595   2.667389   2.160414   1.094579
    21  H    4.032969   2.717958   6.368155   7.510680   8.872459
    22  H    4.032945   2.718048   6.368584   7.419841   8.797482
    23  H    4.424883   3.788761   7.412577   8.404418   9.845192
                   11         12         13         14         15
    11  C    0.000000
    12  H    5.747582   0.000000
    13  H    4.714856   4.330997   0.000000
    14  H    4.051771   2.433386   4.963600   0.000000
    15  H    2.408694   4.958201   2.400754   4.333578   0.000000
    16  H    6.744922   3.768324   2.455615   5.509065   4.682035
    17  H    7.409090   2.167272   4.638333   4.519986   6.086408
    18  H    9.349671   4.655666   5.593804   6.967560   7.604418
    19  H    9.441134   4.360209   5.831792   6.783072   7.785879
    20  H    9.014493   4.826849   4.812014   7.081760   7.044340
    21  H    1.095348   6.002253   4.509493   4.529078   2.227818
    22  H    1.095251   6.008436   4.509253   4.530759   2.227708
    23  H    1.094899   6.546999   5.809634   4.583048   3.486255
                   16         17         18         19         20
    16  H    0.000000
    17  H    3.077238   0.000000
    18  H    3.467673   2.523494   0.000000
    19  H    3.479085   2.532789   1.774639   0.000000
    20  H    2.411187   3.094983   1.772813   1.772650   0.000000
    21  H    6.592542   7.622550   9.478373   9.445651   8.939820
    22  H    6.681607   7.446522   9.210800   9.501462   8.937533
    23  H    7.815087   8.316542  10.341879  10.414565  10.060778
                   21         22         23
    21  H    0.000000
    22  H    1.819047   0.000000
    23  H    1.760337   1.760233   0.000000
 Stoichiometry    C10H12O
 Framework group  C1[X(C10H12O)]
 Deg. of freedom    63
 Full point group                 C1      NOp   1
 Largest Abelian subgroup         C1      NOp   1
 Largest concise Abelian subgroup C1      NOp   1
                         Standard orientation:                         
 ---------------------------------------------------------------------
 Center     Atomic      Atomic             Coordinates (Angstroms)
 Number     Number       Type             X           Y           Z
 ---------------------------------------------------------------------
      1          8           0        3.187162    0.641862    0.037133
      2          6           0       -0.866868   -0.237102   -0.102508
      3          6           0       -0.440026    1.090668   -0.121903
      4          6           0        0.068702   -1.269529   -0.035965
      5          6           0        1.857959    0.353582   -0.008410
      6          6           0        0.922488    1.386010   -0.074954
      7          6           0        1.431116   -0.974187    0.011084
      8          6           0       -2.287317   -0.545349   -0.152185
      9          6           0       -3.293932    0.302951    0.158350
     10          6           0       -4.742047   -0.060857    0.101425
     11          6           0        4.089375   -0.461514    0.104208
     12          1           0       -1.130451    1.925875   -0.193269
     13          1           0       -0.246154   -2.310286   -0.018628
     14          1           0        1.249809    2.421903   -0.094840
     15          1           0        2.103421   -1.823872    0.062123
     16          1           0       -2.542021   -1.558029   -0.458118
     17          1           0       -3.092815    1.315571    0.495007
     18          1           0       -5.193835    0.051561    1.091675
     19          1           0       -5.265614    0.602452   -0.593766
     20          1           0       -4.896801   -1.092695   -0.229428
     21          1           0        4.025325   -1.088596   -0.791589
     22          1           0        3.952052   -1.038010    1.025277
     23          1           0        5.103085   -0.048803    0.133642
 ---------------------------------------------------------------------
 Rotational constants (GHZ):           4.3772833           0.4680907           0.4264884
 Standard basis: 6-311++G(d,p) (5D, 7F)
 There are   337 symmetry adapted cartesian basis functions of A   symmetry.
 There are   326 symmetry adapted basis functions of A   symmetry.
   326 basis functions,   504 primitive gaussians,   337 cartesian basis functions
    40 alpha electrons       40 beta electrons
       nuclear repulsion energy       557.6016553381 Hartrees.
 NAtoms=   23 NActive=   23 NUniq=   23 SFac= 1.00D+00 NAtFMM=   60 NAOKFM=F Big=F
 Integral buffers will be    131072 words long.
 Raffenetti 2 integral format.
 Two-electron integral symmetry is turned on.
 R6APFD:  NTU= -4 IXU= 1 FactS= 1.050
 Nuclear repulsion after empirical dispersion term =      557.5899066381 Hartrees.
 One-electron integrals computed using PRISM.
 NBasis=   326 RedAO= T EigKep=  1.75D-06  NBF=   326
 NBsUse=   324 1.00D-06 EigRej=  8.14D-07 NBFU=   324
 ExpMin= 3.60D-02 ExpMax= 8.59D+03 ExpMxC= 1.30D+03 IAcc=3 IRadAn=         5 AccDes= 0.00D+00
 Harris functional with IExCor= 1009 and IRadAn=       5 diagonalized for initial guess.
 HarFok:  IExCor= 1009 AccDes= 0.00D+00 IRadAn=         5 IDoV= 1 UseB2=F ITyADJ=14
 ICtDFT=  3500011 ScaDFX=  1.000000  1.000000  1.000000  1.000000
 FoFCou: FMM=F IPFlag=           0 FMFlag=      100000 FMFlg1=           0
         NFxFlg=           0 DoJE=T BraDBF=F KetDBF=T FulRan=T
         wScrn=  0.000000 ICntrl=       500 IOpCl=  0 I1Cent=   200000004 NGrid=           0
         NMat0=    1 NMatS0=      1 NMatT0=    0 NMatD0=    1 NMtDS0=    0 NMtDT0=    0
 Petite list used in FoFCou.
 Requested convergence on RMS density matrix=1.00D-08 within  32 cycles.
 Requested convergence on MAX density matrix=1.00D-06.
 Requested convergence on             energy=1.00D-06.
 No special actions if energy rises.
 SCF Done:  E(RM08HX) =  -463.479630930     A.U. after   15 cycles
            NFock= 15  Conv=0.74D-08     -V/T= 2.0049
 QCSCF skips out because SCF is already converged.

 **********************************************************************

            Population analysis using the SCF Density.

 **********************************************************************

 Orbital symmetries:
       Occupied  (A) (A) (A) (A) (A) (A) (A) (A) (A) (A) (A) (A)
                 (A) (A) (A) (A) (A) (A) (A) (A) (A) (A) (A) (A)
                 (A) (A) (A) (A) (A) (A) (A) (A) (A) (A) (A) (A)
                 (A) (A) (A) (A)
       Virtual   (A) (A) (A) (A) (A) (A) (A) (A) (A) (A) (A) (A)
                 (A) (A) (A) (A) (A) (A) (A) (A) (A) (A) (A) (A)
                 (A) (A) (A) (A) (A) (A) (A) (A) (A) (A) (A) (A)
                 (A) (A) (A) (A) (A) (A) (A) (A) (A) (A) (A) (A)
                 (A) (A) (A) (A) (A) (A) (A) (A) (A) (A) (A) (A)
                 (A) (A) (A) (A) (A) (A) (A) (A) (A) (A) (A) (A)
                 (A) (A) (A) (A) (A) (A) (A) (A) (A) (A) (A) (A)
                 (A) (A) (A) (A) (A) (A) (A) (A) (A) (A) (A) (A)
                 (A) (A) (A) (A) (A) (A) (A) (A) (A) (A) (A) (A)
                 (A) (A) (A) (A) (A) (A) (A) (A) (A) (A) (A) (A)
                 (A) (A) (A) (A) (A) (A) (A) (A) (A) (A) (A) (A)
                 (A) (A) (A) (A) (A) (A) (A) (A) (A) (A) (A) (A)
                 (A) (A) (A) (A) (A) (A) (A) (A) (A) (A) (A) (A)
                 (A) (A) (A) (A) (A) (A) (A) (A) (A) (A) (A) (A)
                 (A) (A) (A) (A) (A) (A) (A) (A) (A) (A) (A) (A)
                 (A) (A) (A) (A) (A) (A) (A) (A) (A) (A) (A) (A)
                 (A) (A) (A) (A) (A) (A) (A) (A) (A) (A) (A) (A)
                 (A) (A) (A) (A) (A) (A) (A) (A) (A) (A) (A) (A)
                 (A) (A) (A) (A) (A) (A) (A) (A) (A) (A) (A) (A)
                 (A) (A) (A) (A) (A) (A) (A) (A) (A) (A) (A) (A)
                 (A) (A) (A) (A) (A) (A) (A) (A) (A) (A) (A) (A)
                 (A) (A) (A) (A) (A) (A) (A) (A) (A) (A) (A) (A)
                 (A) (A) (A) (A) (A) (A) (A) (A) (A) (A) (A) (A)
                 (A) (A) (A) (A) (A) (A) (A) (A)
 The electronic state is 1-A.
 Alpha  occ. eigenvalues --  -19.64274 -10.59751 -10.58469 -10.53741 -10.53691
 Alpha  occ. eigenvalues --  -10.53599 -10.53379 -10.53341 -10.53260 -10.52870
 Alpha  occ. eigenvalues --  -10.52116  -1.19045  -0.97445  -0.90681  -0.86313
 Alpha  occ. eigenvalues --   -0.85229  -0.81037  -0.76250  -0.70632  -0.68371
 Alpha  occ. eigenvalues --   -0.63603  -0.61629  -0.56682  -0.56088  -0.55479
 Alpha  occ. eigenvalues --   -0.52593  -0.50267  -0.49638  -0.48499  -0.47194
 Alpha  occ. eigenvalues --   -0.46722  -0.45626  -0.43947  -0.41920  -0.40827
 Alpha  occ. eigenvalues --   -0.40662  -0.39394  -0.33399  -0.31383  -0.25744
 Alpha virt. eigenvalues --   -0.02800  -0.02019  -0.01404  -0.00750  -0.00414
 Alpha virt. eigenvalues --    0.00087   0.00452   0.00562   0.01130   0.01785
 Alpha virt. eigenvalues --    0.02388   0.02624   0.03882   0.04220   0.04981
 Alpha virt. eigenvalues --    0.05380   0.05641   0.06421   0.07577   0.07745
 Alpha virt. eigenvalues --    0.08666   0.09220   0.09794   0.09843   0.10534
 Alpha virt. eigenvalues --    0.11328   0.11495   0.11923   0.12439   0.12821
 Alpha virt. eigenvalues --    0.12943   0.13046   0.13610   0.13874   0.14373
 Alpha virt. eigenvalues --    0.14405   0.15014   0.15494   0.16070   0.16218
 Alpha virt. eigenvalues --    0.16770   0.17380   0.17602   0.18315   0.18767
 Alpha virt. eigenvalues --    0.19455   0.20091   0.20536   0.21257   0.21595
 Alpha virt. eigenvalues --    0.22421   0.22602   0.23044   0.23677   0.24606
 Alpha virt. eigenvalues --    0.24941   0.25782   0.26979   0.27805   0.28357
 Alpha virt. eigenvalues --    0.28946   0.29976   0.30531   0.30965   0.31747
 Alpha virt. eigenvalues --    0.32320   0.32511   0.33445   0.34023   0.34477
 Alpha virt. eigenvalues --    0.34947   0.35890   0.38025   0.39149   0.39764
 Alpha virt. eigenvalues --    0.41718   0.42565   0.44780   0.46592   0.46784
 Alpha virt. eigenvalues --    0.48316   0.50166   0.52516   0.53895   0.55789
 Alpha virt. eigenvalues --    0.56405   0.56977   0.58615   0.58970   0.60851
 Alpha virt. eigenvalues --    0.61811   0.62237   0.63194   0.64081   0.65631
 Alpha virt. eigenvalues --    0.65738   0.67114   0.67285   0.67986   0.68323
 Alpha virt. eigenvalues --    0.69106   0.69673   0.70136   0.70555   0.71191
 Alpha virt. eigenvalues --    0.72284   0.73901   0.74393   0.75785   0.77034
 Alpha virt. eigenvalues --    0.78152   0.79348   0.79615   0.80930   0.82752
 Alpha virt. eigenvalues --    0.84266   0.86388   0.87286   0.87748   0.89841
 Alpha virt. eigenvalues --    0.91479   0.92930   0.93209   0.94552   0.95762
 Alpha virt. eigenvalues --    0.96587   0.97408   1.00215   1.02799   1.03838
 Alpha virt. eigenvalues --    1.04392   1.06784   1.07304   1.08282   1.09946
 Alpha virt. eigenvalues --    1.10902   1.13191   1.15159   1.17319   1.18997
 Alpha virt. eigenvalues --    1.20117   1.24642   1.29963   1.30336   1.33949
 Alpha virt. eigenvalues --    1.34206   1.41740   1.43912   1.46578   1.46988
 Alpha virt. eigenvalues --    1.49219   1.51810   1.53793   1.54405   1.55361
 Alpha virt. eigenvalues --    1.56309   1.57637   1.59397   1.59925   1.60268
 Alpha virt. eigenvalues --    1.60627   1.61430   1.63367   1.66362   1.67193
 Alpha virt. eigenvalues --    1.67459   1.70977   1.72476   1.72580   1.73818
 Alpha virt. eigenvalues --    1.75120   1.76050   1.77558   1.79964   1.81435
 Alpha virt. eigenvalues --    1.82507   1.83063   1.86438   1.88236   1.89095
 Alpha virt. eigenvalues --    1.93128   1.95564   1.98719   1.98842   2.00019
 Alpha virt. eigenvalues --    2.00756   2.03420   2.05893   2.06717   2.08949
 Alpha virt. eigenvalues --    2.09803   2.11834   2.12685   2.13728   2.14394
 Alpha virt. eigenvalues --    2.16516   2.18344   2.20794   2.24823   2.27638
 Alpha virt. eigenvalues --    2.32222   2.35207   2.36512   2.36828   2.42277
 Alpha virt. eigenvalues --    2.42854   2.45776   2.46788   2.46999   2.47556
 Alpha virt. eigenvalues --    2.49305   2.51216   2.52640   2.53940   2.57424
 Alpha virt. eigenvalues --    2.58530   2.61949   2.62768   2.63068   2.65604
 Alpha virt. eigenvalues --    2.70849   2.72551   2.72867   2.73732   2.74046
 Alpha virt. eigenvalues --    2.75029   2.75554   2.76008   2.78041   2.82588
 Alpha virt. eigenvalues --    2.84744   2.88213   2.90814   2.91921   2.92944
 Alpha virt. eigenvalues --    2.95951   2.98735   3.00416   3.01738   3.09263
 Alpha virt. eigenvalues --    3.12477   3.14301   3.14656   3.18019   3.19487
 Alpha virt. eigenvalues --    3.29952   3.31208   3.31541   3.37870   3.41206
 Alpha virt. eigenvalues --    3.48124   3.50447   3.55409   3.60399   3.65002
 Alpha virt. eigenvalues --    3.70638   3.75680   3.82529   3.84390   3.84647
 Alpha virt. eigenvalues --    3.85899   3.95986   4.05440   4.14447   4.22150
 Alpha virt. eigenvalues --    4.23144   4.28777   4.33368   4.59064   4.93402
 Alpha virt. eigenvalues --    5.16711   5.51850   5.88783  23.67019  23.87860
 Alpha virt. eigenvalues --   23.97793  24.00739  24.02853  24.03601  24.12562
 Alpha virt. eigenvalues --   24.16080  24.24085  24.26455  49.98644
          Condensed to atoms (all electrons):
               1          2          3          4          5          6
     1  O    8.172897   0.009457  -0.104894   0.124642   0.125257  -0.668548
     2  C    0.009457  18.826601  -6.609102   4.416710  -1.506193  -0.440214
     3  C   -0.104894  -6.609102  14.899953  -6.850146  -0.318784  -0.948471
     4  C    0.124642   4.416710  -6.850146  17.171687  -5.119665   3.308771
     5  C    0.125257  -1.506193  -0.318784  -5.119665  14.850778  -0.764449
     6  C   -0.668548  -0.440214  -0.948471   3.308771  -0.764449  13.421761
     7  C    0.412702  -1.466171   0.256965  -0.559358  -1.797724  -4.908656
     8  C   -0.000358 -10.432731   7.953995  -7.632968   1.387881  -3.020445
     9  C   -0.001454   2.761714  -2.191469   1.371139  -0.215665   0.445468
    10  C    0.000007  -0.885457   0.437807  -0.325849   0.028578  -0.116475
    11  C    0.141461  -0.151316  -0.004838  -0.336604   0.365135   0.165766
    12  H   -0.001069  -0.493722   0.783931  -0.193859   0.035705  -0.156105
    13  H   -0.003067  -0.099510  -0.109720   0.363799   0.136214   0.115595
    14  H   -0.017260   0.110540  -0.077438   0.128749  -0.197285   0.608645
    15  H   -0.003702   0.034087   0.024822   0.106403  -0.376036  -0.115298
    16  H    0.000027  -0.075507   0.126228  -0.060844  -0.017244  -0.047805
    17  H   -0.000164   0.269572  -0.192636   0.104046  -0.013345   0.033391
    18  H    0.000005  -0.053997   0.022928  -0.006305  -0.000558  -0.002861
    19  H   -0.000002   0.034287  -0.013700   0.000840   0.001153   0.000706
    20  H   -0.000002   0.022917  -0.014155   0.009961  -0.000109  -0.000168
    21  H   -0.040278   0.016334   0.013650  -0.027781  -0.017895  -0.018979
    22  H   -0.039850  -0.002956  -0.023576   0.003536  -0.015760  -0.015407
    23  H   -0.066841  -0.013364   0.005723  -0.038954   0.107016   0.042457
               7          8          9         10         11         12
     1  O    0.412702  -0.000358  -0.001454   0.000007   0.141461  -0.001069
     2  C   -1.466171 -10.432731   2.761714  -0.885457  -0.151316  -0.493722
     3  C    0.256965   7.953995  -2.191469   0.437807  -0.004838   0.783931
     4  C   -0.559358  -7.632968   1.371139  -0.325849  -0.336604  -0.193859
     5  C   -1.797724   1.387881  -0.215665   0.028578   0.365135   0.035705
     6  C   -4.908656  -3.020445   0.445468  -0.116475   0.165766  -0.156105
     7  C   12.802450   1.183967  -0.376779   0.063326  -0.420794   0.114829
     8  C    1.183967  20.584731  -5.182779   1.601429   0.018186   0.395593
     9  C   -0.376779  -5.182779  10.727784  -1.867920  -0.002662  -0.165626
    10  C    0.063326   1.601429  -1.867920   7.001166   0.000423   0.035761
    11  C   -0.420794   0.018186  -0.002662   0.000423   5.622319  -0.003814
    12  H    0.114829   0.395593  -0.165626   0.035761  -0.003814   0.525445
    13  H   -0.028021  -0.125616   0.049364  -0.010429   0.014977  -0.006229
    14  H   -0.164624  -0.141603   0.023837  -0.004266   0.005700  -0.023025
    15  H    0.651506  -0.003237   0.002189   0.000072  -0.036684   0.005202
    16  H    0.000238   0.546408  -0.215395   0.068341  -0.001729   0.013832
    17  H   -0.032311  -0.404894   0.695473  -0.179496   0.000152  -0.030518
    18  H    0.001266   0.126490  -0.204279   0.474122  -0.000014   0.004661
    19  H   -0.000061  -0.178529   0.142892   0.369327   0.000026  -0.005419
    20  H   -0.000707  -0.000789  -0.003082   0.320129   0.000008  -0.001036
    21  H    0.018628   0.005230  -0.000385   0.000218   0.392675   0.000193
    22  H    0.029511   0.001309  -0.000038  -0.000219   0.403743  -0.000602
    23  H   -0.070871  -0.000377  -0.000003   0.000023   0.386970  -0.000125
              13         14         15         16         17         18
     1  O   -0.003067  -0.017260  -0.003702   0.000027  -0.000164   0.000005
     2  C   -0.099510   0.110540   0.034087  -0.075507   0.269572  -0.053997
     3  C   -0.109720  -0.077438   0.024822   0.126228  -0.192636   0.022928
     4  C    0.363799   0.128749   0.106403  -0.060844   0.104046  -0.006305
     5  C    0.136214  -0.197285  -0.376036  -0.017244  -0.013345  -0.000558
     6  C    0.115595   0.608645  -0.115298  -0.047805   0.033391  -0.002861
     7  C   -0.028021  -0.164624   0.651506   0.000238  -0.032311   0.001266
     8  C   -0.125616  -0.141603  -0.003237   0.546408  -0.404894   0.126490
     9  C    0.049364   0.023837   0.002189  -0.215395   0.695473  -0.204279
    10  C   -0.010429  -0.004266   0.000072   0.068341  -0.179496   0.474122
    11  C    0.014977   0.005700  -0.036684  -0.001729   0.000152  -0.000014
    12  H   -0.006229  -0.023025   0.005202   0.013832  -0.030518   0.004661
    13  H    0.458464   0.004233  -0.023234  -0.011456   0.003282  -0.000361
    14  H    0.004233   0.431514  -0.003722  -0.001774   0.004396  -0.000145
    15  H   -0.023234  -0.003722   0.496054   0.003886  -0.000435   0.000015
    16  H   -0.011456  -0.001774   0.003886   0.495714  -0.011106   0.006793
    17  H    0.003282   0.004396  -0.000435  -0.011106   0.529198  -0.015403
    18  H   -0.000361  -0.000145   0.000015   0.006793  -0.015403   0.558704
    19  H    0.000278   0.000095  -0.000049  -0.006801   0.014252  -0.069199
    20  H    0.000618   0.000050  -0.000020  -0.002072   0.002989  -0.030839
    21  H   -0.000502  -0.000752  -0.010940   0.000388  -0.000080   0.000006
    22  H    0.001697   0.000074  -0.013013  -0.000436   0.000091  -0.000007
    23  H    0.001402   0.001086  -0.001787  -0.000132  -0.000005  -0.000001
              19         20         21         22         23
     1  O   -0.000002  -0.000002  -0.040278  -0.039850  -0.066841
     2  C    0.034287   0.022917   0.016334  -0.002956  -0.013364
     3  C   -0.013700  -0.014155   0.013650  -0.023576   0.005723
     4  C    0.000840   0.009961  -0.027781   0.003536  -0.038954
     5  C    0.001153  -0.000109  -0.017895  -0.015760   0.107016
     6  C    0.000706  -0.000168  -0.018979  -0.015407   0.042457
     7  C   -0.000061  -0.000707   0.018628   0.029511  -0.070871
     8  C   -0.178529  -0.000789   0.005230   0.001309  -0.000377
     9  C    0.142892  -0.003082  -0.000385  -0.000038  -0.000003
    10  C    0.369327   0.320129   0.000218  -0.000219   0.000023
    11  C    0.000026   0.000008   0.392675   0.403743   0.386970
    12  H   -0.005419  -0.001036   0.000193  -0.000602  -0.000125
    13  H    0.000278   0.000618  -0.000502   0.001697   0.001402
    14  H    0.000095   0.000050  -0.000752   0.000074   0.001086
    15  H   -0.000049  -0.000020  -0.010940  -0.013013  -0.001787
    16  H   -0.006801  -0.002072   0.000388  -0.000436  -0.000132
    17  H    0.014252   0.002989  -0.000080   0.000091  -0.000005
    18  H   -0.069199  -0.030839   0.000006  -0.000007  -0.000001
    19  H    0.540328  -0.027436  -0.000003   0.000003   0.000001
    20  H   -0.027436   0.520398  -0.000006   0.000007   0.000001
    21  H   -0.000003  -0.000006   0.565971  -0.076545  -0.021108
    22  H    0.000003   0.000007  -0.076545   0.567801  -0.020035
    23  H    0.000001   0.000001  -0.021108  -0.020035   0.422115
 Mulliken charges:
               1
     1  O   -0.038965
     2  C    1.728019
     3  C   -1.067074
     4  C    0.042049
     5  C   -0.677002
     6  C   -0.918681
     7  C    0.290688
     8  C   -0.680893
     9  C    0.207677
    10  C   -1.010619
    11  C   -0.559086
    12  H    0.165998
    13  H    0.268223
    14  H    0.312976
    15  H    0.263919
    16  H    0.190447
    17  H    0.223550
    18  H    0.188979
    19  H    0.197009
    20  H    0.203343
    21  H    0.201963
    22  H    0.200670
    23  H    0.266812
 Sum of Mulliken charges =  -0.00000
 Mulliken charges with hydrogens summed into heavy atoms:
               1
     1  O   -0.038965
     2  C    1.728019
     3  C   -0.901076
     4  C    0.310272
     5  C   -0.677002
     6  C   -0.605705
     7  C    0.554607
     8  C   -0.490447
     9  C    0.431227
    10  C   -0.421287
    11  C    0.110358
 Electronic spatial extent (au):  <R**2>=           2603.0614
 Charge=             -0.0000 electrons
 Dipole moment (field-independent basis, Debye):
    X=              0.3455    Y=             -1.1578    Z=              0.1139  Tot=              1.2136
 Quadrupole moment (field-independent basis, Debye-Ang):
   XX=            -56.3709   YY=            -61.9320   ZZ=            -71.5495
   XY=             -6.1902   XZ=              0.2223   YZ=              0.4390
 Traceless Quadrupole moment (field-independent basis, Debye-Ang):
   XX=              6.9133   YY=              1.3521   ZZ=             -8.2654
   XY=             -6.1902   XZ=              0.2223   YZ=              0.4390
 Octapole moment (field-independent basis, Debye-Ang**2):
  XXX=             37.6467  YYY=              2.1845  ZZZ=              1.8224  XYY=              0.4799
  XXY=            -16.8750  XXZ=              3.3099  XZZ=              6.7343  YZZ=              0.4960
  YYZ=             -0.9373  XYZ=             -2.5714
 Hexadecapole moment (field-independent basis, Debye-Ang**3):
 XXXX=          -2793.9492 YYYY=           -368.2909 ZZZZ=           -102.8765 XXXY=            -74.2604
 XXXZ=              2.8583 YYYX=              3.9828 YYYZ=              0.5575 ZZZX=             -2.1810
 ZZZY=              0.5114 XXYY=           -572.3223 XXZZ=           -535.8903 YYZZ=            -91.0564
 XXYZ=              4.2491 YYXZ=              3.1959 ZZXY=             -2.9495
 N-N= 5.575899066381D+02 E-N=-2.191987833282D+03  KE= 4.612006646175D+02
 R6APFD:  NTU= -4 IXU= 1 FactS= 1.050
 Calling FoFJK, ICntrl=      2127 FMM=F ISym2X=0 I1Cent= 0 IOpClX= 0 NMat=1 NMatS=1 NMatT=0.
 ***** Axes restored to original set *****
 -------------------------------------------------------------------
 Center     Atomic                   Forces (Hartrees/Bohr)
 Number     Number              X              Y              Z
 -------------------------------------------------------------------
      1        8           0.005160935    0.002344686   -0.000050652
      2        6          -0.007260378   -0.000216529    0.000260430
      3        6           0.024760686    0.002094253    0.000403384
      4        6           0.006869475    0.011171973   -0.001314581
      5        6           0.011603693   -0.015688464    0.001439067
      6        6          -0.006481484    0.003107622    0.000433184
      7        6          -0.014532065   -0.008036906   -0.000171024
      8        6          -0.023495694    0.012204141    0.005607888
      9        6           0.011718369   -0.018291121   -0.005608389
     10        6           0.001897421   -0.001794653   -0.001312936
     11        6           0.003187077    0.014051195   -0.000202671
     12        1          -0.003832071   -0.002092379   -0.000734454
     13        1          -0.002782057   -0.000242872   -0.000267804
     14        1           0.003513873   -0.000108253   -0.000084174
     15        1           0.004234481    0.003093128    0.000127976
     16        1          -0.002457748   -0.003719037   -0.000146056
     17        1           0.004812354    0.003398671    0.001369112
     18        1          -0.003602344    0.001029546    0.001228026
     19        1          -0.003941171    0.001369922   -0.000203555
     20        1           0.000688274   -0.000977661   -0.000451783
     21        1          -0.003721687   -0.003484745    0.000167834
     22        1          -0.003733768   -0.003522160   -0.000291368
     23        1          -0.002606171    0.004309643   -0.000197453
 -------------------------------------------------------------------
 Cartesian Forces:  Max     0.024760686 RMS     0.006889511

 GradGradGradGradGradGradGradGradGradGradGradGradGradGradGradGradGradGrad
 Berny optimization.
 FormGI is forming the generalized inverse of G from B-inverse, IUseBI=4.
 Internal  Forces:  Max     0.023593617 RMS     0.005125358
 Search for a local minimum.
 Step number   1 out of a maximum of  113
 All quantities printed in internal units (Hartrees-Bohrs-Radians)
 Mixed Optimization -- RFO/linear search
 Second derivative matrix not updated -- first step.
 ITU=  0
     Eigenvalues ---    0.00843   0.01336   0.01370   0.01648   0.01916
     Eigenvalues ---    0.02058   0.02156   0.02157   0.02157   0.02157
     Eigenvalues ---    0.02157   0.02157   0.02158   0.02167   0.02209
     Eigenvalues ---    0.02717   0.07207   0.07475   0.09820   0.10596
     Eigenvalues ---    0.15996   0.15997   0.15999   0.16000   0.16000
     Eigenvalues ---    0.16000   0.16000   0.16000   0.16000   0.16000
     Eigenvalues ---    0.16000   0.16000   0.22000   0.22000   0.22001
     Eigenvalues ---    0.22982   0.24000   0.25000   0.25000   0.25000
     Eigenvalues ---    0.32994   0.34202   0.34213   0.34253   0.34289
     Eigenvalues ---    0.34326   0.34328   0.35032   0.35106   0.35213
     Eigenvalues ---    0.35281   0.35290   0.35433   0.37680   0.41444
     Eigenvalues ---    0.42134   0.42514   0.46474   0.46485   0.46489
     Eigenvalues ---    0.46491   0.52772   0.54488
 RFO step:  Lambda=-9.75936964D-03 EMin= 8.42672487D-03
 Linear search not attempted -- first point.
 Iteration  1 RMS(Cart)=  0.07542484 RMS(Int)=  0.00164316
 Iteration  2 RMS(Cart)=  0.00294143 RMS(Int)=  0.00011658
 Iteration  3 RMS(Cart)=  0.00000104 RMS(Int)=  0.00011658
 Iteration  4 RMS(Cart)=  0.00000000 RMS(Int)=  0.00011658
 Variable       Old X    -DE/DX   Delta X   Delta X   Delta X     New X
                                 (Linear)    (Quad)   (Total)
    R1        2.57167   0.00101   0.00000   0.00189   0.00189   2.57355
    R2        2.69637  -0.01317   0.00000  -0.03104  -0.03104   2.66534
    R3        2.63584   0.00586   0.00000   0.01200   0.01203   2.64787
    R4        2.63590  -0.00017   0.00000  -0.00030  -0.00025   2.63564
    R5        2.74834   0.01541   0.00000   0.03986   0.03986   2.78820
    R6        2.63607  -0.00541   0.00000  -0.01182  -0.01183   2.62423
    R7        2.05220   0.00081   0.00000   0.00223   0.00223   2.05444
    R8        2.63589   0.00136   0.00000   0.00329   0.00330   2.63919
    R9        2.05504   0.00107   0.00000   0.00297   0.00297   2.05801
   R10        2.63577  -0.00041   0.00000  -0.00092  -0.00097   2.63480
   R11        2.63584   0.00395   0.00000   0.00868   0.00865   2.64449
   R12        2.05330   0.00100   0.00000   0.00276   0.00276   2.05606
   R13        2.04978   0.00014   0.00000   0.00037   0.00037   2.05015
   R14        2.55590  -0.01937   0.00000  -0.03492  -0.03492   2.52098
   R15        2.05623   0.00408   0.00000   0.01134   0.01134   2.06758
   R16        2.82363   0.00493   0.00000   0.01452   0.01452   2.83815
   R17        2.05206   0.00454   0.00000   0.01252   0.01252   2.06458
   R18        2.06780   0.00270   0.00000   0.00764   0.00764   2.07544
   R19        2.06784   0.00283   0.00000   0.00802   0.00802   2.07586
   R20        2.06845   0.00095   0.00000   0.00269   0.00269   2.07114
   R21        2.06991   0.00207   0.00000   0.00588   0.00588   2.07578
   R22        2.06972   0.00214   0.00000   0.00607   0.00607   2.07580
   R23        2.06906  -0.00086   0.00000  -0.00245  -0.00245   2.06661
    A1        2.04357   0.00776   0.00000   0.02986   0.02986   2.07343
    A2        2.09438  -0.01086   0.00000  -0.04347  -0.04341   2.05097
    A3        2.09459   0.01178   0.00000   0.04618   0.04614   2.14073
    A4        2.09421  -0.00092   0.00000  -0.00271  -0.00274   2.09147
    A5        2.09437   0.00662   0.00000   0.02590   0.02590   2.12027
    A6        2.13941  -0.00774   0.00000  -0.03901  -0.03901   2.10040
    A7        2.04920   0.00112   0.00000   0.01316   0.01315   2.06235
    A8        2.09442   0.00694   0.00000   0.02993   0.02995   2.12437
    A9        2.11172  -0.00613   0.00000  -0.03064  -0.03067   2.08105
   A10        2.07704  -0.00081   0.00000   0.00070   0.00067   2.07772
   A11        2.09425  -0.01955   0.00000  -0.07496  -0.07491   2.01934
   A12        2.09449   0.02359   0.00000   0.09114   0.09117   2.18566
   A13        2.09444  -0.00404   0.00000  -0.01618  -0.01631   2.07814
   A14        2.09438   0.00213   0.00000   0.00694   0.00686   2.10123
   A15        2.08918   0.00239   0.00000   0.01687   0.01691   2.10609
   A16        2.09962  -0.00452   0.00000  -0.02384  -0.02381   2.07581
   A17        2.09438  -0.00079   0.00000  -0.00311  -0.00316   2.09122
   A18        2.02764   0.00577   0.00000   0.03320   0.03322   2.06087
   A19        2.16116  -0.00498   0.00000  -0.03009  -0.03007   2.13110
   A20        2.19706   0.00276   0.00000   0.01198   0.01197   2.20903
   A21        2.02137   0.00020   0.00000   0.00324   0.00323   2.02459
   A22        2.06469  -0.00296   0.00000  -0.01535  -0.01536   2.04933
   A23        2.16499   0.00026   0.00000   0.00114   0.00113   2.16612
   A24        2.11555  -0.00422   0.00000  -0.02464  -0.02465   2.09090
   A25        2.00243   0.00397   0.00000   0.02364   0.02363   2.02606
   A26        1.91841   0.00306   0.00000   0.01769   0.01764   1.93605
   A27        1.91806   0.00352   0.00000   0.02040   0.02036   1.93842
   A28        1.95850  -0.00225   0.00000  -0.01260  -0.01255   1.94595
   A29        1.89137  -0.00357   0.00000  -0.02235  -0.02249   1.86888
   A30        1.88811  -0.00036   0.00000  -0.00152  -0.00147   1.88664
   A31        1.88783  -0.00059   0.00000  -0.00285  -0.00280   1.88503
   A32        1.94689  -0.00042   0.00000  -0.00537  -0.00550   1.94138
   A33        1.94688  -0.00046   0.00000  -0.00558  -0.00572   1.94116
   A34        1.87046  -0.00538   0.00000  -0.02623  -0.02626   1.84420
   A35        1.95961  -0.00320   0.00000  -0.02803  -0.02825   1.93136
   A36        1.86703   0.00491   0.00000   0.03440   0.03438   1.90141
   A37        1.86699   0.00494   0.00000   0.03461   0.03459   1.90158
    D1       -3.14151   0.00021   0.00000   0.00666   0.00676  -3.13475
    D2       -0.00022  -0.00013   0.00000  -0.00399  -0.00409  -0.00431
    D3        1.10353  -0.00248   0.00000  -0.02327  -0.02312   1.08042
    D4       -1.10345   0.00247   0.00000   0.02258   0.02243  -1.08102
    D5       -3.14153  -0.00001   0.00000  -0.00041  -0.00041   3.14124
    D6        0.00017  -0.00061   0.00000  -0.01922  -0.01913  -0.01896
    D7        3.11951  -0.00046   0.00000  -0.01647  -0.01632   3.10319
    D8       -3.14100  -0.00046   0.00000  -0.01398  -0.01396   3.12822
    D9       -0.02166  -0.00032   0.00000  -0.01124  -0.01115  -0.03281
   D10       -0.00008   0.00060   0.00000   0.01906   0.01887   0.01879
   D11        3.14016   0.00030   0.00000   0.00972   0.00963  -3.13339
   D12        3.14109   0.00046   0.00000   0.01384   0.01387  -3.12822
   D13       -0.00185   0.00016   0.00000   0.00450   0.00463   0.00278
   D14       -0.34918  -0.00022   0.00000  -0.00721  -0.00726  -0.35644
   D15        2.80530   0.00012   0.00000   0.00404   0.00404   2.80934
   D16        2.79283  -0.00007   0.00000  -0.00197  -0.00197   2.79086
   D17       -0.33588   0.00027   0.00000   0.00928   0.00934  -0.32654
   D18       -0.00017   0.00023   0.00000   0.00748   0.00780   0.00763
   D19        3.13680  -0.00000   0.00000   0.00052   0.00077   3.13757
   D20       -3.12064   0.00022   0.00000   0.00555   0.00571  -3.11494
   D21        0.01633  -0.00002   0.00000  -0.00141  -0.00132   0.01501
   D22        0.00000  -0.00022   0.00000  -0.00716  -0.00729  -0.00729
   D23        3.14135  -0.00018   0.00000  -0.00573  -0.00571   3.13564
   D24       -3.14027   0.00007   0.00000   0.00202   0.00196  -3.13831
   D25        0.00108   0.00011   0.00000   0.00344   0.00354   0.00462
   D26        3.14138  -0.00019   0.00000  -0.00621  -0.00570   3.13568
   D27        0.00443   0.00003   0.00000   0.00068   0.00110   0.00553
   D28        0.00009   0.00014   0.00000   0.00441   0.00442   0.00451
   D29       -3.13686   0.00036   0.00000   0.01130   0.01122  -3.12564
   D30       -3.14129   0.00019   0.00000   0.00608   0.00650  -3.13479
   D31        0.00056   0.00015   0.00000   0.00453   0.00485   0.00541
   D32       -0.00000  -0.00015   0.00000  -0.00457  -0.00469  -0.00469
   D33       -3.14134  -0.00019   0.00000  -0.00612  -0.00634   3.13551
   D34       -3.13408  -0.00044   0.00000  -0.01101  -0.01098   3.13812
   D35       -0.01594  -0.00018   0.00000  -0.00341  -0.00349  -0.01944
   D36       -0.00567  -0.00077   0.00000  -0.02238  -0.02230  -0.02797
   D37        3.11248  -0.00052   0.00000  -0.01479  -0.01481   3.09766
   D38        2.09331   0.00024   0.00000   0.00552   0.00548   2.09879
   D39       -2.10977  -0.00010   0.00000   0.00154   0.00166  -2.10812
   D40       -0.00853   0.00008   0.00000   0.00362   0.00366  -0.00487
   D41       -1.02620   0.00010   0.00000  -0.00107  -0.00118  -1.02737
   D42        1.05390  -0.00024   0.00000  -0.00504  -0.00500   1.04890
   D43       -3.12804  -0.00006   0.00000  -0.00296  -0.00300  -3.13104
         Item               Value     Threshold  Converged?
 Maximum Force            0.023594     0.000450     NO 
 RMS     Force            0.005125     0.000300     NO 
 Maximum Displacement     0.328023     0.001800     NO 
 RMS     Displacement     0.074623     0.001200     NO 
 Predicted change in Energy=-5.085008D-03
 GradGradGradGradGradGradGradGradGradGradGradGradGradGradGradGradGradGrad

                          Input orientation:                          
 ---------------------------------------------------------------------
 Center     Atomic      Atomic             Coordinates (Angstroms)
 Number     Number       Type             X           Y           Z
 ---------------------------------------------------------------------
      1          8           0        3.210592    0.560256    0.058129
      2          6           0       -0.893413   -0.240569   -0.100628
      3          6           0       -0.370706    1.059452   -0.108835
      4          6           0        0.013357   -1.299279   -0.054222
      5          6           0        1.891804    0.223782    0.010524
      6          6           0        0.997181    1.291498   -0.049834
      7          6           0        1.391865   -1.083261    0.005259
      8          6           0       -2.342145   -0.516424   -0.145713
      9          6           0       -3.322570    0.328771    0.176917
     10          6           0       -4.784007   -0.010118    0.106127
     11          6           0        4.173003   -0.469398    0.112016
     12          1           0       -1.034156    1.917727   -0.180360
     13          1           0       -0.362093   -2.321565   -0.054507
     14          1           0        1.388899    2.306499   -0.060785
     15          1           0        2.043304   -1.949890    0.044946
     16          1           0       -2.628800   -1.525642   -0.456185
     17          1           0       -3.078931    1.332933    0.531762
     18          1           0       -5.257420    0.086880    1.092374
     19          1           0       -5.314381    0.669618   -0.574578
     20          1           0       -4.941843   -1.035281   -0.247917
     21          1           0        4.128503   -1.102841   -0.784298
     22          1           0        4.056642   -1.075230    1.020890
     23          1           0        5.143116    0.034482    0.142817
 ---------------------------------------------------------------------
                    Distance matrix (angstroms):
                    1          2          3          4          5
     1  O    0.000000
     2  C    4.184421   0.000000
     3  C    3.619774   1.401194   0.000000
     4  C    3.700379   1.394723   2.390418   0.000000
     5  C    1.361867   2.825847   2.414859   2.419188   0.000000
     6  C    2.333572   2.433959   1.388683   2.771291   1.394278
     7  C    2.451878   2.437999   2.776850   1.396599   1.399403
     8  C    5.659830   1.475450   2.524147   2.483872   4.301004
     9  C    6.538341   2.510375   3.054349   3.719191   5.218085
    10  C    8.015063   3.902894   4.546143   4.970146   6.680592
    11  C    1.410435   5.076037   4.799109   4.244879   2.386350
    12  H    4.462902   2.164350   1.087161   3.385605   3.386316
    13  H    4.591476   2.148248   3.381464   1.089051   3.400452
    14  H    2.526276   3.420247   2.157230   3.859247   2.143761
    15  H    2.768315   3.401070   3.860988   2.133967   2.179217
    16  H    6.222056   2.188470   3.449979   2.682127   4.869719
    17  H    6.354483   2.766282   2.796362   4.102946   5.119582
    18  H    8.544060   4.535971   5.125307   5.569309   7.231912
    19  H    8.549120   4.538506   4.980845   5.703694   7.243634
    20  H    8.312737   4.128323   5.030164   4.966006   6.953472
    21  H    2.078012   5.141065   5.037324   4.184020   2.719281
    22  H    2.077865   5.143686   5.043268   4.189775   2.719336
    23  H    2.004560   6.047694   5.613923   5.303977   3.259504
                    6          7          8          9         10
     6  C    0.000000
     7  C    2.407964   0.000000
     8  C    3.798536   3.779805   0.000000
     9  C    4.431536   4.924348   1.334047   0.000000
    10  C    5.927956   6.269228   2.506484   1.501884   0.000000
    11  C    3.634941   2.850079   6.520413   7.538229   8.968780
    12  H    2.129679   3.863414   2.763535   2.808784   4.226115
    13  H    3.860294   2.147868   2.680943   3.980234   4.992185
    14  H    1.088021   3.390405   4.679401   5.115256   6.595403
    15  H    3.407338   1.084893   4.617719   5.831150   7.097791
    16  H    4.609679   4.071165   1.094114   2.078698   2.694054
    17  H    4.117604   5.109131   2.102844   1.092527   2.211840
    18  H    6.471149   6.838424   3.224231   2.154116   1.098277
    19  H    6.363797   6.955756   3.228748   2.155977   1.098498
    20  H    6.381626   6.338948   2.652940   2.159438   1.096001
    21  H    4.009672   2.848327   6.528472   7.648002   9.023288
    22  H    4.013496   2.851772   6.528223   7.558854   8.951443
    23  H    4.336586   3.916651   7.511050   8.470868   9.927292
                   11         12         13         14         15
    11  C    0.000000
    12  H    5.735709   0.000000
    13  H    4.901566   4.294078   0.000000
    14  H    3.935315   2.456957   4.948231   0.000000
    15  H    2.594605   4.947725   2.435974   4.307699   0.000000
    16  H    6.906738   3.804703   2.435734   5.566287   4.718016
    17  H    7.484326   2.242812   4.591326   4.610905   6.103377
    18  H    9.497548   4.775752   5.574959   7.101411   7.651542
    19  H    9.580148   4.475881   5.808856   6.919344   7.834613
    20  H    9.139486   4.898453   4.760887   7.161062   7.050855
    21  H    1.098458   6.011790   4.709919   4.433114   2.398581
    22  H    1.098464   6.026360   4.715405   4.441054   2.402296
    23  H    1.093601   6.466046   5.991429   4.392910   3.681868
                   16         17         18         19         20
    16  H    0.000000
    17  H    3.057796   0.000000
    18  H    3.450783   2.571526   0.000000
    19  H    3.470668   2.580933   1.766794   0.000000
    20  H    2.373605   3.112360   1.776292   1.775437   0.000000
    21  H    6.778463   7.720888   9.645355   9.610081   9.086443
    22  H    6.861469   7.546846   9.386551   9.664682   9.087585
    23  H    7.949558   8.333026  10.443924  10.501301  10.149063
                   21         22         23
    21  H    0.000000
    22  H    1.806829   0.000000
    23  H    1.783953   1.784068   0.000000
 Stoichiometry    C10H12O
 Framework group  C1[X(C10H12O)]
 Deg. of freedom    63
 Full point group                 C1      NOp   1
 Largest Abelian subgroup         C1      NOp   1
 Largest concise Abelian subgroup C1      NOp   1
                         Standard orientation:                         
 ---------------------------------------------------------------------
 Center     Atomic      Atomic             Coordinates (Angstroms)
 Number     Number       Type             X           Y           Z
 ---------------------------------------------------------------------
      1          8           0        3.199785    0.625599    0.038896
      2          6           0       -0.895635   -0.220696   -0.104956
      3          6           0       -0.386670    1.084492   -0.132929
      4          6           0        0.022273   -1.268984   -0.043412
      5          6           0        1.884593    0.274578   -0.002739
      6          6           0        0.978727    1.331791   -0.078376
      7          6           0        1.398460   -1.037592    0.011852
      8          6           0       -2.341403   -0.512441   -0.144883
      9          6           0       -3.330505    0.327100    0.165807
     10          6           0       -4.788327   -0.028185    0.101126
     11          6           0        4.173030   -0.392940    0.107447
     12          1           0       -1.059174    1.934567   -0.216773
     13          1           0       -0.342377   -2.295059   -0.028179
     14          1           0        1.359714    2.350585   -0.104747
     15          1           0        2.059023   -1.896621    0.063995
     16          1           0       -2.617574   -1.529143   -0.440061
     17          1           0       -3.097270    1.338957    0.505458
     18          1           0       -5.262184    0.078528    1.086156
     19          1           0       -5.326220    0.635692   -0.589263
     20          1           0       -4.935543   -1.060124   -0.237472
     21          1           0        4.134710   -1.040122   -0.779286
     22          1           0        4.063571   -0.986332    1.025340
     23          1           0        5.137793    0.121536    0.130033
 ---------------------------------------------------------------------
 Rotational constants (GHZ):           4.4818569           0.4568592           0.4181007
 Standard basis: 6-311++G(d,p) (5D, 7F)
 There are   337 symmetry adapted cartesian basis functions of A   symmetry.
 There are   326 symmetry adapted basis functions of A   symmetry.
   326 basis functions,   504 primitive gaussians,   337 cartesian basis functions
    40 alpha electrons       40 beta electrons
       nuclear repulsion energy       555.0833256952 Hartrees.
 NAtoms=   23 NActive=   23 NUniq=   23 SFac= 1.00D+00 NAtFMM=   60 NAOKFM=F Big=F
 Integral buffers will be    131072 words long.
 Raffenetti 2 integral format.
 Two-electron integral symmetry is turned on.
 R6APFD:  NTU= -4 IXU= 1 FactS= 1.050
 Nuclear repulsion after empirical dispersion term =      555.0712420766 Hartrees.
 One-electron integrals computed using PRISM.
 NBasis=   326 RedAO= T EigKep=  1.80D-06  NBF=   326
 NBsUse=   324 1.00D-06 EigRej=  8.80D-07 NBFU=   324
 Initial guess from the checkpoint file:  "ATHE0088.chk"
 B after Tr=    -0.000000   -0.000000    0.000000
         Rot=    0.999995    0.001515   -0.000015    0.002888 Ang=   0.37 deg.
 ExpMin= 3.60D-02 ExpMax= 8.59D+03 ExpMxC= 1.30D+03 IAcc=3 IRadAn=         5 AccDes= 0.00D+00
 Harris functional with IExCor= 1009 and IRadAn=       5 diagonalized for initial guess.
 HarFok:  IExCor= 1009 AccDes= 0.00D+00 IRadAn=         5 IDoV= 1 UseB2=F ITyADJ=14
 ICtDFT=  3500011 ScaDFX=  1.000000  1.000000  1.000000  1.000000
 FoFCou: FMM=F IPFlag=           0 FMFlag=      100000 FMFlg1=           0
         NFxFlg=           0 DoJE=T BraDBF=F KetDBF=T FulRan=T
         wScrn=  0.000000 ICntrl=       500 IOpCl=  0 I1Cent=   200000004 NGrid=           0
         NMat0=    1 NMatS0=      1 NMatT0=    0 NMatD0=    1 NMtDS0=    0 NMtDT0=    0
 Petite list used in FoFCou.
 Requested convergence on RMS density matrix=1.00D-08 within  32 cycles.
 Requested convergence on MAX density matrix=1.00D-06.
 Requested convergence on             energy=1.00D-06.
 No special actions if energy rises.
 SCF Done:  E(RM08HX) =  -463.484162310     A.U. after   14 cycles
            NFock= 14  Conv=0.32D-08     -V/T= 2.0051
 QCSCF skips out because SCF is already converged.
 R6APFD:  NTU= -4 IXU= 1 FactS= 1.050
 Calling FoFJK, ICntrl=      2127 FMM=F ISym2X=0 I1Cent= 0 IOpClX= 0 NMat=1 NMatS=1 NMatT=0.
 ***** Axes restored to original set *****
 -------------------------------------------------------------------
 Center     Atomic                   Forces (Hartrees/Bohr)
 Number     Number              X              Y              Z
 -------------------------------------------------------------------
      1        8          -0.003617539    0.000461244    0.000009889
      2        6          -0.003094820   -0.000976442   -0.000165428
      3        6           0.006109523    0.002512835    0.000428863
      4        6           0.002084479    0.002998693    0.000044166
      5        6           0.004276350   -0.005133357    0.000096974
      6        6          -0.007540399    0.002430911   -0.000189903
      7        6          -0.000773884   -0.000399501    0.000012830
      8        6           0.000545793   -0.000515766    0.000131869
      9        6          -0.001271933    0.000489648    0.000176213
     10        6           0.001438587    0.000098362    0.000117892
     11        6          -0.000763692    0.003531833   -0.000095032
     12        1          -0.001970123    0.000159407   -0.000187421
     13        1          -0.000100353   -0.000663178   -0.000115328
     14        1           0.001009471   -0.000444336   -0.000058187
     15        1           0.003529265    0.000237900    0.000092997
     16        1           0.001449269   -0.000690515   -0.000266714
     17        1           0.000950014    0.000531069   -0.000048458
     18        1          -0.000454124    0.000275074   -0.000164922
     19        1          -0.000202739    0.000040533    0.000294041
     20        1           0.000386248   -0.000181345   -0.000101773
     21        1          -0.000883604   -0.001880125    0.000421757
     22        1          -0.000830467   -0.001900808   -0.000444901
     23        1          -0.000275322   -0.000982136    0.000010578
 -------------------------------------------------------------------
 Cartesian Forces:  Max     0.007540399 RMS     0.001863094

 GradGradGradGradGradGradGradGradGradGradGradGradGradGradGradGradGradGrad
 Berny optimization.
 Using GEDIIS/GDIIS optimizer.
 FormGI is forming the generalized inverse of G from B-inverse, IUseBI=4.
 Internal  Forces:  Max     0.010555266 RMS     0.001820671
 Search for a local minimum.
 Step number   2 out of a maximum of  113
 All quantities printed in internal units (Hartrees-Bohrs-Radians)
 Mixed Optimization -- RFO/linear search
 Update second derivatives using D2CorX and points    1    2
 DE= -4.53D-03 DEPred=-5.09D-03 R= 8.91D-01
 TightC=F SS=  1.41D+00  RLast= 2.06D-01 DXNew= 5.0454D-01 6.1694D-01
 Trust test= 8.91D-01 RLast= 2.06D-01 DXMaxT set to 5.05D-01
 ITU=  1  0
 Use linear search instead of GDIIS.
     Eigenvalues ---    0.00843   0.01336   0.01369   0.01624   0.01905
     Eigenvalues ---    0.02054   0.02156   0.02156   0.02157   0.02157
     Eigenvalues ---    0.02157   0.02157   0.02160   0.02169   0.02209
     Eigenvalues ---    0.02721   0.07191   0.07304   0.09558   0.10692
     Eigenvalues ---    0.14471   0.15997   0.15998   0.15999   0.15999
     Eigenvalues ---    0.15999   0.16000   0.16000   0.16000   0.16000
     Eigenvalues ---    0.16000   0.16265   0.21797   0.22000   0.22031
     Eigenvalues ---    0.22498   0.23968   0.24289   0.24999   0.31186
     Eigenvalues ---    0.33278   0.34113   0.34207   0.34247   0.34288
     Eigenvalues ---    0.34327   0.34354   0.34963   0.35103   0.35202
     Eigenvalues ---    0.35225   0.35309   0.35521   0.38900   0.41002
     Eigenvalues ---    0.42160   0.42683   0.46155   0.46485   0.46486
     Eigenvalues ---    0.47738   0.52805   0.56222
 RFO step:  Lambda=-1.08148763D-03 EMin= 8.42664628D-03
 Quartic linear search produced a step of -0.07239.
 Iteration  1 RMS(Cart)=  0.03289481 RMS(Int)=  0.00038255
 Iteration  2 RMS(Cart)=  0.00064467 RMS(Int)=  0.00001833
 Iteration  3 RMS(Cart)=  0.00000023 RMS(Int)=  0.00001833
 Variable       Old X    -DE/DX   Delta X   Delta X   Delta X     New X
                                 (Linear)    (Quad)   (Total)
    R1        2.57355  -0.00636  -0.00014  -0.01080  -0.01094   2.56262
    R2        2.66534  -0.00099   0.00225  -0.00789  -0.00564   2.65969
    R3        2.64787   0.00148  -0.00087   0.00529   0.00442   2.65229
    R4        2.63564   0.00069   0.00002   0.00130   0.00131   2.63696
    R5        2.78820  -0.00280  -0.00289   0.00044  -0.00245   2.78575
    R6        2.62423  -0.00429   0.00086  -0.01053  -0.00967   2.61456
    R7        2.05444   0.00134  -0.00016   0.00392   0.00376   2.05820
    R8        2.63919  -0.00215  -0.00024  -0.00383  -0.00407   2.63512
    R9        2.05801   0.00066  -0.00022   0.00227   0.00206   2.06007
   R10        2.63480   0.00386   0.00007   0.00752   0.00759   2.64240
   R11        2.64449  -0.00425  -0.00063  -0.00701  -0.00764   2.63685
   R12        2.05606  -0.00005  -0.00020   0.00038   0.00018   2.05624
   R13        2.05015   0.00193  -0.00003   0.00511   0.00508   2.05523
   R14        2.52098   0.00023   0.00253  -0.00598  -0.00345   2.51753
   R15        2.06758   0.00033  -0.00082   0.00296   0.00214   2.06971
   R16        2.83815  -0.00119  -0.00105  -0.00068  -0.00173   2.83642
   R17        2.06458   0.00068  -0.00091   0.00409   0.00318   2.06776
   R18        2.07544   0.00007  -0.00055   0.00160   0.00104   2.07649
   R19        2.07586  -0.00006  -0.00058   0.00131   0.00073   2.07659
   R20        2.07114   0.00015  -0.00019   0.00089   0.00070   2.07184
   R21        2.07578   0.00078  -0.00043   0.00317   0.00275   2.07853
   R22        2.07580   0.00077  -0.00044   0.00318   0.00275   2.07854
   R23        2.06661  -0.00070   0.00018  -0.00233  -0.00215   2.06446
    A1        2.07343  -0.01056  -0.00216  -0.03345  -0.03562   2.03781
    A2        2.05097   0.00085   0.00314  -0.00435  -0.00122   2.04975
    A3        2.14073  -0.00025  -0.00334   0.00733   0.00400   2.14472
    A4        2.09147  -0.00060   0.00020  -0.00297  -0.00277   2.08870
    A5        2.12027  -0.00137  -0.00187   0.00002  -0.00185   2.11842
    A6        2.10040  -0.00082   0.00282  -0.01353  -0.01071   2.08970
    A7        2.06235   0.00219  -0.00095   0.01352   0.01257   2.07492
    A8        2.12437   0.00067  -0.00217   0.00828   0.00610   2.13047
    A9        2.08105  -0.00020   0.00222  -0.00629  -0.00407   2.07699
   A10        2.07772  -0.00047  -0.00005  -0.00199  -0.00204   2.07568
   A11        2.01934   0.00280   0.00542  -0.00351   0.00191   2.02125
   A12        2.18566  -0.00561  -0.00660  -0.00389  -0.01050   2.17516
   A13        2.07814   0.00281   0.00118   0.00739   0.00858   2.08671
   A14        2.10123  -0.00100  -0.00050  -0.00225  -0.00274   2.09849
   A15        2.10609   0.00163  -0.00122   0.01139   0.01016   2.11625
   A16        2.07581  -0.00063   0.00172  -0.00918  -0.00746   2.06835
   A17        2.09122  -0.00197   0.00023  -0.00919  -0.00896   2.08226
   A18        2.06087   0.00402  -0.00240   0.02799   0.02558   2.08645
   A19        2.13110  -0.00206   0.00218  -0.01879  -0.01662   2.11448
   A20        2.20903  -0.00184  -0.00087  -0.00550  -0.00636   2.20266
   A21        2.02459  -0.00073  -0.00023  -0.00501  -0.00525   2.01935
   A22        2.04933   0.00257   0.00111   0.01052   0.01163   2.06096
   A23        2.16612  -0.00016  -0.00008  -0.00045  -0.00053   2.16559
   A24        2.09090  -0.00077   0.00178  -0.00912  -0.00734   2.08356
   A25        2.02606   0.00093  -0.00171   0.00965   0.00794   2.03400
   A26        1.93605   0.00061  -0.00128   0.00688   0.00561   1.94166
   A27        1.93842   0.00026  -0.00147   0.00498   0.00351   1.94193
   A28        1.94595  -0.00068   0.00091  -0.00602  -0.00511   1.94085
   A29        1.86888  -0.00053   0.00163  -0.00769  -0.00606   1.86283
   A30        1.88664   0.00015   0.00011   0.00119   0.00130   1.88793
   A31        1.88503   0.00019   0.00020   0.00035   0.00056   1.88559
   A32        1.94138  -0.00004   0.00040  -0.00313  -0.00280   1.93858
   A33        1.94116   0.00000   0.00041  -0.00294  -0.00260   1.93857
   A34        1.84420   0.00189   0.00190   0.00949   0.01134   1.85555
   A35        1.93136  -0.00236   0.00204  -0.02498  -0.02302   1.90834
   A36        1.90141   0.00037  -0.00249   0.01207   0.00954   1.91094
   A37        1.90158   0.00036  -0.00250   0.01205   0.00950   1.91107
    D1       -3.13475   0.00001  -0.00049   0.00247   0.00197  -3.13278
    D2       -0.00431   0.00006   0.00030   0.00105   0.00136  -0.00295
    D3        1.08042  -0.00154   0.00167  -0.01838  -0.01668   1.06374
    D4       -1.08102   0.00154  -0.00162   0.01843   0.01678  -1.06424
    D5        3.14124  -0.00000   0.00003  -0.00001   0.00002   3.14126
    D6       -0.01896  -0.00005   0.00138  -0.00630  -0.00491  -0.02387
    D7        3.10319  -0.00004   0.00118  -0.00538  -0.00421   3.09898
    D8        3.12822  -0.00009   0.00101  -0.00715  -0.00614   3.12208
    D9       -0.03281  -0.00008   0.00081  -0.00624  -0.00544  -0.03825
   D10        0.01879   0.00005  -0.00137   0.00555   0.00420   0.02299
   D11       -3.13339   0.00007  -0.00070   0.00479   0.00410  -3.12929
   D12       -3.12822   0.00009  -0.00100   0.00642   0.00541  -3.12281
   D13        0.00278   0.00011  -0.00034   0.00566   0.00531   0.00809
   D14       -0.35644   0.00026   0.00053   0.01280   0.01333  -0.34311
   D15        2.80934   0.00017  -0.00029   0.01224   0.01195   2.82129
   D16        2.79086   0.00021   0.00014   0.01193   0.01207   2.80293
   D17       -0.32654   0.00012  -0.00068   0.01137   0.01069  -0.31585
   D18        0.00763   0.00002  -0.00056   0.00270   0.00212   0.00975
   D19        3.13757  -0.00005  -0.00006  -0.00081  -0.00089   3.13668
   D20       -3.11494   0.00004  -0.00041   0.00210   0.00168  -3.11325
   D21        0.01501  -0.00002   0.00010  -0.00142  -0.00134   0.01367
   D22       -0.00729   0.00001   0.00053  -0.00110  -0.00056  -0.00785
   D23        3.13564   0.00001   0.00041  -0.00073  -0.00032   3.13532
   D24       -3.13831  -0.00001  -0.00014  -0.00031  -0.00045  -3.13876
   D25        0.00462  -0.00002  -0.00026   0.00005  -0.00021   0.00440
   D26        3.13568   0.00002   0.00041   0.00062   0.00099   3.13667
   D27        0.00553   0.00006  -0.00008   0.00394   0.00381   0.00935
   D28        0.00451   0.00003  -0.00032   0.00201   0.00170   0.00621
   D29       -3.12564   0.00008  -0.00081   0.00533   0.00452  -3.12112
   D30       -3.13479  -0.00009  -0.00047  -0.00129  -0.00179  -3.13658
   D31        0.00541  -0.00008  -0.00035  -0.00163  -0.00200   0.00341
   D32       -0.00469  -0.00005   0.00034  -0.00281  -0.00247  -0.00716
   D33        3.13551  -0.00004   0.00046  -0.00315  -0.00268   3.13283
   D34        3.13812   0.00002   0.00080  -0.00329  -0.00249   3.13563
   D35       -0.01944   0.00013   0.00025   0.00387   0.00412  -0.01532
   D36       -0.02797   0.00007   0.00161  -0.00291  -0.00129  -0.02926
   D37        3.09766   0.00018   0.00107   0.00425   0.00531   3.10298
   D38        2.09879   0.00015  -0.00040   0.00750   0.00711   2.10590
   D39       -2.10812   0.00006  -0.00012   0.00559   0.00548  -2.10264
   D40       -0.00487   0.00001  -0.00026   0.00536   0.00511   0.00023
   D41       -1.02737   0.00006   0.00009   0.00073   0.00080  -1.02657
   D42        1.04890  -0.00004   0.00036  -0.00118  -0.00083   1.04807
   D43       -3.13104  -0.00008   0.00022  -0.00141  -0.00120  -3.13224
         Item               Value     Threshold  Converged?
 Maximum Force            0.010555     0.000450     NO 
 RMS     Force            0.001821     0.000300     NO 
 Maximum Displacement     0.153627     0.001800     NO 
 RMS     Displacement     0.033226     0.001200     NO 
 Predicted change in Energy=-5.705547D-04
 GradGradGradGradGradGradGradGradGradGradGradGradGradGradGradGradGradGrad

                          Input orientation:                          
 ---------------------------------------------------------------------
 Center     Atomic      Atomic             Coordinates (Angstroms)
 Number     Number       Type             X           Y           Z
 ---------------------------------------------------------------------
      1          8           0        3.206012    0.577190    0.063732
      2          6           0       -0.883337   -0.230242   -0.101403
      3          6           0       -0.367707    1.075120   -0.108656
      4          6           0        0.031716   -1.282904   -0.059359
      5          6           0        1.892865    0.242624    0.012195
      6          6           0        0.994028    1.312105   -0.047275
      7          6           0        1.407782   -1.065665    0.001708
      8          6           0       -2.328117   -0.520320   -0.141365
      9          6           0       -3.309199    0.323697    0.174748
     10          6           0       -4.768641   -0.020819    0.109595
     11          6           0        4.128910   -0.484292    0.113024
     12          1           0       -1.046644    1.923661   -0.181261
     13          1           0       -0.340659   -2.307461   -0.064525
     14          1           0        1.391812    2.324850   -0.057591
     15          1           0        2.083940   -1.916704    0.038808
     16          1           0       -2.600163   -1.537581   -0.442586
     17          1           0       -3.059954    1.333820    0.513602
     18          1           0       -5.247987    0.088927    1.092249
     19          1           0       -5.305010    0.645504   -0.580235
     20          1           0       -4.917735   -1.052477   -0.230236
     21          1           0        4.049993   -1.118832   -0.781926
     22          1           0        3.975346   -1.100456    1.011120
     23          1           0        5.120548   -0.027346    0.149539
 ---------------------------------------------------------------------
                    Distance matrix (angstroms):
                    1          2          3          4          5
     1  O    0.000000
     2  C    4.171570   0.000000
     3  C    3.612357   1.403531   0.000000
     4  C    3.681204   1.395417   2.392122   0.000000
     5  C    1.356078   2.818475   2.412019   2.407536   0.000000
     6  C    2.333517   2.430281   1.383564   2.767718   1.398297
     7  C    2.436484   2.440858   2.783433   1.394446   1.395362
     8  C    5.645634   1.474154   2.527787   2.481344   4.292126
     9  C    6.521086   2.503579   3.049152   3.714523   5.205234
    10  C    7.997176   3.896661   4.540589   4.966370   6.667425
    11  C    1.407449   5.023260   4.764501   4.177858   2.353396
    12  H    4.467448   2.161561   1.089150   3.385230   3.391758
    13  H    4.573460   2.147254   3.382977   1.090140   3.390788
    14  H    2.521975   3.421508   2.158781   3.855613   2.142799
    15  H    2.734808   3.415925   3.870830   2.150107   2.167929
    16  H    6.200023   2.184727   3.452764   2.671799   4.854199
    17  H    6.327496   2.749942   2.775307   4.090716   5.096325
[...]
 00004558,-0.01323989,-0.01815820,-0.00036186,-0.09312922,-0.30277453,-
 0.00248444,0.00395895,-0.00275303,0.00009719,0.00011162,-0.00007278,-0
 .00001911,-0.00003285,-0.00004249,0.00002106,-0.00000571,0.00002341,-0
 .00000823,0.00045408,0.00005647,-0.00000441,-0.00039762,0.00065930,-0.
 00002133,-0.00006179,-0.00007340,-0.00000622,0.10283169,0.31926037,-0.
 00001047,-0.00001615,-0.00322524,-0.00063489,-0.00024320,0.00822322,0.
 00002315,-0.00074111,0.00253300,-0.00014960,0.00007681,-0.00118183,0.0
 0039404,0.00026416,0.00487168,-0.00205932,-0.00227836,-0.03499130,-0.0
 0008310,0.00013458,0.00510606,0.00015652,-0.00004902,0.00030703,0.0000
 2437,0.00000616,0.00000436,-0.00001054,0.00001289,-0.00002419,0.000047
 36,-0.00002509,-0.00056015,0.00018059,-0.00006321,-0.00478291,0.000016
 52,0.00001191,-0.00059094,0.00202030,0.00281570,0.02460346,-0.00093068
 ,0.00201273,0.00010369,-0.00466288,-0.00254061,-0.00041230,-0.00050671
 ,-0.00112175,-0.00000849,-0.01391512,0.02592813,-0.00014288,0.01156013
 ,-0.00742061,0.00012730,-0.00007414,-0.00255027,-0.00020744,-0.1625827
 0,0.13716625,-0.00206099,-0.00028147,0.00143978,0.00003578,-0.00042187
 ,-0.00027871,-0.00005471,-0.00004371,0.00012135,0.00007641,-0.00275523
 ,-0.00236207,-0.00011358,-0.00001235,0.00010290,0.00002036,0.00057748,
 -0.00036990,0.00012187,0.00037039,-0.00062681,0.00002078,0.17723049,0.
 00027586,0.00158430,0.00007989,-0.00197016,0.00185401,-0.00011548,-0.0
 0152356,-0.00028495,-0.00005792,-0.00432579,0.00747502,-0.00007895,0.0
 2172256,-0.01525729,0.00040859,-0.00321204,-0.00469570,-0.00022783,0.1
 3632689,-0.23518638,0.00137361,-0.00016282,0.00019009,-0.00002420,-0.0
 0008951,-0.00005082,-0.00000008,-0.00000395,-0.00000433,0.00000719,0.0
 0052705,-0.00091863,-0.00000341,0.00008514,-0.00001625,0.00001611,0.00
 022332,0.00071026,0.00008233,0.00108649,-0.00096222,0.00004014,-0.1478
 4253,0.24449224,0.00000852,0.00011437,-0.00282568,-0.00042087,-0.00000
 887,0.00689744,-0.00007977,-0.00009297,-0.00093594,-0.00040922,0.00097
 695,0.00181621,0.00063691,-0.00049233,0.00341992,-0.00029030,-0.000222
 11,0.00594479,-0.00207870,0.00129515,-0.03203914,0.00001258,0.00007750
 ,0.00050775,-0.00005512,-0.00000522,-0.00006353,-0.00000651,0.00002195
 ,-0.00009025,-0.00006892,-0.00009006,-0.00026313,0.00003209,-0.0000053
 0,-0.00076962,0.00012907,0.00004818,-0.00396312,0.00005024,-0.00004795
 ,-0.00012325,0.00261620,-0.00150235,0.02340291,-0.00036306,0.00010830,
 0.00001528,-0.00618053,-0.02831015,-0.00526454,-0.00562594,0.00092704,
 -0.00056969,0.00134147,-0.00231489,0.00031070,0.00031785,0.00038320,-0
 .00007375,0.00034985,-0.00158323,0.00028845,-0.00031602,0.00020242,-0.
 00000327,-0.07029443,-0.06139489,-0.01346543,0.00684474,0.02267267,0.0
 0521587,0.00121130,0.00224465,0.00019056,0.00009875,-0.00013039,-0.000
 00963,0.00017713,-0.00009193,-0.00006344,-0.00079317,0.00132857,-0.000
 14127,-0.00043149,-0.00005876,0.00003800,-0.00003487,-0.00000558,0.000
 00286,0.07729799,-0.00047018,0.00001860,-0.00007987,0.00001413,-0.0055
 5559,-0.00130581,-0.00070323,0.00105501,-0.00058789,0.00186760,0.00061
 815,0.00042438,0.00047777,0.00028401,0.00006010,0.00001613,-0.00028584
 ,0.00005939,-0.00054901,0.00009096,0.00022485,-0.06028496,-0.29223417,
 -0.05316452,-0.00663618,-0.01934769,-0.00563986,-0.00167996,0.00066395
 ,0.00178326,0.00011191,-0.00014552,0.00000193,0.00015118,0.00008179,-0
 .00001850,-0.00034966,0.00042245,-0.00026385,-0.00012771,-0.00000694,0
 .00003477,-0.00006174,-0.00000428,-0.00002559,0.06402967,0.31422002,-0
 .00005163,-0.00000577,0.00001192,0.00188834,-0.00041815,0.00276441,-0.
 00029457,-0.00012449,0.00183939,0.00021178,0.00008447,-0.00068942,-0.0
 0009855,0.00031285,0.00006698,0.00052533,-0.00014563,0.00005439,-0.000
 07003,0.00003925,-0.00017627,-0.01459527,-0.05249974,-0.05013752,-0.00
 045701,-0.00746347,0.00532817,-0.00073849,0.00193702,-0.00735965,0.000
 02584,-0.00002916,0.00001917,-0.00000765,-0.00004250,-0.00001871,-0.00
 024416,0.00015292,0.00023630,-0.00000099,0.00000516,-0.00023609,-0.000
 01160,-0.00000575,-0.00000443,0.01253493,0.06078459,0.03805659,-0.0000
 0102,-0.00007209,0.00001148,0.00029673,-0.00087934,-0.00038768,-0.0010
 9535,0.00097097,0.00019957,-0.00004351,-0.00000409,-0.00004046,-0.0000
 2231,-0.00005497,-0.00002489,-0.00005994,-0.00020019,-0.00011954,0.000
 17131,-0.00018594,0.00000218,0.01000897,0.02282135,0.00549831,-0.06876
 114,-0.05647411,-0.01332018,-0.00408382,-0.02833404,-0.00646907,-0.000
 00524,0.00001237,0.00000662,-0.00188962,-0.00074206,0.00070397,0.00011
 950,-0.00016247,0.00001088,-0.00001266,0.00000675,0.00003689,0.0000137
 4,0.00000022,-0.00000243,-0.00291536,0.00297549,0.00105406,0.07257334,
 -0.00013218,0.00007371,-0.00005325,-0.00185361,-0.00041160,0.00160977,
 -0.00034811,-0.00025782,0.00021035,0.00059938,-0.00021167,0.00004879,-
 0.00004347,0.00017554,0.00001146,0.00019141,0.00052838,0.00018719,-0.0
 0027524,-0.00010986,-0.00000718,-0.00593027,-0.01852414,-0.00579696,-0
 .05320716,-0.29452064,-0.06087007,0.00023154,-0.00403008,-0.00160082,0
 .00003476,-0.00005833,-0.00000801,-0.00076330,0.00085032,-0.00009724,-
 0.00005042,0.00015042,-0.00005193,0.00003536,-0.00001526,0.00000913,0.
 00002218,0.00000377,-0.00001910,0.00282892,-0.00091608,-0.00276099,0.0
 6061352,0.31620554,-0.00003107,0.00009945,0.00014217,0.00043855,0.0015
 2608,-0.00610661,0.00070947,-0.00061377,0.00001508,-0.00070014,0.00017
 699,-0.00002456,0.00008046,-0.00058836,-0.00021537,-0.00053118,0.00049
 263,-0.00038499,0.00037934,0.00041656,0.00007884,-0.00280976,-0.006479
 00,0.00583030,-0.01187586,-0.06134867,-0.05554092,0.00021743,-0.001050
 25,0.00269243,-0.00000471,-0.00001148,0.00002918,0.00059953,0.00043196
 ,0.00090050,-0.00009206,0.00009305,0.00009165,0.00001925,-0.00000060,0
 .00007317,-0.00000492,0.00000903,0.00003786,0.00116887,-0.00243012,0.0
 0978473,0.01275395,0.06933196,0.04054429,-0.00055518,-0.00005722,-0.00
 001082,-0.00076856,0.00116216,-0.00216033,0.00012996,0.00032280,0.0001
 1783,-0.00026398,-0.00037828,-0.00014312,0.00039967,0.00009406,-0.0000
 2483,-0.00023385,0.00008518,-0.00003372,-0.00017524,-0.00005344,0.0001
 9380,-0.00239155,-0.00302787,-0.00048307,-0.01748323,0.00877839,0.0284
 3991,-0.09249461,0.01979502,0.10188751,0.00012935,-0.00013681,0.000003
 24,0.00005422,-0.00002213,0.00004828,0.00003036,0.00001001,-0.00004863
 ,-0.00003344,-0.00001829,0.00000708,-0.00006268,0.00000608,0.00002466,
 0.00002668,-0.00030583,0.00121059,0.00066834,-0.00039433,-0.00084619,0
 .10550028,-0.00023610,-0.00003395,-0.00000479,0.00032254,0.00028311,-0
 .00007643,0.00003586,0.00008943,0.00007117,-0.00015283,-0.00001330,-0.
 00005611,0.00014185,0.00000525,-0.00000907,-0.00009490,0.00005319,-0.0
 0007590,0.00002702,-0.00005007,0.00007783,-0.00043742,0.00003004,-0.00
 014568,-0.00147935,0.00173618,0.00793753,0.01829168,-0.05574248,-0.043
 80008,0.00005327,-0.00005410,0.00000147,-0.00000519,-0.00003483,0.0000
 4334,-0.00000088,-0.00001087,-0.00003228,-0.00000881,-0.00000495,-0.00
 000545,-0.00001116,0.00000487,-0.00000026,-0.00009988,0.00028529,-0.00
 036056,0.00025349,0.00002234,-0.00012607,-0.02207669,0.05461754,0.0002
 0337,0.00001672,0.00000800,0.00018304,0.00016245,-0.00029795,-0.000008
 53,-0.00011015,-0.00001718,-0.00011956,0.00009256,0.00002870,-0.000152
 99,-0.00005315,-0.00001377,0.00006349,-0.00003588,0.00001949,0.0000692
 9,0.00007394,0.00003986,-0.00103223,0.00077300,-0.00004880,-0.00052622
 ,0.00072723,0.00499230,0.10001647,-0.04468660,-0.24638723,-0.00005046,
 0.00005051,-0.00000245,-0.00002013,-0.00001917,-0.00001000,-0.00001101
 ,0.00000441,-0.00001482,0.00001053,0.00000556,-0.00000363,0.00000718,-
 0.00000304,-0.00000409,-0.00005345,0.00013112,-0.00004156,0.00076299,0
 .00015790,0.00018403,-0.11040856,0.04743712,0.26655169,-0.00067834,-0.
 00008579,-0.00002801,-0.00084681,0.00001064,0.00240183,-0.00010043,0.0
 0038235,-0.00004232,0.00016932,-0.00032998,0.00004542,0.00044438,0.000
 25780,0.00004620,-0.00015771,0.00005652,-0.00004703,-0.00026021,-0.000
 27324,-0.00017691,-0.00200424,-0.00292237,-0.00063877,-0.01867795,0.02
 001850,-0.02095273,-0.10062123,0.06626769,-0.08713466,0.00015900,-0.00
 016862,0.00000840,0.00000555,-0.00006002,-0.00000915,0.00003094,0.0000
 0344,0.00005290,-0.00003948,-0.00002157,-0.00001111,-0.00004286,0.0000
 1067,-0.00002358,-0.00005908,0.00019666,-0.00120697,0.00065259,-0.0007
 1432,0.00057144,0.00666630,-0.00824080,0.00965405,0.11425745,-0.000216
 81,-0.00003552,-0.00001584,0.00028291,0.00022318,0.00025629,0.00004821
 ,0.00006370,-0.00005074,-0.00008594,0.00000418,0.00000535,0.00010473,0
 .00004653,0.00001425,-0.00004055,0.00006214,0.00003658,0.00001322,-0.0
 0009413,-0.00003608,-0.00069097,0.00017262,0.00041382,-0.00227357,0.00
 597597,-0.00777180,0.06389221,-0.12393589,0.09752044,0.00004772,-0.000
 05245,0.00000469,-0.00001752,-0.00005076,-0.00001534,-0.00001239,-0.00
 000225,0.00001822,-0.00000121,-0.00000438,0.00000350,-0.00000474,0.000
 00433,-0.00000011,-0.00011654,0.00013735,0.00041343,0.00057426,0.00001
 948,0.00011840,-0.00343189,0.00280072,-0.00481434,-0.07216877,0.129373
 67,-0.00025048,-0.00002975,-0.00000851,-0.00009036,0.00010360,-0.00040
 449,0.00000396,0.00012802,0.00003070,0.00006540,-0.00010088,0.00002662
 ,0.00017261,0.00008416,0.00001024,-0.00005799,0.00004840,0.00000111,-0
 .00008243,-0.00009967,0.00002680,0.00088158,-0.00060750,-0.00028119,0.
 00053724,-0.00121209,0.00190327,-0.08584343,0.09842741,-0.16915802,0.0
 0006093,-0.00006006,-0.00000040,0.00000928,0.00000475,-0.00000686,0.00
 000667,-0.00000883,-0.00001368,-0.00001034,-0.00000601,-0.00000037,-0.
 00001004,0.00000384,-0.00000216,0.00001562,-0.00004595,0.00019450,-0.0
 0058243,-0.00016942,0.00014407,-0.01358263,0.01616062,-0.02021290,0.09
 389098,-0.10791235,0.18222870,-0.00008272,0.00001967,-0.00000861,0.000
 15390,0.00026101,-0.00000630,0.00001135,-0.00028058,0.00008641,0.00008
 817,-0.00002824,0.00000199,0.00002281,0.00000298,0.00000720,-0.0000165
 4,0.00021989,0.00001212,-0.00004935,-0.00002623,0.00001183,0.00189028,
 -0.00171221,-0.00041338,-0.00435614,-0.03346904,-0.00756102,-0.0499079
 8,-0.02737979,-0.00603241,0.00001842,-0.00002622,-0.00000052,0.0000218
 4,0.00021667,-0.00006223,-0.00003461,0.00003709,-0.00000951,0.00001942
 ,-0.00000308,-0.00000159,0.00000730,0.00000213,-0.00000231,-0.00064332
 ,0.00134383,0.00032234,-0.00561874,-0.00083985,-0.00002690,0.00087497,
 0.01372564,0.00140727,0.00111840,0.01410166,0.00487251,0.05648622,-0.0
 0024991,0.00000144,-0.00000386,-0.00010419,0.00037171,0.00007164,0.000
 23340,-0.00007332,0.00003971,-0.00003712,-0.00008209,-0.00001182,0.000
 15616,0.00002539,-0.00001011,-0.00006157,0.00014498,-0.00001714,-0.000
 06219,-0.00003541,0.00001043,0.00213203,0.00116773,0.00036226,-0.00131
 929,-0.00810829,-0.00166416,-0.03011778,-0.29672488,-0.05641527,0.0000
 6315,-0.00007334,-0.00000035,0.00003762,0.00007347,-0.00001204,-0.0000
 0484,0.00001418,-0.00000536,0.00000517,-0.00000697,0.00000164,-0.00001
 547,0.00000577,-0.00000189,-0.00066923,0.00056544,0.00011931,-0.001114
 72,0.00100772,-0.00005514,-0.00040362,-0.00400510,0.00010857,-0.002283
 58,-0.01472891,-0.00473087,0.03382404,0.32043510,-0.00005268,-0.000000
 41,-0.00001327,-0.00008227,0.00016139,-0.00022774,0.00004876,-0.000020
 80,0.00000994,0.00001342,-0.00004862,0.00000620,0.00002604,0.00003683,
 0.00001772,0.00001712,0.00002950,0.00004403,-0.00004245,-0.00001821,0.
 00000052,0.00052460,0.00035779,-0.00048573,-0.00036982,-0.00092594,-0.
 00119446,-0.00667235,-0.05648716,-0.05915313,0.00001448,-0.00001784,0.
 00000169,0.00000432,0.00001504,-0.00003728,-0.00000464,0.00000301,0.00
 000961,0.00000174,-0.00000091,0.00000023,-0.00000580,0.00000028,0.0000
 0262,-0.00013802,0.00005681,0.00030866,-0.00009402,-0.00013406,0.00172
 778,-0.00419014,-0.02703823,-0.00477026,0.00359940,0.02181346,0.005522
 35,0.00740324,0.06221278,0.05823237,-0.00450048,0.01954037,0.02001876,
 0.00016181,-0.00109823,0.00003282,0.00097094,0.00069214,-0.00021635,-0
 .00106384,0.00023901,-0.00063314,0.00559888,0.00159649,0.00184979,-0.0
 0158721,0.00055082,-0.00053376,0.00061470,-0.00092655,-0.00003074,0.00
 002199,-0.00003934,0.00009852,0.00000569,0.00002677,-0.00001259,0.0000
 0078,-0.00000158,-0.00000657,-0.05359130,-0.01740521,-0.02572522,-0.00
 000093,0.00000982,0.00005624,-0.00001193,0.00001404,0.00005166,0.00006
 849,-0.00011135,0.00011479,-0.00187995,-0.00061158,0.00167524,0.000005
 52,0.00000324,0.00000544,-0.00000125,0.00000401,-0.00000790,0.00000495
 ,0.00000070,-0.00000148,0.00000075,0.00000004,0.00000204,0.00000033,0.
 00000074,0.00000129,0.05437687,0.00943539,-0.02066476,-0.01829406,0.00
 025962,0.00028118,-0.00004570,-0.00031171,-0.00002552,0.00019123,0.000
 06319,0.00002389,0.00000251,-0.00543982,-0.00061698,-0.00014407,0.0010
 0247,-0.00033381,0.00029624,0.00043881,0.00058590,0.00034479,-0.000121
 92,-0.00009322,-0.00003688,0.00003911,0.00001468,0.00000347,0.00001254
 ,-0.00004294,-0.00000219,-0.01409410,-0.11830066,-0.10963495,0.0000538
 2,-0.00001947,-0.00003423,0.00006211,0.00003904,0.00001496,-0.00008361
 ,0.00011508,-0.00014078,-0.00055316,0.00013817,0.00037749,0.00002030,0
 .00002720,0.00000414,-0.00000192,0.00000719,0.00000340,0.00002888,0.00
 001231,-0.00000944,0.00003427,0.00000901,0.00001226,0.00000450,0.00001
 393,0.00000196,0.00988245,0.13345786,0.00446248,0.00107891,0.00914427,
 0.00005631,-0.00000342,-0.00003162,-0.00012819,0.00008246,-0.00002909,
 -0.00020269,0.00051497,-0.00006904,-0.00188770,-0.00043866,0.00043148,
 0.00045052,0.00005859,-0.00019379,0.00038096,-0.00115234,-0.00011060,-
 0.00006367,0.00000309,0.00000686,0.00000079,0.00000136,0.00000291,0.00
 000331,-0.00001418,0.00000029,-0.02151665,-0.11258990,-0.22952288,0.00
 002703,0.00000389,0.00000726,0.00005016,0.00000003,0.00001320,-0.00005
 876,0.00007330,-0.00000177,0.00031828,0.00072365,-0.00014160,0.0000174
 2,0.00001095,-0.00000049,0.00000162,0.00000790,-0.00000176,0.00000669,
 0.00000478,-0.00000192,0.00000994,0.00000421,0.00000369,0.00000315,0.0
 0000587,0.00000088,0.02194480,0.12392508,0.23936392,-0.00305207,0.0202
 3178,-0.02031485,0.00013528,-0.00108260,-0.00005645,0.00094256,0.00068
 391,0.00032600,-0.00108674,0.00024447,0.00056551,0.00554995,0.00159009
 ,-0.00145109,-0.00159049,0.00057470,0.00042063,0.00065153,-0.00100885,
 0.00004604,0.00004987,-0.00003481,-0.00009474,0.00001062,0.00003975,-0
 .00000307,0.00000117,-0.00001012,0.00001680,-0.05690089,-0.02466747,0.
 03515638,-0.00000473,0.00001097,-0.00004854,-0.00000685,0.00001739,-0.
 00005292,0.00007073,-0.00011202,-0.00011876,-0.00173668,-0.00051838,-0
 .00177005,0.00000262,0.00000070,0.00000237,-0.00000089,0.00000241,-0.0
 0000478,-0.00000091,-0.00000007,-0.00000206,0.00000852,0.00000164,0.00
 000166,0.00000020,0.00000176,-0.00000031,0.00088670,0.00066376,-0.0039
 4670,0.05744954,0.00856777,-0.02121072,0.01803969,0.00025618,0.0002777
 4,0.00014020,-0.00030682,-0.00001905,-0.00021207,0.00005564,0.00003431
 ,0.00002215,-0.00547024,-0.00060473,-0.00022597,0.00103724,-0.00035028
 ,-0.00023458,0.00047037,0.00056371,-0.00030793,-0.00012751,-0.00008210
 ,-0.00005802,0.00003790,0.00001497,-0.00000986,0.00001329,-0.00004472,
 0.00001025,-0.02108921,-0.12409252,0.11123317,0.00005507,-0.00001964,0
 .00003453,0.00006328,0.00003926,-0.00000833,-0.00009413,0.00012242,0.0
 0015203,-0.00051681,0.00016884,-0.00039860,0.00002331,0.00002560,0.000
 00600,-0.00000301,0.00000737,0.00000099,0.00002804,0.00001011,-0.00001
 119,0.00003412,0.00001059,0.00001222,0.00000429,0.00001271,0.00000319,
 0.00139241,0.01133327,-0.01389426,0.01762608,0.13997392,-0.00495043,-0
 .00072973,0.00816174,-0.00002542,-0.00005491,-0.00006058,0.00018287,-0
 .00004470,-0.00000981,0.00012860,-0.00049329,-0.00005130,0.00200805,0.
 00051438,0.00045440,-0.00048854,-0.00004353,-0.00019836,-0.00033198,0.
 00112741,-0.00010206,0.00005115,-0.00001315,0.00005189,0.00000141,-0.0
 0000458,0.00000224,-0.00000303,0.00001530,-0.00000951,0.03105292,0.113
 98685,-0.22055862,-0.00002357,-0.00000447,0.00000396,-0.00004870,0.000
 00089,0.00000685,0.00006086,-0.00007501,-0.00000379,-0.00042751,-0.000
 74310,-0.00030664,-0.00001469,-0.00000771,-0.00000607,-0.00000193,-0.0
 0000496,-0.00000091,-0.00000617,-0.00000273,0.00000261,-0.00000980,-0.
 00000662,-0.00000279,-0.00000269,-0.00000440,-0.00000254,0.00518311,0.
 01473014,-0.01966424,-0.03207820,-0.12556768,0.22990318,-0.03087229,-0
 .00346494,-0.00096588,-0.00003778,-0.00006443,-0.00002360,-0.00004747,
 0.00037303,0.00001165,0.00001276,-0.00009572,-0.00000304,0.00138001,0.
 00409886,0.00010632,-0.00114364,-0.00051896,-0.00004879,0.00018767,0.0
 0034313,-0.00000732,0.00008799,0.00005994,0.00003000,-0.00003103,-0.00
 000435,-0.00000207,-0.00000692,0.00002686,0.00000009,-0.26278113,-0.10
 861628,-0.00755926,-0.00011238,-0.00001240,-0.00000549,-0.00004873,-0.
 00002293,-0.00000415,0.00000737,0.00003904,-0.00000099,0.00018437,-0.0
 0000052,0.00001940,-0.00001662,-0.00001984,-0.00000407,0.00000632,-0.0
 0001120,-0.00000277,-0.00002185,-0.00000795,0.00000898,-0.00002487,-0.
 00000572,-0.00001034,-0.00000421,-0.00001057,-0.00000193,-0.00008151,-
 0.00139497,0.00007090,-0.00137903,-0.00205723,-0.00025630,0.29474297,0
 .03645591,0.00905633,0.00116890,-0.00014902,0.00019444,0.00000301,-0.0
 0014841,-0.00048939,-0.00000644,0.00016184,0.00051438,0.00001012,0.002
 32073,-0.00402493,-0.00001724,0.00137856,0.00055991,0.00003854,-0.0002
 7353,-0.00132005,-0.00002450,-0.00002427,0.00005882,-0.00000136,-0.000
 00891,-0.00001713,0.00000048,-0.00000375,0.00000776,0.00000223,-0.1226
 7439,-0.10628536,-0.00422584,0.00010665,0.00002221,0.00000307,0.000048
 26,-0.00000953,0.00000208,-0.00002652,-0.00002121,-0.00000107,-0.00051
 698,0.00074917,0.00000114,0.00000643,0.00000028,-0.00000294,0.00000053
 ,0.00000370,0.00000295,-0.00000422,-0.00000074,0.00000190,-0.00000361,
 0.00000082,-0.00000191,0.00000185,-0.00000126,0.00000014,-0.01375921,-
 0.00596134,0.00159372,-0.01425508,-0.00617105,-0.00257441,0.11136714,0
 .11313417,-0.00044740,-0.00002025,0.00002216,-0.00000304,0.00000574,-0
 .00005746,0.00000269,0.00000078,-0.00009679,-0.00000744,0.00000054,0.0
 0015998,0.00003314,0.00007012,0.00048291,-0.00002631,-0.00000993,0.000
 41139,-0.00001112,-0.00001258,0.00047309,0.00000014,0.00000130,-0.0000
 2232,0.00000434,0.00000363,-0.00000176,0.00000189,-0.00000285,0.000009
 39,-0.00774188,-0.00378793,-0.05041996,-0.00000150,-0.00000005,-0.0000
 4067,-0.00000167,-0.00000073,0.00004089,-0.00000046,0.00000101,0.00000
 323,0.00001241,0.00001744,-0.00049694,-0.00000138,-0.00000248,0.000005
 00,0.00000011,-0.00000044,-0.00000096,-0.00000140,-0.00000021,-0.00000
 011,0.00000048,0.00000058,-0.00000069,-0.00000060,0.00000019,-0.000000
 19,-0.02386677,-0.01156540,0.00079405,0.02340714,0.01127407,0.00239037
 ,0.00864866,0.00402743,0.04634540\\0.00000675,-0.00001229,0.00000164,0
 .00000464,0.00000774,-0.00000048,-0.00000626,-0.00000254,-0.00000286,0
 .00000046,-0.00001020,0.00000129,-0.00000022,0.00001359,0.00000022,0.0
 0001139,-0.00000424,-0.00000314,-0.00000004,0.,0.00000270,-0.00000842,
 0.00000253,-0.00000047,-0.00000771,-0.00000363,-0.00000124,0.00000537,
 0.00000049,0.00000020,-0.00001245,-0.00000055,-0.00000080,-0.00000522,
 -0.00000535,-0.00000161,-0.00000162,0.00000253,0.00000413,0.00000257,-
 0.00000021,-0.00000353,-0.00000044,0.00000098,0.00000335,-0.00000116,0
 .00000182,0.00000291,0.00001325,-0.00000044,-0.00000330,-0.00000024,0.
 00000312,-0.00000223,-0.00000097,-0.00000162,-0.00000470,-0.00000177,0
 .00000058,0.00000149,0.00000101,0.00000063,0.00000054,0.00000021,0.000
 00409,0.00000516,0.00000087,0.00000295,0.00000074\\\@


 I am not a vegetarian because I love animals;
 I am a vegetarian because I hate plants.
                               -- A. Whitney Brown
 Job cpu time:       0 days  3 hours  4 minutes 52.0 seconds.
 Elapsed time:       0 days  0 hours 11 minutes 36.7 seconds.
 File lengths (MBytes):  RWF=    215 Int=      0 D2E=      0 Chk=     10 Scr=      1
 Normal termination of Gaussian 16 at Thu Sep 18 04:29:27 2025.
