 Entering Gaussian System, Link 0=g16
 Input=AZAN0089.gjf
 Output=AZAN0089.log
 Initial command:
 /usr/local/g16/l1.exe "/dados_01/scratch/Gau-1911063.inp" -scrdir="/dados_01/scratch/"
 Entering Link 1 = /usr/local/g16/l1.exe PID=   1911064.
  
 Copyright (c) 1988-2017, Gaussian, Inc.  All Rights Reserved.
  
 This is part of the Gaussian(R) 16 program.  It is based on
 the Gaussian(R) 09 system (copyright 2009, Gaussian, Inc.),
 the Gaussian(R) 03 system (copyright 2003, Gaussian, Inc.),
 the Gaussian(R) 98 system (copyright 1998, Gaussian, Inc.),
 the Gaussian(R) 94 system (copyright 1995, Gaussian, Inc.),
 the Gaussian 92(TM) system (copyright 1992, Gaussian, Inc.),
 the Gaussian 90(TM) system (copyright 1990, Gaussian, Inc.),
 the Gaussian 88(TM) system (copyright 1988, Gaussian, Inc.),
 the Gaussian 86(TM) system (copyright 1986, Carnegie Mellon
 University), and the Gaussian 82(TM) system (copyright 1983,
 Carnegie Mellon University). Gaussian is a federally registered
 trademark of Gaussian, Inc.
  
 This software contains proprietary and confidential information,
 including trade secrets, belonging to Gaussian, Inc.
  
 This software is provided under written license and may be
 used, copied, transmitted, or stored only in accord with that
 written license.
  
 The following legend is applicable only to US Government
 contracts under FAR:
  
                    RESTRICTED RIGHTS LEGEND
  
 Use, reproduction and disclosure by the US Government is
 subject to restrictions as set forth in subparagraphs (a)
 and (c) of the Commercial Computer Software - Restricted
 Rights clause in FAR 52.227-19.
  
 Gaussian, Inc.
 340 Quinnipiac St., Bldg. 40, Wallingford CT 06492
  
  
 ---------------------------------------------------------------
 Warning -- This program may not be used in any manner that
 competes with the business of Gaussian, Inc. or will provide
 assistance to any competitor of Gaussian, Inc.  The licensee
 of this program is prohibited from giving any competitor of
 Gaussian, Inc. access to this program.  By using this program,
 the user acknowledges that Gaussian, Inc. is engaged in the
 business of creating and licensing software in the field of
 computational chemistry and represents and warrants to the
 licensee that it is not a competitor of Gaussian, Inc. and that
 it will not use this program in any manner prohibited above.
 ---------------------------------------------------------------
  

 Cite this work as:
 Gaussian 16, Revision B.01,
 M. J. Frisch, G. W. Trucks, H. B. Schlegel, G. E. Scuseria, 
 M. A. Robb, J. R. Cheeseman, G. Scalmani, V. Barone, 
 G. A. Petersson, H. Nakatsuji, X. Li, M. Caricato, A. V. Marenich, 
 J. Bloino, B. G. Janesko, R. Gomperts, B. Mennucci, H. P. Hratchian, 
 J. V. Ortiz, A. F. Izmaylov, J. L. Sonnenberg, D. Williams-Young, 
 F. Ding, F. Lipparini, F. Egidi, J. Goings, B. Peng, A. Petrone, 
 T. Henderson, D. Ranasinghe, V. G. Zakrzewski, J. Gao, N. Rega, 
 G. Zheng, W. Liang, M. Hada, M. Ehara, K. Toyota, R. Fukuda, 
 J. Hasegawa, M. Ishida, T. Nakajima, Y. Honda, O. Kitao, H. Nakai, 
 T. Vreven, K. Throssell, J. A. Montgomery, Jr., J. E. Peralta, 
 F. Ogliaro, M. J. Bearpark, J. J. Heyd, E. N. Brothers, K. N. Kudin, 
 V. N. Staroverov, T. A. Keith, R. Kobayashi, J. Normand, 
 K. Raghavachari, A. P. Rendell, J. C. Burant, S. S. Iyengar, 
 J. Tomasi, M. Cossi, J. M. Millam, M. Klene, C. Adamo, R. Cammi, 
 J. W. Ochterski, R. L. Martin, K. Morokuma, O. Farkas, 
 J. B. Foresman, and D. J. Fox, Gaussian, Inc., Wallingford CT, 2016.
 
 ******************************************
 Gaussian 16:  ES64L-G16RevB.01 20-Dec-2017
                18-Sep-2025 
 ******************************************
 %nprocs=16
 Will use up to   16 processors via shared memory.
 %mem=40GB
 %chk=AZAN0089.chk
 ----------------------------------------------------------------------
 # opt freq=noraman M08HX/6-311++G** scf=xqc Empiricaldispersion=pfd In
 t(Grid=ultraFine)
 ----------------------------------------------------------------------
 1/18=20,19=15,26=4,38=1/1,3;
 2/9=110,12=2,17=6,18=5,40=1/2;
 3/5=4,6=6,7=1111,11=2,25=1,30=1,71=1,74=-74,75=-5,124=11/1,2,3;
 4//1;
 5/5=2,8=3,13=1,38=5/2,8;
 6/7=2,8=2,9=2,10=2,28=1/1;
 7//1,2,3,16;
 1/18=20,19=15,26=4/3(2);
 2/9=110/2;
 99//99;
 2/9=110/2;
 3/5=4,6=6,7=1111,11=2,25=1,30=1,71=1,74=-74,75=-5,124=11/1,2,3;
 4/5=5,16=3,69=1/1;
 5/5=2,8=3,13=1,38=5/2,8;
 7//1,2,3,16;
 1/18=20,19=15,26=4/3(-5);
 2/9=110/2;
 6/7=2,8=2,9=2,10=2,19=2,28=1/1;
 99/9=1/99;
 --------
 AZAN0089
 --------
 Symbolic Z-matrix:
 Charge =  0 Multiplicity = 1
 O                     2.4966    2.1721    0.0012 
 O                    -0.0578    2.4815   -0.0018 
 O                    -0.8533   -2.8032    0.0002 
 O                     4.5936    0.4292    0.0014 
 C                     0.9241    0.3308   -0.0005 
 C                     0.7088   -1.049    -0.0007 
 C                    -1.5915    0.7233   -0.0004 
 C                    -1.8068   -0.6564   -0.0002 
 C                    -0.2182    1.2674   -0.0007 
 C                    -0.6646   -1.593    -0.0002 
 C                     2.2308    0.8335    0. 
 C                     1.8002   -1.926    -0.0006 
 C                    -2.6829    1.6003    0.0001 
 C                    -3.1134   -1.1592    0.0004 
 C                     3.3154   -0.044     0.0002 
 C                     3.1005   -1.4208   -0.0002 
 C                    -3.9833    1.0951    0.0009 
 C                    -4.1981   -0.2818    0.001 
 H                     1.6592   -3.0034   -0.0007 
 H                    -2.5439    2.678     0. 
 H                    -3.3075   -2.2284    0.0006 
 H                     3.9427   -2.1077    0.0002 
 H                    -4.8296    1.776     0.0013 
 H                    -5.2116   -0.6725    0.0016 
 H                     1.6774    2.6888    0.0041 
 H                     4.5594    1.4015    0.0017 
 

 GradGradGradGradGradGradGradGradGradGradGradGradGradGradGradGradGradGrad
 Berny optimization.
 Initialization pass.
                           ----------------------------
                           !    Initial Parameters    !
                           ! (Angstroms and Degrees)  !
 --------------------------                            --------------------------
 ! Name  Definition              Value          Derivative Info.                !
 --------------------------------------------------------------------------------
 ! R1    R(1,11)                 1.3647         estimate D2E/DX2                !
 ! R2    R(1,25)                 0.9685         estimate D2E/DX2                !
 ! R3    R(2,9)                  1.2247         estimate D2E/DX2                !
 ! R4    R(3,10)                 1.2248         estimate D2E/DX2                !
 ! R5    R(4,15)                 1.363          estimate D2E/DX2                !
 ! R6    R(4,26)                 0.9729         estimate D2E/DX2                !
 ! R7    R(5,6)                  1.3965         estimate D2E/DX2                !
 ! R8    R(5,9)                  1.4772         estimate D2E/DX2                !
 ! R9    R(5,11)                 1.4001         estimate D2E/DX2                !
 ! R10   R(6,10)                 1.4772         estimate D2E/DX2                !
 ! R11   R(6,12)                 1.4001         estimate D2E/DX2                !
 ! R12   R(7,8)                  1.3964         estimate D2E/DX2                !
 ! R13   R(7,9)                  1.4772         estimate D2E/DX2                !
 ! R14   R(7,13)                 1.4001         estimate D2E/DX2                !
 ! R15   R(8,10)                 1.4771         estimate D2E/DX2                !
 ! R16   R(8,14)                 1.4            estimate D2E/DX2                !
 ! R17   R(11,15)                1.3951         estimate D2E/DX2                !
 ! R18   R(12,16)                1.395          estimate D2E/DX2                !
 ! R19   R(12,19)                1.0866         estimate D2E/DX2                !
 ! R20   R(13,17)                1.3951         estimate D2E/DX2                !
 ! R21   R(13,20)                1.0866         estimate D2E/DX2                !
 ! R22   R(14,18)                1.3951         estimate D2E/DX2                !
 ! R23   R(14,21)                1.0867         estimate D2E/DX2                !
 ! R24   R(15,16)                1.3935         estimate D2E/DX2                !
 ! R25   R(16,22)                1.0868         estimate D2E/DX2                !
 ! R26   R(17,18)                1.3936         estimate D2E/DX2                !
 ! R27   R(17,23)                1.0862         estimate D2E/DX2                !
 ! R28   R(18,24)                1.0862         estimate D2E/DX2                !
 ! A1    A(11,1,25)            111.0103         estimate D2E/DX2                !
 ! A2    A(15,4,26)            108.3005         estimate D2E/DX2                !
 ! A3    A(6,5,9)              120.4804         estimate D2E/DX2                !
 ! A4    A(6,5,11)             119.911          estimate D2E/DX2                !
 ! A5    A(9,5,11)             119.6086         estimate D2E/DX2                !
 ! A6    A(5,6,10)             120.4771         estimate D2E/DX2                !
 ! A7    A(5,6,12)             119.915          estimate D2E/DX2                !
 ! A8    A(10,6,12)            119.6078         estimate D2E/DX2                !
 ! A9    A(8,7,9)              120.4828         estimate D2E/DX2                !
 ! A10   A(8,7,13)             119.9144         estimate D2E/DX2                !
 ! A11   A(9,7,13)             119.6028         estimate D2E/DX2                !
 ! A12   A(7,8,10)             120.4822         estimate D2E/DX2                !
 ! A13   A(7,8,14)             119.9169         estimate D2E/DX2                !
 ! A14   A(10,8,14)            119.6009         estimate D2E/DX2                !
 ! A15   A(2,9,5)              121.8232         estimate D2E/DX2                !
 ! A16   A(2,9,7)              119.1394         estimate D2E/DX2                !
 ! A17   A(5,9,7)              119.0374         estimate D2E/DX2                !
 ! A18   A(3,10,6)             120.4708         estimate D2E/DX2                !
 ! A19   A(3,10,8)             120.4892         estimate D2E/DX2                !
 ! A20   A(6,10,8)             119.04           estimate D2E/DX2                !
 ! A21   A(1,11,5)             122.2731         estimate D2E/DX2                !
 ! A22   A(1,11,15)            117.7438         estimate D2E/DX2                !
 ! A23   A(5,11,15)            119.9831         estimate D2E/DX2                !
 ! A24   A(6,12,16)            119.9838         estimate D2E/DX2                !
 ! A25   A(6,12,19)            121.3278         estimate D2E/DX2                !
 ! A26   A(16,12,19)           118.6884         estimate D2E/DX2                !
 ! A27   A(7,13,17)            119.9853         estimate D2E/DX2                !
 ! A28   A(7,13,20)            121.4344         estimate D2E/DX2                !
 ! A29   A(17,13,20)           118.5803         estimate D2E/DX2                !
 ! A30   A(8,14,18)            119.9836         estimate D2E/DX2                !
 ! A31   A(8,14,21)            121.3368         estimate D2E/DX2                !
 ! A32   A(18,14,21)           118.6797         estimate D2E/DX2                !
 ! A33   A(4,15,11)            120.7103         estimate D2E/DX2                !
 ! A34   A(4,15,16)            119.1865         estimate D2E/DX2                !
 ! A35   A(11,15,16)           120.1032         estimate D2E/DX2                !
 ! A36   A(12,16,15)           120.104          estimate D2E/DX2                !
 ! A37   A(12,16,22)           119.5668         estimate D2E/DX2                !
 ! A38   A(15,16,22)           120.3292         estimate D2E/DX2                !
 ! A39   A(13,17,18)           120.0978         estimate D2E/DX2                !
 ! A40   A(13,17,23)           119.9503         estimate D2E/DX2                !
 ! A41   A(18,17,23)           119.952          estimate D2E/DX2                !
 ! A42   A(14,18,17)           120.1021         estimate D2E/DX2                !
 ! A43   A(14,18,24)           119.9496         estimate D2E/DX2                !
 ! A44   A(17,18,24)           119.9483         estimate D2E/DX2                !
 ! D1    D(25,1,11,5)            0.1568         estimate D2E/DX2                !
 ! D2    D(25,1,11,15)        -179.7998         estimate D2E/DX2                !
 ! D3    D(26,4,15,11)          -0.0185         estimate D2E/DX2                !
 ! D4    D(26,4,15,16)        -179.9887         estimate D2E/DX2                !
 ! D5    D(9,5,6,10)            -0.0412         estimate D2E/DX2                !
 ! D6    D(9,5,6,12)           179.9956         estimate D2E/DX2                !
 ! D7    D(11,5,6,10)          179.9538         estimate D2E/DX2                !
 ! D8    D(11,5,6,12)           -0.0094         estimate D2E/DX2                !
 ! D9    D(6,5,9,2)           -179.9302         estimate D2E/DX2                !
 ! D10   D(6,5,9,7)              0.0317         estimate D2E/DX2                !
 ! D11   D(11,5,9,2)             0.0749         estimate D2E/DX2                !
 ! D12   D(11,5,9,7)          -179.9633         estimate D2E/DX2                !
 ! D13   D(6,5,11,1)          -179.951          estimate D2E/DX2                !
 ! D14   D(6,5,11,15)            0.0046         estimate D2E/DX2                !
 ! D15   D(9,5,11,1)             0.044          estimate D2E/DX2                !
 ! D16   D(9,5,11,15)          179.9996         estimate D2E/DX2                !
 ! D17   D(5,6,10,3)          -179.9688         estimate D2E/DX2                !
 ! D18   D(5,6,10,8)             0.0317         estimate D2E/DX2                !
 ! D19   D(12,6,10,3)           -0.0054         estimate D2E/DX2                !
 ! D20   D(12,6,10,8)          179.995          estimate D2E/DX2                !
 ! D21   D(5,6,12,16)            0.0048         estimate D2E/DX2                !
 ! D22   D(5,6,12,19)          179.9968         estimate D2E/DX2                !
 ! D23   D(10,6,12,16)        -179.9588         estimate D2E/DX2                !
 ! D24   D(10,6,12,19)           0.0333         estimate D2E/DX2                !
 ! D25   D(9,7,8,10)             0.0038         estimate D2E/DX2                !
 ! D26   D(9,7,8,14)           179.9851         estimate D2E/DX2                !
 ! D27   D(13,7,8,10)         -179.9765         estimate D2E/DX2                !
 ! D28   D(13,7,8,14)            0.0047         estimate D2E/DX2                !
 ! D29   D(8,7,9,2)            179.9502         estimate D2E/DX2                !
 ! D30   D(8,7,9,5)             -0.0127         estimate D2E/DX2                !
 ! D31   D(13,7,9,2)            -0.0694         estimate D2E/DX2                !
 ! D32   D(13,7,9,5)           179.9677         estimate D2E/DX2                !
 ! D33   D(8,7,13,17)            0.0049         estimate D2E/DX2                !
 ! D34   D(8,7,13,20)          179.9974         estimate D2E/DX2                !
 ! D35   D(9,7,13,17)         -179.9756         estimate D2E/DX2                !
 ! D36   D(9,7,13,20)            0.0169         estimate D2E/DX2                !
 ! D37   D(7,8,10,3)           179.9878         estimate D2E/DX2                !
 ! D38   D(7,8,10,6)            -0.0127         estimate D2E/DX2                !
 ! D39   D(14,8,10,3)            0.0065         estimate D2E/DX2                !
 ! D40   D(14,8,10,6)         -179.9939         estimate D2E/DX2                !
 ! D41   D(7,8,14,18)           -0.0096         estimate D2E/DX2                !
 ! D42   D(7,8,14,21)         -179.9979         estimate D2E/DX2                !
 ! D43   D(10,8,14,18)         179.9718         estimate D2E/DX2                !
 ! D44   D(10,8,14,21)          -0.0166         estimate D2E/DX2                !
 ! D45   D(1,11,15,4)           -0.0075         estimate D2E/DX2                !
 ! D46   D(1,11,15,16)         179.9625         estimate D2E/DX2                !
 ! D47   D(5,11,15,4)         -179.9651         estimate D2E/DX2                !
 ! D48   D(5,11,15,16)           0.0049         estimate D2E/DX2                !
 ! D49   D(6,12,16,15)           0.0047         estimate D2E/DX2                !
 ! D50   D(6,12,16,22)         179.9803         estimate D2E/DX2                !
 ! D51   D(19,12,16,15)       -179.9875         estimate D2E/DX2                !
 ! D52   D(19,12,16,22)         -0.0119         estimate D2E/DX2                !
 ! D53   D(7,13,17,18)          -0.0096         estimate D2E/DX2                !
 ! D54   D(7,13,17,23)         179.9992         estimate D2E/DX2                !
 ! D55   D(20,13,17,18)        179.9976         estimate D2E/DX2                !
 ! D56   D(20,13,17,23)          0.0065         estimate D2E/DX2                !
 ! D57   D(8,14,18,17)           0.0049         estimate D2E/DX2                !
 ! D58   D(8,14,18,24)        -179.9918         estimate D2E/DX2                !
 ! D59   D(21,14,18,17)        179.9935         estimate D2E/DX2                !
 ! D60   D(21,14,18,24)         -0.0032         estimate D2E/DX2                !
 ! D61   D(4,15,16,12)         179.9609         estimate D2E/DX2                !
 ! D62   D(4,15,16,22)          -0.0145         estimate D2E/DX2                !
 ! D63   D(11,15,16,12)         -0.0096         estimate D2E/DX2                !
 ! D64   D(11,15,16,22)       -179.985          estimate D2E/DX2                !
 ! D65   D(13,17,18,14)          0.0047         estimate D2E/DX2                !
 ! D66   D(13,17,18,24)       -179.9986         estimate D2E/DX2                !
 ! D67   D(23,17,18,14)        179.9959         estimate D2E/DX2                !
 ! D68   D(23,17,18,24)         -0.0074         estimate D2E/DX2                !
 --------------------------------------------------------------------------------
 Trust Radius=3.00D-01 FncErr=1.00D-07 GrdErr=1.00D-06 EigMax=2.50D+02 EigMin=1.00D-04
 Number of steps in this run=    150 maximum allowed number of steps=    156.
 GradGradGradGradGradGradGradGradGradGradGradGradGradGradGradGradGradGrad

                          Input orientation:                          
 ---------------------------------------------------------------------
 Center     Atomic      Atomic             Coordinates (Angstroms)
 Number     Number       Type             X           Y           Z
 ---------------------------------------------------------------------
      1          8           0        2.496600    2.172100    0.001200
      2          8           0       -0.057800    2.481500   -0.001800
      3          8           0       -0.853300   -2.803200    0.000200
      4          8           0        4.593600    0.429200    0.001400
      5          6           0        0.924100    0.330800   -0.000500
      6          6           0        0.708800   -1.049000   -0.000700
      7          6           0       -1.591500    0.723300   -0.000400
      8          6           0       -1.806800   -0.656400   -0.000200
      9          6           0       -0.218200    1.267400   -0.000700
     10          6           0       -0.664600   -1.593000   -0.000200
     11          6           0        2.230800    0.833500    0.000000
     12          6           0        1.800200   -1.926000   -0.000600
     13          6           0       -2.682900    1.600300    0.000100
     14          6           0       -3.113400   -1.159200    0.000400
     15          6           0        3.315400   -0.044000    0.000200
     16          6           0        3.100500   -1.420800   -0.000200
     17          6           0       -3.983300    1.095100    0.000900
     18          6           0       -4.198100   -0.281800    0.001000
     19          1           0        1.659200   -3.003400   -0.000700
     20          1           0       -2.543900    2.678000    0.000000
     21          1           0       -3.307500   -2.228400    0.000600
     22          1           0        3.942700   -2.107700    0.000200
     23          1           0       -4.829600    1.776000    0.001300
     24          1           0       -5.211600   -0.672500    0.001600
     25          1           0        1.677400    2.688800    0.004100
     26          1           0        4.559400    1.401500    0.001700
 ---------------------------------------------------------------------
                    Distance matrix (angstroms):
                    1          2          3          4          5
     1  O    0.000000
     2  O    2.573071   0.000000
     3  O    5.997953   5.344238   0.000000
     4  O    2.726740   5.084040   6.333809   0.000000
     5  C    2.421393   2.364242   3.602930   3.670820   0.000000
     6  C    3.683981   3.612770   2.348909   4.156531   1.396496
     7  C    4.337232   2.333132   3.602935   6.192089   2.546036
     8  C    5.149725   3.592411   2.349024   6.491814   2.903856
     9  C    2.861577   1.224650   4.119847   4.884261   1.477183
    10  C    4.916215   4.119437   1.224823   5.633646   2.494990
    11  C    1.364735   2.820212   4.768360   2.397141   1.400062
    12  C    4.156850   4.783118   2.794735   3.653773   2.420888
    13  C    5.210967   2.769055   4.768464   7.370138   3.823883
    14  C    6.524543   4.753040   2.794779   7.868981   4.303662
    15  C    2.362527   4.213862   4.999124   1.362980   2.420494
    16  C    3.643299   5.020240   4.188504   2.377362   2.793711
    17  C    6.568792   4.163131   4.999364   8.602711   4.966561
    18  C    7.130262   4.977742   4.188693   8.820403   5.158703
    19  H    5.242809   5.747366   2.520464   4.515911   3.414273
    20  H    5.065824   2.493854   5.735999   7.483382   4.187645
    21  H    7.283679   5.722212   2.520614   8.336079   4.945295
    22  H    4.517510   6.088084   4.846167   2.619071   3.880493
    23  H    7.336900   4.823672   6.064655   9.518958   5.932425
    24  H    8.216331   6.042299   4.851254   9.866899   6.217188
    25  H    0.968543   1.747549   6.047026   3.689176   2.475408
    26  H    2.202037   4.741830   6.853964   0.972901   3.789698
                    6          7          8          9         10
     6  C    0.000000
     7  C    2.903864   0.000000
     8  C    2.546052   1.396398   0.000000
     9  C    2.495003   1.477159   2.494926   0.000000
    10  C    1.477215   2.494873   1.477105   2.895024   0.000000
    11  C    2.420804   3.823888   4.303721   2.487141   3.777730
    12  C    1.400101   4.303768   3.823916   3.777796   2.487193
    13  C    4.303768   1.400101   2.420795   2.487080   3.777658
    14  C    3.823788   2.420741   1.400004   3.777641   2.486927
    15  C    2.793634   4.966530   5.158679   3.769098   4.270808
    16  C    2.420426   5.158685   4.966478   4.270853   3.769036
    17  C    5.158776   2.420526   2.793726   3.769041   4.270791
    18  C    4.966515   2.793670   2.420463   4.270788   3.768935
    19  H    2.173233   4.945234   4.185877   4.665229   2.718322
    20  H    4.946775   2.174378   3.414900   2.720050   4.666177
    21  H    4.185887   3.414263   2.173312   4.665232   2.718208
    22  H    3.402786   6.216263   5.929842   5.357648   4.635960
    23  H    6.217275   3.404919   3.879935   4.639363   5.356994
    24  H    5.932360   3.879869   3.404839   5.356982   4.639238
    25  H    3.861264   3.814304   4.830117   2.369325   4.880450
    26  H    4.564217   6.188177   6.690550   4.779482   6.021396
                   11         12         13         14         15
    11  C    0.000000
    12  C    2.792894   0.000000
    13  C    4.973171   5.703769   0.000000
    14  C    5.703624   4.973072   2.792879   0.000000
    15  C    1.395121   2.416145   6.219592   6.524810   0.000000
    16  C    2.416246   1.394994   6.524934   6.219404   1.393471
    17  C    6.219604   6.525023   1.395087   2.416318   7.387054
    18  C    6.524925   6.219566   2.416223   1.395136   7.517262
    19  H    3.879243   1.086587   6.328340   5.116521   3.391319
    20  H    5.118588   6.329931   1.086627   3.879231   6.460703
    21  H    6.328349   5.116644   3.879313   1.086675   6.973837
    22  H    3.403125   2.150191   7.592617   7.119565   2.156934
    23  H    7.123030   7.593356   2.153879   3.400109   8.345863
    24  H    7.593244   7.122963   3.399992   2.153908   8.550131
    25  H    1.936080   4.616436   4.494114   6.144826   3.186103
    26  H    2.396874   4.322667   7.245028   8.088822   1.907094
                   16         17         18         19         20
    16  C    0.000000
    17  C    7.517312   0.000000
    18  C    7.386940   1.393554   0.000000
    19  H    2.140553   6.973916   6.458721   0.000000
    20  H    6.975630   2.139497   3.390692   7.067132   0.000000
    21  H    6.458690   3.391513   2.140659   5.026802   4.965465
    22  H    1.086799   8.548649   8.343053   2.452886   8.060949
    23  H    8.550206   1.086208   2.152518   8.058982   2.457240
    24  H    8.345715   2.152471   1.086199   7.255411   4.282812
    25  H    4.349028   5.880766   6.583766   5.692231   4.221316
    26  H    3.177069   8.548193   8.917808   5.273927   7.217086
                   21         22         23         24         25
    21  H    0.000000
    22  H    7.251205   0.000000
    23  H    4.283924   9.593559   0.000000
    24  H    2.458947   9.266122   2.478120   0.000000
    25  H    7.002007   5.304527   6.570712   7.665290   0.000000
    26  H    8.663965   3.562977   9.396466   9.988689   3.156433
                   26
    26  H    0.000000
 Stoichiometry    C14H8O4
 Framework group  C1[X(C14H8O4)]
 Deg. of freedom    72
 Full point group                 C1      NOp   1
 Largest Abelian subgroup         C1      NOp   1
 Largest concise Abelian subgroup C1      NOp   1
                         Standard orientation:                         
 ---------------------------------------------------------------------
 Center     Atomic      Atomic             Coordinates (Angstroms)
 Number     Number       Type             X           Y           Z
 ---------------------------------------------------------------------
      1          8           0       -2.475010   -2.078166    0.001108
      2          8           0        0.072125   -2.442572   -0.001892
      3          8           0        0.981389    2.823747    0.000108
      4          8           0       -4.533942   -0.290456    0.001308
      5          6           0       -0.863173   -0.271201   -0.000592
      6          6           0       -0.618172    1.103636   -0.000792
      7          6           0        1.643379   -0.717851   -0.000492
      8          6           0        1.888378    0.656886   -0.000292
      9          6           0        0.258666   -1.232213   -0.000792
     10          6           0        0.766638    1.617897   -0.000292
     11          6           0       -2.180409   -0.745609   -0.000092
     12          6           0       -1.690409    2.003965   -0.000692
     13          6           0        2.715615   -1.618179    0.000008
     14          6           0        3.205515    1.131397    0.000308
     15          6           0       -3.245836    0.155073    0.000108
     16          6           0       -3.001299    1.526920   -0.000292
     17          6           0        4.026606   -1.141136    0.000808
     18          6           0        4.271045    0.230812    0.000908
     19          1           0       -1.526211    3.078074   -0.000792
     20          1           0        2.553410   -2.692632   -0.000092
     21          1           0        3.422624    2.196163    0.000508
     22          1           0       -3.828493    2.231819    0.000108
     23          1           0        4.858028   -1.840125    0.001208
     24          1           0        5.292733    0.599569    0.001508
     25          1           0       -1.667141   -2.612410    0.004008
     26          1           0       -4.520714   -1.263268    0.001608
 ---------------------------------------------------------------------
 Rotational constants (GHZ):           0.9106031           0.3156912           0.2344213
 Standard basis: 6-311++G(d,p) (5D, 7F)
 There are   470 symmetry adapted cartesian basis functions of A   symmetry.
 There are   452 symmetry adapted basis functions of A   symmetry.
   452 basis functions,   720 primitive gaussians,   470 cartesian basis functions
    62 alpha electrons       62 beta electrons
       nuclear repulsion energy      1230.2063461492 Hartrees.
 NAtoms=   26 NActive=   26 NUniq=   26 SFac= 1.00D+00 NAtFMM=   60 NAOKFM=F Big=F
 Integral buffers will be    131072 words long.
 Raffenetti 2 integral format.
 Two-electron integral symmetry is turned on.
 R6APFD:  NTU= -4 IXU= 1 FactS= 1.050
 Nuclear repulsion after empirical dispersion term =     1230.1843179338 Hartrees.
 One-electron integrals computed using PRISM.
 NBasis=   452 RedAO= T EigKep=  1.32D-06  NBF=   452
 NBsUse=   445 1.00D-06 EigRej=  6.94D-07 NBFU=   445
 ExpMin= 3.60D-02 ExpMax= 8.59D+03 ExpMxC= 1.30D+03 IAcc=3 IRadAn=         5 AccDes= 0.00D+00
 Harris functional with IExCor= 1009 and IRadAn=       5 diagonalized for initial guess.
 HarFok:  IExCor= 1009 AccDes= 0.00D+00 IRadAn=         5 IDoV= 1 UseB2=F ITyADJ=14
 ICtDFT=  3500011 ScaDFX=  1.000000  1.000000  1.000000  1.000000
 FoFCou: FMM=F IPFlag=           0 FMFlag=      100000 FMFlg1=           0
         NFxFlg=           0 DoJE=T BraDBF=F KetDBF=T FulRan=T
         wScrn=  0.000000 ICntrl=       500 IOpCl=  0 I1Cent=   200000004 NGrid=           0
         NMat0=    1 NMatS0=      1 NMatT0=    0 NMatD0=    1 NMtDS0=    0 NMtDT0=    0
 Petite list used in FoFCou.
 Requested convergence on RMS density matrix=1.00D-08 within  32 cycles.
 Requested convergence on MAX density matrix=1.00D-06.
 Requested convergence on             energy=1.00D-06.
 No special actions if energy rises.
 SCF Done:  E(RM08HX) =  -839.207458321     A.U. after   16 cycles
            NFock= 16  Conv=0.75D-08     -V/T= 2.0042
 QCSCF skips out because SCF is already converged.

 **********************************************************************

            Population analysis using the SCF Density.

 **********************************************************************

 Orbital symmetries:
       Occupied  (A) (A) (A) (A) (A) (A) (A) (A) (A) (A) (A) (A)
                 (A) (A) (A) (A) (A) (A) (A) (A) (A) (A) (A) (A)
                 (A) (A) (A) (A) (A) (A) (A) (A) (A) (A) (A) (A)
                 (A) (A) (A) (A) (A) (A) (A) (A) (A) (A) (A) (A)
                 (A) (A) (A) (A) (A) (A) (A) (A) (A) (A) (A) (A)
                 (A) (A)
       Virtual   (A) (A) (A) (A) (A) (A) (A) (A) (A) (A) (A) (A)
                 (A) (A) (A) (A) (A) (A) (A) (A) (A) (A) (A) (A)
                 (A) (A) (A) (A) (A) (A) (A) (A) (A) (A) (A) (A)
                 (A) (A) (A) (A) (A) (A) (A) (A) (A) (A) (A) (A)
                 (A) (A) (A) (A) (A) (A) (A) (A) (A) (A) (A) (A)
                 (A) (A) (A) (A) (A) (A) (A) (A) (A) (A) (A) (A)
                 (A) (A) (A) (A) (A) (A) (A) (A) (A) (A) (A) (A)
                 (A) (A) (A) (A) (A) (A) (A) (A) (A) (A) (A) (A)
                 (A) (A) (A) (A) (A) (A) (A) (A) (A) (A) (A) (A)
                 (A) (A) (A) (A) (A) (A) (A) (A) (A) (A) (A) (A)
                 (A) (A) (A) (A) (A) (A) (A) (A) (A) (A) (A) (A)
                 (A) (A) (A) (A) (A) (A) (A) (A) (A) (A) (A) (A)
                 (A) (A) (A) (A) (A) (A) (A) (A) (A) (A) (A) (A)
                 (A) (A) (A) (A) (A) (A) (A) (A) (A) (A) (A) (A)
                 (A) (A) (A) (A) (A) (A) (A) (A) (A) (A) (A) (A)
                 (A) (A) (A) (A) (A) (A) (A) (A) (A) (A) (A) (A)
                 (A) (A) (A) (A) (A) (A) (A) (A) (A) (A) (A) (A)
                 (A) (A) (A) (A) (A) (A) (A) (A) (A) (A) (A) (A)
                 (A) (A) (A) (A) (A) (A) (A) (A) (A) (A) (A) (A)
                 (A) (A) (A) (A) (A) (A) (A) (A) (A) (A) (A) (A)
                 (A) (A) (A) (A) (A) (A) (A) (A) (A) (A) (A) (A)
                 (A) (A) (A) (A) (A) (A) (A) (A) (A) (A) (A) (A)
                 (A) (A) (A) (A) (A) (A) (A) (A) (A) (A) (A) (A)
                 (A) (A) (A) (A) (A) (A) (A) (A) (A) (A) (A) (A)
                 (A) (A) (A) (A) (A) (A) (A) (A) (A) (A) (A) (A)
                 (A) (A) (A) (A) (A) (A) (A) (A) (A) (A) (A) (A)
                 (A) (A) (A) (A) (A) (A) (A) (A) (A) (A) (A) (A)
                 (A) (A) (A) (A) (A) (A) (A) (A) (A) (A) (A) (A)
                 (A) (A) (A) (A) (A) (A) (A) (A) (A) (A) (A) (A)
                 (A) (A) (A) (A) (A) (A) (A) (A) (A) (A) (A) (A)
                 (A) (A) (A) (A) (A) (A) (A) (A) (A) (A) (A) (A)
                 (A) (A) (A) (A) (A) (A) (A) (A) (A) (A) (A)
 The electronic state is 1-A.
 Alpha  occ. eigenvalues --  -19.65920 -19.65594 -19.63581 -19.61415 -10.66053
 Alpha  occ. eigenvalues --  -10.64165 -10.63138 -10.62526 -10.57764 -10.57694
 Alpha  occ. eigenvalues --  -10.57567 -10.56945 -10.56781 -10.56706 -10.56620
 Alpha  occ. eigenvalues --  -10.56522 -10.56288 -10.56059  -1.22350  -1.20503
 Alpha  occ. eigenvalues --   -1.18288  -1.18048  -1.01393  -0.99731  -0.92605
 Alpha  occ. eigenvalues --   -0.88745  -0.88238  -0.87611  -0.79558  -0.77356
 Alpha  occ. eigenvalues --   -0.75339  -0.72656  -0.69181  -0.66635  -0.65236
 Alpha  occ. eigenvalues --   -0.63303  -0.61585  -0.60001  -0.58122  -0.56121
 Alpha  occ. eigenvalues --   -0.55506  -0.54501  -0.54063  -0.52805  -0.52439
 Alpha  occ. eigenvalues --   -0.52208  -0.50500  -0.49837  -0.49339  -0.47038
 Alpha  occ. eigenvalues --   -0.46824  -0.45641  -0.45627  -0.45390  -0.43654
 Alpha  occ. eigenvalues --   -0.41877  -0.37269  -0.34857  -0.34833  -0.33755
 Alpha  occ. eigenvalues --   -0.32971  -0.29555
 Alpha virt. eigenvalues --   -0.09606  -0.04988  -0.02987  -0.02316  -0.01404
 Alpha virt. eigenvalues --   -0.01339  -0.00770  -0.00321   0.00228   0.01254
 Alpha virt. eigenvalues --    0.01780   0.01871   0.02144   0.03246   0.03569
 Alpha virt. eigenvalues --    0.04096   0.04447   0.05485   0.05830   0.06357
 Alpha virt. eigenvalues --    0.06724   0.06804   0.07711   0.08131   0.08907
 Alpha virt. eigenvalues --    0.09280   0.09543   0.10045   0.10224   0.10266
 Alpha virt. eigenvalues --    0.10819   0.11257   0.11265   0.12015   0.12285
 Alpha virt. eigenvalues --    0.12436   0.12964   0.13606   0.13888   0.14036
 Alpha virt. eigenvalues --    0.14355   0.14865   0.15180   0.15455   0.15956
 Alpha virt. eigenvalues --    0.16221   0.17033   0.17410   0.18252   0.18266
 Alpha virt. eigenvalues --    0.19113   0.19423   0.19867   0.20258   0.20963
 Alpha virt. eigenvalues --    0.21575   0.21668   0.22838   0.23467   0.23919
 Alpha virt. eigenvalues --    0.24005   0.24468   0.25013   0.25195   0.25673
 Alpha virt. eigenvalues --    0.26131   0.26411   0.26866   0.27333   0.27640
 Alpha virt. eigenvalues --    0.27901   0.28677   0.28967   0.29473   0.29750
 Alpha virt. eigenvalues --    0.30341   0.31015   0.31562   0.31909   0.32172
 Alpha virt. eigenvalues --    0.32895   0.33504   0.33885   0.33900   0.34024
 Alpha virt. eigenvalues --    0.34629   0.35123   0.35747   0.36313   0.36619
 Alpha virt. eigenvalues --    0.37596   0.38280   0.39359   0.40448   0.41397
 Alpha virt. eigenvalues --    0.41956   0.43074   0.44162   0.44801   0.46475
 Alpha virt. eigenvalues --    0.48147   0.50264   0.51002   0.51660   0.53236
 Alpha virt. eigenvalues --    0.54304   0.54981   0.55204   0.55688   0.56530
 Alpha virt. eigenvalues --    0.56742   0.58128   0.58728   0.60076   0.60106
 Alpha virt. eigenvalues --    0.60803   0.61980   0.62314   0.62490   0.62980
 Alpha virt. eigenvalues --    0.65296   0.65312   0.65734   0.65814   0.67133
 Alpha virt. eigenvalues --    0.67161   0.67263   0.67897   0.68665   0.70088
 Alpha virt. eigenvalues --    0.70882   0.71399   0.72897   0.74820   0.74906
 Alpha virt. eigenvalues --    0.75685   0.76847   0.77613   0.78261   0.79335
 Alpha virt. eigenvalues --    0.80081   0.81163   0.82110   0.83055   0.84579
 Alpha virt. eigenvalues --    0.85929   0.87198   0.87948   0.89563   0.90003
 Alpha virt. eigenvalues --    0.91327   0.91754   0.92950   0.93663   0.94184
 Alpha virt. eigenvalues --    0.94925   0.95819   0.95873   0.98061   0.98446
 Alpha virt. eigenvalues --    0.99784   1.00540   1.01330   1.01374   1.03159
 Alpha virt. eigenvalues --    1.03722   1.05078   1.05522   1.06936   1.07716
 Alpha virt. eigenvalues --    1.09084   1.11165   1.12656   1.12786   1.14083
 Alpha virt. eigenvalues --    1.14522   1.14888   1.16258   1.16505   1.17612
 Alpha virt. eigenvalues --    1.18821   1.20084   1.22328   1.22766   1.23751
 Alpha virt. eigenvalues --    1.24247   1.25977   1.26014   1.27341   1.28076
 Alpha virt. eigenvalues --    1.28982   1.29909   1.33418   1.33936   1.36166
 Alpha virt. eigenvalues --    1.37207   1.40425   1.42316   1.42899   1.46487
 Alpha virt. eigenvalues --    1.48061   1.50115   1.50857   1.52187   1.53473
 Alpha virt. eigenvalues --    1.53741   1.54218   1.54408   1.56066   1.58327
 Alpha virt. eigenvalues --    1.58728   1.61688   1.63795   1.64702   1.65952
 Alpha virt. eigenvalues --    1.66635   1.66921   1.67244   1.68260   1.71907
 Alpha virt. eigenvalues --    1.72886   1.74201   1.74935   1.75865   1.77408
 Alpha virt. eigenvalues --    1.77908   1.79001   1.79429   1.81179   1.84836
 Alpha virt. eigenvalues --    1.85719   1.89341   1.90117   1.91836   1.92452
 Alpha virt. eigenvalues --    1.93715   1.94363   1.94442   1.94862   1.95917
 Alpha virt. eigenvalues --    1.97023   1.98182   1.99008   2.00150   2.01120
 Alpha virt. eigenvalues --    2.01154   2.01953   2.04659   2.06944   2.09303
 Alpha virt. eigenvalues --    2.10128   2.10878   2.13477   2.14923   2.15599
 Alpha virt. eigenvalues --    2.19512   2.20608   2.23132   2.24401   2.30747
 Alpha virt. eigenvalues --    2.31183   2.33185   2.36203   2.37561   2.40278
 Alpha virt. eigenvalues --    2.40321   2.42611   2.45974   2.47434   2.48253
 Alpha virt. eigenvalues --    2.53461   2.55001   2.63283   2.64928   2.65563
 Alpha virt. eigenvalues --    2.67481   2.67804   2.67829   2.69467   2.69580
 Alpha virt. eigenvalues --    2.70615   2.71732   2.72030   2.74049   2.74409
 Alpha virt. eigenvalues --    2.75484   2.78020   2.79424   2.79818   2.82529
 Alpha virt. eigenvalues --    2.82748   2.84077   2.85679   2.88581   2.91000
 Alpha virt. eigenvalues --    2.91125   2.91610   2.93385   2.94768   2.98807
 Alpha virt. eigenvalues --    3.00702   3.03739   3.07190   3.08229   3.10744
 Alpha virt. eigenvalues --    3.14206   3.14473   3.15418   3.15861   3.17374
 Alpha virt. eigenvalues --    3.18073   3.21636   3.22291   3.25708   3.27780
 Alpha virt. eigenvalues --    3.28060   3.29891   3.31417   3.35649   3.39586
 Alpha virt. eigenvalues --    3.41482   3.42899   3.44169   3.45769   3.47396
 Alpha virt. eigenvalues --    3.50871   3.54421   3.55089   3.56686   3.58465
 Alpha virt. eigenvalues --    3.60773   3.63655   3.65685   3.66041   3.75134
 Alpha virt. eigenvalues --    3.79559   3.87682   3.88938   3.93978   3.94974
 Alpha virt. eigenvalues --    4.00988   4.06024   4.09185   4.12453   4.21356
 Alpha virt. eigenvalues --    4.23213   4.27116   4.31949   4.35429   4.52312
 Alpha virt. eigenvalues --    4.85555   4.90548   4.92451   5.08343   5.13197
 Alpha virt. eigenvalues --    5.16037   5.16378   5.39160   5.44315   5.53339
 Alpha virt. eigenvalues --    5.59273   5.79976   5.84650   5.92464   5.93704
 Alpha virt. eigenvalues --   23.55792  23.69109  23.93294  23.94571  23.96864
 Alpha virt. eigenvalues --   23.98907  23.99034  24.00901  24.08007  24.09402
 Alpha virt. eigenvalues --   24.11478  24.12803  24.19793  24.21034  49.92629
 Alpha virt. eigenvalues --   50.00782  50.04672  50.09429
          Condensed to atoms (all electrons):
               1          2          3          4          5          6
     1  O    8.109793   0.007656   0.000052   0.022659   0.423701   0.123370
     2  O    0.007656   8.055841   0.000145  -0.000158   0.259414  -0.355262
     3  O    0.000052   0.000145   8.052263  -0.000035  -0.362627  -0.064978
     4  O    0.022659  -0.000158  -0.000035   7.910831  -0.024631  -0.024111
     5  C    0.423701   0.259414  -0.362627  -0.024631  22.132791  -2.885184
     6  C    0.123370  -0.355262  -0.064978  -0.024111  -2.885184  21.065846
     7  C   -0.078237  -0.323793  -0.650963   0.004026   5.081975 -12.271898
     8  C    0.029742  -0.687293  -0.268619  -0.003942 -10.192009   5.391412
     9  C   -0.090288   0.782132  -0.022657  -0.017747   1.053964   2.143236
    10  C    0.041324  -0.021007   0.743899  -0.007169   2.005618  -1.115343
    11  C    0.619199   0.131010  -0.067083   0.102418   2.656340  -3.947491
    12  C    0.001371  -0.050937   0.350783  -0.049855  -3.046972   3.870012
    13  C    0.002384   0.297156  -0.028579  -0.000041   0.769131  -2.968161
    14  C    0.000789  -0.026896   0.275421   0.000126  -2.625363  -0.388438
    15  C   -1.016702  -0.040156   0.019997   0.683010  -7.743814  -0.322256
    16  C   -0.133085   0.018949   0.100685  -0.642740  -1.485739  -2.565392
    17  C    0.003071   0.055627   0.001412  -0.000048  -0.012434  -0.093373
    18  C    0.001229   0.010957   0.081286   0.000010  -0.422044  -0.208619
    19  H    0.000392  -0.000443  -0.017259   0.001352   0.034819   0.166982
    20  H   -0.000850  -0.026209   0.000723  -0.000050  -0.124244   0.033620
    21  H   -0.000002   0.000619  -0.024324   0.000008   0.037283  -0.140312
    22  H   -0.001824   0.000380   0.001543  -0.029636   0.012155  -0.071763
    23  H    0.000050   0.001428  -0.000289   0.000002   0.012427  -0.016556
    24  H   -0.000001  -0.000204   0.002111  -0.000000  -0.018364   0.019649
    25  H    0.205576   0.065475  -0.000004   0.001043  -0.325743  -0.018927
    26  H    0.017198   0.000078   0.000019   0.276333  -0.037702  -0.011435
               7          8          9         10         11         12
     1  O   -0.078237   0.029742  -0.090288   0.041324   0.619199   0.001371
     2  O   -0.323793  -0.687293   0.782132  -0.021007   0.131010  -0.050937
     3  O   -0.650963  -0.268619  -0.022657   0.743899  -0.067083   0.350783
     4  O    0.004026  -0.003942  -0.017747  -0.007169   0.102418  -0.049855
     5  C    5.081975 -10.192009   1.053964   2.005618   2.656340  -3.046972
     6  C  -12.271898   5.391412   2.143236  -1.115343  -3.947491   3.870012
     7  C   34.493016 -14.623633  -0.968202  -0.829263   1.610605  -5.187901
     8  C  -14.623633  35.325961   1.030785   1.487108  -5.585202   0.531054
     9  C   -0.968202   1.030785  12.511136   1.924386  -5.117764  -0.620849
    10  C   -0.829263   1.487108   1.924386  14.447357  -2.030539  -4.665936
    11  C    1.610605  -5.585202  -5.117764  -2.030539  27.577052   0.737055
    12  C   -5.187901   0.531054  -0.620849  -4.665936   0.737055  14.415275
    13  C    3.496657  -6.260398  -2.400445  -2.007627   0.686366  -0.433424
    14  C   -2.886867   1.238078  -1.446673  -2.360404  -0.888604   0.394754
    15  C    0.909570  -1.014305  -1.736065  -2.215822  -1.469780  -0.354612
    16  C    0.143267   0.359276  -0.521363   1.534653  -8.694393  -0.175826
    17  C   -3.477429   2.218793   0.288631   0.071341   0.518896  -0.172163
    18  C    1.123900  -2.836021  -0.081824  -0.148757  -0.385397   0.011672
    19  H   -0.052735  -0.081507   0.008355  -0.031064   0.127950   0.426741
    20  H    0.101612   0.184797  -0.080238  -0.011818  -0.048713   0.008737
    21  H    0.233746   0.040050  -0.006291  -0.062139   0.010513  -0.050345
    22  H    0.003693   0.011636  -0.014327   0.079408  -0.171548  -0.050187
    23  H   -0.004311  -0.020718   0.038491  -0.015093   0.010682  -0.003672
    24  H   -0.059659   0.000376  -0.019038   0.041813  -0.004017   0.005989
    25  H    0.042716   0.035783   0.053165   0.004200   0.016316   0.004957
    26  H   -0.000235  -0.007420  -0.008524  -0.012046  -0.244517   0.025644
              13         14         15         16         17         18
     1  O    0.002384   0.000789  -1.016702  -0.133085   0.003071   0.001229
     2  O    0.297156  -0.026896  -0.040156   0.018949   0.055627   0.010957
     3  O   -0.028579   0.275421   0.019997   0.100685   0.001412   0.081286
     4  O   -0.000041   0.000126   0.683010  -0.642740  -0.000048   0.000010
     5  C    0.769131  -2.625363  -7.743814  -1.485739  -0.012434  -0.422044
     6  C   -2.968161  -0.388438  -0.322256  -2.565392  -0.093373  -0.208619
     7  C    3.496657  -2.886867   0.909570   0.143267  -3.477429   1.123900
     8  C   -6.260398   1.238078  -1.014305   0.359276   2.218793  -2.836021
     9  C   -2.400445  -1.446673  -1.736065  -0.521363   0.288631  -0.081824
    10  C   -2.007627  -2.360404  -2.215822   1.534653   0.071341  -0.148757
    11  C    0.686366  -0.888604  -1.469780  -8.694393   0.518896  -0.385397
    12  C   -0.433424   0.394754  -0.354612  -0.175826  -0.172163   0.011672
    13  C   13.257702   2.829382   0.022456  -0.162078  -1.617630  -0.127945
    14  C    2.829382  12.094858  -0.269506  -0.023619  -1.284122   0.837732
    15  C    0.022456  -0.269506  21.766146  -0.662525   0.157948  -0.102684
    16  C   -0.162078  -0.023619  -0.662525  18.197972   0.022086   0.004567
    17  C   -1.617630  -1.284122   0.157948   0.022086  10.954635  -1.249820
    18  C   -0.127945   0.837732  -0.102684   0.004567  -1.249820   9.853171
    19  H   -0.002727  -0.012090   0.048105  -0.302245  -0.002484   0.000152
    20  H    0.425431   0.092306  -0.004442  -0.001862  -0.256015   0.017694
    21  H    0.074411   0.364962  -0.000302   0.001159   0.011037  -0.169467
    22  H   -0.002287   0.002598  -0.267726   0.754304   0.000451  -0.000017
    23  H   -0.076100  -0.004632   0.001523   0.000372   0.480610  -0.090014
    24  H    0.009671  -0.025938  -0.000427  -0.000474  -0.084132   0.446217
    25  H   -0.021954  -0.001588   0.208131   0.037217  -0.000689   0.001205
    26  H    0.001442  -0.000333   0.112597   0.190237  -0.000094  -0.000175
              19         20         21         22         23         24
     1  O    0.000392  -0.000850  -0.000002  -0.001824   0.000050  -0.000001
     2  O   -0.000443  -0.026209   0.000619   0.000380   0.001428  -0.000204
     3  O   -0.017259   0.000723  -0.024324   0.001543  -0.000289   0.002111
     4  O    0.001352  -0.000050   0.000008  -0.029636   0.000002  -0.000000
     5  C    0.034819  -0.124244   0.037283   0.012155   0.012427  -0.018364
     6  C    0.166982   0.033620  -0.140312  -0.071763  -0.016556   0.019649
     7  C   -0.052735   0.101612   0.233746   0.003693  -0.004311  -0.059659
     8  C   -0.081507   0.184797   0.040050   0.011636  -0.020718   0.000376
     9  C    0.008355  -0.080238  -0.006291  -0.014327   0.038491  -0.019038
    10  C   -0.031064  -0.011818  -0.062139   0.079408  -0.015093   0.041813
    11  C    0.127950  -0.048713   0.010513  -0.171548   0.010682  -0.004017
    12  C    0.426741   0.008737  -0.050345  -0.050187  -0.003672   0.005989
    13  C   -0.002727   0.425431   0.074411  -0.002287  -0.076100   0.009671
    14  C   -0.012090   0.092306   0.364962   0.002598  -0.004632  -0.025938
    15  C    0.048105  -0.004442  -0.000302  -0.267726   0.001523  -0.000427
    16  C   -0.302245  -0.001862   0.001159   0.754304   0.000372  -0.000474
    17  C   -0.002484  -0.256015   0.011037   0.000451   0.480610  -0.084132
    18  C    0.000152   0.017694  -0.169467  -0.000017  -0.090014   0.446217
    19  H    0.412454  -0.000044  -0.001379  -0.017370  -0.000055   0.000094
    20  H   -0.000044   0.406957   0.001721  -0.000049  -0.011718   0.002638
    21  H   -0.001379   0.001721   0.396563   0.000123   0.002596  -0.010676
    22  H   -0.017370  -0.000049   0.000123   0.423236   0.000006  -0.000026
    23  H   -0.000055  -0.011718   0.002596   0.000006   0.408492  -0.009057
    24  H    0.000094   0.002638  -0.010676  -0.000026  -0.009057   0.407889
    25  H    0.000838   0.000303  -0.000117   0.000092  -0.000148   0.000011
    26  H    0.000128  -0.000064  -0.000011   0.003637   0.000001   0.000001
              25         26
     1  O    0.205576   0.017198
     2  O    0.065475   0.000078
     3  O   -0.000004   0.000019
     4  O    0.001043   0.276333
     5  C   -0.325743  -0.037702
     6  C   -0.018927  -0.011435
     7  C    0.042716  -0.000235
     8  C    0.035783  -0.007420
     9  C    0.053165  -0.008524
    10  C    0.004200  -0.012046
    11  C    0.016316  -0.244517
    12  C    0.004957   0.025644
    13  C   -0.021954   0.001442
    14  C   -0.001588  -0.000333
    15  C    0.208131   0.112597
    16  C    0.037217   0.190237
    17  C   -0.000689  -0.000094
    18  C    0.001205  -0.000175
    19  H    0.000838   0.000128
    20  H    0.000303  -0.000064
    21  H   -0.000117  -0.000011
    22  H    0.000092   0.003637
    23  H   -0.000148   0.000001
    24  H    0.000011   0.000001
    25  H    0.337475   0.000571
    26  H    0.000571   0.377042
 Mulliken charges:
               1
     1  O   -0.288569
     2  O   -0.154506
     3  O   -0.122922
     4  O   -0.201656
     5  C    0.827249
     6  C    0.655371
     7  C    0.170344
     8  C   -0.303784
     9  C   -0.681987
    10  C   -0.847079
    11  C   -0.149356
    12  C    0.078635
    13  C    0.237207
    14  C    0.114068
    15  C   -0.708355
    16  C    0.006597
    17  C   -0.534104
    18  C   -0.567008
    19  H    0.293041
    20  H    0.289779
    21  H    0.290575
    22  H    0.333500
    23  H    0.295682
    24  H    0.295555
    25  H    0.354098
    26  H    0.317628
 Sum of Mulliken charges =  -0.00000
 Mulliken charges with hydrogens summed into heavy atoms:
               1
     1  O    0.065529
     2  O   -0.154506
     3  O   -0.122922
     4  O    0.115972
     5  C    0.827249
     6  C    0.655371
     7  C    0.170344
     8  C   -0.303784
     9  C   -0.681987
    10  C   -0.847079
    11  C   -0.149356
    12  C    0.371676
    13  C    0.526986
    14  C    0.404642
    15  C   -0.708355
    16  C    0.340098
    17  C   -0.238422
    18  C   -0.271453
 Electronic spatial extent (au):  <R**2>=           4337.9132
 Charge=             -0.0000 electrons
 Dipole moment (field-independent basis, Debye):
    X=              2.0417    Y=             -1.3076    Z=              0.0073  Tot=              2.4246
 Quadrupole moment (field-independent basis, Debye-Ang):
   XX=            -88.8258   YY=           -107.0283   ZZ=           -106.0735
   XY=             -4.2318   XZ=             -0.0014   YZ=             -0.0268
 Traceless Quadrupole moment (field-independent basis, Debye-Ang):
   XX=             11.8167   YY=             -6.3857   ZZ=             -5.4310
   XY=             -4.2318   XZ=             -0.0014   YZ=             -0.0268
 Octapole moment (field-independent basis, Debye-Ang**2):
  XXX=             76.7988  YYY=            -27.9029  ZZZ=              0.0044  XYY=            -24.3423
  XXY=            -14.8862  XXZ=              0.0365  XZZ=            -12.1627  YZZ=             -4.5166
  YYZ=              0.0733  XYZ=              0.0313
 Hexadecapole moment (field-independent basis, Debye-Ang**3):
 XXXX=          -3909.3509 YYYY=          -1520.8794 ZZZZ=           -114.1191 XXXY=             73.7142
 XXXZ=              0.1939 YYYX=            -39.5689 YYYZ=             -0.1997 ZZZX=             -0.0255
 ZZZY=              0.0338 XXYY=           -812.9029 XXZZ=           -779.2585 YYZZ=           -272.4003
 XXYZ=             -0.0623 YYXZ=             -0.0841 ZZXY=             20.9707
 N-N= 1.230184317934D+03 E-N=-4.418598281623D+03  KE= 8.356981391951D+02
 R6APFD:  NTU= -4 IXU= 1 FactS= 1.050
 Calling FoFJK, ICntrl=      2127 FMM=F ISym2X=0 I1Cent= 0 IOpClX= 0 NMat=1 NMatS=1 NMatT=0.
 ***** Axes restored to original set *****
 -------------------------------------------------------------------
 Center     Atomic                   Forces (Hartrees/Bohr)
 Number     Number              X              Y              Z
 -------------------------------------------------------------------
      1        8           0.018059261   -0.018363005    0.000008726
      2        8           0.001691625   -0.000181982    0.000103387
      3        8           0.001403978    0.017797568   -0.000001903
      4        8          -0.013655195    0.007491804   -0.000030674
      5        6          -0.001163108    0.005177719    0.000018468
      6        6           0.006954469   -0.011294686    0.000021886
      7        6          -0.007954838    0.000828675    0.000030172
      8        6          -0.010349547    0.000692148    0.000021176
      9        6           0.002018871    0.007756403   -0.000103892
     10        6           0.000638110   -0.032581735   -0.000033194
     11        6          -0.014082646    0.025405008    0.000068966
     12        6           0.000836796    0.006822541   -0.000008081
     13        6          -0.006711735   -0.001854145    0.000003446
     14        6          -0.005107485    0.004553049    0.000011722
     15        6           0.020644526   -0.003627554    0.000035116
     16        6          -0.008033028    0.002197913   -0.000008056
     17        6           0.006638514    0.000142575   -0.000022744
     18        6           0.006445395   -0.001814013   -0.000005359
     19        1          -0.005396460    0.000585583    0.000001402
     20        1           0.005862773   -0.000027140   -0.000002904
     21        1           0.005987465   -0.001781575   -0.000004778
     22        1           0.002777771    0.003002178   -0.000004612
     23        1          -0.000731089    0.001464279    0.000005513
     24        1          -0.001262795   -0.001104716   -0.000000955
     25        1          -0.006089274   -0.002746715   -0.000107694
     26        1           0.000577646   -0.008540178    0.000004868
 -------------------------------------------------------------------
 Cartesian Forces:  Max     0.032581735 RMS     0.007642963

 GradGradGradGradGradGradGradGradGradGradGradGradGradGradGradGradGradGrad
 Berny optimization.
 FormGI is forming the generalized inverse of G from B-inverse, IUseBI=4.
 Internal  Forces:  Max     0.018374783 RMS     0.004198979
 Search for a local minimum.
 Step number   1 out of a maximum of  150
 All quantities printed in internal units (Hartrees-Bohrs-Radians)
 Mixed Optimization -- RFO/linear search
 Second derivative matrix not updated -- first step.
 ITU=  0
     Eigenvalues ---    0.01068   0.01068   0.01068   0.01553   0.01638
     Eigenvalues ---    0.01766   0.01806   0.01881   0.01918   0.02116
     Eigenvalues ---    0.02116   0.02118   0.02119   0.02120   0.02125
     Eigenvalues ---    0.02157   0.02158   0.02159   0.02161   0.02163
     Eigenvalues ---    0.02166   0.02168   0.02181   0.16000   0.16000
     Eigenvalues ---    0.16000   0.16000   0.16000   0.16000   0.16000
     Eigenvalues ---    0.16000   0.22000   0.22528   0.22592   0.24493
     Eigenvalues ---    0.24516   0.25000   0.25000   0.25000   0.25000
     Eigenvalues ---    0.25000   0.25000   0.25000   0.25000   0.33197
     Eigenvalues ---    0.33903   0.34894   0.34899   0.35185   0.35200
     Eigenvalues ---    0.35205   0.35210   0.35255   0.35256   0.40042
     Eigenvalues ---    0.41815   0.41981   0.42078   0.45128   0.45757
     Eigenvalues ---    0.46019   0.46061   0.46066   0.46355   0.46554
     Eigenvalues ---    0.46581   0.52002   0.52350   0.52789   0.53676
     Eigenvalues ---    0.93278   0.93352
 RFO step:  Lambda=-7.40968585D-03 EMin= 1.06793153D-02
 Linear search not attempted -- first point.
 Iteration  1 RMS(Cart)=  0.02700339 RMS(Int)=  0.00056834
 Iteration  2 RMS(Cart)=  0.00079722 RMS(Int)=  0.00000996
 Iteration  3 RMS(Cart)=  0.00000057 RMS(Int)=  0.00000996
 Variable       Old X    -DE/DX   Delta X   Delta X   Delta X     New X
                                 (Linear)    (Quad)   (Total)
    R1        2.57897  -0.01837   0.00000  -0.03484  -0.03484   2.54414
    R2        1.83028   0.00368   0.00000   0.00677   0.00677   1.83705
    R3        2.31425   0.00004   0.00000   0.00004   0.00004   2.31430
    R4        2.31458  -0.01780   0.00000  -0.01893  -0.01893   2.29565
    R5        2.57566  -0.01263   0.00000  -0.02379  -0.02379   2.55187
    R6        1.83852  -0.00856   0.00000  -0.01598  -0.01598   1.82253
    R7        2.63900   0.01098   0.00000   0.02471   0.02472   2.66372
    R8        2.79147   0.00067   0.00000   0.00209   0.00208   2.79355
    R9        2.64573   0.00386   0.00000   0.00970   0.00971   2.65544
   R10        2.79153   0.00364   0.00000   0.01056   0.01057   2.80211
   R11        2.64581  -0.00961   0.00000  -0.02118  -0.02119   2.62462
   R12        2.63881   0.00422   0.00000   0.00853   0.00852   2.64733
   R13        2.79143   0.00617   0.00000   0.01699   0.01698   2.80840
   R14        2.64581  -0.00590   0.00000  -0.01272  -0.01272   2.63309
   R15        2.79132   0.00752   0.00000   0.02088   0.02089   2.81221
   R16        2.64562  -0.00703   0.00000  -0.01522  -0.01522   2.63041
   R17        2.63640   0.00288   0.00000   0.00654   0.00654   2.64294
   R18        2.63616  -0.00194   0.00000  -0.00546  -0.00547   2.63069
   R19        2.05335   0.00012   0.00000   0.00033   0.00033   2.05369
   R20        2.63633  -0.00466   0.00000  -0.00981  -0.00981   2.62652
   R21        2.05343   0.00072   0.00000   0.00201   0.00201   2.05544
   R22        2.63643  -0.00407   0.00000  -0.00864  -0.00864   2.62779
   R23        2.05352   0.00068   0.00000   0.00190   0.00190   2.05542
   R24        2.63328  -0.00485   0.00000  -0.01114  -0.01114   2.62214
   R25        2.05375   0.00026   0.00000   0.00071   0.00071   2.05446
   R26        2.63344   0.00321   0.00000   0.00682   0.00682   2.64026
   R27        2.05264   0.00149   0.00000   0.00413   0.00413   2.05677
   R28        2.05262   0.00158   0.00000   0.00438   0.00438   2.05700
    A1        1.93750  -0.01020   0.00000  -0.06092  -0.06092   1.87658
    A2        1.89020   0.00051   0.00000   0.00305   0.00305   1.89324
    A3        2.10278   0.00095   0.00000   0.00303   0.00303   2.10581
    A4        2.09284  -0.00382   0.00000  -0.01123  -0.01122   2.08162
    A5        2.08756   0.00286   0.00000   0.00821   0.00820   2.09576
    A6        2.10272   0.00308   0.00000   0.01312   0.01315   2.11587
    A7        2.09291   0.00070   0.00000   0.00288   0.00288   2.09579
    A8        2.08755  -0.00377   0.00000  -0.01601  -0.01602   2.07153
    A9        2.10282   0.00278   0.00000   0.01001   0.00998   2.11280
   A10        2.09290   0.00094   0.00000   0.00396   0.00397   2.09687
   A11        2.08746  -0.00372   0.00000  -0.01397  -0.01395   2.07351
   A12        2.10281   0.00208   0.00000   0.00754   0.00754   2.11035
   A13        2.09294   0.00054   0.00000   0.00219   0.00219   2.09513
   A14        2.08743  -0.00262   0.00000  -0.00973  -0.00973   2.07770
   A15        2.12622  -0.00026   0.00000  -0.00112  -0.00111   2.12511
   A16        2.07938   0.00368   0.00000   0.01418   0.01419   2.09356
   A17        2.07759  -0.00342   0.00000  -0.01306  -0.01308   2.06452
   A18        2.10261   0.00430   0.00000   0.01641   0.01640   2.11901
   A19        2.10293   0.00117   0.00000   0.00423   0.00422   2.10715
   A20        2.07764  -0.00547   0.00000  -0.02064  -0.02062   2.05702
   A21        2.13407   0.01591   0.00000   0.06008   0.06007   2.19414
   A22        2.05502  -0.01478   0.00000  -0.05913  -0.05914   1.99588
   A23        2.09410  -0.00112   0.00000  -0.00094  -0.00093   2.09317
   A24        2.09411   0.00190   0.00000   0.00472   0.00471   2.09882
   A25        2.11757  -0.00652   0.00000  -0.03564  -0.03564   2.08193
   A26        2.07150   0.00462   0.00000   0.03092   0.03093   2.10243
   A27        2.09414  -0.00137   0.00000  -0.00589  -0.00589   2.08824
   A28        2.11943  -0.00529   0.00000  -0.03274  -0.03274   2.08669
   A29        2.06962   0.00666   0.00000   0.03863   0.03863   2.10825
   A30        2.09411  -0.00113   0.00000  -0.00514  -0.00514   2.08897
   A31        2.11773  -0.00581   0.00000  -0.03551  -0.03551   2.08221
   A32        2.07135   0.00694   0.00000   0.04065   0.04065   2.11200
   A33        2.10679  -0.00455   0.00000  -0.01726  -0.01726   2.08953
   A34        2.08020   0.00410   0.00000   0.01634   0.01633   2.09653
   A35        2.09620   0.00045   0.00000   0.00093   0.00093   2.09713
   A36        2.09621   0.00189   0.00000   0.00365   0.00364   2.09985
   A37        2.08683   0.00325   0.00000   0.02321   0.02322   2.11005
   A38        2.10014  -0.00514   0.00000  -0.02686  -0.02685   2.07329
   A39        2.09610   0.00037   0.00000   0.00187   0.00186   2.09797
   A40        2.09353  -0.00089   0.00000  -0.00512  -0.00512   2.08841
   A41        2.09356   0.00052   0.00000   0.00325   0.00326   2.09681
   A42        2.09618   0.00066   0.00000   0.00301   0.00301   2.09919
   A43        2.09352  -0.00092   0.00000  -0.00504  -0.00503   2.08848
   A44        2.09349   0.00026   0.00000   0.00202   0.00203   2.09552
    D1        0.00274  -0.00008   0.00000  -0.00279  -0.00279  -0.00005
    D2       -3.13810  -0.00012   0.00000  -0.00428  -0.00428   3.14081
    D3       -0.00032   0.00002   0.00000   0.00064   0.00064   0.00032
    D4       -3.14140  -0.00001   0.00000  -0.00021  -0.00020   3.14159
    D5       -0.00072   0.00002   0.00000   0.00083   0.00083   0.00011
    D6        3.14152   0.00002   0.00000   0.00059   0.00058  -3.14109
    D7        3.14079   0.00002   0.00000   0.00074   0.00075   3.14154
    D8       -0.00016   0.00001   0.00000   0.00051   0.00050   0.00034
    D9       -3.14037  -0.00006   0.00000  -0.00315  -0.00314   3.13967
   D10        0.00055  -0.00001   0.00000  -0.00036  -0.00035   0.00020
   D11        0.00131  -0.00006   0.00000  -0.00307  -0.00306  -0.00175
   D12       -3.14095  -0.00001   0.00000  -0.00027  -0.00027  -3.14122
   D13       -3.14074  -0.00006   0.00000  -0.00228  -0.00232   3.14013
   D14        0.00008  -0.00002   0.00000  -0.00078  -0.00078  -0.00070
   D15        0.00077  -0.00006   0.00000  -0.00237  -0.00240  -0.00163
   D16        3.14159  -0.00002   0.00000  -0.00087  -0.00086   3.14073
   D17       -3.14105  -0.00001   0.00000  -0.00023  -0.00023  -3.14128
   D18        0.00055  -0.00002   0.00000  -0.00075  -0.00075  -0.00019
   D19       -0.00009  -0.00000   0.00000   0.00002   0.00003  -0.00007
   D20        3.14151  -0.00001   0.00000  -0.00050  -0.00049   3.14101
   D21        0.00008   0.00000   0.00000   0.00006   0.00006   0.00015
   D22        3.14154  -0.00000   0.00000   0.00000   0.00001   3.14154
   D23       -3.14087  -0.00000   0.00000  -0.00019  -0.00019  -3.14107
   D24        0.00058  -0.00001   0.00000  -0.00025  -0.00025   0.00033
   D25        0.00007   0.00001   0.00000   0.00031   0.00031   0.00038
   D26        3.14133   0.00001   0.00000   0.00022   0.00022   3.14155
   D27       -3.14118   0.00001   0.00000   0.00017   0.00017  -3.14101
   D28        0.00008   0.00000   0.00000   0.00007   0.00008   0.00016
   D29        3.14072   0.00004   0.00000   0.00248   0.00250  -3.13996
   D30       -0.00022  -0.00001   0.00000  -0.00023  -0.00023  -0.00045
   D31       -0.00121   0.00005   0.00000   0.00263   0.00264   0.00143
   D32        3.14103  -0.00000   0.00000  -0.00008  -0.00009   3.14094
   D33        0.00009  -0.00001   0.00000  -0.00022  -0.00022  -0.00014
   D34        3.14155   0.00000   0.00000  -0.00001  -0.00002   3.14153
   D35       -3.14117  -0.00001   0.00000  -0.00037  -0.00037  -3.14153
   D36        0.00030  -0.00000   0.00000  -0.00016  -0.00016   0.00013
   D37        3.14138  -0.00001   0.00000  -0.00035  -0.00035   3.14103
   D38       -0.00022   0.00000   0.00000   0.00017   0.00017  -0.00006
   D39        0.00011  -0.00001   0.00000  -0.00026  -0.00026  -0.00015
   D40       -3.14149   0.00001   0.00000   0.00026   0.00025  -3.14123
   D41       -0.00017   0.00000   0.00000   0.00010   0.00010  -0.00007
   D42       -3.14156  -0.00000   0.00000  -0.00002  -0.00002  -3.14157
   D43        3.14110   0.00000   0.00000   0.00001   0.00001   3.14111
   D44       -0.00029  -0.00000   0.00000  -0.00010  -0.00010  -0.00039
   D45       -0.00013   0.00004   0.00000   0.00111   0.00107   0.00094
   D46        3.14094   0.00006   0.00000   0.00197   0.00192  -3.14032
   D47       -3.14098  -0.00001   0.00000  -0.00038  -0.00035  -3.14133
   D48        0.00009   0.00001   0.00000   0.00049   0.00050   0.00058
   D49        0.00008  -0.00001   0.00000  -0.00036  -0.00035  -0.00027
   D50        3.14125   0.00000   0.00000   0.00014   0.00015   3.14140
   D51       -3.14138  -0.00001   0.00000  -0.00029  -0.00029   3.14152
   D52       -0.00021   0.00001   0.00000   0.00021   0.00021  -0.00000
   D53       -0.00017   0.00001   0.00000   0.00019   0.00019   0.00002
   D54        3.14158   0.00000   0.00000   0.00005   0.00005  -3.14156
   D55        3.14155   0.00000   0.00000  -0.00001  -0.00001   3.14154
   D56        0.00011  -0.00000   0.00000  -0.00015  -0.00015  -0.00004
   D57        0.00009  -0.00000   0.00000  -0.00013  -0.00013  -0.00005
   D58       -3.14145  -0.00000   0.00000  -0.00009  -0.00009  -3.14154
   D59        3.14148  -0.00000   0.00000  -0.00003  -0.00002   3.14146
   D60       -0.00006   0.00000   0.00000   0.00002   0.00002  -0.00004
   D61        3.14091   0.00003   0.00000   0.00092   0.00091  -3.14136
   D62       -0.00025   0.00001   0.00000   0.00041   0.00041   0.00016
   D63       -0.00017   0.00000   0.00000   0.00008   0.00007  -0.00010
   D64       -3.14133  -0.00001   0.00000  -0.00043  -0.00043   3.14142
   D65        0.00008  -0.00000   0.00000  -0.00001  -0.00001   0.00007
   D66       -3.14157  -0.00000   0.00000  -0.00005  -0.00005   3.14156
   D67        3.14152   0.00000   0.00000   0.00013   0.00013  -3.14154
   D68       -0.00013   0.00000   0.00000   0.00009   0.00009  -0.00004
         Item               Value     Threshold  Converged?
 Maximum Force            0.018375     0.000450     NO 
 RMS     Force            0.004199     0.000300     NO 
 Maximum Displacement     0.157653     0.001800     NO 
 RMS     Displacement     0.026838     0.001200     NO 
 Predicted change in Energy=-3.809086D-03
 GradGradGradGradGradGradGradGradGradGradGradGradGradGradGradGradGradGrad

                          Input orientation:                          
 ---------------------------------------------------------------------
 Center     Atomic      Atomic             Coordinates (Angstroms)
 Number     Number       Type             X           Y           Z
 ---------------------------------------------------------------------
      1          8           0        2.579339    2.145742   -0.001079
      2          8           0       -0.069405    2.503070    0.002318
      3          8           0       -0.856956   -2.810266   -0.000776
      4          8           0        4.569793    0.436178    0.001685
      5          6           0        0.912469    0.352043   -0.000169
      6          6           0        0.699675   -1.041381   -0.000505
      7          6           0       -1.605139    0.723358    0.000128
      8          6           0       -1.816543   -0.661508   -0.000505
      9          6           0       -0.230888    1.289091    0.000027
     10          6           0       -0.669791   -1.609968   -0.000814
     11          6           0        2.227946    0.846110    0.000184
     12          6           0        1.782659   -1.910956   -0.000081
     13          6           0       -2.690721    1.596854    0.001107
     14          6           0       -3.112857   -1.168559   -0.000346
     15          6           0        3.307358   -0.043217    0.001046
     16          6           0        3.082435   -1.412441    0.000853
     17          6           0       -3.983625    1.086754    0.001289
     18          6           0       -4.194323   -0.294431    0.000521
     19          1           0        1.603728   -2.982889   -0.000302
     20          1           0       -2.515646    2.670364    0.001650
     21          1           0       -3.263090   -2.245814   -0.000823
     22          1           0        3.937746   -2.083554    0.001375
     23          1           0       -4.831710    1.768925    0.002019
     24          1           0       -5.207854   -0.691443    0.000692
     25          1           0        1.760826    2.670207   -0.002313
     26          1           0        4.530772    1.399831    0.001719
 ---------------------------------------------------------------------
                    Distance matrix (angstroms):
                    1          2          3          4          5
     1  O    0.000000
     2  O    2.672740   0.000000
     3  O    6.030766   5.371386   0.000000
     4  O    2.623837   5.078799   6.323686   0.000000
     5  C    2.448634   2.364529   3.623681   3.658291   0.000000
     6  C    3.700120   3.626930   2.356280   4.142583   1.409579
     7  C    4.419619   2.350714   3.611963   6.181606   2.544843
     8  C    5.215787   3.614837   2.353289   6.479985   2.911150
     9  C    2.937895   1.224673   4.146890   4.875858   1.478285
    10  C    4.966105   4.156627   1.214804   5.624940   2.520522
    11  C    1.346299   2.832550   4.783901   2.377455   1.405198
    12  C    4.134187   4.786833   2.788606   3.643783   2.424540
    13  C    5.298567   2.773540   4.773407   7.352702   3.812156
    14  C    6.586781   4.769010   2.790035   7.848457   4.302962
    15  C    2.306850   4.229197   4.999807   1.350393   2.427287
    16  C    3.593574   5.026462   4.180039   2.372682   2.796812
    17  C    6.647854   4.162580   4.996282   8.578124   4.950914
    18  C    7.199787   4.984070   4.179407   8.794516   5.147548
    19  H    5.220600   5.735427   2.466731   4.526319   3.405820
    20  H    5.121925   2.451955   5.726130   7.429336   4.138429
    21  H    7.308881   5.722896   2.471455   8.279320   4.917739
    22  H    4.442096   6.090515   4.849462   2.597793   3.883868
    23  H    7.420623   4.818559   6.063635   9.495497   5.916346
    24  H    8.287943   6.050502   4.839394   9.842455   6.208642
    25  H    0.972126   1.837853   6.073580   3.589038   2.468522
    26  H    2.089134   4.730620   6.837583   0.964443   3.766959
                    6          7          8          9         10
     6  C    0.000000
     7  C    2.902839   0.000000
     8  C    2.544732   1.400909   0.000000
     9  C    2.509392   1.486143   2.513790   0.000000
    10  C    1.482811   2.513819   1.488159   2.932095   0.000000
    11  C    2.428628   3.835050   4.316341   2.498418   3.798578
    12  C    1.388890   4.291478   3.809905   3.780830   2.470850
    13  C    4.295937   1.393372   2.421650   2.479011   3.790497
    14  C    3.814652   2.419207   1.391952   3.787584   2.482622
    15  C    2.792193   4.971948   5.161070   3.780771   4.274625
    16  C    2.411479   5.151212   4.956197   4.275089   3.757422
    17  C    5.144149   2.406087   2.784361   3.758189   4.272448
    18  C    4.950672   2.782043   2.405947   4.268063   3.762042
    19  H    2.141673   4.902355   4.133650   4.649261   2.655899
    20  H    4.910738   2.149386   3.404426   2.669839   4.661376
    21  H    4.141759   3.400704   2.145350   4.657232   2.670113
    22  H    3.401651   6.213078   5.927400   5.362112   4.631812
    23  H    6.204357   3.391751   3.872756   4.625776   5.360830
    24  H    5.917885   3.870558   3.391444   5.356558   4.630088
    25  H    3.860302   3.888438   4.888548   2.423719   4.922174
    26  H    4.542777   6.173089   6.673645   4.762948   6.008722
                   11         12         13         14         15
    11  C    0.000000
    12  C    2.792793   0.000000
    13  C    4.975630   5.684704   0.000000
    14  C    5.708158   4.951487   2.797447   0.000000
    15  C    1.398583   2.411049   6.218262   6.518094   0.000000
    16  C    2.414789   1.392099   6.510391   6.200091   1.387574
    17  C    6.216231   6.498946   1.389894   2.417577   7.378026
    18  C    6.522758   6.191725   2.416150   1.390564   7.505886
    19  H    3.879546   1.086764   6.278243   5.053510   3.397650
    20  H    5.082280   6.282032   1.087692   3.885099   6.424243
    21  H    6.301704   5.056848   3.885063   1.087681   6.929807
    22  H    3.392101   2.161989   7.581687   7.109727   2.135500
    23  H    7.119714   7.569108   2.147893   3.403421   8.338362
    24  H    7.593102   7.096089   3.401804   2.148640   8.539850
    25  H    1.882960   4.581216   4.579123   6.203944   3.123211
    26  H    2.368463   4.302725   7.224180   8.063603   1.891859
                   16         17         18         19         20
    16  C    0.000000
    17  C    7.495011   0.000000
    18  C    7.362143   1.397164   0.000000
    19  H    2.157055   6.912345   6.391024   0.000000
    20  H    6.928767   2.159348   3.407046   6.994892   0.000000
    21  H    6.400016   3.409573   2.162196   4.922316   4.972674
    22  H    1.087175   8.532232   8.326554   2.501290   8.015361
    23  H    8.529641   1.088396   2.159561   7.999662   2.485305
    24  H    8.321583   2.158871   1.088515   7.186680   4.306940
    25  H    4.291232   5.958696   6.652284   5.655279   4.276474
    26  H    3.163313   8.520151   8.888071   5.270278   7.160046
                   21         22         23         24         25
    21  H    0.000000
    22  H    7.202665   0.000000
    23  H    4.310303   9.578359   0.000000
    24  H    2.489614   9.250945   2.488956   0.000000
    25  H    7.029012   5.228503   6.653861   7.737132   0.000000
    26  H    8.604361   3.533504   9.369754   9.960636   3.047371
                   26
    26  H    0.000000
 Stoichiometry    C14H8O4
 Framework group  C1[X(C14H8O4)]
 Deg. of freedom    72
 Full point group                 C1      NOp   1
 Largest Abelian subgroup         C1      NOp   1
 Largest concise Abelian subgroup C1      NOp   1
                         Standard orientation:                         
 ---------------------------------------------------------------------
 Center     Atomic      Atomic             Coordinates (Angstroms)
 Number     Number       Type             X           Y           Z
 ---------------------------------------------------------------------
      1          8           0       -2.571279   -2.033815   -0.002009
      2          8           0        0.066647   -2.463784    0.001345
      3          8           0        0.999886    2.825909   -0.000281
      4          8           0       -4.514010   -0.270209    0.001180
      5          6           0       -0.855756   -0.286591   -0.000575
      6          6           0       -0.604758    1.100460   -0.000525
      7          6           0        1.650700   -0.726938   -0.000327
      8          6           0        1.900074    0.651597   -0.000576
      9          6           0        0.261423   -1.254700   -0.000611
     10          6           0        0.779813    1.631206   -0.000651
     11          6           0       -2.184311   -0.744329   -0.000384
     12          6           0       -1.663440    1.999462    0.000114
     13          6           0        2.711872   -1.629932    0.000436
     14          6           0        3.209829    1.122839   -0.000253
     15          6           0       -3.238881    0.174320    0.000698
     16          6           0       -2.976423    1.536846    0.000884
     17          6           0        4.018304   -1.155547    0.000785
     18          6           0        4.266870    0.219328    0.000398
     19          1           0       -1.455125    3.066074    0.000190
     20          1           0        2.507369   -2.698226    0.000682
     21          1           0        3.389604    2.195561   -0.000432
     22          1           0       -3.812972    2.231206    0.001572
     23          1           0        4.847325   -1.860762    0.001346
     24          1           0        5.290927    0.588343    0.000699
     25          1           0       -1.767485   -2.580571   -0.003370
     26          1           0       -4.501481   -1.234570    0.000951
 ---------------------------------------------------------------------
 Rotational constants (GHZ):           0.9096406           0.3154747           0.2342381
 Standard basis: 6-311++G(d,p) (5D, 7F)
 There are   470 symmetry adapted cartesian basis functions of A   symmetry.
 There are   452 symmetry adapted basis functions of A   symmetry.
   452 basis functions,   720 primitive gaussians,   470 cartesian basis functions
    62 alpha electrons       62 beta electrons
       nuclear repulsion energy      1230.4630178671 Hartrees.
 NAtoms=   26 NActive=   26 NUniq=   26 SFac= 1.00D+00 NAtFMM=   60 NAOKFM=F Big=F
 Integral buffers will be    131072 words long.
 Raffenetti 2 integral format.
 Two-electron integral symmetry is turned on.
 R6APFD:  NTU= -4 IXU= 1 FactS= 1.050
 Nuclear repulsion after empirical dispersion term =     1230.4409849125 Hartrees.
 One-electron integrals computed using PRISM.
 NBasis=   452 RedAO= T EigKep=  1.40D-06  NBF=   452
 NBsUse=   445 1.00D-06 EigRej=  7.22D-07 NBFU=   445
 Initial guess from the checkpoint file:  "AZAN0089.chk"
 B after Tr=    -0.000000    0.000000   -0.000000
         Rot=    0.999995   -0.000016    0.000007    0.003053 Ang=  -0.35 deg.
 ExpMin= 3.60D-02 ExpMax= 8.59D+03 ExpMxC= 1.30D+03 IAcc=3 IRadAn=         5 AccDes= 0.00D+00
 Harris functional with IExCor= 1009 and IRadAn=       5 diagonalized for initial guess.
 HarFok:  IExCor= 1009 AccDes= 0.00D+00 IRadAn=         5 IDoV= 1 UseB2=F ITyADJ=14
 ICtDFT=  3500011 ScaDFX=  1.000000  1.000000  1.000000  1.000000
 FoFCou: FMM=F IPFlag=           0 FMFlag=      100000 FMFlg1=           0
         NFxFlg=           0 DoJE=T BraDBF=F KetDBF=T FulRan=T
         wScrn=  0.000000 ICntrl=       500 IOpCl=  0 I1Cent=   200000004 NGrid=           0
         NMat0=    1 NMatS0=      1 NMatT0=    0 NMatD0=    1 NMtDS0=    0 NMtDT0=    0
 Petite list used in FoFCou.
 Requested convergence on RMS density matrix=1.00D-08 within  32 cycles.
 Requested convergence on MAX density matrix=1.00D-06.
 Requested convergence on             energy=1.00D-06.
 No special actions if energy rises.
 SCF Done:  E(RM08HX) =  -839.210861084     A.U. after   14 cycles
            NFock= 14  Conv=0.61D-08     -V/T= 2.0041
 QCSCF skips out because SCF is already converged.
 R6APFD:  NTU= -4 IXU= 1 FactS= 1.050
 Calling FoFJK, ICntrl=      2127 FMM=F ISym2X=0 I1Cent= 0 IOpClX= 0 NMat=1 NMatS=1 NMatT=0.
 ***** Axes restored to original set *****
 -------------------------------------------------------------------
 Center     Atomic                   Forces (Hartrees/Bohr)
 Number     Number              X              Y              Z
 -------------------------------------------------------------------
      1        8          -0.006831850    0.000384751    0.000018772
      2        8           0.005309031   -0.002575939   -0.000154562
      3        8           0.000713332    0.005830757   -0.000025031
      4        8          -0.005643908   -0.000371763   -0.000001761
      5        6           0.001325025    0.003746728   -0.000070393
      6        6           0.003044412   -0.001647651    0.000003606
      7        6           0.000426925   -0.001683937   -0.000046828
      8        6          -0.000223335    0.002588004   -0.000015607
      9        6           0.001684421    0.002768111    0.000242620
     10        6           0.000000428   -0.009656998    0.000038371
     11        6          -0.006965855    0.001600782   -0.000069674
     12        6           0.000433155    0.001638534    0.000014390
[...]
 0.00000017,0.00089548,0.00113083,0.00000007,0.01005301,-0.32682863,-0.
 00005982,0.02169309,0.67033350,-0.00000014,0.00000003,0.00004451,-0.00
 000051,-0.00000030,-0.00009446,0.00000017,0.00000050,-0.00060642,0.000
 00008,0.00000012,0.00001429,0.00000003,-0.00000009,0.00075152,-0.00000
 011,0.00000052,-0.00087755,0.00000518,-0.00001278,-0.00585720,0.000009
 17,0.00001200,0.00598918,0.00000090,-0.00000050,-0.00078007,-0.0000006
 3,-0.00000141,0.00750655,0.00000004,-0.00000006,-0.00002038,-0.0000003
 4,0.00000015,-0.00060108,-0.00001956,-0.00000227,0.00473613,0.00001896
 ,-0.00003465,-0.06186819,0.00000003,-0.00000019,-0.00051580,0.00000010
 ,0.00000012,0.00064196,0.00000244,-0.00005871,-0.06128104,-0.00000290,
 0.00011668,0.13712016,0.00031500,-0.00013208,-0.00000001,-0.00062749,0
 .00074415,0.00000036,-0.00129575,-0.00172609,-0.00000050,-0.00013866,-
 0.00172188,-0.00000032,-0.00446751,0.00289923,0.00000011,0.01003583,0.
 02359607,0.00000390,-0.00008729,0.00007116,0.00000008,0.00037827,-0.00
 042099,0.00000001,0.00182547,0.00073556,-0.00000005,0.00003614,0.00224
 442,0.00000073,-0.00162181,0.00025936,0.00000006,-0.06451091,-0.046337
 59,-0.00000777,0.00016318,-0.00015061,-0.00000004,0.00005843,-0.000133
 52,-0.00000006,-0.00445283,-0.00089742,-0.00000041,0.00008916,-0.02805
 453,-0.00000463,-0.00005783,-0.00015493,-0.00000003,-0.00009000,0.0000
 3826,0.,0.06422630,-0.00000072,0.00037123,0.00000013,0.00028778,-0.000
 37716,-0.00000003,-0.00177113,0.00154505,0.00000048,-0.00007444,-0.000
 42686,-0.00000007,0.00349984,0.00002930,-0.00000117,-0.00346258,-0.016
 06512,-0.00000352,0.00013286,-0.00003445,-0.00000002,0.00013185,-0.000
 01750,-0.00000014,-0.00081941,-0.00036091,-0.00000032,-0.00110024,-0.0
 0244904,0.00000028,-0.00021485,0.00029681,0.00000045,-0.04543906,-0.33
 411339,-0.00005217,-0.00006930,0.00004861,0.,-0.00004829,-0.00001002,0
 .00000002,-0.00077738,0.00147777,-0.00000112,0.00100044,-0.00391552,-0
 .00000121,0.00003155,0.00005368,0.00000003,0.00005092,-0.00000913,-0.0
 0000001,0.04880497,0.35338745,-0.00000003,0.00000068,-0.00032143,-0.00
 000012,-0.00000001,-0.00061042,-0.00000055,0.00000007,-0.00006418,-0.0
 0000001,-0.00000021,-0.00000151,0.00000110,-0.00000139,0.00739676,-0.0
 0000070,-0.00000228,0.00289325,0.,0.00000004,-0.00006428,-0.00000006,-
 0.00000017,0.00031233,-0.00000023,-0.00000025,0.00121773,0.00000006,0.
 00000035,-0.00462011,0.00000006,-0.00000010,-0.00166877,-0.00000671,-0
 .00005257,-0.03773263,0.00000003,-0.00000002,0.00001746,0.,0.,-0.00001
 090,-0.00000070,-0.00000021,0.00738140,-0.00000081,-0.00000233,0.00309
 731,-0.00000003,-0.00000001,-0.00001998,0.,0.00000003,-0.00002226,0.00
 000847,0.00005763,0.02675716,0.00032389,-0.00015992,-0.00000011,-0.001
 59278,-0.00177557,-0.00000075,-0.00069739,0.00067880,0.00000028,0.0000
 0271,-0.00006062,-0.00000001,0.00058532,-0.00051095,0.,-0.00018189,0.0
 0018332,0.00000005,0.01009122,0.02326992,0.00000461,-0.00438321,0.0029
 9734,0.00000044,0.00009407,0.00238125,0.00000070,0.00181020,0.00070966
 ,0.00000008,-0.00014711,-0.00001990,0.00000003,0.00021932,-0.00016933,
 -0.00000005,-0.06582566,-0.04783308,-0.00000848,-0.00139252,0.00035959
 ,0.00000014,-0.00003522,0.00005876,-0.00000006,-0.00008091,-0.00017512
 ,0.,0.00100249,-0.02807728,-0.00000551,-0.00508097,-0.00165013,-0.0000
 0014,0.00004597,-0.00001468,0.,0.06514181,-0.00013228,0.00009993,0.000
 00002,-0.00202943,0.00163771,0.00000062,0.00032309,-0.00049566,-0.0000
 0006,0.00004711,0.00003405,0.,0.00003342,0.00006537,-0.00000014,0.0001
 3833,-0.00005660,0.,-0.00375452,-0.01589196,-0.00000434,0.00364704,-0.
 00008350,-0.00000133,-0.00109949,-0.00261037,0.00000024,-0.00105266,-0
 .00017326,-0.00000026,0.00007030,-0.00011511,-0.00000004,-0.00008046,0
 .00006025,0.,-0.04681746,-0.33219007,-0.00005889,-0.00001816,0.0007311
 9,0.00000045,-0.00002055,-0.00001794,0.,0.00003463,0.00005764,0.000000
 02,0.00148100,-0.00385251,-0.00000181,-0.00147774,0.00104048,-0.000001
 39,-0.00001954,-0.00000310,0.,0.05072386,0.35151954,0.00000005,0.00000
 010,0.00006727,-0.00000068,0.00000036,-0.00016495,0.00000004,-0.000000
 06,-0.00044333,0.00000004,0.00000003,-0.00001261,0.00000009,-0.0000001
 8,0.00020995,0.,0.00000007,-0.00005353,-0.00000104,-0.00000345,0.00350
 603,0.00000100,-0.00000197,0.00715705,-0.00000035,0.00000013,-0.003940
 48,-0.00000035,-0.00000030,0.00080039,-0.00000005,-0.00000012,-0.00005
 526,0.00000006,-0.00000003,0.00005939,-0.00000734,-0.00005940,-0.03988
 463,0.00000061,0.00000050,-0.00138665,-0.00000007,0.,0.00004775,-0.000
 00003,-0.00000004,-0.00003723,-0.00000046,-0.00000168,0.00444765,-0.00
 000036,-0.00000084,0.00778991,0.,0.,-0.00000111,0.00000904,0.00006576,
 0.02714603,-0.00011025,0.00024862,0.00000006,-0.00101464,-0.00052543,-
 0.00000027,-0.00008242,0.00234953,0.00000072,0.00027338,0.00016588,0.0
 0000003,-0.00031279,-0.00003162,-0.00000010,0.00067419,0.00029325,0.00
 000007,-0.00584384,-0.00113842,0.00000011,0.00201059,-0.02922570,-0.00
 000554,0.00159462,-0.00144249,-0.00000007,-0.00071238,-0.00290689,-0.0
 0000098,0.00038838,-0.00013659,-0.00000003,-0.00005861,0.00011809,0.00
 000004,-0.00131504,0.00030892,0.,-0.06316412,-0.03788537,-0.00000807,-
 0.00033587,0.00003645,0.,-0.00002371,0.00013748,0.00000002,-0.00355130
 ,0.00310476,0.00000079,0.00806113,0.02420917,0.00000457,-0.00008008,0.
 00002474,0.,0.00007680,-0.00003840,0.,0.06241305,-0.00002584,-0.000041
 53,0.,-0.00014063,-0.00019816,0.00000004,0.00250896,0.00036010,0.00000
 031,-0.00005972,-0.00002484,0.,-0.00006833,0.00002403,-0.00000003,-0.0
 0026094,-0.00007633,-0.00000010,-0.00169074,0.00121909,-0.00000109,-0.
 00232349,-0.00778972,-0.00000271,0.00032958,-0.00011105,-0.00000026,0.
 00057254,-0.00213621,0.00000043,-0.00001672,0.00004354,0.00000005,-0.0
 0000235,-0.00004461,-0.00000002,0.00058611,0.00068705,0.00000045,-0.03
 888980,-0.33484227,-0.00005775,0.00006109,-0.00000129,-0.00000001,-0.0
 0000564,0.00001678,0.,0.00290718,-0.00031009,-0.00000165,-0.00516256,-
 0.01097845,-0.00000296,0.00000831,0.00002311,0.,-0.00001025,-0.0000850
 0,0.00000013,0.04171154,0.35424094,-0.00000002,-0.00000004,-0.00002100
 ,0.00000002,0.00000003,-0.00041927,0.00000056,-0.00000004,-0.00022288,
 -0.00000006,-0.00000003,-0.00001341,0.00000001,0.00000004,0.00003616,-
 0.00000009,-0.00000012,0.00026741,-0.00000051,-0.00000178,0.00722318,0
 .00000053,-0.00000087,0.00383353,0.00000017,-0.00000032,0.00076582,0.0
 0000021,0.00000019,-0.00422622,-0.00000006,0.00000004,-0.00004344,0.00
 000004,-0.00000002,0.00005259,-0.00000057,0.00000070,-0.00134964,-0.00
 000973,-0.00005780,-0.04027031,0.00000008,-0.00000003,0.00005450,0.,0.
 ,-0.00006598,0.00000127,-0.00000113,0.00771683,-0.00000028,-0.00000427
 ,0.00430582,0.,-0.00000001,0.00005075,-0.00000006,0.00000015,-0.000800
 88,0.00000850,0.00006436,0.02747881,0.00056482,-0.00018866,0.00000003,
 0.00007665,-0.00000718,0.00000004,-0.00004778,-0.00047520,-0.00000019,
 0.00016479,0.00083786,0.00000026,0.00073418,-0.00086799,-0.00000008,-0
 .00397627,-0.00348867,-0.00000068,0.00010594,-0.00004897,-0.00000006,-
 0.00041093,-0.00033789,0.,-0.00038404,0.00020154,0.,-0.00006045,0.0017
 3816,0.00000034,-0.00032572,-0.00155800,-0.00000054,-0.01560208,0.0188
 3673,0.00000312,-0.00004976,0.00003212,0.,-0.00007711,0.00016699,0.,0.
 00699984,-0.00470815,-0.00000085,-0.23329676,0.13812193,0.00002001,0.0
 0001014,0.00004253,0.,-0.00001870,-0.00004048,0.,0.00076227,-0.0002219
 8,0.00000004,-0.00001489,0.00000759,0.,0.00001887,-0.00000691,0.,0.244
 84487,0.00158715,-0.00113867,0.00000005,0.00009701,-0.00000166,0.,0.00
 015838,-0.00008722,-0.00000006,0.00008472,0.00247930,0.00000108,-0.001
 00417,-0.00101888,0.00000025,-0.00328768,0.00041054,-0.00000133,0.0000
 0987,-0.00003418,-0.00000010,-0.00024377,-0.00012421,0.00000006,-0.000
 12124,0.00003923,0.00000012,-0.00045788,0.00074255,0.00000005,-0.00236
 046,-0.00450070,-0.00000229,-0.00994250,0.01198788,0.00000169,0.000049
 24,0.00000590,0.00000001,0.00001554,0.00005746,0.00000004,0.02769148,-
 0.01311070,-0.00000288,0.13570141,-0.16565306,-0.00002060,-0.00002494,
 -0.00002624,0.,-0.00003024,0.00002678,0.,0.00047221,0.00047956,0.00000
 078,-0.00000919,0.00000294,0.,-0.00000164,-0.00000124,0.,-0.14795927,0
 .16970797,0.00000040,-0.00000031,-0.00050982,-0.00000002,-0.00000005,0
 .00003489,-0.00000003,-0.00000008,0.00006591,-0.00000012,0.00000103,-0
 .00370137,-0.00000005,0.00000009,-0.00174125,-0.00000084,-0.00000118,0
 .00725440,0.00000008,-0.00000009,0.00031410,-0.00000011,0.,-0.00025776
 ,-0.00000016,0.00000023,-0.00059399,-0.00000010,0.00000018,0.00042608,
 -0.00000091,-0.00000208,0.00779633,-0.00000191,0.00000226,0.00230488,0
 .,0.00000001,-0.00000203,0.,0.00000004,-0.00016021,0.00000543,-0.00000
 353,0.00526085,0.00001974,-0.00002038,-0.03673478,0.,0.,-0.00002189,0.
 ,0.,0.00001145,0.00000011,0.00000080,-0.00384666,0.,0.,-0.00000648,0.,
 0.,-0.00000099,-0.00002146,0.00002306,0.02498441,-0.00007669,-0.000095
 47,-0.00000001,-0.00004826,-0.00048853,-0.00000020,0.00008420,0.000087
 43,0.00000006,-0.00010011,-0.00001213,0.,-0.00055737,-0.00030402,-0.00
 000003,0.00007807,-0.00012154,-0.00000005,-0.00435254,-0.00323091,-0.0
 0000019,0.00006280,-0.00120878,-0.00000034,-0.00011470,0.00182824,0.00
 000041,-0.00019883,0.00000633,-0.00000003,-0.00000326,0.00028991,0.000
 00005,-0.00005960,0.00003419,0.,-0.01679606,0.02012884,0.00000466,0.00
 130188,-0.00168074,-0.00000035,0.00005065,-0.00003999,-0.00000002,0.00
 001201,0.00003975,0.00000002,-0.22862828,0.13635144,0.00003200,0.00757
 758,-0.00530134,-0.00000126,-0.00001157,0.00000660,0.,0.00066386,-0.00
 031879,-0.00000016,0.00022673,-0.00030790,-0.00000005,-0.00000014,0.00
 000222,0.,0.24023619,0.00002381,0.00000892,0.,0.00017873,-0.00004278,-
 0.00000005,0.00024676,0.00013700,0.,0.00003147,0.00001963,0.,-0.000207
 29,-0.00014500,0.00000003,0.00007953,-0.00003450,-0.00000009,-0.002903
 30,0.00022721,-0.00000159,-0.00134871,-0.00063840,0.00000012,-0.000589
 73,0.00066210,0.00000012,-0.00005514,-0.00022205,0.00000026,0.00001249
 ,0.00003544,0.00000004,0.00003774,0.00001575,0.00000001,-0.01072924,0.
 01107511,0.00000172,-0.00191105,-0.00556589,-0.00000289,-0.00007020,0.
 00000941,0.00000001,-0.00001495,-0.00001110,0.,0.13638948,-0.16874539,
 -0.00002989,0.02572656,-0.01279883,-0.00000406,-0.00001143,0.00000340,
 0.,0.00042119,0.00051868,0.00000099,0.00118424,-0.00054427,-0.00000005
 ,0.00000364,-0.00000044,0.,-0.14608649,0.17547565,0.,0.,-0.00001265,-0
 .00000004,-0.00000007,0.00010356,0.00000007,-0.00000004,0.00018651,0.,
 0.,0.00002751,-0.00000008,-0.00000002,-0.00019276,0.00000004,-0.000000
 06,0.00019927,-0.00000061,-0.00000124,0.00789862,-0.00000027,0.0000001
 6,-0.00103624,-0.00000010,0.00000015,0.00018292,-0.00000002,0.00000020
 ,-0.00133046,0.,0.00000004,-0.00014220,0.,0.,0.00004577,-0.00000156,0.
 00000134,0.00406865,-0.00000083,-0.00000297,0.00754123,0.,0.,0.0000166
 3,0.,0.,-0.00003918,0.00003202,-0.00002971,-0.03988126,0.00000588,-0.0
 0000401,0.00390596,0.,0.,0.00000449,-0.00000005,0.00000103,-0.00421480
 ,0.00000033,-0.00000011,-0.00018166,0.,0.,-0.00000023,-0.00003457,0.00
 003435,0.02662370,-0.00001756,-0.00009899,-0.00000002,-0.00000290,-0.0
 0002520,-0.00000003,0.00005897,0.00045325,0.00000016,-0.00013951,-0.00
 006783,-0.00000001,0.00008296,0.00005175,0.00000007,-0.00032888,0.0003
 9575,-0.00000001,0.00078577,0.00087581,0.00000021,-0.00237777,0.003961
 76,0.00000065,-0.00022782,-0.00003934,-0.00000003,-0.00036622,-0.00157
 684,-0.00000026,-0.00008784,0.00010382,0.,-0.00007023,-0.00013023,0.,0
 .00170150,-0.00064125,0.00000004,-0.01687074,-0.01128354,-0.00000210,0
 .00014875,0.00001439,0.00000001,-0.00003228,0.00000236,-0.00000001,-0.
 00012743,0.00127758,0.00000034,-0.30222590,-0.09382939,-0.00001626,0.0
 0001989,0.00000052,0.,-0.00009250,0.00016611,0.00000002,0.00064597,0.0
 0025527,0.00000002,-0.00002030,-0.00000561,0.,0.00053504,-0.00038443,-
 0.00000019,0.31899959,-0.00003180,0.00003922,0.00000001,-0.00020014,0.
 00021535,0.00000004,-0.00020907,-0.00016074,-0.00000011,0.00001768,0.0
 0001997,0.,-0.00011204,-0.00002895,-0.00000010,0.00026021,-0.00032820,
 0.00000003,0.00093416,-0.00128521,-0.00000005,0.00374075,-0.00198238,-
 0.00000199,0.00000476,-0.00024818,0.00000026,0.00088375,0.00101354,0.0
 0000017,-0.00000434,-0.00000041,-0.00000001,0.00004312,0.00009765,0.00
 000005,-0.00049583,-0.00597812,-0.00000306,0.01953434,0.01132741,0.000
 00126,-0.00001457,-0.00003185,0.00000002,0.00004068,0.00000254,0.,-0.0
 2966083,-0.00502648,-0.00000162,-0.09386169,-0.09512189,-0.00001076,-0
 .00000535,-0.00000218,0.,-0.00134157,-0.00024265,0.00000005,-0.0004547
 9,0.00055570,0.00000097,0.00001168,0.00000548,0.,0.00037100,0.00055429
 ,0.00000098,0.10048239,0.09661558,0.,0.00000004,-0.00002466,-0.0000000
 8,-0.00000003,0.00019035,-0.00000002,-0.00000012,0.00011939,0.00000001
 ,0.,-0.00000108,-0.00000009,-0.00000007,0.00021555,0.00000014,-0.00000
 012,-0.00015320,0.00000007,-0.00000003,-0.00095738,0.00000114,-0.00000
 193,0.00781659,0.00000008,0.00000026,-0.00139290,0.00000021,0.00000038
 ,0.00007534,0.,-0.00000004,0.00006472,0.00000004,0.00000004,-0.0001704
 4,0.00000034,-0.00000320,0.00758125,0.00000409,0.00000196,0.00440253,-
 0.00000002,0.00000002,-0.00005688,0.,0.,0.00001748,-0.00000675,-0.0000
 0237,0.00414818,-0.00001618,-0.00001054,-0.04031424,0.,0.,0.00000596,-
 0.00000035,-0.00000001,-0.00022142,-0.00000009,0.00000094,-0.00417653,
 0.,0.,0.00003700,0.00000006,0.00000097,-0.00379282,0.00001738,0.000013
 88,0.02655924,-0.34724162,0.19248287,-0.00001276,0.00725588,0.02262698
 ,0.00000149,-0.00142895,-0.00009193,-0.00000020,-0.00151410,-0.0005972
 4,-0.00000002,-0.00795756,0.00450583,0.00000171,-0.00143376,-0.0052051
 1,-0.00000218,0.00169000,0.00381470,0.00000241,-0.00003346,-0.00069223
 ,-0.00000030,0.00233732,-0.03180607,-0.00001037,0.00350343,-0.00085413
 ,0.00000034,0.01742250,0.01523877,0.00000249,-0.00570520,0.00028951,0.
 00000005,0.00009111,0.00035785,0.00000029,0.00092941,0.00037785,-0.000
 00014,0.00396781,-0.01202101,-0.00000202,0.00410884,0.00434520,0.00000
 059,-0.00043947,0.00015199,-0.00000003,-0.00001541,0.00068772,0.000000
 18,-0.00013877,0.00012861,0.00000026,-0.00047150,0.00017431,-0.0000000
 4,0.00021231,0.00002403,0.,0.00002120,-0.00036799,-0.00000005,0.000090
 44,-0.00001925,0.,-0.00000251,0.00006023,0.00000002,0.32570404,0.16155
 653,-0.15856258,0.00000258,0.00498596,-0.00992561,-0.00000155,0.000737
 37,0.00051723,0.00000023,-0.00131174,0.00197078,0.00000043,0.00123223,
 0.00043271,-0.00000020,0.00138124,0.00044781,-0.00000006,0.00026310,-0
 .00109244,-0.00000083,0.00001493,-0.00002584,-0.00000006,-0.00923680,0
 .00210545,0.00000172,-0.00155659,0.00005944,-0.00000003,0.03704791,-0.
 04079113,-0.00000125,0.00085076,0.00049914,0.00000018,0.00025714,0.000
 17331,0.00000026,-0.00001094,-0.00015269,-0.00000006,-0.00504371,-0.00
 398968,-0.00000046,0.00110615,-0.00121769,-0.00000045,0.00007307,-0.00
 005494,-0.00000015,0.00003106,-0.00003281,0.00000007,-0.00004562,0.000
 00005,-0.00000004,0.00000068,0.00005903,-0.00000005,-0.00005544,0.0000
 0647,0.,-0.00014877,-0.00032130,-0.00000010,0.00003906,0.00000842,0.,0
 .00002221,-0.00000384,-0.00000001,-0.19464878,0.21086786,-0.00001925,0
 .00001101,-0.01161488,-0.00000133,-0.00000229,-0.00740245,0.00000015,-
 0.00000004,0.00005380,0.00000039,0.00000065,0.00071726,0.00000191,-0.0
 0000072,0.00027101,0.00000001,0.00000096,-0.00095633,-0.00000023,-0.00
 000222,0.00163313,-0.00000034,-0.00000007,0.00008719,-0.00000327,0.000
 00435,0.00006138,-0.00000033,0.00000023,-0.00011710,0.00000450,-0.0000
 0904,-0.00088292,0.00000089,0.00000001,0.00035118,0.00000013,0.0000000
 1,0.00016531,-0.00000001,-0.00000018,-0.00010874,-0.00000165,-0.000001
 07,0.00191449,-0.00000007,-0.00000116,0.00098180,0.,-0.00000007,-0.000
 09644,-0.00000007,0.,-0.00002069,0.,-0.00000003,0.00000861,0.00000020,
 0.,-0.00001374,-0.00000007,-0.00000001,-0.00000122,-0.00000001,-0.0000
 0003,-0.00035996,-0.00000001,0.,0.00001969,0.,-0.00000001,0.00002217,0
 .00001826,-0.00000012,0.01669499,0.00192411,0.00096425,0.00000091,0.00
 167361,0.00024325,-0.00000029,0.00013212,0.00033352,0.00000012,-0.0498
 4056,0.05928776,0.00000898,0.00128979,-0.00059540,-0.00000005,-0.00049
 545,0.00071069,0.00000010,0.00032636,0.00009559,0.00000002,-0.00005623
 ,-0.00011321,-0.00000006,-0.00113933,-0.00013325,-0.00000010,-0.000126
 21,-0.00009388,-0.00000010,-0.00502638,-0.00824548,-0.00000103,0.00189
 838,-0.00145852,-0.00000023,0.00005512,0.00010704,0.00000004,0.0001470
 2,-0.00002039,0.00000004,-0.00167784,-0.04717018,-0.00000772,-0.007966
 87,-0.00183953,-0.00000049,-0.00003166,0.00000791,0.,0.00000946,0.0000
 8959,0.,-0.00037541,-0.00008662,-0.00000005,-0.00006111,0.00001269,0.,
 0.00000902,0.00000718,0.,-0.00001864,-0.00005263,0.00000001,0.00002798
 ,-0.00000442,0.,0.00001193,0.00000726,0.,-0.00095197,0.00245898,0.0000
 0018,0.06026277,-0.00103564,-0.00229471,-0.00000029,-0.00082114,-0.000
 95489,0.00000015,0.00055673,0.00065983,0.00000020,0.01134081,-0.513842
 39,-0.00008062,-0.00105323,-0.00237683,-0.00000010,0.00217893,0.000707
 63,0.00000033,0.00000922,-0.00017712,0.,0.00019667,-0.00004653,0.,0.00
 023808,0.00125711,-0.00000002,-0.00195342,-0.00072398,-0.00000028,0.00
 569734,0.00547886,0.00000030,-0.00100229,-0.00105373,-0.00000059,0.000
 07585,0.00003209,0.00000002,-0.00005384,-0.00008579,0.00000006,-0.0105
 6277,-0.02186308,-0.00000323,-0.00037418,0.00340686,0.00000048,0.00004
 116,-0.00005727,0.00000001,-0.00000321,-0.00005283,-0.00000006,-0.0000
 6213,0.00006836,0.00000002,0.00002322,-0.00000908,-0.00000001,-0.00004
 987,0.00000825,0.,0.00005734,0.00007292,0.00000013,0.00001161,-0.00000
 236,0.,0.00001966,-0.00000567,0.,0.00103728,-0.00097716,-0.00000015,-0
 .00451220,0.53283149,0.00000020,-0.00000003,-0.00082908,-0.00000003,-0
 .00000012,-0.00005300,0.00000011,0.00000014,0.00001131,0.00000123,-0.0
 0007975,-0.00687270,-0.00000033,-0.00000031,-0.00105309,0.00000046,0.0
 0000032,-0.00026595,-0.00000003,0.,-0.00003855,0.00000005,-0.00000005,
 0.00017761,0.00000013,0.00000024,0.00027199,-0.00000040,-0.00000010,-0
 .00009163,0.00000097,0.00000027,0.00241178,-0.00000009,-0.00000070,0.0
 0217918,0.00000003,0.,-0.00004305,-0.00000001,0.,-0.00012628,-0.000001
 56,-0.00000376,-0.00292905,-0.00000046,0.00000017,0.00138817,0.,-0.000
 00002,0.00002392,0.,0.,0.00004195,-0.00000002,0.00000003,-0.00015896,0
 .,0.,0.00000569,0.,0.,0.00000803,0.00000001,0.00000012,-0.00055290,0.,
 0.,-0.00000023,0.,0.,0.00000580,0.00000002,-0.00000008,-0.00140755,-0.
 00000028,0.00008365,0.00789659\\0.00001235,-0.00002630,0.00000288,0.00
 001004,-0.00001468,0.00002372,-0.00000591,0.00000543,-0.00001657,-0.00
 000446,-0.00001028,0.,-0.00002887,-0.00003294,0.00001047,-0.00000357,0
 .00003521,-0.00000811,0.00001273,0.00000636,0.00000913,0.00001448,0.00
 003100,-0.00001089,-0.00001145,-0.00001058,-0.00004878,0.00001084,-0.0
 0003148,0.00004455,0.00002504,0.00001461,0.00000424,-0.00001393,0.0000
 0230,-0.00000408,-0.00001025,-0.00000128,0.00000340,0.00000781,-0.0000
 1151,-0.00000287,-0.00000208,0.00002988,-0.00000101,-0.00000450,-0.000
 00877,0.00000102,0.00000078,-0.00000072,-0.00000029,-0.00000015,0.0000
 0073,0.00000071,-0.00001055,-0.00000165,-0.00000036,-0.00000902,0.0000
 0042,0.,-0.00001419,-0.00000452,-0.00000023,0.00000577,0.00001468,0.00
 000057,0.00000782,-0.00000366,-0.00000049,0.00000895,-0.00000367,0.000
 00052,0.00000823,0.00000955,-0.00000767,-0.00000591,0.00001189,0.00000
 013\\\@


    UPON JULIA'S CLOTHES

 WHENAS IN SILKS MY JULIA GOES,
 THEN, THEN, METHINKS, HOW SWEETLY FLOWS
 THAT LIQUEFACTION OF HER CLOTHES.

 NEXT, WHEN I CAST MINE EYES, AND SEE
 THAT BRAVE VIBRATION, EACH WAY FREE,
 O, HOW THAT GLITTERING TAKETH ME!
     -- ROBERT HERRICK, 1648
 Job cpu time:       0 days  7 hours 40 minutes 13.7 seconds.
 Elapsed time:       0 days  0 hours 33 minutes 54.0 seconds.
 File lengths (MBytes):  RWF=    492 Int=      0 D2E=      0 Chk=     17 Scr=      1
 Normal termination of Gaussian 16 at Thu Sep 18 05:26:01 2025.
