 Entering Gaussian System, Link 0=g16
 Input=BCBO0043.gjf
 Output=BCBO0043.log
 Initial command:
 /usr/local/g16/l1.exe "/dados_01/scratch/Gau-1913001.inp" -scrdir="/dados_01/scratch/"
 Entering Link 1 = /usr/local/g16/l1.exe PID=   1913002.
  
 Copyright (c) 1988-2017, Gaussian, Inc.  All Rights Reserved.
  
 This is part of the Gaussian(R) 16 program.  It is based on
 the Gaussian(R) 09 system (copyright 2009, Gaussian, Inc.),
 the Gaussian(R) 03 system (copyright 2003, Gaussian, Inc.),
 the Gaussian(R) 98 system (copyright 1998, Gaussian, Inc.),
 the Gaussian(R) 94 system (copyright 1995, Gaussian, Inc.),
 the Gaussian 92(TM) system (copyright 1992, Gaussian, Inc.),
 the Gaussian 90(TM) system (copyright 1990, Gaussian, Inc.),
 the Gaussian 88(TM) system (copyright 1988, Gaussian, Inc.),
 the Gaussian 86(TM) system (copyright 1986, Carnegie Mellon
 University), and the Gaussian 82(TM) system (copyright 1983,
 Carnegie Mellon University). Gaussian is a federally registered
 trademark of Gaussian, Inc.
  
 This software contains proprietary and confidential information,
 including trade secrets, belonging to Gaussian, Inc.
  
 This software is provided under written license and may be
 used, copied, transmitted, or stored only in accord with that
 written license.
  
 The following legend is applicable only to US Government
 contracts under FAR:
  
                    RESTRICTED RIGHTS LEGEND
  
 Use, reproduction and disclosure by the US Government is
 subject to restrictions as set forth in subparagraphs (a)
 and (c) of the Commercial Computer Software - Restricted
 Rights clause in FAR 52.227-19.
  
 Gaussian, Inc.
 340 Quinnipiac St., Bldg. 40, Wallingford CT 06492
  
  
 ---------------------------------------------------------------
 Warning -- This program may not be used in any manner that
 competes with the business of Gaussian, Inc. or will provide
 assistance to any competitor of Gaussian, Inc.  The licensee
 of this program is prohibited from giving any competitor of
 Gaussian, Inc. access to this program.  By using this program,
 the user acknowledges that Gaussian, Inc. is engaged in the
 business of creating and licensing software in the field of
 computational chemistry and represents and warrants to the
 licensee that it is not a competitor of Gaussian, Inc. and that
 it will not use this program in any manner prohibited above.
 ---------------------------------------------------------------
  

 Cite this work as:
 Gaussian 16, Revision B.01,
 M. J. Frisch, G. W. Trucks, H. B. Schlegel, G. E. Scuseria, 
 M. A. Robb, J. R. Cheeseman, G. Scalmani, V. Barone, 
 G. A. Petersson, H. Nakatsuji, X. Li, M. Caricato, A. V. Marenich, 
 J. Bloino, B. G. Janesko, R. Gomperts, B. Mennucci, H. P. Hratchian, 
 J. V. Ortiz, A. F. Izmaylov, J. L. Sonnenberg, D. Williams-Young, 
 F. Ding, F. Lipparini, F. Egidi, J. Goings, B. Peng, A. Petrone, 
 T. Henderson, D. Ranasinghe, V. G. Zakrzewski, J. Gao, N. Rega, 
 G. Zheng, W. Liang, M. Hada, M. Ehara, K. Toyota, R. Fukuda, 
 J. Hasegawa, M. Ishida, T. Nakajima, Y. Honda, O. Kitao, H. Nakai, 
 T. Vreven, K. Throssell, J. A. Montgomery, Jr., J. E. Peralta, 
 F. Ogliaro, M. J. Bearpark, J. J. Heyd, E. N. Brothers, K. N. Kudin, 
 V. N. Staroverov, T. A. Keith, R. Kobayashi, J. Normand, 
 K. Raghavachari, A. P. Rendell, J. C. Burant, S. S. Iyengar, 
 J. Tomasi, M. Cossi, J. M. Millam, M. Klene, C. Adamo, R. Cammi, 
 J. W. Ochterski, R. L. Martin, K. Morokuma, O. Farkas, 
 J. B. Foresman, and D. J. Fox, Gaussian, Inc., Wallingford CT, 2016.
 
 ******************************************
 Gaussian 16:  ES64L-G16RevB.01 20-Dec-2017
                18-Sep-2025 
 ******************************************
 %nprocs=16
 Will use up to   16 processors via shared memory.
 %mem=40GB
 %chk=BCBO0043.chk
 ----------------------------------------------------------------------
 # opt freq=noraman M08HX/6-311++G** scf=xqc Empiricaldispersion=pfd In
 t(Grid=ultraFine)
 ----------------------------------------------------------------------
 1/18=20,19=15,26=4,38=1/1,3;
 2/9=110,12=2,17=6,18=5,40=1/2;
 3/5=4,6=6,7=1111,11=2,25=1,30=1,71=1,74=-74,75=-5,124=11/1,2,3;
 4//1;
 5/5=2,8=3,13=1,38=5/2,8;
 6/7=2,8=2,9=2,10=2,28=1/1;
 7//1,2,3,16;
 1/18=20,19=15,26=4/3(2);
 2/9=110/2;
 99//99;
 2/9=110/2;
 3/5=4,6=6,7=1111,11=2,25=1,30=1,71=1,74=-74,75=-5,124=11/1,2,3;
 4/5=5,16=3,69=1/1;
 5/5=2,8=3,13=1,38=5/2,8;
 7//1,2,3,16;
 1/18=20,19=15,26=4/3(-5);
 2/9=110/2;
 6/7=2,8=2,9=2,10=2,19=2,28=1/1;
 99/9=1/99;
 --------
 BCBO0043
 --------
 Symbolic Z-matrix:
 Charge =  0 Multiplicity = 1
 C                     19.0721   8.185     11.2023 
 H                     18.6365   7.5369    10.6614 
 C                     25.1907   14.6107   12.4237 
 H                     25.6577   14.5901   11.5967 
 C                     24.8602   15.5764   14.5899 
 H                     25.0899   16.2272   15.2434 
 C                     23.4855   13.7318   13.8785 
 C                     19.378    9.2696    13.335 
 H                     19.152    9.3562    14.2537 
 C                     13.5922   2.8073    10.9542 
 C                     16.9755   6.4563    12.3658 
 H                     17.2992   6.261     11.4937 
 Br                    12.4521   1.5577    10.0857 
 O                     20.9375   10.9752   13.6492 
 O                     21.9688   12.6798   15.3565 
 C                     18.7208   8.33      12.5399 
 C                     20.063    8.9936    10.6619 
 H                     20.3032   8.8916    9.7484 
 C                     20.7099   9.9508    11.4376 
 H                     21.3781   10.5082   11.0563 
 C                     17.6165   7.532     13.1692 
 C                     25.543    15.5357   13.3928 
 H                     26.256    16.1426   13.2318 
 C                     22.4103   12.748    14.2324 
 C                     14.0623   4.2047    12.8208 
 H                     13.8416   4.515     13.6915 
 O                     17.2283   7.7889    14.2966 
 C                     15.5108   4.2257    10.9147 
 H                     16.2824   4.5526    10.4664 
 C                     23.8375   14.6704   14.8463 
 H                     23.3799   14.6912   15.6791 
 C                     21.9169   11.8501   13.1157 
 H                     21.5245   12.3961   12.3892 
 H                     22.6705   11.328    12.7419 
 C                     14.7221   3.2666    10.3037 
 H                     14.9545   2.9278    9.4467 
 C                     20.3643   10.0808   12.7816 
 C                     13.2579   3.252     12.2217 
 H                     12.4931   2.9103    12.6697 
 C                     15.1872   4.7212    12.1827 
 C                     24.1583   13.7142   12.6566 
 H                     23.91     13.0892   11.9857 
 C                     15.9554   5.7692    12.8586 
 H                     15.6941   5.9785    13.748 
 

 GradGradGradGradGradGradGradGradGradGradGradGradGradGradGradGradGradGrad
 Berny optimization.
 Initialization pass.
                           ----------------------------
                           !    Initial Parameters    !
                           ! (Angstroms and Degrees)  !
 --------------------------                            --------------------------
 ! Name  Definition              Value          Derivative Info.                !
 --------------------------------------------------------------------------------
 ! R1    R(1,2)                  0.9499         estimate D2E/DX2                !
 ! R2    R(1,16)                 1.3905         estimate D2E/DX2                !
 ! R3    R(1,17)                 1.3884         estimate D2E/DX2                !
 ! R4    R(3,4)                  0.95           estimate D2E/DX2                !
 ! R5    R(3,22)                 1.3852         estimate D2E/DX2                !
 ! R6    R(3,41)                 1.387          estimate D2E/DX2                !
 ! R7    R(5,6)                  0.9505         estimate D2E/DX2                !
 ! R8    R(5,22)                 1.3787         estimate D2E/DX2                !
 ! R9    R(5,30)                 1.3901         estimate D2E/DX2                !
 ! R10   R(7,24)                 1.4997         estimate D2E/DX2                !
 ! R11   R(7,30)                 1.3934         estimate D2E/DX2                !
 ! R12   R(7,41)                 1.395          estimate D2E/DX2                !
 ! R13   R(8,9)                  0.95           estimate D2E/DX2                !
 ! R14   R(8,16)                 1.3953         estimate D2E/DX2                !
 ! R15   R(8,37)                 1.3918         estimate D2E/DX2                !
 ! R16   R(10,13)                1.9015         estimate D2E/DX2                !
 ! R17   R(10,35)                1.3823         estimate D2E/DX2                !
 ! R18   R(10,38)                1.3842         estimate D2E/DX2                !
 ! R19   R(11,12)                0.9505         estimate D2E/DX2                !
 ! R20   R(11,21)                1.4878         estimate D2E/DX2                !
 ! R21   R(11,43)                1.325          estimate D2E/DX2                !
 ! R22   R(14,32)                1.4175         estimate D2E/DX2                !
 ! R23   R(14,37)                1.3716         estimate D2E/DX2                !
 ! R24   R(15,24)                1.2096         estimate D2E/DX2                !
 ! R25   R(16,21)                1.5008         estimate D2E/DX2                !
 ! R26   R(17,18)                0.95           estimate D2E/DX2                !
 ! R27   R(17,19)                1.3916         estimate D2E/DX2                !
 ! R28   R(19,20)                0.95           estimate D2E/DX2                !
 ! R29   R(19,37)                1.3938         estimate D2E/DX2                !
 ! R30   R(21,27)                1.2197         estimate D2E/DX2                !
 ! R31   R(22,23)                0.9501         estimate D2E/DX2                !
 ! R32   R(24,32)                1.5155         estimate D2E/DX2                !
 ! R33   R(25,26)                0.9503         estimate D2E/DX2                !
 ! R34   R(25,38)                1.3833         estimate D2E/DX2                !
 ! R35   R(25,40)                1.3926         estimate D2E/DX2                !
 ! R36   R(28,29)                0.9504         estimate D2E/DX2                !
 ! R37   R(28,35)                1.3839         estimate D2E/DX2                !
 ! R38   R(28,40)                1.3993         estimate D2E/DX2                !
 ! R39   R(30,31)                0.9505         estimate D2E/DX2                !
 ! R40   R(32,33)                0.9899         estimate D2E/DX2                !
 ! R41   R(32,34)                0.9901         estimate D2E/DX2                !
 ! R42   R(35,36)                0.9504         estimate D2E/DX2                !
 ! R43   R(38,39)                0.9499         estimate D2E/DX2                !
 ! R44   R(40,43)                1.4647         estimate D2E/DX2                !
 ! R45   R(41,42)                0.9499         estimate D2E/DX2                !
 ! R46   R(43,44)                0.9503         estimate D2E/DX2                !
 ! A1    A(2,1,16)             120.2006         estimate D2E/DX2                !
 ! A2    A(2,1,17)             120.1976         estimate D2E/DX2                !
 ! A3    A(16,1,17)            119.6018         estimate D2E/DX2                !
 ! A4    A(4,3,22)             119.8999         estimate D2E/DX2                !
 ! A5    A(4,3,41)             119.8726         estimate D2E/DX2                !
 ! A6    A(22,3,41)            120.2275         estimate D2E/DX2                !
 ! A7    A(6,5,22)             119.8355         estimate D2E/DX2                !
 ! A8    A(6,5,30)             119.8173         estimate D2E/DX2                !
 ! A9    A(22,5,30)            120.3472         estimate D2E/DX2                !
 ! A10   A(24,7,30)            117.3287         estimate D2E/DX2                !
 ! A11   A(24,7,41)            122.9696         estimate D2E/DX2                !
 ! A12   A(30,7,41)            119.6727         estimate D2E/DX2                !
 ! A13   A(9,8,16)             120.0243         estimate D2E/DX2                !
 ! A14   A(9,8,37)             119.9965         estimate D2E/DX2                !
 ! A15   A(16,8,37)            119.9791         estimate D2E/DX2                !
 ! A16   A(13,10,35)           119.5721         estimate D2E/DX2                !
 ! A17   A(13,10,38)           118.9834         estimate D2E/DX2                !
 ! A18   A(35,10,38)           121.4376         estimate D2E/DX2                !
 ! A19   A(12,11,21)           119.8206         estimate D2E/DX2                !
 ! A20   A(12,11,43)           119.7943         estimate D2E/DX2                !
 ! A21   A(21,11,43)           120.3851         estimate D2E/DX2                !
 ! A22   A(32,14,37)           116.9465         estimate D2E/DX2                !
 ! A23   A(1,16,8)             119.9577         estimate D2E/DX2                !
 ! A24   A(1,16,21)            122.2627         estimate D2E/DX2                !
 ! A25   A(8,16,21)            117.7551         estimate D2E/DX2                !
 ! A26   A(1,17,18)            119.4825         estimate D2E/DX2                !
 ! A27   A(1,17,19)            121.025          estimate D2E/DX2                !
 ! A28   A(18,17,19)           119.4925         estimate D2E/DX2                !
 ! A29   A(17,19,20)           120.452          estimate D2E/DX2                !
 ! A30   A(17,19,37)           119.1047         estimate D2E/DX2                !
 ! A31   A(20,19,37)           120.4433         estimate D2E/DX2                !
 ! A32   A(11,21,16)           118.3625         estimate D2E/DX2                !
 ! A33   A(11,21,27)           120.9499         estimate D2E/DX2                !
 ! A34   A(16,21,27)           120.6489         estimate D2E/DX2                !
 ! A35   A(3,22,5)             120.0784         estimate D2E/DX2                !
 ! A36   A(3,22,23)            119.9254         estimate D2E/DX2                !
 ! A37   A(5,22,23)            119.9962         estimate D2E/DX2                !
 ! A38   A(7,24,15)            121.1951         estimate D2E/DX2                !
 ! A39   A(7,24,32)            116.6279         estimate D2E/DX2                !
 ! A40   A(15,24,32)           122.1766         estimate D2E/DX2                !
 ! A41   A(26,25,38)           119.1192         estimate D2E/DX2                !
 ! A42   A(26,25,40)           119.0981         estimate D2E/DX2                !
 ! A43   A(38,25,40)           121.7827         estimate D2E/DX2                !
 ! A44   A(29,28,35)           119.5263         estimate D2E/DX2                !
 ! A45   A(29,28,40)           119.5644         estimate D2E/DX2                !
 ! A46   A(35,28,40)           120.9093         estimate D2E/DX2                !
 ! A47   A(5,30,7)             119.7857         estimate D2E/DX2                !
 ! A48   A(5,30,31)            120.1018         estimate D2E/DX2                !
 ! A49   A(7,30,31)            120.1125         estimate D2E/DX2                !
 ! A50   A(14,32,24)           108.2588         estimate D2E/DX2                !
 ! A51   A(14,32,33)           110.0457         estimate D2E/DX2                !
 ! A52   A(14,32,34)           110.0312         estimate D2E/DX2                !
 ! A53   A(24,32,33)           110.063          estimate D2E/DX2                !
 ! A54   A(24,32,34)           110.0493         estimate D2E/DX2                !
 ! A55   A(33,32,34)           108.3912         estimate D2E/DX2                !
 ! A56   A(10,35,28)           119.2319         estimate D2E/DX2                !
 ! A57   A(10,35,36)           120.3829         estimate D2E/DX2                !
 ! A58   A(28,35,36)           120.3852         estimate D2E/DX2                !
 ! A59   A(8,37,14)            115.1323         estimate D2E/DX2                !
 ! A60   A(8,37,19)            120.3156         estimate D2E/DX2                !
 ! A61   A(14,37,19)           124.5518         estimate D2E/DX2                !
 ! A62   A(10,38,25)           118.5146         estimate D2E/DX2                !
 ! A63   A(10,38,39)           120.7118         estimate D2E/DX2                !
 ! A64   A(25,38,39)           120.7736         estimate D2E/DX2                !
 ! A65   A(25,40,28)           118.0784         estimate D2E/DX2                !
 ! A66   A(25,40,43)           118.5282         estimate D2E/DX2                !
 ! A67   A(28,40,43)           123.3835         estimate D2E/DX2                !
 ! A68   A(3,41,7)             119.8621         estimate D2E/DX2                !
 ! A69   A(3,41,42)            120.0812         estimate D2E/DX2                !
 ! A70   A(7,41,42)            120.0568         estimate D2E/DX2                !
 ! A71   A(11,43,40)           127.1006         estimate D2E/DX2                !
 ! A72   A(11,43,44)           116.4596         estimate D2E/DX2                !
 ! A73   A(40,43,44)           116.4398         estimate D2E/DX2                !
 ! D1    D(2,1,16,8)           179.0276         estimate D2E/DX2                !
 ! D2    D(2,1,16,21)           -2.8123         estimate D2E/DX2                !
 ! D3    D(17,1,16,8)           -0.9999         estimate D2E/DX2                !
 ! D4    D(17,1,16,21)         177.1601         estimate D2E/DX2                !
 ! D5    D(2,1,17,18)           -0.1805         estimate D2E/DX2                !
 ! D6    D(2,1,17,19)          179.8346         estimate D2E/DX2                !
 ! D7    D(16,1,17,18)         179.8471         estimate D2E/DX2                !
 ! D8    D(16,1,17,19)          -0.1379         estimate D2E/DX2                !
 ! D9    D(4,3,22,5)           179.4457         estimate D2E/DX2                !
 ! D10   D(4,3,22,23)           -0.5484         estimate D2E/DX2                !
 ! D11   D(41,3,22,5)           -0.5573         estimate D2E/DX2                !
 ! D12   D(41,3,22,23)         179.4485         estimate D2E/DX2                !
 ! D13   D(4,3,41,7)           179.0716         estimate D2E/DX2                !
 ! D14   D(4,3,41,42)           -0.9023         estimate D2E/DX2                !
 ! D15   D(22,3,41,7)           -0.9253         estimate D2E/DX2                !
 ! D16   D(22,3,41,42)         179.1008         estimate D2E/DX2                !
 ! D17   D(6,5,22,3)          -178.4147         estimate D2E/DX2                !
 ! D18   D(6,5,22,23)            1.5794         estimate D2E/DX2                !
 ! D19   D(30,5,22,3)            1.5924         estimate D2E/DX2                !
 ! D20   D(30,5,22,23)        -178.4135         estimate D2E/DX2                !
 ! D21   D(6,5,30,7)           178.8715         estimate D2E/DX2                !
 ! D22   D(6,5,30,31)           -1.1283         estimate D2E/DX2                !
 ! D23   D(22,5,30,7)           -1.1356         estimate D2E/DX2                !
 ! D24   D(22,5,30,31)         178.8646         estimate D2E/DX2                !
 ! D25   D(30,7,24,15)          -7.7067         estimate D2E/DX2                !
 ! D26   D(30,7,24,32)         172.5127         estimate D2E/DX2                !
 ! D27   D(41,7,24,15)         170.3256         estimate D2E/DX2                !
 ! D28   D(41,7,24,32)          -9.455          estimate D2E/DX2                !
 ! D29   D(24,7,30,5)          177.752          estimate D2E/DX2                !
 ! D30   D(24,7,30,31)          -2.2482         estimate D2E/DX2                !
 ! D31   D(41,7,30,5)           -0.3481         estimate D2E/DX2                !
 ! D32   D(41,7,30,31)         179.6517         estimate D2E/DX2                !
 ! D33   D(24,7,41,3)         -176.6174         estimate D2E/DX2                !
 ! D34   D(24,7,41,42)           3.3565         estimate D2E/DX2                !
 ! D35   D(30,7,41,3)            1.3707         estimate D2E/DX2                !
 ! D36   D(30,7,41,42)        -178.6554         estimate D2E/DX2                !
 ! D37   D(9,8,16,1)          -178.6535         estimate D2E/DX2                !
 ! D38   D(9,8,16,21)            3.1046         estimate D2E/DX2                !
 ! D39   D(37,8,16,1)            1.3913         estimate D2E/DX2                !
 ! D40   D(37,8,16,21)        -176.8506         estimate D2E/DX2                !
 ! D41   D(9,8,37,14)           -0.4334         estimate D2E/DX2                !
 ! D42   D(9,8,37,19)          179.3985         estimate D2E/DX2                !
 ! D43   D(16,8,37,14)         179.5218         estimate D2E/DX2                !
 ! D44   D(16,8,37,19)          -0.6463         estimate D2E/DX2                !
 ! D45   D(13,10,35,28)        176.8018         estimate D2E/DX2                !
 ! D46   D(13,10,35,36)         -3.1839         estimate D2E/DX2                !
 ! D47   D(38,10,35,28)         -2.2347         estimate D2E/DX2                !
 ! D48   D(38,10,35,36)        177.7796         estimate D2E/DX2                !
 ! D49   D(13,10,38,25)       -177.2161         estimate D2E/DX2                !
 ! D50   D(13,10,38,39)          2.7835         estimate D2E/DX2                !
 ! D51   D(35,10,38,25)          1.8259         estimate D2E/DX2                !
 ! D52   D(35,10,38,39)       -178.1745         estimate D2E/DX2                !
 ! D53   D(12,11,21,16)          3.1429         estimate D2E/DX2                !
 ! D54   D(12,11,21,27)       -179.1065         estimate D2E/DX2                !
 ! D55   D(43,11,21,16)       -176.8227         estimate D2E/DX2                !
 ! D56   D(43,11,21,27)          0.9279         estimate D2E/DX2                !
 ! D57   D(12,11,43,40)         -2.4279         estimate D2E/DX2                !
 ! D58   D(12,11,43,44)        177.5055         estimate D2E/DX2                !
 ! D59   D(21,11,43,40)        177.5377         estimate D2E/DX2                !
 ! D60   D(21,11,43,44)         -2.5289         estimate D2E/DX2                !
 ! D61   D(37,14,32,24)        179.7838         estimate D2E/DX2                !
 ! D62   D(37,14,32,33)         59.458          estimate D2E/DX2                !
 ! D63   D(37,14,32,34)        -59.9157         estimate D2E/DX2                !
 ! D64   D(32,14,37,8)        -178.0401         estimate D2E/DX2                !
 ! D65   D(32,14,37,19)          2.136          estimate D2E/DX2                !
 ! D66   D(1,16,21,11)           6.3259         estimate D2E/DX2                !
 ! D67   D(1,16,21,27)        -171.4317         estimate D2E/DX2                !
 ! D68   D(8,16,21,11)        -175.4754         estimate D2E/DX2                !
 ! D69   D(8,16,21,27)           6.767          estimate D2E/DX2                !
 ! D70   D(1,17,19,20)        -179.1232         estimate D2E/DX2                !
 ! D71   D(1,17,19,37)           0.8763         estimate D2E/DX2                !
 ! D72   D(18,17,19,20)          0.8919         estimate D2E/DX2                !
 ! D73   D(18,17,19,37)       -179.1086         estimate D2E/DX2                !
 ! D74   D(17,19,37,8)          -0.4793         estimate D2E/DX2                !
 ! D75   D(17,19,37,14)        179.336          estimate D2E/DX2                !
 ! D76   D(20,19,37,8)         179.5202         estimate D2E/DX2                !
 ! D77   D(20,19,37,14)         -0.6645         estimate D2E/DX2                !
 ! D78   D(7,24,32,14)         178.4887         estimate D2E/DX2                !
 ! D79   D(7,24,32,33)         -61.1962         estimate D2E/DX2                !
 ! D80   D(7,24,32,34)          58.1996         estimate D2E/DX2                !
 ! D81   D(15,24,32,14)         -1.2895         estimate D2E/DX2                !
 ! D82   D(15,24,32,33)        119.0255         estimate D2E/DX2                !
 ! D83   D(15,24,32,34)       -121.5787         estimate D2E/DX2                !
 ! D84   D(26,25,38,10)       -179.8957         estimate D2E/DX2                !
 ! D85   D(26,25,38,39)          0.1047         estimate D2E/DX2                !
 ! D86   D(40,25,38,10)          0.0825         estimate D2E/DX2                !
 ! D87   D(40,25,38,39)       -179.9171         estimate D2E/DX2                !
 ! D88   D(26,25,40,28)        178.4751         estimate D2E/DX2                !
 ! D89   D(26,25,40,43)         -2.6316         estimate D2E/DX2                !
 ! D90   D(38,25,40,28)         -1.5031         estimate D2E/DX2                !
 ! D91   D(38,25,40,43)        177.3902         estimate D2E/DX2                !
 ! D92   D(29,28,35,10)       -179.2162         estimate D2E/DX2                !
 ! D93   D(29,28,35,36)          0.7695         estimate D2E/DX2                !
 ! D94   D(40,28,35,10)          0.7371         estimate D2E/DX2                !
 ! D95   D(40,28,35,36)       -179.2772         estimate D2E/DX2                !
 ! D96   D(29,28,40,25)       -178.9633         estimate D2E/DX2                !
 ! D97   D(29,28,40,43)          2.2011         estimate D2E/DX2                !
 ! D98   D(35,28,40,25)          1.0835         estimate D2E/DX2                !
 ! D99   D(35,28,40,43)       -177.7521         estimate D2E/DX2                !
 ! D100  D(25,40,43,11)       -173.7442         estimate D2E/DX2                !
 ! D101  D(25,40,43,44)          6.3224         estimate D2E/DX2                !
 ! D102  D(28,40,43,11)          5.0865         estimate D2E/DX2                !
 ! D103  D(28,40,43,44)       -174.8469         estimate D2E/DX2                !
 --------------------------------------------------------------------------------
 Trust Radius=3.00D-01 FncErr=1.00D-07 GrdErr=1.00D-06 EigMax=2.50D+02 EigMin=1.00D-04
 Number of steps in this run=    232 maximum allowed number of steps=    264.
 GradGradGradGradGradGradGradGradGradGradGradGradGradGradGradGradGradGrad

                          Input orientation:                          
 ---------------------------------------------------------------------
 Center     Atomic      Atomic             Coordinates (Angstroms)
 Number     Number       Type             X           Y           Z
 ---------------------------------------------------------------------
      1          6           0       19.072100    8.185000   11.202300
      2          1           0       18.636500    7.536900   10.661400
      3          6           0       25.190700   14.610700   12.423700
      4          1           0       25.657700   14.590100   11.596700
      5          6           0       24.860200   15.576400   14.589900
      6          1           0       25.089900   16.227200   15.243400
      7          6           0       23.485500   13.731800   13.878500
      8          6           0       19.378000    9.269600   13.335000
      9          1           0       19.152000    9.356200   14.253700
     10          6           0       13.592200    2.807300   10.954200
     11          6           0       16.975500    6.456300   12.365800
     12          1           0       17.299200    6.261000   11.493700
     13         35           0       12.452100    1.557700   10.085700
     14          8           0       20.937500   10.975200   13.649200
     15          8           0       21.968800   12.679800   15.356500
     16          6           0       18.720800    8.330000   12.539900
     17          6           0       20.063000    8.993600   10.661900
     18          1           0       20.303200    8.891600    9.748400
     19          6           0       20.709900    9.950800   11.437600
     20          1           0       21.378100   10.508200   11.056300
     21          6           0       17.616500    7.532000   13.169200
     22          6           0       25.543000   15.535700   13.392800
     23          1           0       26.256000   16.142600   13.231800
     24          6           0       22.410300   12.748000   14.232400
     25          6           0       14.062300    4.204700   12.820800
     26          1           0       13.841600    4.515000   13.691500
     27          8           0       17.228300    7.788900   14.296600
     28          6           0       15.510800    4.225700   10.914700
     29          1           0       16.282400    4.552600   10.466400
     30          6           0       23.837500   14.670400   14.846300
     31          1           0       23.379900   14.691200   15.679100
     32          6           0       21.916900   11.850100   13.115700
     33          1           0       21.524500   12.396100   12.389200
     34          1           0       22.670500   11.328000   12.741900
     35          6           0       14.722100    3.266600   10.303700
     36          1           0       14.954500    2.927800    9.446700
     37          6           0       20.364300   10.080800   12.781600
     38          6           0       13.257900    3.252000   12.221700
     39          1           0       12.493100    2.910300   12.669700
     40          6           0       15.187200    4.721200   12.182700
     41          6           0       24.158300   13.714200   12.656600
     42          1           0       23.910000   13.089200   11.985700
     43          6           0       15.955400    5.769200   12.858600
     44          1           0       15.694100    5.978500   13.748000
 ---------------------------------------------------------------------
                    Distance matrix (angstroms):
                    1          2          3          4          5
     1  C    0.000000
     2  H    0.949923   0.000000
     3  C    8.956490   9.803157   0.000000
     4  H    9.195161   9.995982   0.949970   0.000000
     5  C    9.980517  10.899592   2.394625   3.250852   0.000000
     6  H   10.826883  11.754251   3.251760   4.037439   0.950455
     7  C    7.576750   8.499372   2.407616   3.265232   2.407995
     8  C    2.412124   3.271117   7.946402   8.412136   8.450149
     9  H    3.269424   4.059583   8.211246   8.762277   8.449110
    10  C    7.681830   6.920969  16.613395  16.876714  17.413674
    11  C    2.955988   2.613732  11.575280  11.921863  12.259337
    12  H    2.632464   2.027071  11.526412  11.800383  12.390797
    13  Br   9.433573   8.621431  18.388012  18.614898  19.255459
    14  O    4.153583   5.103279   5.727864   6.289718   6.119112
    15  O    6.771372   7.719949   4.765536   5.602975   4.163912
    16  C    1.390543   2.040803   9.017777   9.391435   9.716226
    17  C    1.388434   2.038842   7.806988   7.968396   9.042984
    18  H    2.031924   2.333810   7.984547   8.034910   9.428304
    19  C    2.419877   3.275422   6.539467   6.784478   7.668726
    20  H    3.276616   4.062135   5.765085   5.938764   7.092108
    21  C    2.532563   2.707302  10.393857  10.814362  10.917965
    22  C   10.035120  10.915177   1.385242   2.033050   1.378739
    23  H   10.911035  11.778022   2.033373   2.332760   2.028121
    24  C    6.414519   7.358612   3.804165   4.570104   3.758944
    25  C    6.600032   6.057216  15.240860  15.614361  15.780999
    26  H    6.857343   6.426854  15.242459  15.668952  15.638774
    27  O    3.623698   3.906560  10.651034  11.162462  10.907661
    28  C    5.333069   4.560505  14.276756  14.520520  15.157730
    29  H    4.638783   3.806029  13.577710  13.781336  14.563862
    30  C    8.834488   9.769883   2.775555   3.725517   1.390141
    31  H    8.996083   9.942895   3.726004   4.675958   2.039908
    32  C    5.018660   5.948807   4.337919   4.879400   4.972081
    33  H    5.015612   5.910809   4.283301   4.746055   5.107277
    34  H    5.019691   5.913888   4.150756   4.569042   5.124333
    35  C    6.627265   5.803959  15.581226  15.794963  16.513139
    36  H    6.904702   6.022991  15.815577  15.974675  16.868980
    37  C    2.785323   3.735233   6.628893   7.053925   7.326983
    38  C    7.692762   7.051542  16.475818  16.813631  17.091301
    39  H    8.559145   7.948589  17.268148  17.631669  17.806247
    40  C    5.296371   4.705336  14.068771  14.400346  14.737602
    41  C    7.652220   8.522331   1.387013   2.034401   2.774545
    42  H    6.933265   7.771204   2.036418   2.336338   3.724366
    43  C    4.277060   3.891111  12.792655  13.173280  13.359417
    44  H    4.770756   4.540201  12.901708  13.343953  13.298341
                    6          7          8          9         10
     6  H    0.000000
     7  C    3.265589   0.000000
     8  C    9.201956   6.089185   0.000000
     9  H    9.135032   6.169755   0.950045   0.000000
    10  C   18.184830  15.025765   8.994721   9.202509   0.000000
    11  C   13.022847   9.879335   3.824397   4.087877   5.172479
    12  H   13.193953   9.988515   4.094322   4.542106   5.095189
    13  Br  20.037717  16.862086  10.862755  11.094029   1.901478
    14  O    6.882398   3.760815   2.332345   2.484873  11.310661
    15  O    4.726320   2.364649   4.735839   4.494090  13.675304
    16  C   10.499529   7.326231   1.395329   2.043558   7.701766
    17  C    9.928990   6.671624   2.773241   3.723228   8.956953
    18  H   10.340143   7.114232   3.723248   4.673205   9.138391
    19  C    8.547614   5.287524   2.416220   3.272770  10.095787
    20  H    8.001014   4.774677   3.275210   4.062757  10.951462
    21  C   11.651631   8.566551   2.479844   2.619467   6.589689
    22  C    2.026868   2.779076   8.790596   8.931531  17.628969
    23  H    2.326689   3.729055   9.723974   9.877567  18.530772
    24  C    4.506352   1.499721   4.701004   4.703326  13.686599
    25  C   16.492952  13.441766   7.360318   7.382154   2.378637
    26  H   16.312825  13.341259   7.306507   7.207887   3.235931
    27  O   11.571780   8.639758   2.781790   2.481711   7.014927
    28  C   15.954084  12.757190   6.801030   7.122450   2.386304
    29  H   15.384670  12.156677   6.329431   6.756687   3.243639
    30  C    2.037111   1.393381   7.165180   7.109557  16.150782
    31  H    2.339494   2.042978   7.134687   6.954792  16.104373
    32  C    5.809823   2.565768   3.626718   3.893489  12.479781
    33  H    5.961196   2.801362   3.908581   4.283236  12.526999
    34  H    6.009423   2.781068   3.928019   4.307363  12.578304
    35  C   17.316728  14.110166   8.179376   8.503514   1.382310
    36  H   17.697517  14.461854   8.654748   9.058178   2.035421
    37  C    8.134494   4.926954   1.391792   2.040048  10.104679
    38  C   17.818045  14.736858   8.654858   8.725291   1.384222
    39  H   18.510622  15.472521   9.396019   9.402108   2.039993
    40  C   15.486103  12.366424   6.291148   6.441421   2.777814
    41  C    3.724860   1.394994   6.562466   6.826854  15.280743
    42  H    4.674593   2.043484   6.078567   6.458922  14.602687
    43  C   14.088865  11.006616   4.918734   5.003111   4.240791
    44  H   13.984031  10.992570   4.957119   4.860212   4.720150
                   11         12         13         14         15
    11  C    0.000000
    12  H    0.950517   0.000000
    13  Br   7.046722   6.899121   0.000000
    14  O    6.145325   6.333016  13.167758   0.000000
    15  O    8.521108   8.827649  15.557957   2.623760   0.000000
    16  C    2.566541   2.719603   9.549018   3.625105   6.115840
    17  C    4.344401   3.974618  10.656004   3.689912   6.265733
    18  H    4.884164   4.357768  10.748936   4.467658   6.969610
    19  C    5.197964   5.025002  11.851710   2.447932   4.938628
    20  H    6.124996   5.904867  12.677815   2.671207   4.853503
    21  C    1.487771   2.126833   8.477692   4.807813   7.087076
    22  C   12.525665  12.553361  19.434327   6.486488   4.978673
    23  H   13.442546  13.449583  20.326458   7.427159   5.906388
    24  C    8.520959   8.700861  15.542962   2.377411   1.209617
    25  C    3.709914   4.057966   4.132811   9.684745  11.864647
    26  H    3.917583   4.453520   4.866018   9.596237  11.639913
    27  O    2.359602   3.193079   8.909075   4.932525   6.893231
    28  C    3.037534   2.770571   4.142597   9.081977  11.528537
    29  H    2.777082   2.237824   4.877044   8.546927  11.058915
    30  C   10.986872  11.167242  18.006486   4.847427   2.777559
    31  H   10.945678  11.205390  17.977535   4.888197   2.478105
    32  C    7.353425   7.429137  14.307230   1.417497   2.390038
    33  H    7.481656   7.502968  14.320805   1.987744   3.013761
    34  H    7.503861   7.488882  14.385057   1.987700   3.025868
    35  C    4.416362   4.126012   2.849695  10.452085  12.909445
    36  H    5.005587   4.560488   2.923611  10.872807  13.387593
    37  C    4.979343   5.064030  11.937924   1.371583   3.994913
    38  C    4.910077   5.090793   2.842967  10.984618  13.213257
    39  H    5.723494   5.975681   2.916893  11.717932  13.872668
    40  C    2.498422   2.703007   4.678238   8.621432  10.927141
    41  C   10.215395  10.195576  17.071179   4.342917   3.626755
    42  H    9.603496   9.516778  16.366703   4.008988   3.911286
    43  C    1.324976   1.977528   6.139936   7.249055   9.495097
    44  H    1.944417   2.781730   6.592911   7.243619   9.320223
                   16         17         18         19         20
    16  C    0.000000
    17  C    2.401822   0.000000
    18  H    3.257584   0.950043   0.000000
    19  C    2.792593   1.391554   2.034873   0.000000
    20  H    3.742575   2.044273   2.340814   0.950040   0.000000
    21  C    1.500767   3.795812   4.557273   4.291638   5.241350
    22  C    9.959516   8.960317   9.213100   7.640208   6.934074
    23  H   10.876336   9.801318  10.007343   8.503927   7.763580
    24  C    5.999641   5.688041   6.278371   4.304253   4.021163
    25  C    6.228854   7.975137   8.387819   8.895026   9.816746
    26  H    6.299762   8.242703   8.743852   9.044420   9.983064
    27  O    2.367771   4.764228   5.599739   4.996922   5.925789
    28  C    5.458081   6.596916   6.789549   7.751183   8.597387
    29  H    4.951156   5.835549   5.958966   7.048869   7.860236
    30  C    8.467631   7.998882   8.477877   6.608762   6.143017
    31  H    8.486852   8.284731   8.847296   6.898595   6.547898
    32  C    4.789332   4.197341   4.763975   2.807171   2.516372
    33  H    4.941317   4.086142   4.554879   2.747473   2.315647
    34  H    4.962755   4.071226   4.527825   2.727972   2.276756
    35  C    6.828485   7.839136   7.943404   9.045331   9.864558
    36  H    7.275759   8.022930   8.016641   9.295743  10.065581
    37  C    2.413465   2.401232   3.258563   1.393799   2.046246
    38  C    7.465294   9.039266   9.357273  10.050922  10.952089
    39  H    8.256770   9.916712  10.261949  10.890478  11.801456
    40  C    5.063335   6.658803   7.035020   7.642258   8.548999
    41  C    7.653080   6.560059   6.824727   5.247914   4.535296
    42  H    7.062926   5.772850   5.969453   4.515596   3.733077
    43  C    3.782420   5.665212   6.190807   6.489244   7.423751
    44  H    4.018703   6.140206   6.762156   6.802600   7.750567
                   21         22         23         24         25
    21  C    0.000000
    22  C   11.266704   0.000000
    23  H   12.197840   0.950062   0.000000
    24  C    7.163628   4.276682   5.226272   0.000000
    25  C    4.881050  16.140794  17.069525  12.027872   0.000000
    26  H    4.860551  16.076934  17.015573  11.895271   0.950323
    27  O    1.219724  11.400175  12.345747   7.172860   5.004801
    28  C    4.521987  15.319991  16.212365  11.455995   2.394120
    29  H    4.238133  14.661208  15.538605  10.904059   3.254701
    30  C    9.616146   2.402111   3.259314   2.471719  14.463335
    31  H    9.527357   3.258734   4.045713   2.609424  14.316223
    32  C    6.094447   5.177744   6.104656   1.515482  10.965120
    33  H    6.288110   5.197369   6.093712   2.075057  11.089172
    34  H    6.335228   5.136114   6.022971   2.075017  11.173573
    35  C    5.897650  16.648280  17.532712  12.823418   2.766073
    36  H    6.491680  16.930658  17.795556  13.226043   3.716321
    37  C    3.767893   7.546419   8.465236   3.661269   8.616571
    38  C    6.181711  17.412192  18.334080  13.341040   1.383336
    39  H    6.918008  18.172052  19.100449  14.056074   2.039777
    40  C    3.843862  15.021995  15.939489  10.991086   1.392603
    41  C    9.015404   2.403590   3.260111   2.544050  13.870356
    42  H    8.478873   3.260672   4.047188   2.722715  13.289429
    43  C    2.441964  13.696422  14.623579   9.605036   2.456200
    44  H    2.538502  13.728331  14.667281   9.548200   2.582409
                   26         27         28         29         30
    26  H    0.000000
    27  O    4.749137   0.000000
    28  C    3.252774   5.204176   0.000000
    29  H    4.044773   5.102822   0.950370   0.000000
    30  C   14.296284   9.557130  13.924194  13.365363   0.000000
    31  H   14.088462   9.348542  13.933734  13.428997   0.950466
    32  C   10.924546   6.314336  10.198725   9.592700   3.825934
    33  H   11.083081   6.581930  10.251545   9.627942   4.069367
    34  H   11.192327   6.675317  10.249031   9.586019   4.118498
    35  C    3.716312   6.532648   1.383923   2.028498  15.289617
    36  H    4.666484   7.233394   2.036919   2.333041  15.682858
    37  C    8.622741   4.169236   7.830963   7.251417   6.114780
    38  C    2.023904   6.375951   2.780629   3.730984  15.785953
    39  H    2.331864   6.990684   3.730525   4.680863  16.484324
    40  C    2.032150   4.247993   1.399307   2.042933  13.450243
    41  C   13.861118   9.264107  12.955505  12.278505   2.410813
    42  H   13.334142   8.836207  12.257864  11.548251   3.269324
    43  C    2.595167   2.786989   2.521668   2.703639  12.054452
    44  H    2.361521   2.435627   3.336689   3.626043  11.961202
                   31         32         33         34         35
    31  H    0.000000
    32  C    4.096735   0.000000
    33  H    4.419665   0.989897   0.000000
    34  H    4.521228   0.990065   1.605787   0.000000
    35  C   15.309275  11.547682  11.574529  11.580503   0.000000
    36  H   15.754611  11.897227  11.894197  11.872589   0.950392
    37  C    6.224559   2.377522   2.619285   2.622145   9.187368
    38  C   15.660900  12.235393  12.327988  12.413276   2.413052
    39  H   16.320800  12.997190  13.100583  13.207663   3.270068
    40  C   13.369594   9.847871   9.955305   9.998114   2.421326
    41  C    3.270465   2.951189   2.957329   2.813321  14.273414
    42  H    4.060617   2.604749   2.516706   2.282548  13.554708
    43  C   11.944894   8.519561   8.668968   8.718167   3.783061
    44  H   11.777598   8.578970   8.776417   8.848703   4.490255
                   36         37         38         39         40
    36  H    0.000000
    37  C    9.568328   0.000000
    38  C    3.268667   9.871521   0.000000
    39  H    4.055432  10.648210   0.949938   0.000000
    40  C    3.279654   7.475718   2.425339   3.282484   0.000000
    41  C   14.538219   5.254679  15.115075  15.899727  12.711383
    42  H   13.780477   4.717618  14.501498  15.310894  12.089230
    43  C    4.551529   6.167189   3.744121   4.494053   1.464676
    44  H    5.324938   6.290752   3.962129   4.563221   2.070728
                   41         42         43         44
    41  C    0.000000
    42  H    0.949939   0.000000
    43  C   11.421532  10.845276   0.000000
    44  H   11.518459  11.007669   0.950324   0.000000
 Stoichiometry    C23H17BrO3
 Framework group  C1[X(C23H17BrO3)]
 Deg. of freedom   126
 Full point group                 C1      NOp   1
 Largest Abelian subgroup         C1      NOp   1
 Largest concise Abelian subgroup C1      NOp   1
                         Standard orientation:                         
 ---------------------------------------------------------------------
 Center     Atomic      Atomic             Coordinates (Angstroms)
 Number     Number       Type             X           Y           Z
 ---------------------------------------------------------------------
      1          6           0       -0.335517   -1.299052   -0.020567
      2          1           0        0.522463   -1.706706   -0.014108
      3          6           0       -9.280587   -1.751168   -0.024763
      4          1           0       -9.424957   -2.687233   -0.098133
      5          6           0      -10.156182    0.465978    0.202890
      6          1           0      -10.899604    1.050071    0.300482
      7          6           0       -7.776445    0.126836    0.060512
      8          6           0       -1.714926    0.677122   -0.122107
      9          1           0       -1.795678    1.621254   -0.190515
     10          6           0        7.247813   -0.072850   -0.013151
     11          6           0        2.097075    0.373510   -0.171899
     12          1           0        2.182727   -0.569324   -0.256810
     13         35           0        9.070086   -0.592330    0.145227
     14          8           0       -4.044382    0.569995   -0.077483
     15          8           0       -6.277064    1.947856   -0.104740
     16          6           0       -0.451932    0.084743   -0.092464
     17          6           0       -1.480872   -2.081329    0.042307
     18          1           0       -1.399407   -3.026712    0.089180
     19          6           0       -2.746159   -1.502151    0.037417
     20          1           0       -3.524178   -2.044501    0.093243
     21          6           0        0.744992    0.990071   -0.099892
     22          6           0      -10.361833   -0.892206    0.084713
     23          1           0      -11.245943   -1.239952    0.078384
     24          6           0       -6.414046    0.749714   -0.010584
     25          6           0        5.581815    1.622777    0.071789
     26          1           0        5.344680    2.538001    0.167950
     27          8           0        0.610904    2.198847   -0.007099
     28          6           0        4.951614   -0.657367   -0.296448
     29          1           0        4.283587   -1.316355   -0.447040
     30          6           0       -8.867081    0.985769    0.179917
     31          1           0       -8.730184    1.924039    0.245455
     32          6           0       -5.231257   -0.196587    0.036433
     33          1           0       -5.230944   -0.697621    0.890167
     34          1           0       -5.287403   -0.847313   -0.707630
     35          6           0        6.282504   -1.033804   -0.248793
     36          1           0        6.529923   -1.942509   -0.376394
     37          6           0       -2.856707   -0.115526   -0.050481
     38          6           0        6.916354    1.263388    0.130631
     39          1           0        7.590601    1.918576    0.266655
     40          6           0        4.576221    0.679701   -0.125018
     41          6           0       -7.987572   -1.249265   -0.027704
     42          1           0       -7.247206   -1.841176   -0.090027
     43          6           0        3.182822    1.130990   -0.117672
     44          1           0        3.042297    2.069639   -0.069645
 ---------------------------------------------------------------------
 Rotational constants (GHZ):           0.9513197           0.0282042           0.0274166
 Standard basis: 6-311++G(d,p) (5D, 7F)
 There are   768 symmetry adapted cartesian basis functions of A   symmetry.
 There are   739 symmetry adapted basis functions of A   symmetry.
   739 basis functions,  1183 primitive gaussians,   768 cartesian basis functions
   107 alpha electrons      107 beta electrons
       nuclear repulsion energy      2342.5305757072 Hartrees.
 NAtoms=   44 NActive=   44 NUniq=   44 SFac= 1.00D+00 NAtFMM=   60 NAOKFM=F Big=F
 Integral buffers will be    131072 words long.
 Raffenetti 2 integral format.
 Two-electron integral symmetry is turned on.
 R6APFD:  NTU= -4 IXU= 1 FactS= 1.050
 Nuclear repulsion after empirical dispersion term =     2342.4991534389 Hartrees.
 One-electron integrals computed using PRISM.
 NBasis=   739 RedAO= T EigKep=  1.20D-06  NBF=   739
 NBsUse=   731 1.00D-06 EigRej=  8.17D-07 NBFU=   731
 ExpMin= 3.50D-02 ExpMax= 4.40D+05 ExpMxC= 1.51D+04 IAcc=3 IRadAn=         5 AccDes= 0.00D+00
 Harris functional with IExCor= 1009 and IRadAn=       5 diagonalized for initial guess.
 HarFok:  IExCor= 1009 AccDes= 0.00D+00 IRadAn=         5 IDoV= 1 UseB2=F ITyADJ=14
 ICtDFT=  3500011 ScaDFX=  1.000000  1.000000  1.000000  1.000000
 FoFCou: FMM=F IPFlag=           0 FMFlag=      100000 FMFlg1=           0
         NFxFlg=           0 DoJE=T BraDBF=F KetDBF=T FulRan=T
         wScrn=  0.000000 ICntrl=       500 IOpCl=  0 I1Cent=   200000004 NGrid=           0
         NMat0=    1 NMatS0=      1 NMatT0=    0 NMatD0=    1 NMtDS0=    0 NMtDT0=    0
 Petite list used in FoFCou.
 Requested convergence on RMS density matrix=1.00D-08 within  32 cycles.
 Requested convergence on MAX density matrix=1.00D-06.
 Requested convergence on             energy=1.00D-06.
 No special actions if energy rises.
 SCF Done:  E(RM08HX) =  -3686.22603205     A.U. after   16 cycles
            NFock= 16  Conv=0.80D-08     -V/T= 2.0010
 QCSCF skips out because SCF is already converged.

 **********************************************************************

            Population analysis using the SCF Density.

 **********************************************************************

 Orbital symmetries:
       Occupied  (A) (A) (A) (A) (A) (A) (A) (A) (A) (A) (A) (A)
                 (A) (A) (A) (A) (A) (A) (A) (A) (A) (A) (A) (A)
                 (A) (A) (A) (A) (A) (A) (A) (A) (A) (A) (A) (A)
                 (A) (A) (A) (A) (A) (A) (A) (A) (A) (A) (A) (A)
                 (A) (A) (A) (A) (A) (A) (A) (A) (A) (A) (A) (A)
                 (A) (A) (A) (A) (A) (A) (A) (A) (A) (A) (A) (A)
                 (A) (A) (A) (A) (A) (A) (A) (A) (A) (A) (A) (A)
                 (A) (A) (A) (A) (A) (A) (A) (A) (A) (A) (A) (A)
                 (A) (A) (A) (A) (A) (A) (A) (A) (A) (A) (A)
       Virtual   (A) (A) (A) (A) (A) (A) (A) (A) (A) (A) (A) (A)
                 (A) (A) (A) (A) (A) (A) (A) (A) (A) (A) (A) (A)
                 (A) (A) (A) (A) (A) (A) (A) (A) (A) (A) (A) (A)
                 (A) (A) (A) (A) (A) (A) (A) (A) (A) (A) (A) (A)
                 (A) (A) (A) (A) (A) (A) (A) (A) (A) (A) (A) (A)
                 (A) (A) (A) (A) (A) (A) (A) (A) (A) (A) (A) (A)
                 (A) (A) (A) (A) (A) (A) (A) (A) (A) (A) (A) (A)
                 (A) (A) (A) (A) (A) (A) (A) (A) (A) (A) (A) (A)
                 (A) (A) (A) (A) (A) (A) (A) (A) (A) (A) (A) (A)
                 (A) (A) (A) (A) (A) (A) (A) (A) (A) (A) (A) (A)
                 (A) (A) (A) (A) (A) (A) (A) (A) (A) (A) (A) (A)
                 (A) (A) (A) (A) (A) (A) (A) (A) (A) (A) (A) (A)
                 (A) (A) (A) (A) (A) (A) (A) (A) (A) (A) (A) (A)
                 (A) (A) (A) (A) (A) (A) (A) (A) (A) (A) (A) (A)
                 (A) (A) (A) (A) (A) (A) (A) (A) (A) (A) (A) (A)
                 (A) (A) (A) (A) (A) (A) (A) (A) (A) (A) (A) (A)
                 (A) (A) (A) (A) (A) (A) (A) (A) (A) (A) (A) (A)
                 (A) (A) (A) (A) (A) (A) (A) (A) (A) (A) (A) (A)
                 (A) (A) (A) (A) (A) (A) (A) (A) (A) (A) (A) (A)
                 (A) (A) (A) (A) (A) (A) (A) (A) (A) (A) (A) (A)
                 (A) (A) (A) (A) (A) (A) (A) (A) (A) (A) (A) (A)
                 (A) (A) (A) (A) (A) (A) (A) (A) (A) (A) (A) (A)
                 (A) (A) (A) (A) (A) (A) (A) (A) (A) (A) (A) (A)
                 (A) (A) (A) (A) (A) (A) (A) (A) (A) (A) (A) (A)
                 (A) (A) (A) (A) (A) (A) (A) (A) (A) (A) (A) (A)
                 (A) (A) (A) (A) (A) (A) (A) (A) (A) (A) (A) (A)
                 (A) (A) (A) (A) (A) (A) (A) (A) (A) (A) (A) (A)
                 (A) (A) (A) (A) (A) (A) (A) (A) (A) (A) (A) (A)
                 (A) (A) (A) (A) (A) (A) (A) (A) (A) (A) (A) (A)
                 (A) (A) (A) (A) (A) (A) (A) (A) (A) (A) (A) (A)
                 (A) (A) (A) (A) (A) (A) (A) (A) (A) (A) (A) (A)
                 (A) (A) (A) (A) (A) (A) (A) (A) (A) (A) (A) (A)
                 (A) (A) (A) (A) (A) (A) (A) (A) (A) (A) (A) (A)
                 (A) (A) (A) (A) (A) (A) (A) (A) (A) (A) (A) (A)
                 (A) (A) (A) (A) (A) (A) (A) (A) (A) (A) (A) (A)
                 (A) (A) (A) (A) (A) (A) (A) (A) (A) (A) (A) (A)
                 (A) (A) (A) (A) (A) (A) (A) (A) (A) (A) (A) (A)
                 (A) (A) (A) (A) (A) (A) (A) (A) (A) (A) (A) (A)
                 (A) (A) (A) (A) (A) (A) (A) (A) (A) (A) (A) (A)
                 (A) (A) (A) (A) (A) (A) (A) (A) (A) (A) (A) (A)
                 (A) (A) (A) (A) (A) (A) (A) (A) (A) (A) (A) (A)
                 (A) (A) (A) (A) (A) (A) (A) (A) (A) (A) (A) (A)
                 (A) (A) (A) (A) (A) (A) (A) (A) (A) (A) (A) (A)
                 (A) (A) (A) (A) (A) (A) (A) (A) (A) (A) (A) (A)
                 (A) (A) (A) (A) (A) (A) (A) (A) (A) (A) (A) (A)
                 (A) (A) (A) (A) (A) (A) (A) (A) (A) (A) (A) (A)
                 (A) (A) (A) (A) (A) (A) (A) (A) (A) (A) (A) (A)
                 (A) (A) (A) (A) (A) (A) (A) (A) (A) (A) (A) (A)
                 (A) (A) (A) (A) (A) (A) (A) (A) (A) (A) (A) (A)
                 (A) (A) (A) (A) (A) (A) (A) (A) (A) (A) (A) (A)
                 (A) (A) (A) (A) (A) (A) (A) (A) (A) (A) (A) (A)
                 (A) (A) (A) (A) (A) (A) (A) (A) (A) (A) (A) (A)
 The electronic state is 1-A.
 Alpha  occ. eigenvalues -- -485.27361 -63.23729 -57.12862 -57.12609 -57.12602
 Alpha  occ. eigenvalues --  -19.65285 -19.61499 -19.59978 -10.63932 -10.62847
 Alpha  occ. eigenvalues --  -10.61095 -10.60963 -10.59024 -10.56410 -10.56179
 Alpha  occ. eigenvalues --  -10.55555 -10.54806 -10.54717 -10.54702 -10.54629
 Alpha  occ. eigenvalues --  -10.54556 -10.54374 -10.54031 -10.53976 -10.53931
 Alpha  occ. eigenvalues --  -10.53917 -10.53896 -10.53626 -10.53316 -10.53225
 Alpha  occ. eigenvalues --  -10.52841  -8.98288  -6.83454  -6.82537  -6.82527
 Alpha  occ. eigenvalues --   -2.86991  -2.86657  -2.86641  -2.85823  -2.85822
 Alpha  occ. eigenvalues --   -1.21038  -1.17905  -1.16841  -1.01477  -1.00037
 Alpha  occ. eigenvalues --   -0.99083  -0.95013  -0.91629  -0.90654  -0.89561
 Alpha  occ. eigenvalues --   -0.88903  -0.88801  -0.88702  -0.84721  -0.83868
 Alpha  occ. eigenvalues --   -0.77701  -0.75760  -0.75252  -0.74246  -0.72929
 Alpha  occ. eigenvalues --   -0.72363  -0.70183  -0.67674  -0.66423  -0.64770
 Alpha  occ. eigenvalues --   -0.64036  -0.62316  -0.60862  -0.60470  -0.58975
 Alpha  occ. eigenvalues --   -0.58778  -0.57702  -0.56624  -0.56411  -0.54603
 Alpha  occ. eigenvalues --   -0.54110  -0.53977  -0.53513  -0.53100  -0.52645
 Alpha  occ. eigenvalues --   -0.51564  -0.50417  -0.49976  -0.49163  -0.48403
 Alpha  occ. eigenvalues --   -0.48325  -0.46833  -0.46528  -0.45827  -0.45267
 Alpha  occ. eigenvalues --   -0.44666  -0.44605  -0.44238  -0.43302  -0.42347
 Alpha  occ. eigenvalues --   -0.41364  -0.40768  -0.35756  -0.35590  -0.34603
 Alpha  occ. eigenvalues --   -0.34008  -0.33827  -0.33669  -0.33155  -0.32725
 Alpha  occ. eigenvalues --   -0.30005  -0.29308
 Alpha virt. eigenvalues --   -0.07141  -0.04754  -0.03946  -0.03103  -0.02299
 Alpha virt. eigenvalues --   -0.02193  -0.01717  -0.01372  -0.01323  -0.01118
 Alpha virt. eigenvalues --   -0.00801  -0.00456  -0.00392  -0.00015   0.00343
 Alpha virt. eigenvalues --    0.00771   0.00874   0.01528   0.01608   0.01903
 Alpha virt. eigenvalues --    0.02170   0.02562   0.03142   0.03371   0.03409
 Alpha virt. eigenvalues --    0.03804   0.04067   0.04452   0.04649   0.04770
 Alpha virt. eigenvalues --    0.04963   0.05554   0.05733   0.05993   0.06220
 Alpha virt. eigenvalues --    0.06307   0.06625   0.07688   0.08096   0.08253
 Alpha virt. eigenvalues --    0.08313   0.08691   0.09065   0.09406   0.09566
 Alpha virt. eigenvalues --    0.09637   0.10223   0.10521   0.10589   0.10894
 Alpha virt. eigenvalues --    0.11051   0.11160   0.11251   0.11278   0.11705
 Alpha virt. eigenvalues --    0.11813   0.11875   0.12069   0.12265   0.12373
 Alpha virt. eigenvalues --    0.12558   0.12753   0.13121   0.13215   0.13327
 Alpha virt. eigenvalues --    0.13556   0.13800   0.13878   0.14302   0.14464
 Alpha virt. eigenvalues --    0.14718   0.15019   0.15405   0.15623   0.15654
 Alpha virt. eigenvalues --    0.15909   0.16015   0.16213   0.16884   0.17150
 Alpha virt. eigenvalues --    0.17285   0.17403   0.17675   0.17803   0.18132
 Alpha virt. eigenvalues --    0.18445   0.18723   0.18874   0.19597   0.19636
 Alpha virt. eigenvalues --    0.19816   0.20210   0.20350   0.20585   0.20786
 Alpha virt. eigenvalues --    0.20975   0.21626   0.21934   0.21959   0.22508
 Alpha virt. eigenvalues --    0.22539   0.22843   0.22961   0.23312   0.23577
 Alpha virt. eigenvalues --    0.24483   0.24851   0.25023   0.25736   0.26044
 Alpha virt. eigenvalues --    0.26109   0.27023   0.27423   0.27504   0.28030
 Alpha virt. eigenvalues --    0.28159   0.28541   0.29045   0.29129   0.29707
 Alpha virt. eigenvalues --    0.29969   0.30312   0.30424   0.30625   0.31124
 Alpha virt. eigenvalues --    0.31373   0.31615   0.31891   0.32374   0.32698
 Alpha virt. eigenvalues --    0.32884   0.33017   0.33447   0.33545   0.33770
 Alpha virt. eigenvalues --    0.34351   0.34471   0.34799   0.35058   0.35432
 Alpha virt. eigenvalues --    0.35767   0.36164   0.36659   0.36831   0.37321
 Alpha virt. eigenvalues --    0.37524   0.38401   0.38689   0.38887   0.39503
 Alpha virt. eigenvalues --    0.39543   0.39942   0.40485   0.40684   0.41275
 Alpha virt. eigenvalues --    0.41755   0.42524   0.43201   0.44018   0.44437
 Alpha virt. eigenvalues --    0.44882   0.45644   0.46120   0.46729   0.48206
 Alpha virt. eigenvalues --    0.49631   0.50290   0.50627   0.51030   0.52182
 Alpha virt. eigenvalues --    0.52393   0.53374   0.53935   0.54097   0.54658
 Alpha virt. eigenvalues --    0.55088   0.55456   0.55629   0.56051   0.56466
 Alpha virt. eigenvalues --    0.56864   0.57316   0.57634   0.57815   0.58174
 Alpha virt. eigenvalues --    0.58504   0.58793   0.59343   0.59681   0.59996
 Alpha virt. eigenvalues --    0.60176   0.60353   0.60842   0.61213   0.61698
 Alpha virt. eigenvalues --    0.62264   0.62412   0.62698   0.63279   0.63649
 Alpha virt. eigenvalues --    0.64206   0.64729   0.65158   0.65428   0.65667
 Alpha virt. eigenvalues --    0.66214   0.67198   0.67341   0.67869   0.68407
 Alpha virt. eigenvalues --    0.68635   0.69207   0.69659   0.69894   0.70771
 Alpha virt. eigenvalues --    0.70929   0.71099   0.71386   0.71817   0.72391
 Alpha virt. eigenvalues --    0.72722   0.73432   0.73983   0.74881   0.75439
 Alpha virt. eigenvalues --    0.75740   0.76169   0.76329   0.77154   0.77890
 Alpha virt. eigenvalues --    0.78067   0.78115   0.78500   0.79134   0.79660
 Alpha virt. eigenvalues --    0.79831   0.81108   0.81495   0.82320   0.82625
 Alpha virt. eigenvalues --    0.84154   0.84328   0.85340   0.86214   0.86551
 Alpha virt. eigenvalues --    0.86759   0.86969   0.87668   0.87952   0.88084
 Alpha virt. eigenvalues --    0.88956   0.89403   0.89925   0.90179   0.90828
 Alpha virt. eigenvalues --    0.91217   0.92490   0.92558   0.92801   0.94036
 Alpha virt. eigenvalues --    0.94113   0.94943   0.95382   0.95672   0.95814
 Alpha virt. eigenvalues --    0.96281   0.97362   0.97708   0.98099   0.98167
 Alpha virt. eigenvalues --    0.98605   1.00279   1.00738   1.01576   1.01700
 Alpha virt. eigenvalues --    1.03443   1.03878   1.04055   1.04333   1.04792
 Alpha virt. eigenvalues --    1.04863   1.05713   1.05992   1.07027   1.07601
 Alpha virt. eigenvalues --    1.07882   1.08114   1.08712   1.09400   1.10445
 Alpha virt. eigenvalues --    1.11224   1.11539   1.11940   1.12294   1.13269
 Alpha virt. eigenvalues --    1.13732   1.13879   1.15062   1.15383   1.16161
 Alpha virt. eigenvalues --    1.17495   1.18441   1.19394   1.19529   1.19750
 Alpha virt. eigenvalues --    1.20551   1.20971   1.22239   1.22709   1.24657
 Alpha virt. eigenvalues --    1.27536   1.28164   1.29165   1.29415   1.30108
 Alpha virt. eigenvalues --    1.31040   1.33124   1.33777   1.34655   1.36130
 Alpha virt. eigenvalues --    1.36704   1.39472   1.42127   1.42675   1.48527
 Alpha virt. eigenvalues --    1.49231   1.49799   1.50661   1.51817   1.51973
 Alpha virt. eigenvalues --    1.52909   1.53527   1.54457   1.55851   1.56193
 Alpha virt. eigenvalues --    1.56335   1.56901   1.57521   1.57950   1.58768
 Alpha virt. eigenvalues --    1.59263   1.60314   1.61692   1.62012   1.62596
 Alpha virt. eigenvalues --    1.63188   1.63438   1.63508   1.64907   1.65537
 Alpha virt. eigenvalues --    1.66267   1.66570   1.67677   1.67824   1.68557
 Alpha virt. eigenvalues --    1.69201   1.69740   1.70867   1.71827   1.72053
 Alpha virt. eigenvalues --    1.72675   1.73023   1.73814   1.76172   1.77329
 Alpha virt. eigenvalues --    1.78604   1.79475   1.79795   1.80917   1.81319
 Alpha virt. eigenvalues --    1.82208   1.82566   1.83302   1.84848   1.85827
 Alpha virt. eigenvalues --    1.86261   1.86664   1.87337   1.88102   1.88640
 Alpha virt. eigenvalues --    1.89149   1.89980   1.90859   1.91918   1.92521
 Alpha virt. eigenvalues --    1.92954   1.94505   1.96420   1.96528   1.96769
 Alpha virt. eigenvalues --    1.97326   1.98218   1.98519   1.99146   1.99290
 Alpha virt. eigenvalues --    2.00040   2.00236   2.00928   2.01474   2.02925
 Alpha virt. eigenvalues --    2.04081   2.04337   2.04715   2.05317   2.07246
 Alpha virt. eigenvalues --    2.07277   2.08845   2.09567   2.10264   2.11221
 Alpha virt. eigenvalues --    2.11788   2.13157   2.13930   2.15130   2.16081
 Alpha virt. eigenvalues --    2.16234   2.16987   2.17956   2.18330   2.20111
 Alpha virt. eigenvalues --    2.21070   2.21685   2.21887   2.24540   2.26258
 Alpha virt. eigenvalues --    2.26802   2.30219   2.30926   2.31568   2.34142
 Alpha virt. eigenvalues --    2.35131   2.35649   2.37052   2.37624   2.38837
 Alpha virt. eigenvalues --    2.39172   2.39354   2.39896   2.39966   2.41688
 Alpha virt. eigenvalues --    2.42818   2.43627   2.44589   2.44978   2.46592
 Alpha virt. eigenvalues --    2.47355   2.49607   2.49763   2.50473   2.53777
 Alpha virt. eigenvalues --    2.55116   2.58427   2.59200   2.62224   2.64214
 Alpha virt. eigenvalues --    2.67630   2.69442   2.71852   2.72462   2.73473
 Alpha virt. eigenvalues --    2.73549   2.75316   2.75611   2.76686   2.76901
 Alpha virt. eigenvalues --    2.77412   2.78014   2.78415   2.79173   2.81144
 Alpha virt. eigenvalues --    2.82829   2.83082   2.83670   2.85926   2.87295
 Alpha virt. eigenvalues --    2.87751   2.88870   2.89217   2.90037   2.90457
 Alpha virt. eigenvalues --    2.91490   2.92566   2.93221   2.94337   2.94371
 Alpha virt. eigenvalues --    2.94822   2.94846   2.95208   2.95724   2.97604
 Alpha virt. eigenvalues --    2.97682   2.98149   2.98857   2.98976   2.99330
 Alpha virt. eigenvalues --    2.99384   3.02488   3.02598   3.02794   3.03320
 Alpha virt. eigenvalues --    3.04123   3.04321   3.05797   3.07112   3.08774
 Alpha virt. eigenvalues --    3.09210   3.11215   3.14640   3.16141   3.16326
 Alpha virt. eigenvalues --    3.16905   3.17394   3.17976   3.20055   3.20720
 Alpha virt. eigenvalues --    3.21144   3.23384   3.24742   3.25987   3.29048
 Alpha virt. eigenvalues --    3.29851   3.31717   3.32765   3.33933   3.36062
 Alpha virt. eigenvalues --    3.38482   3.39882   3.44098   3.44975   3.45487
 Alpha virt. eigenvalues --    3.46043   3.47508   3.48324   3.51181   3.52456
 Alpha virt. eigenvalues --    3.53049   3.62045   3.64125   3.64610   3.66846
 Alpha virt. eigenvalues --    3.67701   3.68695   3.70796   3.72869   3.73505
 Alpha virt. eigenvalues --    3.79087   3.80388   3.81764   3.85135   3.85513
 Alpha virt. eigenvalues --    3.85988   3.88043   3.88778   4.00229   4.14946
 Alpha virt. eigenvalues --    4.19128   4.24445   4.24862   4.26118   4.28136
 Alpha virt. eigenvalues --    4.29162   4.30209   4.31834   4.32505   4.33705
 Alpha virt. eigenvalues --    4.35930   4.36900   4.38388   4.38756   4.38883
 Alpha virt. eigenvalues --    4.39130   4.41043   4.50819   4.55125   4.57749
 Alpha virt. eigenvalues --    4.72007   4.75656   4.91730   4.92569   4.94241
 Alpha virt. eigenvalues --    5.15034   5.17276   5.20016   5.38531   5.42197
 Alpha virt. eigenvalues --    5.56967   5.85848   5.89241   5.97090   6.92437
 Alpha virt. eigenvalues --    7.63555   7.75689   7.82906  23.74229  23.82440
 Alpha virt. eigenvalues --   23.84381  23.92435  23.93553  24.00678  24.03021
 Alpha virt. eigenvalues --   24.04315  24.09616  24.13939  24.15258  24.16012
 Alpha virt. eigenvalues --   24.16951  24.17231  24.23811  24.23920  24.25228
 Alpha virt. eigenvalues --   24.26558  24.27039  24.34601  24.34949  24.37127
 Alpha virt. eigenvalues --   24.42244  48.48401  49.99906  50.03563  50.06615
 Alpha virt. eigenvalues --  290.54313 290.67637 290.765631019.61795
          Condensed to atoms (all electrons):
               1          2          3          4          5          6
     1  C   19.557152   1.061084  -0.000496  -0.000397  -0.002783  -0.000051
     2  H    1.061084   0.654344   0.000315   0.000006  -0.000035  -0.000000
     3  C   -0.000496   0.000315  12.841230   0.373406  -0.564867   0.015512
     4  H   -0.000397   0.000006   0.373406   0.449503   0.032912   0.004139
     5  C   -0.002783  -0.000035  -0.564867   0.032912   8.526439   0.514542
     6  H   -0.000051  -0.000000   0.015512   0.004139   0.514542   0.439752
     7  C   -0.117734  -0.003952  -5.210823   0.124172  -0.349151   0.004887
     8  C   -0.530367  -0.030348   0.006158  -0.001536  -0.030999  -0.000650
     9  H    0.202086   0.001747  -0.000897  -0.000061  -0.001005  -0.000021
    10  C   -0.064760  -0.002413  -0.000000  -0.000000  -0.000000  -0.000000
    11  C   -0.672414   0.072648  -0.000499   0.000003   0.000031   0.000001
    12  H   -0.353915  -0.119938  -0.000007   0.000000   0.000004   0.000000
    13  Br  -0.000371   0.000110  -0.000000   0.000000  -0.000000  -0.000000
    14  O    0.029531   0.000101  -0.016747   0.000597   0.008344   0.000192
    15  O   -0.002021  -0.000072  -0.039181   0.000448   0.088275   0.003026
    16  C   -4.266168  -0.308420  -0.027968  -0.000235   0.001388  -0.000031
    17  C    2.249263   0.007361   0.065143  -0.000401  -0.005336  -0.000078
    18  H   -0.115145  -0.061483  -0.001717  -0.000099  -0.000088  -0.000001
    19  C   -6.780469  -0.245581   0.163901   0.001911   0.022780   0.000246
    20  H   -0.241396   0.018258   0.007947   0.000544   0.003719   0.000040
    21  C    2.980862   0.188019   0.001160   0.000160   0.001575   0.000036
    22  C    0.001865   0.000015   0.836217  -0.162157  -0.360057  -0.124310
    23  H    0.000032  -0.000000  -0.061117  -0.018369  -0.105543  -0.017942
    24  C    0.070619   0.003358   1.529604  -0.043283  -0.140141  -0.002805
    25  C   -0.012047  -0.019487  -0.000000   0.000000  -0.000000   0.000000
    26  H   -0.021460  -0.000778  -0.000000  -0.000000  -0.000000  -0.000000
    27  O   -0.407518  -0.005656  -0.000004  -0.000000  -0.000002  -0.000000
    28  C   -0.404982   0.030525   0.000000   0.000000   0.000000   0.000000
    29  H   -0.003611   0.000813  -0.000000  -0.000000  -0.000000  -0.000000
    30  C   -0.004180  -0.000231   3.098864   0.098226  -1.010404  -0.061927
    31  H    0.000165   0.000002   0.082463   0.000584  -0.134795  -0.012280
    32  C   -1.650925  -0.078793  -1.264823  -0.010006  -0.169374  -0.002421
    33  H    0.015809  -0.000435  -0.045248   0.001294   0.007418   0.000191
    34  H   -0.002738   0.000380   0.094390   0.002646  -0.005229  -0.000245
    35  C    0.080402   0.004235   0.000000   0.000000   0.000000   0.000000
    36  H    0.002051  -0.000463   0.000000  -0.000000   0.000000   0.000000
    37  C   -1.429199  -0.159958  -0.770144  -0.004963  -0.011926  -0.000379
    38  C    0.055941   0.003182   0.000000  -0.000000   0.000000   0.000000
    39  H    0.001995   0.000010   0.000000  -0.000000   0.000000   0.000000
    40  C   -0.375926  -0.071311  -0.000004  -0.000000  -0.000000  -0.000000
    41  C    0.043919   0.001352  -4.588136  -0.117309   0.133887  -0.023689
    42  H    0.003626  -0.000340  -0.027236  -0.025550   0.024696  -0.001103
    43  C   -1.389767  -0.048691  -0.000027   0.000000  -0.000003  -0.000000
    44  H    0.123793   0.009223   0.000002   0.000000   0.000000   0.000000
               7          8          9         10         11         12
     1  C   -0.117734  -0.530367   0.202086  -0.064760  -0.672414  -0.353915
     2  H   -0.003952  -0.030348   0.001747  -0.002413   0.072648  -0.119938
     3  C   -5.210823   0.006158  -0.000897  -0.000000  -0.000499  -0.000007
     4  H    0.124172  -0.001536  -0.000061  -0.000000   0.000003   0.000000
     5  C   -0.349151  -0.030999  -0.001005  -0.000000   0.000031   0.000004
     6  H    0.004887  -0.000650  -0.000021  -0.000000   0.000001   0.000000
     7  C   28.302340  -0.304136  -0.043970   0.000000   0.010267   0.000624
     8  C   -0.304136  18.898910   0.722369   0.000094  -1.074484   0.019517
     9  H   -0.043970   0.722369   0.449186   0.000043  -0.183404   0.000071
    10  C    0.000000   0.000094   0.000043  13.102270  -0.366941  -0.014953
    11  C    0.010267  -1.074484  -0.183404  -0.366941  16.258177   0.464767
    12  H    0.000624   0.019517   0.000071  -0.014953   0.464767   0.918615
    13  Br   0.000000   0.000022   0.000003  -0.583903  -0.004795  -0.003115
    14  O   -0.012153  -0.222542  -0.029543  -0.000001  -0.012604   0.000420
    15  O    0.012680   0.037596  -0.005283  -0.000000  -0.000177   0.000016
    16  C   -0.117253   3.685958   0.239416   0.129605  -6.980089   0.267659
    17  C   -0.234775   0.438470   0.075942  -0.009769  -1.182209  -0.066091
    18  H    0.004130   0.109087   0.005241   0.000414  -0.019720   0.015393
    19  C   -0.940959  -7.374523  -0.179115  -0.003777   0.281226   0.097003
    20  H   -0.051454  -0.234057  -0.008281  -0.000039  -0.001960  -0.003291
    21  C    0.033765  -9.517404  -0.371487  -0.445087   1.560998   0.074782
    22  C   -1.197895   0.018291   0.000409   0.000000  -0.000014  -0.000001
    23  H   -0.004135   0.000271   0.000004   0.000000  -0.000000   0.000000
    24  C   -8.442501   0.416019  -0.039619   0.000003   0.015455  -0.000999
    25  C    0.000019   0.145710   0.009300  -1.819818  -1.539747   0.123889
    26  H    0.000001   0.011652   0.000471   0.027994  -0.117908   0.008255
    27  O   -0.000227   0.362355  -0.012106   0.001464  -0.294229   0.015331
    28  C   -0.000002  -0.167154  -0.012942   1.864542   0.102284  -0.407612
    29  H   -0.000005   0.007900   0.000402   0.045493  -0.095417  -0.086852
    30  C   -1.368866  -0.017031  -0.002146   0.000000   0.000120   0.000041
    31  H   -0.069616   0.004448  -0.000064   0.000000  -0.000014  -0.000000
    32  C   -3.877204   1.066485   0.065017  -0.000028  -0.321740   0.023151
    33  H    0.141900  -0.070591  -0.001715   0.000001   0.002920   0.000311
    34  H   -0.097848   0.054170  -0.003702   0.000001  -0.002946  -0.000244
    35  C    0.000000   0.002124  -0.001373  -3.106153   0.529625   0.004213
    36  H    0.000000   0.000483  -0.000005  -0.143489   0.008041   0.015621
    37  C    1.028601  -1.736531  -0.166833  -0.001218  -0.532691   0.094222
    38  C   -0.000000  -0.002847   0.000276  -0.624405  -0.060033  -0.005068
    39  H   -0.000000  -0.000174  -0.000005  -0.130243   0.007212  -0.000090
    40  C    0.000160   0.816679   0.030400  -1.953534  -4.659114   0.256359
    41  C   -2.673560   0.319944   0.005705  -0.000000  -0.004862  -0.000140
    42  H   -0.323163   0.019187   0.000649   0.000000  -0.000083   0.000022
    43  C    0.001202   0.027382  -0.039866  -0.396110   4.146887  -0.139583
    44  H   -0.000063  -0.110883  -0.005575  -0.031898   0.317418  -0.029757
              13         14         15         16         17         18
     1  C   -0.000371   0.029531  -0.002021  -4.266168   2.249263  -0.115145
     2  H    0.000110   0.000101  -0.000072  -0.308420   0.007361  -0.061483
     3  C   -0.000000  -0.016747  -0.039181  -0.027968   0.065143  -0.001717
     4  H    0.000000   0.000597   0.000448  -0.000235  -0.000401  -0.000099
     5  C   -0.000000   0.008344   0.088275   0.001388  -0.005336  -0.000088
     6  H   -0.000000   0.000192   0.003026  -0.000031  -0.000078  -0.000001
     7  C    0.000000  -0.012153   0.012680  -0.117253  -0.234775   0.004130
     8  C    0.000022  -0.222542   0.037596   3.685958   0.438470   0.109087
     9  H    0.000003  -0.029543  -0.005283   0.239416   0.075942   0.005241
    10  C   -0.583903  -0.000001  -0.000000   0.129605  -0.009769   0.000414
    11  C   -0.004795  -0.012604  -0.000177  -6.980089  -1.182209  -0.019720
    12  H   -0.003115   0.000420   0.000016   0.267659  -0.066091   0.015393
    13  Br  35.373146  -0.000000  -0.000000   0.001694   0.000006   0.000001
    14  O   -0.000000   8.166599   0.054332  -0.039177   0.170732  -0.001219
    15  O   -0.000000   0.054332   7.814528   0.002533  -0.004699   0.000069
    16  C    0.001694  -0.039177   0.002533  41.054618  -4.985128   0.094795
    17  C    0.000006   0.170732  -0.004699  -4.985128  13.184337   0.189653
    18  H    0.000001  -0.001219   0.000069   0.094795   0.189653   0.490122
    19  C   -0.000026   0.260964  -0.044673   0.896089  -1.357134  -0.091681
    20  H   -0.000000  -0.006081  -0.000737   0.145784  -0.021042  -0.046631
    21  C   -0.003907   0.008420   0.002299 -16.993785   0.247186  -0.098745
    22  C    0.000000  -0.004723  -0.007994  -0.001974   0.004795   0.000111
    23  H   -0.000000  -0.000130  -0.000193  -0.000029   0.000124   0.000007
    24  C    0.000000   0.024895   0.583284  -0.465983   0.128358  -0.002750
    25  C    0.115115   0.000024  -0.000000   1.292594   0.032802   0.001919
    26  H    0.014543   0.000002  -0.000000   0.091989  -0.001765   0.000104
    27  O   -0.000004  -0.000410  -0.000002   0.109496  -0.059163   0.000647
    28  C    0.124798  -0.000142   0.000000  -0.682925  -0.046935  -0.003482
    29  H    0.020623  -0.000006  -0.000000   0.054327   0.001763   0.000748
    30  C    0.000000   0.038202   0.230845  -0.092014   0.075737   0.000442
    31  H    0.000000  -0.001136  -0.019068  -0.000141   0.000407   0.000008
    32  C    0.000000  -0.078362  -0.260029  -3.830842   0.429265   0.064850
    33  H   -0.000000  -0.013144  -0.005075   0.026051   0.012569   0.001150
    34  H    0.000000  -0.027549  -0.003444  -0.140295   0.097695  -0.000312
    35  C    0.260510   0.000001   0.000000  -0.352214   0.021870  -0.002051
    36  H   -0.074037   0.000000   0.000000  -0.006289   0.000046  -0.000049
    37  C    0.000019  -0.270057  -0.010456  -7.106063  -2.735563   0.112751
    38  C    0.188844   0.000000   0.000000  -0.115991   0.005387  -0.000274
    39  H   -0.075555   0.000000   0.000000  -0.007200   0.000108  -0.000006
    40  C    0.006340   0.000339  -0.000005   3.276721  -0.098415   0.013653
    41  C   -0.000000  -0.071476  -0.281964  -0.016205   0.033395  -0.000087
    42  H   -0.000000  -0.008407  -0.003262   0.009688  -0.002356   0.001862
    43  C   -0.028414  -0.002761  -0.000046  -0.349260   0.005638   0.003635
    44  H   -0.002256  -0.000224   0.000002  -0.529294   0.014243  -0.001436
              19         20         21         22         23         24
     1  C   -6.780469  -0.241396   2.980862   0.001865   0.000032   0.070619
     2  H   -0.245581   0.018258   0.188019   0.000015  -0.000000   0.003358
     3  C    0.163901   0.007947   0.001160   0.836217  -0.061117   1.529604
     4  H    0.001911   0.000544   0.000160  -0.162157  -0.018369  -0.043283
     5  C    0.022780   0.003719   0.001575  -0.360057  -0.105543  -0.140141
     6  H    0.000246   0.000040   0.000036  -0.124310  -0.017942  -0.002805
     7  C   -0.940959  -0.051454   0.033765  -1.197895  -0.004135  -8.442501
     8  C   -7.374523  -0.234057  -9.517404   0.018291   0.000271   0.416019
     9  H   -0.179115  -0.008281  -0.371487   0.000409   0.000004  -0.039619
    10  C   -0.003777  -0.000039  -0.445087   0.000000   0.000000   0.000003
    11  C    0.281226  -0.001960   1.560998  -0.000014  -0.000000   0.015455
    12  H    0.097003  -0.003291   0.074782  -0.000001   0.000000  -0.000999
    13  Br  -0.000026  -0.000000  -0.003907   0.000000  -0.000000   0.000000
    14  O    0.260964  -0.006081   0.008420  -0.004723  -0.000130   0.024895
    15  O   -0.044673  -0.000737   0.002299  -0.007994  -0.000193   0.583284
    16  C    0.896089   0.145784 -16.993785  -0.001974  -0.000029  -0.465983
    17  C   -1.357134  -0.021042   0.247186   0.004795   0.000124   0.128358
    18  H   -0.091681  -0.046631  -0.098745   0.000111   0.000007  -0.002750
    19  C   21.809791   1.143695   3.647849  -0.017211  -0.000359  -0.412387
    20  H    1.143695   0.609368   0.072294  -0.003003  -0.000129  -0.016498
    21  C    3.647849   0.072294  30.334988  -0.000762  -0.000014  -0.002780
    22  C   -0.017211  -0.003003  -0.000762   7.258086   0.556615   0.444100
    23  H   -0.000359  -0.000129  -0.000014   0.556615   0.451592  -0.002121
    24  C   -0.412387  -0.016498  -0.002780   0.444100  -0.002121  14.577435
    25  C    0.004095  -0.000288   0.198942   0.000000   0.000000   0.000178
    26  H   -0.001243  -0.000020  -0.038200   0.000000   0.000000   0.000011
    27  O   -0.029921  -0.000423   0.160374   0.000001   0.000000  -0.000185
    28  C   -0.042166   0.000585  -3.009915  -0.000000  -0.000000  -0.000032
    29  H   -0.013554  -0.000237  -0.126761   0.000000   0.000000   0.000044
    30  C    0.176236  -0.006840   0.007482  -0.857982  -0.015016  -1.677208
    31  H   -0.002854  -0.000166  -0.000469   0.018439   0.002697  -0.001573
    32  C   -0.944940  -0.019496   0.327721  -0.177143  -0.010872   0.260279
    33  H    0.108730  -0.010432   0.008439  -0.006492  -0.000379  -0.097043
    34  H    0.026393  -0.019581   0.030974   0.003623  -0.000017   0.233689
    35  C    0.008786   0.000175   0.434452  -0.000000  -0.000000  -0.000017
    36  H    0.000732   0.000011   0.026812  -0.000000   0.000000  -0.000001
    37  C   -3.592612  -0.442299   1.853086  -0.018080  -0.000778  -1.599781
    38  C    0.002831   0.000060   0.237612  -0.000000  -0.000000   0.000000
    39  H    0.000075   0.000001   0.016116  -0.000000  -0.000000  -0.000000
    40  C   -0.032683  -0.002811   0.286818   0.000000   0.000000   0.001337
    41  C   -0.411349  -0.019068  -0.027283   0.091043  -0.008049   1.207812
    42  H   -0.027682  -0.007938  -0.005651   0.058982   0.005536   0.096126
    43  C   -0.234787  -0.002757  -5.231787   0.000002   0.000000   0.009458
    44  H    0.014561   0.000437   0.347943  -0.000000  -0.000000  -0.000201
              25         26         27         28         29         30
     1  C   -0.012047  -0.021460  -0.407518  -0.404982  -0.003611  -0.004180
     2  H   -0.019487  -0.000778  -0.005656   0.030525   0.000813  -0.000231
     3  C   -0.000000  -0.000000  -0.000004   0.000000  -0.000000   3.098864
     4  H    0.000000  -0.000000  -0.000000   0.000000  -0.000000   0.098226
     5  C   -0.000000  -0.000000  -0.000002   0.000000  -0.000000  -1.010404
     6  H    0.000000  -0.000000  -0.000000   0.000000  -0.000000  -0.061927
     7  C    0.000019   0.000001  -0.000227  -0.000002  -0.000005  -1.368866
     8  C    0.145710   0.011652   0.362355  -0.167154   0.007900  -0.017031
     9  H    0.009300   0.000471  -0.012106  -0.012942   0.000402  -0.002146
    10  C   -1.819818   0.027994   0.001464   1.864542   0.045493   0.000000
    11  C   -1.539747  -0.117908  -0.294229   0.102284  -0.095417   0.000120
    12  H    0.123889   0.008255   0.015331  -0.407612  -0.086852   0.000041
    13  Br   0.115115   0.014543  -0.000004   0.124798   0.020623   0.000000
[...]
 0.00000116,-0.00000091,0.00000140,0.00000514,0.00000236,0.00025458,0.0
 0014511,0.00053145,-0.00227154,-0.00443598,0.00036342,0.00002010,0.000
 07041,0.00002280,0.00000910,-0.00001665,-0.00000299,-0.00003002,0.0000
 1180,-0.00001381,0.00000508,-0.00004278,-0.00000422,-0.00002458,-0.000
 03248,0.00002497,-0.00003777,-0.00002772,0.00002641,-0.01371089,-0.031
 29390,-0.05991522,0.00342546,-0.00409971,-0.00137680,-0.00758527,0.000
 62909,0.02354847,-0.00000449,0.00000373,-0.00000186,0.00000018,-0.0000
 0151,0.00000016,0.00001832,0.00001085,-0.00002943,-0.00000292,-0.00000
 324,0.00000340,0.00000296,-0.00000056,-0.00000043,0.04377802,0.0361051
 7,0.01037080,0.00195176,-0.00463100,-0.00197127,-0.00221582,-0.0013887
 4,-0.00157060,-0.00044294,-0.00113414,0.00062940,-0.00073833,-0.000570
 92,0.00015532,0.00000382,0.00000444,0.00000059,-0.00000065,-0.00000013
 ,-0.00000020,0.00025314,0.00029956,0.00011261,0.00000300,0.00000137,0.
 00000383,-0.00000013,-0.00000004,0.00000049,0.00000005,-0.00000038,0.0
 0000152,0.45369024,0.00000283,0.00003686,-0.00003791,0.00000307,0.0000
 0282,-0.00000150,-0.13988640,-0.17687547,0.04036939,-0.00121454,0.0017
 4220,-0.00124498,-0.02047444,-0.01814586,0.02212992,0.00031590,-0.0006
 6490,0.00092513,-0.03404525,-0.09316039,-0.01321789,-0.00011217,0.0000
 0901,-0.00002454,0.00001576,0.00001486,-0.00000186,-0.00000448,-0.0000
 0412,0.00000129,0.00004489,0.00000535,0.00000938,-0.00000243,-0.000003
 74,0.00000059,0.00000350,0.00000362,0.00000062,0.00004304,0.00029239,-
 0.00006791,-0.00560111,-0.00180761,0.00099021,0.00005869,0.00001830,0.
 00003455,-0.00002347,-0.00000589,-0.00003273,0.00001276,-0.00003551,-0
 .00000370,-0.00005944,0.00001128,-0.00000557,-0.00004296,-0.00002694,0
 .00000455,-0.00004829,-0.00004392,0.00002686,-0.02132022,-0.02232044,-
 0.04127331,-0.00413507,0.00320289,-0.00367274,-0.00225400,0.00063501,0
 .02081860,0.00000029,0.00000038,0.00000405,-0.00000052,0.00000065,0.00
 000060,0.00002202,0.00000218,-0.00002512,0.00000282,0.00000380,-0.0000
 0669,-0.00000181,-0.00000088,0.00000017,0.02689587,0.02850878,-0.00442
 970,-0.00453518,0.00179531,-0.00365136,-0.00113380,-0.00242895,-0.0009
 1481,-0.00081657,-0.00028593,0.00009058,-0.00102493,-0.00021802,0.0004
 6600,0.00000198,0.00000032,-0.00000142,0.00000035,-0.00000056,0.000000
 96,0.00023649,0.00019632,0.00013924,-0.00000241,0.00000126,-0.00000096
 ,0.00000107,0.00000063,-0.00000009,0.00000187,0.00000397,-0.00000178,0
 .27292999,0.39859808,0.00003240,0.00001907,-0.00002999,0.00000730,0.00
 000687,-0.00000373,0.00712195,-0.01011856,-0.13413995,0.02255621,0.019
 10173,-0.00078722,0.03258843,0.02255573,-0.03239782,0.00076534,0.00091
 680,-0.00013511,0.09536808,0.02835048,-0.30226590,-0.00005461,-0.00008
 563,-0.00004929,0.00001975,0.00001938,0.00000844,-0.00000074,-0.000001
 59,-0.00000075,0.00000085,0.00001103,-0.00000820,0.00000005,-0.0000041
 9,-0.00000075,0.00000005,0.00000107,0.00000026,0.00019186,-0.00036543,
 -0.00213416,-0.00469770,-0.00348607,0.00585258,0.00004083,0.00006119,0
 .00003599,0.00000611,-0.00001852,-0.00006902,-0.00001476,-0.00000409,-
 0.00000795,-0.00012204,-0.00010385,0.00007884,-0.00007224,-0.00008093,
 -0.00004545,-0.00005534,-0.00003144,0.00006732,-0.01666494,-0.00300222
 ,0.05700265,-0.00152115,-0.00378320,-0.00296043,0.01131923,0.00991092,
 -0.00245157,-0.00000264,0.00000210,-0.00000005,0.00000040,-0.00000045,
 0.00000043,0.00002856,0.00000033,-0.00005887,0.00000083,-0.00000276,0.
 00000349,0.00000098,-0.00000071,0.00000018,-0.02930265,-0.03954273,-0.
 05337301,-0.00163177,-0.00334660,-0.00158964,-0.00042656,0.00004286,0.
 00095894,-0.00073466,0.00073320,0.00004263,0.00071142,-0.00083583,0.00
 039246,-0.00000018,0.00000226,-0.00000328,0.,-0.00000025,0.00000037,-0
 .00011708,-0.00006042,0.00015983,0.00000159,-0.00000127,0.00000099,0.0
 0000020,0.00000043,0.00000028,0.00000384,-0.00000118,0.00000427,-0.037
 87891,0.09438657,0.68961709,0.00001257,0.00003650,0.00003425,0.0000079
 7,0.00000136,0.00000155,-0.00407712,-0.01196435,-0.01970858,-0.0014199
 9,0.00228970,-0.00023052,-0.00100697,0.00030559,0.00069496,-0.00045450
 ,0.00055483,-0.00019193,0.00768392,0.00704680,0.00780625,0.00005309,0.
 00004161,0.00002470,-0.00000321,-0.00000577,0.00000248,-0.00000518,-0.
 00000959,-0.00000314,0.00003654,0.00003563,-0.00000490,-0.00000130,-0.
 00000365,0.00000167,0.00000450,0.00000896,0.00000385,0.00013420,0.0006
 8432,0.00036839,0.00037552,-0.00030799,-0.00046001,0.00003455,0.000005
 60,-0.00002619,0.00000231,0.00001876,-0.00005103,0.00001051,-0.0000031
 6,0.00001139,-0.00005273,0.00003826,0.00010280,0.00007701,-0.00004171,
 -0.00004891,-0.00007098,-0.00007193,0.00001537,-0.00013765,-0.00628906
 ,0.00236174,-0.00041593,-0.00050755,-0.00096773,-0.00127528,0.00244363
 ,-0.00071679,-0.00000146,0.00000075,0.00000476,-0.00000107,-0.00000073
 ,0.00000066,0.00002750,0.00003153,-0.00001337,0.00000220,0.00000191,-0
 .00000391,0.00000088,-0.00000267,-0.00000101,0.00264281,-0.00325092,0.
 00346766,0.00045682,0.00016256,0.00054567,-0.00091254,-0.00256202,0.00
 095695,-0.00190391,-0.00060697,0.00026419,-0.00058140,-0.00054322,0.00
 013559,0.00000610,0.00000298,-0.00000052,0.00000039,0.00000064,0.00000
 075,-0.00008759,-0.00013255,-0.00025159,-0.00000139,0.00000535,0.00000
 295,0.00000069,0.00000037,0.00000010,-0.00000046,0.00000391,-0.0000001
 5,-0.08883739,-0.06384356,-0.07746155,0.08969426,0.00001432,0.00001024
 ,0.00001853,0.00000137,0.00000630,-0.00000122,-0.00657959,-0.00538261,
 -0.01672757,0.00215194,-0.00194493,0.00084740,0.00027340,-0.00071900,0
 .00087359,0.00055173,-0.00062255,0.00008374,0.00217167,0.00438962,0.00
 292931,0.00001885,0.00001513,0.00000581,-0.00000351,0.00000294,-0.0000
 0165,-0.00000287,-0.00000339,-0.00000226,0.00001519,0.00001427,0.00000
 007,-0.00000227,-0.00000075,-0.00000130,0.00000230,0.00000366,0.000001
 84,0.00039031,-0.00006349,0.00057753,-0.00008910,0.00042155,-0.0004513
 9,0.00000490,0.00002247,-0.00001286,0.00003130,-0.00000913,-0.00003148
 ,-0.00000753,0.00001125,0.00000146,0.00000869,-0.00005199,0.00007305,-
 0.00002297,0.00007517,-0.00005075,-0.00003320,-0.00003025,0.00001251,-
 0.00637348,0.00208243,0.00069108,-0.00023816,-0.00048798,-0.00078940,0
 .00210854,-0.00232253,0.00021917,-0.00000144,0.00000127,0.00000138,-0.
 00000078,0.00000010,-0.00000046,0.00001912,0.00000582,-0.00000832,-0.0
 0000026,-0.00000001,-0.00000010,-0.00000013,-0.00000016,-0.00000125,-0
 .00309270,0.00458519,0.00049623,-0.00013943,0.00033176,0.00019223,-0.0
 0251675,0.00004038,0.00019109,-0.00029304,-0.00044601,0.00019407,-0.00
 082096,-0.00146175,0.00051089,0.00000323,0.00000157,0.00000005,-0.0000
 0044,0.00000030,-0.00000014,0.00003584,0.00001975,-0.00008820,0.000000
 27,0.00000120,0.00000176,0.00000017,0.00000055,-0.00000016,0.00000270,
 -0.00000030,0.00000215,-0.06402259,-0.11904870,-0.11124540,0.07644314,
 0.12055945,-0.00002441,-0.00005333,-0.00005845,-0.00000468,-0.00000587
 ,-0.00000611,0.00349089,0.00378450,0.00737339,-0.00073390,0.00040410,0
 .00050531,0.00056835,0.00077090,-0.00000609,-0.00020732,0.00007006,-0.
 00003591,-0.01326694,-0.01569819,-0.01533692,-0.00011114,-0.00010199,-
 0.00005603,0.00001915,0.00000854,-0.00001448,0.00001197,0.00001972,0.0
 0000804,-0.00006869,-0.00006297,0.00000563,0.00000473,0.00000639,0.000
 00005,-0.00000918,-0.00001716,-0.00000745,-0.00089092,-0.00055070,0.00
 056059,0.00047687,0.00038289,0.00044906,-0.00003931,-0.00002395,0.0000
 6309,0.00000128,0.00002111,0.00003651,-0.00000591,-0.00001320,-0.00001
 698,-0.00001846,-0.00003539,-0.00017667,0.00003393,0.00002391,0.000085
 91,0.00013948,0.00013061,-0.00004571,0.00188973,0.00027209,0.00151360,
 0.00019493,0.00023920,0.00018064,-0.00226150,-0.00111711,-0.00046685,0
 .00000649,-0.00000353,-0.00000820,0.00000206,0.00000130,-0.00000051,-0
 .00006403,-0.00004670,0.00003750,-0.00000231,-0.00000131,0.00000569,-0
 .00000106,0.00000339,0.00000259,0.00413066,0.00104560,-0.00405246,-0.0
 0076934,-0.00097237,-0.00084629,0.00113755,0.00042698,-0.00053876,0.00
 061228,-0.00014736,0.00034970,-0.00003737,0.00094836,0.00002140,-0.000
 01262,-0.00000695,0.00000098,0.00000038,-0.00000068,-0.00000087,0.0005
 0039,0.00057809,0.00057928,0.00000009,-0.00000820,-0.00000602,-0.00000
 125,-0.00000128,-0.00000013,-0.00000375,-0.00000539,-0.00000295,-0.078
 04921,-0.11178532,-0.22170795,0.08332935,0.12148931,0.23161660,0.00089
 336,0.00063977,-0.00028679,-0.00039134,0.00026917,0.00012212,0.0000109
 7,0.00001659,0.00003844,0.00000078,0.00000060,-0.00000837,0.00000502,0
 .00001058,-0.00000838,0.00000791,0.00000874,0.00000576,0.00008458,0.00
 009477,0.00005095,-0.00015791,-0.00028204,-0.00034139,-0.00012591,-0.0
 0010574,0.00000111,-0.00418169,-0.00183675,0.00032546,-0.36248341,-0.1
 6303693,0.13944860,-0.00849592,-0.00796599,0.00495844,0.00069370,0.001
 33904,0.00021095,0.00063990,0.00065200,0.00034399,0.00011887,0.0001379
 5,0.00012539,0.00139203,-0.00013393,-0.00060170,0.00002600,-0.00038976
 ,0.00012723,0.00005886,0.00001718,-0.00006456,0.00028908,0.00036776,0.
 00019263,-0.00000329,0.00006857,-0.00002185,-0.00948010,-0.02791860,-0
 .01488109,0.00001543,0.00001055,-0.00000572,0.00000722,0.00000717,-0.0
 0000004,-0.00026274,-0.00029885,-0.00020743,-0.02065150,-0.03445425,-0
 .01048485,-0.00037176,0.00017879,-0.00254384,-0.00653613,0.00443920,0.
 01305101,0.01444431,0.00424016,-0.00541674,-0.00146578,0.00004671,-0.0
 0069066,0.00002254,-0.00000142,-0.00004339,-0.00001411,-0.00001254,-0.
 00000393,-0.00030144,-0.00021796,0.00024975,0.00002054,0.00001258,-0.0
 0005448,0.00003345,0.00000541,-0.00005105,0.00375941,0.00506334,0.0054
 5164,0.00062087,0.00091634,0.00049551,-0.00042588,-0.00036644,-0.00075
 083,-0.00255351,-0.00107937,0.00629275,-0.00032122,-0.00097423,-0.0004
 7798,-0.11241159,-0.04935577,-0.00307379,-0.00000463,-0.00001289,-0.00
 000759,-0.00001494,-0.00000649,0.00003002,0.61904552,0.00049504,0.0009
 2469,-0.00106905,0.00006481,0.00004155,0.00064048,0.00000949,0.0000263
 8,0.00003199,0.00000291,-0.00000040,-0.00000700,0.00000727,0.00000305,
 -0.00000706,0.00000705,0.00000788,0.00000587,0.00008883,0.00006578,0.0
 0003282,-0.00096626,-0.00089759,0.00058431,-0.00003319,-0.00004049,-0.
 00001699,-0.00250096,-0.00339127,-0.00010958,-0.16080611,-0.17249585,0
 .04560920,0.00924768,0.01134135,-0.00534623,0.00120862,0.00168276,0.00
 112963,0.00045532,0.00054337,0.00043793,0.00012101,0.00012839,0.000100
 36,-0.00005588,-0.00312632,-0.00392249,-0.00031235,-0.00015762,0.00043
 529,0.00001008,-0.00000040,-0.00003806,0.00040466,0.00034785,0.0003200
 6,0.00002904,0.00005462,0.00001176,-0.02944728,-0.02805171,-0.00233772
 ,0.00000901,0.00000470,-0.00000878,0.00000738,0.00000706,0.00000026,-0
 .00028053,-0.00026029,-0.00017750,-0.01898811,-0.01706012,-0.00134913,
 0.00293131,-0.00071327,0.00087626,-0.00528508,0.00183773,0.00785958,-0
 .00390279,-0.02425321,-0.01948516,-0.00008106,-0.00097858,0.00257932,0
 .00001623,0.00001106,-0.00003745,-0.00001403,-0.00001298,-0.00000439,-
 0.00027667,-0.00021634,0.00018773,0.00001152,0.00001545,-0.00004421,0.
 00002890,0.00000089,-0.00004362,0.00544402,0.00720155,-0.00332308,-0.0
 0014476,-0.00008011,0.00003604,-0.00034366,-0.00050996,-0.00114257,-0.
 00243635,0.00664037,0.00027828,0.00010999,0.00011010,-0.00008547,-0.06
 265086,-0.19627574,-0.06251519,-0.00000539,-0.00000867,0.00000175,-0.0
 0001592,-0.00000727,0.00003047,0.22207837,0.51117848,-0.00026958,0.000
 07114,-0.00078924,0.00023132,-0.00003090,0.00066548,-0.00000026,-0.000
 00973,0.00000029,-0.00000190,0.00000024,-0.00000028,-0.00000376,0.0000
 0167,-0.00000178,-0.00000059,-0.00000103,-0.00000040,-0.00000130,-0.00
 001037,-0.00000381,-0.00065515,-0.00025913,0.00073201,0.00020500,0.000
 01414,0.00003051,0.00011871,-0.00013277,-0.00145775,0.13846558,0.04653
 824,-0.14585825,0.02248809,0.01256376,-0.00338799,0.00002002,0.0008815
 1,0.00007557,-0.00011181,-0.00008829,0.00012390,-0.00001118,-0.0000145
 9,-0.00002263,0.00003744,-0.00361290,-0.00204348,-0.00008047,0.0002310
 8,0.00042274,-0.00006006,-0.00003369,0.00003062,0.00002451,-0.00006711
 ,0.00009333,0.00003958,0.00001555,0.00005221,-0.01388992,-0.00330117,0
 .01569705,0.00000061,0.00000328,0.00000288,-0.00000071,-0.00000039,-0.
 00000034,0.00002423,0.00001951,0.00004990,0.00202310,0.00886415,0.0088
 4032,-0.00003307,0.00294124,-0.00164128,0.00039123,-0.00413609,-0.0052
 4226,-0.01170709,-0.02396621,-0.00851451,-0.00129985,0.00209599,-0.001
 05719,-0.00000303,-0.00000847,0.00000542,0.00000055,0.00000160,0.00000
 081,0.00000119,-0.00000054,-0.00003550,-0.00000330,-0.00001059,-0.0000
 0157,-0.00000283,-0.00000180,0.00000195,0.00605346,-0.00340645,-0.0001
 4963,-0.00049178,-0.00087221,-0.00022971,-0.00011240,0.00023090,-0.000
 35262,0.00522710,-0.00056835,0.00350168,0.00040943,0.00064701,0.000363
 98,-0.01539589,-0.07459405,-0.11464008,-0.00000197,0.00000292,-0.00000
 700,0.00000374,0.00000080,-0.00000476,-0.23472825,0.12839247,0.4742962
 7,0.00006519,0.00013059,0.00051188,-0.00010139,-0.00012838,-0.00022304
 ,0.00000225,0.00000111,0.00000354,0.00000077,0.00000021,-0.00000102,0.
 00000062,0.00000027,-0.00000180,0.00000084,0.00000058,0.00000076,0.000
 01098,0.00000645,0.00000214,0.00006673,-0.00012747,-0.00013070,-0.0000
 3641,-0.00006628,-0.00000994,-0.00012485,-0.00012111,0.00010812,-0.007
 96793,0.01006803,0.02385226,0.00022083,-0.00569668,0.00423365,0.000021
 55,0.00005584,0.00005231,0.00002586,0.00003063,-0.00002291,0.00001514,
 0.00001534,-0.00000396,0.00066649,0.00011493,-0.00003711,-0.00003933,-
 0.00005012,-0.00017745,0.00002008,0.00001164,-0.00001250,0.00001702,0.
 00003633,0.00001281,-0.00000550,-0.00001881,-0.00001510,-0.00395904,0.
 00308395,-0.00003572,0.00000118,0.00000153,-0.00000076,0.00000085,0.00
 000053,-0.00000001,-0.00002834,-0.00002567,-0.00000232,0.00065920,-0.0
 0050757,-0.00165791,-0.00047245,-0.00024072,0.00034016,0.00126409,-0.0
 0039455,-0.00168303,-0.00080964,-0.00310759,0.00004795,0.00005771,-0.0
 0002085,-0.00009443,0.00000111,0.00000061,-0.00000414,-0.00000162,-0.0
 0000202,-0.00000030,-0.00002129,-0.00001553,0.00001688,0.00000047,0.00
 000210,-0.00000402,0.00000207,0.,-0.00000236,0.00067791,0.00006266,-0.
 00050563,-0.00014452,-0.00006786,-0.00015802,-0.00004172,0.00001682,-0
 .00006442,-0.00002571,0.00022811,0.00001678,0.00001081,0.00000742,0.00
 000932,0.00774694,-0.00626074,-0.00865025,-0.00000274,0.00000275,0.000
 00087,-0.00000136,-0.00000131,0.00000274,-0.11153556,0.04575869,0.1031
 0126,0.11376274,0.00013747,-0.00003895,-0.00001491,-0.00002164,0.00014
 937,-0.00007124,0.00000103,-0.00000058,0.00000195,-0.00000026,0.000000
 51,-0.00000042,0.00000024,-0.00000010,0.,0.00000012,0.00000070,0.,0.00
 000492,0.00000397,0.00000264,0.00005154,0.00011119,-0.00002093,-0.0000
 5195,0.00000122,-0.00001411,-0.00011729,0.00024770,0.00008482,-0.00888
 772,0.01090455,0.01080347,-0.00566090,0.00151313,-0.00261918,-0.000071
 13,-0.00002736,0.00001856,0.00002523,-0.00000287,-0.00002115,0.0000107
 0,0.00000335,0.00000127,-0.00009666,0.00029739,-0.00056505,0.00022769,
 0.00004385,-0.00003501,0.00001786,0.00000828,-0.00000820,-0.00001466,-
 0.00003366,-0.00015689,-0.00001501,0.00001271,-0.00001179,0.00118895,-
 0.00228327,0.00424414,0.00000102,0.00000044,-0.00000016,0.00000006,0.0
 0000063,-0.00000018,-0.00001268,-0.00001287,-0.00000507,0.00213643,0.0
 0033334,-0.00015803,-0.00129015,-0.00020970,0.00041137,-0.00021022,-0.
 00135952,-0.00099330,-0.00380388,-0.00219720,-0.00147174,0.00008450,0.
 00009363,-0.00000242,0.00000076,-0.00000034,-0.00000263,-0.00000139,0.
 00000013,-0.00000036,-0.00000989,0.00000204,0.00000281,0.00000241,0.00
 000044,0.00000139,0.00000346,0.00000240,-0.00000127,0.00099863,-0.0003
 5913,-0.00058536,-0.00007569,-0.00036224,0.00001593,-0.00009743,-0.000
 10296,0.00010629,-0.00014108,-0.00010925,0.00014623,-0.00000197,0.0000
 0009,-0.00000561,0.01064552,-0.00771193,-0.02027477,-0.00000037,0.0000
 0020,-0.00000044,-0.00000131,0.00000044,0.00000138,0.04782864,-0.09363
 684,-0.08839036,-0.04278388,0.09471707,0.00003646,0.00019409,0.0000666
 6,0.00003808,-0.00014502,-0.00001836,0.00000026,0.00000109,0.00000099,
 0.00000052,-0.00000011,-0.00000030,-0.00000040,0.00000033,-0.00000081,
 0.00000047,-0.00000005,0.00000035,0.00000104,0.00000514,0.00000064,0.0
 0004629,-0.00010740,-0.00009984,0.00000669,-0.00001788,0.00003160,-0.0
 0015446,0.00004481,0.00030846,0.00879425,-0.00463794,-0.00435571,0.004
 26620,-0.00266347,0.00394064,-0.00002692,0.00000951,0.00001381,0.00002
 010,0.00003430,0.00000108,0.00000343,0.00000611,-0.00000182,0.00046078
 ,0.00003190,0.00023147,-0.00015945,-0.00000715,-0.00008440,0.00001214,
 -0.00000172,-0.00000407,0.00001494,0.00003336,0.00008080,0.00001192,-0
 .00002014,0.00000308,-0.00233636,0.00156276,-0.00488796,0.00000065,0.0
 0000079,-0.00000024,0.00000040,-0.00000005,0.00000010,-0.00000724,-0.0
 0000887,-0.00000047,0.00045959,0.00152631,0.00015260,-0.00069693,-0.00
 030457,0.00033063,-0.00156940,-0.00146011,0.00072946,-0.00069582,-0.00
 172140,0.00111868,0.00003998,0.00008390,0.00001000,0.00000039,-0.00000
 033,-0.00000072,-0.00000010,-0.00000087,0.00000003,-0.00000549,-0.0000
 1034,0.00001108,0.00000009,0.00000161,-0.00000333,-0.00000102,-0.00000
 123,-0.00000136,0.00059700,0.00027563,-0.00033165,-0.00015265,-0.00000
 715,-0.00014659,-0.00000032,0.00006209,-0.00003893,-0.00022384,-0.0001
 5509,0.00007287,-0.00000066,-0.00000694,-0.00001127,0.00680055,-0.0036
 7166,-0.00477856,0.00000040,-0.00000028,0.00000007,0.00000009,-0.00000
 114,0.00000099,0.10323293,-0.08851111,-0.21954484,-0.11881458,0.099588
 29,0.22720513\\0.00000088,0.00000032,-0.00000236,-0.00000078,0.0000017
 9,0.00000045,-0.00000317,-0.00000201,-0.00000263,-0.00000120,0.0000013
 2,-0.00000072,0.00000294,0.00000160,-0.00000305,0.00000057,-0.00000114
 ,-0.00000073,-0.00000101,-0.00000046,0.00000270,-0.00000149,-0.0000029
 9,-0.00000090,0.00000119,-0.00000057,0.00000007,0.00000055,-0.00000206
 ,-0.00000137,0.00000017,-0.00000052,0.00000040,-0.00000020,0.00000029,
 0.00000009,0.00000009,0.00000067,0.00000059,-0.00000161,-0.00000116,-0
 .00000085,0.00000117,-0.00000094,-0.00000089,-0.00000107,-0.00000003,0
 .00000307,-0.00000373,-0.00000174,-0.00000061,-0.00000156,0.00000166,0
 .00000025,-0.00000070,0.00000229,0.00000212,-0.00000088,0.00000024,-0.
 00000064,0.00000028,0.00000097,0.00000092,0.00000030,0.00000147,0.0000
 0310,-0.00000095,0.00000045,-0.00000143,0.00000136,0.00000146,0.000001
 29,-0.00000080,-0.00000203,0.00000122,0.00000120,-0.00000121,0.0000011
 6,0.00000134,-0.00000105,0.00000128,-0.00000049,0.00000096,0.00000043,
 -0.00000053,-0.00000001,-0.00000034,-0.00000048,-0.00000148,-0.0000013
 5,0.00000140,-0.00000098,-0.00000058,0.00000511,-0.00000470,-0.0000042
 7,-0.00000008,0.00000125,0.00000080,-0.00000504,0.00000298,0.00000105,
 -0.00000033,-0.00000043,-0.00000011,-0.00000112,0.00000136,-0.00000037
 ,0.00000363,0.00000323,0.00000039,0.00000026,0.00000151,0.00000264,0.0
 0000140,-0.00000080,0.00000091,0.00000134,0.00000052,0.00000061,0.0000
 0077,0.00000179,-0.00000286,-0.00000052,0.00000055,-0.00000042,0.00000
 037,-0.00000126,0.00000017,0.00000143,-0.00000112,0.00000078\\\@


 I (ERNEST RUTHERFORD) CAME INTO THE ROOM, WHICH WAS HALF DARK, AND PRESENTLY
 SPOTTED LORD KELVIN IN THE AUDIENCE AND REALIZED I WAS IN TROUBLE AT
 THE LAST PART OF MY SPEECH DEALING THE AGE OF THE EARTH, WHERE MY VIEWS
 CONFLICTED WITH HIS.  TO MY RELIEF KELVIN FELL FAST ASLEEP, BUT AS I CAME
 TO THE IMPORTANT POINT, I SAW THE OLD BIRD SIT UP AND COCK A BALEFUL GLANCE
 AT ME! THEN A SUDDEN INSPIRATION CAME AND I SAID LORD KELVIN HAD LIMITED
 THE AGE OF THE EARTH PROVIDED NO NEW SOURCE WAS DISCOVERED. THAT
 PROPHETIC UTTERANCE REFERS TO WHAT WE ARE NOW CONSIDERING TONIGHT, RADIUM!
 BEHOLD!  THE OLD BOY BEAMED UPON ME.
 Job cpu time:       1 days  4 hours  4 minutes 54.4 seconds.
 Elapsed time:       0 days  1 hours 45 minutes 44.0 seconds.
 File lengths (MBytes):  RWF=   2163 Int=      0 D2E=      0 Chk=     44 Scr=      1
 Normal termination of Gaussian 16 at Thu Sep 18 10:57:32 2025.
