 Entering Gaussian System, Link 0=g16
 Input=BENA0090.gjf
 Output=BENA0090.log
 Initial command:
 /usr/local/g16/l1.exe "/dados_01/scratch/Gau-1918657.inp" -scrdir="/dados_01/scratch/"
 Entering Link 1 = /usr/local/g16/l1.exe PID=   1918658.
  
 Copyright (c) 1988-2017, Gaussian, Inc.  All Rights Reserved.
  
 This is part of the Gaussian(R) 16 program.  It is based on
 the Gaussian(R) 09 system (copyright 2009, Gaussian, Inc.),
 the Gaussian(R) 03 system (copyright 2003, Gaussian, Inc.),
 the Gaussian(R) 98 system (copyright 1998, Gaussian, Inc.),
 the Gaussian(R) 94 system (copyright 1995, Gaussian, Inc.),
 the Gaussian 92(TM) system (copyright 1992, Gaussian, Inc.),
 the Gaussian 90(TM) system (copyright 1990, Gaussian, Inc.),
 the Gaussian 88(TM) system (copyright 1988, Gaussian, Inc.),
 the Gaussian 86(TM) system (copyright 1986, Carnegie Mellon
 University), and the Gaussian 82(TM) system (copyright 1983,
 Carnegie Mellon University). Gaussian is a federally registered
 trademark of Gaussian, Inc.
  
 This software contains proprietary and confidential information,
 including trade secrets, belonging to Gaussian, Inc.
  
 This software is provided under written license and may be
 used, copied, transmitted, or stored only in accord with that
 written license.
  
 The following legend is applicable only to US Government
 contracts under FAR:
  
                    RESTRICTED RIGHTS LEGEND
  
 Use, reproduction and disclosure by the US Government is
 subject to restrictions as set forth in subparagraphs (a)
 and (c) of the Commercial Computer Software - Restricted
 Rights clause in FAR 52.227-19.
  
 Gaussian, Inc.
 340 Quinnipiac St., Bldg. 40, Wallingford CT 06492
  
  
 ---------------------------------------------------------------
 Warning -- This program may not be used in any manner that
 competes with the business of Gaussian, Inc. or will provide
 assistance to any competitor of Gaussian, Inc.  The licensee
 of this program is prohibited from giving any competitor of
 Gaussian, Inc. access to this program.  By using this program,
 the user acknowledges that Gaussian, Inc. is engaged in the
 business of creating and licensing software in the field of
 computational chemistry and represents and warrants to the
 licensee that it is not a competitor of Gaussian, Inc. and that
 it will not use this program in any manner prohibited above.
 ---------------------------------------------------------------
  

 Cite this work as:
 Gaussian 16, Revision B.01,
 M. J. Frisch, G. W. Trucks, H. B. Schlegel, G. E. Scuseria, 
 M. A. Robb, J. R. Cheeseman, G. Scalmani, V. Barone, 
 G. A. Petersson, H. Nakatsuji, X. Li, M. Caricato, A. V. Marenich, 
 J. Bloino, B. G. Janesko, R. Gomperts, B. Mennucci, H. P. Hratchian, 
 J. V. Ortiz, A. F. Izmaylov, J. L. Sonnenberg, D. Williams-Young, 
 F. Ding, F. Lipparini, F. Egidi, J. Goings, B. Peng, A. Petrone, 
 T. Henderson, D. Ranasinghe, V. G. Zakrzewski, J. Gao, N. Rega, 
 G. Zheng, W. Liang, M. Hada, M. Ehara, K. Toyota, R. Fukuda, 
 J. Hasegawa, M. Ishida, T. Nakajima, Y. Honda, O. Kitao, H. Nakai, 
 T. Vreven, K. Throssell, J. A. Montgomery, Jr., J. E. Peralta, 
 F. Ogliaro, M. J. Bearpark, J. J. Heyd, E. N. Brothers, K. N. Kudin, 
 V. N. Staroverov, T. A. Keith, R. Kobayashi, J. Normand, 
 K. Raghavachari, A. P. Rendell, J. C. Burant, S. S. Iyengar, 
 J. Tomasi, M. Cossi, J. M. Millam, M. Klene, C. Adamo, R. Cammi, 
 J. W. Ochterski, R. L. Martin, K. Morokuma, O. Farkas, 
 J. B. Foresman, and D. J. Fox, Gaussian, Inc., Wallingford CT, 2016.
 
 ******************************************
 Gaussian 16:  ES64L-G16RevB.01 20-Dec-2017
                18-Sep-2025 
 ******************************************
 %nprocs=16
 Will use up to   16 processors via shared memory.
 %mem=40GB
 %chk=BENA0090.chk
 ----------------------------------------------------------------------
 # opt freq=noraman M08HX/6-311++G** scf=xqc Empiricaldispersion=pfd In
 t(Grid=ultraFine)
 ----------------------------------------------------------------------
 1/18=20,19=15,26=4,38=1/1,3;
 2/9=110,12=2,17=6,18=5,40=1/2;
 3/5=4,6=6,7=1111,11=2,25=1,30=1,71=1,74=-74,75=-5,124=11/1,2,3;
 4//1;
 5/5=2,8=3,13=1,38=5/2,8;
 6/7=2,8=2,9=2,10=2,28=1/1;
 7//1,2,3,16;
 1/18=20,19=15,26=4/3(2);
 2/9=110/2;
 99//99;
 2/9=110/2;
 3/5=4,6=6,7=1111,11=2,25=1,30=1,71=1,74=-74,75=-5,124=11/1,2,3;
 4/5=5,16=3,69=1/1;
 5/5=2,8=3,13=1,38=5/2,8;
 7//1,2,3,16;
 1/18=20,19=15,26=4/3(-5);
 2/9=110/2;
 6/7=2,8=2,9=2,10=2,19=2,28=1/1;
 99/9=1/99;
 --------
 BENA0090
 --------
 Symbolic Z-matrix:
 Charge =  0 Multiplicity = 1
 O                     1.4043    2.079    -0.0002 
 O                     3.3057    0.1993    0.0005 
 C                    -0.3491    0.4807   -0.0004 
 C                    -0.643    -0.8889   -0.0005 
 C                     1.062     0.9074   -0.0002 
 C                     0.4255   -1.891    -0.0001 
 C                    -1.3699    1.4357    0. 
 C                    -1.9842   -1.2913   -0.0002 
 C                     2.1345   -0.1474   -0.0001 
 C                     1.7217   -1.5631    0.0004 
 C                    -2.7003    1.0198    0.0005 
 C                    -3.0072   -0.3403    0.0003 
 H                     0.1392   -2.9383    0.0001 
 H                    -1.1486    2.4993    0.0001 
 H                    -2.2488   -2.3463   -0.0001 
 H                     2.4962   -2.3211    0.0008 
 H                    -3.499     1.7559    0.0009 
 H                    -4.0449   -0.6615    0.0007 
 

 GradGradGradGradGradGradGradGradGradGradGradGradGradGradGradGradGradGrad
 Berny optimization.
 Initialization pass.
                           ----------------------------
                           !    Initial Parameters    !
                           ! (Angstroms and Degrees)  !
 --------------------------                            --------------------------
 ! Name  Definition              Value          Derivative Info.                !
 --------------------------------------------------------------------------------
 ! R1    R(1,5)                  1.2206         estimate D2E/DX2                !
 ! R2    R(2,9)                  1.2214         estimate D2E/DX2                !
 ! R3    R(3,4)                  1.4008         estimate D2E/DX2                !
 ! R4    R(3,5)                  1.4742         estimate D2E/DX2                !
 ! R5    R(3,7)                  1.3979         estimate D2E/DX2                !
 ! R6    R(4,6)                  1.4649         estimate D2E/DX2                !
 ! R7    R(4,8)                  1.4003         estimate D2E/DX2                !
 ! R8    R(5,9)                  1.5043         estimate D2E/DX2                !
 ! R9    R(6,10)                 1.337          estimate D2E/DX2                !
 ! R10   R(6,13)                 1.0857         estimate D2E/DX2                !
 ! R11   R(7,11)                 1.3939         estimate D2E/DX2                !
 ! R12   R(7,14)                 1.0864         estimate D2E/DX2                !
 ! R13   R(8,12)                 1.3968         estimate D2E/DX2                !
 ! R14   R(8,15)                 1.0877         estimate D2E/DX2                !
 ! R15   R(9,10)                 1.4747         estimate D2E/DX2                !
 ! R16   R(10,16)                1.0837         estimate D2E/DX2                !
 ! R17   R(11,12)                1.3943         estimate D2E/DX2                !
 ! R18   R(11,17)                1.0862         estimate D2E/DX2                !
 ! R19   R(12,18)                1.0863         estimate D2E/DX2                !
 ! A1    A(4,3,5)              118.936          estimate D2E/DX2                !
 ! A2    A(4,3,7)              120.9813         estimate D2E/DX2                !
 ! A3    A(5,3,7)              120.0827         estimate D2E/DX2                !
 ! A4    A(3,4,6)              121.0519         estimate D2E/DX2                !
 ! A5    A(3,4,8)              118.8121         estimate D2E/DX2                !
 ! A6    A(6,4,8)              120.1359         estimate D2E/DX2                !
 ! A7    A(1,5,3)              123.1112         estimate D2E/DX2                !
 ! A8    A(1,5,9)              118.2368         estimate D2E/DX2                !
 ! A9    A(3,5,9)              118.652          estimate D2E/DX2                !
 ! A10   A(4,6,10)             122.6404         estimate D2E/DX2                !
 ! A11   A(4,6,13)             117.8739         estimate D2E/DX2                !
 ! A12   A(10,6,13)            119.4857         estimate D2E/DX2                !
 ! A13   A(3,7,11)             119.5475         estimate D2E/DX2                !
 ! A14   A(3,7,14)             121.3389         estimate D2E/DX2                !
 ! A15   A(11,7,14)            119.1136         estimate D2E/DX2                !
 ! A16   A(4,8,12)             120.3881         estimate D2E/DX2                !
 ! A17   A(4,8,15)             120.7805         estimate D2E/DX2                !
 ! A18   A(12,8,15)            118.8314         estimate D2E/DX2                !
 ! A19   A(2,9,5)              118.9868         estimate D2E/DX2                !
 ! A20   A(2,9,10)             122.7459         estimate D2E/DX2                !
 ! A21   A(5,9,10)             118.2673         estimate D2E/DX2                !
 ! A22   A(6,10,9)             120.4523         estimate D2E/DX2                !
 ! A23   A(6,10,16)            121.4206         estimate D2E/DX2                !
 ! A24   A(9,10,16)            118.1271         estimate D2E/DX2                !
 ! A25   A(7,11,12)            120.0755         estimate D2E/DX2                !
 ! A26   A(7,11,17)            119.9757         estimate D2E/DX2                !
 ! A27   A(12,11,17)           119.9488         estimate D2E/DX2                !
 ! A28   A(8,12,11)            120.1955         estimate D2E/DX2                !
 ! A29   A(8,12,18)            119.89           estimate D2E/DX2                !
 ! A30   A(11,12,18)           119.9145         estimate D2E/DX2                !
 ! D1    D(5,3,4,6)              0.0141         estimate D2E/DX2                !
 ! D2    D(5,3,4,8)            179.9771         estimate D2E/DX2                !
 ! D3    D(7,3,4,6)           -179.9626         estimate D2E/DX2                !
 ! D4    D(7,3,4,8)              0.0004         estimate D2E/DX2                !
 ! D5    D(4,3,5,1)            179.9946         estimate D2E/DX2                !
 ! D6    D(4,3,5,9)             -0.0005         estimate D2E/DX2                !
 ! D7    D(7,3,5,1)             -0.0285         estimate D2E/DX2                !
 ! D8    D(7,3,5,9)            179.9765         estimate D2E/DX2                !
 ! D9    D(4,3,7,11)             0.0093         estimate D2E/DX2                !
 ! D10   D(4,3,7,14)           179.9987         estimate D2E/DX2                !
 ! D11   D(5,3,7,11)          -179.9672         estimate D2E/DX2                !
 ! D12   D(5,3,7,14)             0.0223         estimate D2E/DX2                !
 ! D13   D(3,4,6,10)             0.0012         estimate D2E/DX2                !
 ! D14   D(3,4,6,13)           179.9821         estimate D2E/DX2                !
 ! D15   D(8,4,6,10)          -179.9613         estimate D2E/DX2                !
 ! D16   D(8,4,6,13)             0.0196         estimate D2E/DX2                !
 ! D17   D(3,4,8,12)            -0.0052         estimate D2E/DX2                !
 ! D18   D(3,4,8,15)          -179.9898         estimate D2E/DX2                !
 ! D19   D(6,4,8,12)           179.9582         estimate D2E/DX2                !
 ! D20   D(6,4,8,15)            -0.0264         estimate D2E/DX2                !
 ! D21   D(1,5,9,2)              0.028          estimate D2E/DX2                !
 ! D22   D(1,5,9,10)           179.9779         estimate D2E/DX2                !
 ! D23   D(3,5,9,2)           -179.9767         estimate D2E/DX2                !
 ! D24   D(3,5,9,10)            -0.0268         estimate D2E/DX2                !
 ! D25   D(4,6,10,9)            -0.0303         estimate D2E/DX2                !
 ! D26   D(4,6,10,16)          179.9932         estimate D2E/DX2                !
 ! D27   D(13,6,10,9)          179.9891         estimate D2E/DX2                !
 ! D28   D(13,6,10,16)           0.0125         estimate D2E/DX2                !
 ! D29   D(3,7,11,12)           -0.0142         estimate D2E/DX2                !
 ! D30   D(3,7,11,17)          179.9947         estimate D2E/DX2                !
 ! D31   D(14,7,11,12)         179.9961         estimate D2E/DX2                !
 ! D32   D(14,7,11,17)           0.005          estimate D2E/DX2                !
 ! D33   D(4,8,12,11)            0.0002         estimate D2E/DX2                !
 ! D34   D(4,8,12,18)         -179.9897         estimate D2E/DX2                !
 ! D35   D(15,8,12,11)         179.9851         estimate D2E/DX2                !
 ! D36   D(15,8,12,18)          -0.0048         estimate D2E/DX2                !
 ! D37   D(2,9,10,6)           179.9903         estimate D2E/DX2                !
 ! D38   D(2,9,10,16)           -0.0324         estimate D2E/DX2                !
 ! D39   D(5,9,10,6)             0.0424         estimate D2E/DX2                !
 ! D40   D(5,9,10,16)         -179.9803         estimate D2E/DX2                !
 ! D41   D(7,11,12,8)            0.0096         estimate D2E/DX2                !
 ! D42   D(7,11,12,18)         179.9994         estimate D2E/DX2                !
 ! D43   D(17,11,12,8)        -179.9993         estimate D2E/DX2                !
 ! D44   D(17,11,12,18)         -0.0095         estimate D2E/DX2                !
 --------------------------------------------------------------------------------
 Trust Radius=3.00D-01 FncErr=1.00D-07 GrdErr=1.00D-06 EigMax=2.50D+02 EigMin=1.00D-04
 Number of steps in this run=    103 maximum allowed number of steps=    108.
 GradGradGradGradGradGradGradGradGradGradGradGradGradGradGradGradGradGrad

                          Input orientation:                          
 ---------------------------------------------------------------------
 Center     Atomic      Atomic             Coordinates (Angstroms)
 Number     Number       Type             X           Y           Z
 ---------------------------------------------------------------------
      1          8           0        1.404300    2.079000   -0.000200
      2          8           0        3.305700    0.199300    0.000500
      3          6           0       -0.349100    0.480700   -0.000400
      4          6           0       -0.643000   -0.888900   -0.000500
      5          6           0        1.062000    0.907400   -0.000200
      6          6           0        0.425500   -1.891000   -0.000100
      7          6           0       -1.369900    1.435700    0.000000
      8          6           0       -1.984200   -1.291300   -0.000200
      9          6           0        2.134500   -0.147400   -0.000100
     10          6           0        1.721700   -1.563100    0.000400
     11          6           0       -2.700300    1.019800    0.000500
     12          6           0       -3.007200   -0.340300    0.000300
     13          1           0        0.139200   -2.938300    0.000100
     14          1           0       -1.148600    2.499300    0.000100
     15          1           0       -2.248800   -2.346300   -0.000100
     16          1           0        2.496200   -2.321100    0.000800
     17          1           0       -3.499000    1.755900    0.000900
     18          1           0       -4.044900   -0.661500    0.000700
 ---------------------------------------------------------------------
                    Distance matrix (angstroms):
                    1          2          3          4          5
     1  O    0.000000
     2  O    2.673686   0.000000
     3  C    2.372546   3.665617   0.000000
     4  C    3.605533   4.095902   1.400779   0.000000
     5  C    1.220580   2.352785   1.474204   2.476635   0.000000
     6  C    4.088881   3.558779   2.494988   1.464888   2.869874
     7  C    2.847810   4.836313   1.397876   2.435600   2.488622
     8  C    4.779211   5.495901   2.411128   1.400265   3.756809
     9  C    2.343085   1.221438   2.561792   2.874775   1.504280
    10  C    3.655904   2.369622   2.909524   2.458933   2.557064
    11  C    4.239062   6.061787   2.412213   2.806354   3.763979
    12  C    5.031336   6.335919   2.782002   2.427016   4.256189
    13  H    5.174338   4.457719   3.453693   2.193599   3.954866
    14  H    2.587267   5.013062   2.171162   3.425716   2.724133
    15  H    5.738329   6.110037   3.405993   2.168550   4.641978
    16  H    4.533556   2.647207   3.993221   3.450475   3.532725
    17  H    4.913934   6.980469   3.398236   3.892519   4.639254
    18  H    6.099518   7.400831   3.868276   3.409492   5.342460
                    6          7          8          9         10
     6  C    0.000000
     7  C    3.780264   0.000000
     8  C    2.483202   2.795334   0.000000
     9  C    2.441479   3.845390   4.274599   0.000000
    10  C    1.337031   4.307063   3.715854   1.474656   0.000000
    11  C    4.271227   1.393893   2.419501   4.973696   5.121080
    12  C    3.766709   2.415559   1.396757   5.145317   4.884438
    13  H    1.085728   4.627014   2.687273   3.430794   2.096540
    14  H    4.663960   1.086379   3.881607   4.217080   4.974105
    15  H    2.712781   3.882781   1.087676   4.903925   4.047008
    16  H    2.114896   5.390758   4.597225   2.203588   1.083704
    17  H    5.357386   2.153043   3.402947   5.946333   6.186394
    18  H    4.636394   3.399099   2.154793   6.200749   5.836656
                   11         12         13         14         15
    11  C    0.000000
    12  C    1.394295   0.000000
    13  H    4.871275   4.080372   0.000000
    14  H    2.143990   3.393777   5.588016   0.000000
    15  H    3.396245   2.144576   2.460286   4.968931   0.000000
    16  H    6.177801   5.849015   2.436470   6.043246   4.745067
    17  H    1.086170   2.153119   5.939025   2.465162   4.288478
    18  H    2.152840   1.086274   4.763456   4.287098   2.462626
                   16         17         18
    16  H    0.000000
    17  H    7.250128   0.000000
    18  H    6.748352   2.478271   0.000000
 Stoichiometry    C10H6O2
 Framework group  C1[X(C10H6O2)]
 Deg. of freedom    48
 Full point group                 C1      NOp   1
 Largest Abelian subgroup         C1      NOp   1
 Largest concise Abelian subgroup C1      NOp   1
                         Standard orientation:                         
 ---------------------------------------------------------------------
 Center     Atomic      Atomic             Coordinates (Angstroms)
 Number     Number       Type             X           Y           Z
 ---------------------------------------------------------------------
      1          8           0       -1.389487   -2.073188   -0.000238
      2          8           0       -3.291999   -0.194613    0.000462
      3          6           0        0.362967   -0.473851   -0.000438
      4          6           0        0.656057    0.895922   -0.000538
      5          6           0       -1.047880   -0.901386   -0.000238
      6          6           0       -0.413036    1.897390   -0.000138
      7          6           0        1.384332   -1.428247   -0.000038
      8          6           0        1.997018    1.299116   -0.000238
      9          6           0       -2.121004    0.152779   -0.000138
     10          6           0       -1.709042    1.568723    0.000362
     11          6           0        2.714486   -1.011560    0.000462
     12          6           0        3.020581    0.348721    0.000262
     13          1           0       -0.127356    2.944859    0.000062
     14          1           0        1.163661   -2.491978    0.000062
     15          1           0        2.260994    2.354272   -0.000138
     16          1           0       -2.483990    2.326265    0.000762
     17          1           0        3.513621   -1.747187    0.000862
     18          1           0        4.058091    0.670535    0.000662
 ---------------------------------------------------------------------
 Rotational constants (GHZ):           2.0034732           0.8080006           0.5757861
 Standard basis: 6-311++G(d,p) (5D, 7F)
 There are   318 symmetry adapted cartesian basis functions of A   symmetry.
 There are   306 symmetry adapted basis functions of A   symmetry.
   306 basis functions,   486 primitive gaussians,   318 cartesian basis functions
    41 alpha electrons       41 beta electrons
       nuclear repulsion energy       621.6429115302 Hartrees.
 NAtoms=   18 NActive=   18 NUniq=   18 SFac= 1.00D+00 NAtFMM=   60 NAOKFM=F Big=F
 Integral buffers will be    131072 words long.
 Raffenetti 2 integral format.
 Two-electron integral symmetry is turned on.
 R6APFD:  NTU= -4 IXU= 1 FactS= 1.050
 Nuclear repulsion after empirical dispersion term =      621.6316458360 Hartrees.
 One-electron integrals computed using PRISM.
 NBasis=   306 RedAO= T EigKep=  1.34D-06  NBF=   306
 NBsUse=   304 1.00D-06 EigRej=  7.60D-07 NBFU=   304
 ExpMin= 3.60D-02 ExpMax= 8.59D+03 ExpMxC= 1.30D+03 IAcc=3 IRadAn=         5 AccDes= 0.00D+00
 Harris functional with IExCor= 1009 and IRadAn=       5 diagonalized for initial guess.
 HarFok:  IExCor= 1009 AccDes= 0.00D+00 IRadAn=         5 IDoV= 1 UseB2=F ITyADJ=14
 ICtDFT=  3500011 ScaDFX=  1.000000  1.000000  1.000000  1.000000
 FoFCou: FMM=F IPFlag=           0 FMFlag=      100000 FMFlg1=           0
         NFxFlg=           0 DoJE=T BraDBF=F KetDBF=T FulRan=T
         wScrn=  0.000000 ICntrl=       500 IOpCl=  0 I1Cent=   200000004 NGrid=           0
         NMat0=    1 NMatS0=      1 NMatT0=    0 NMatD0=    1 NMtDS0=    0 NMtDT0=    0
 Petite list used in FoFCou.
 Requested convergence on RMS density matrix=1.00D-08 within  32 cycles.
 Requested convergence on MAX density matrix=1.00D-06.
 Requested convergence on             energy=1.00D-06.
 No special actions if energy rises.
 SCF Done:  E(RM08HX) =  -535.077603620     A.U. after   16 cycles
            NFock= 16  Conv=0.82D-08     -V/T= 2.0043
 QCSCF skips out because SCF is already converged.

 **********************************************************************

            Population analysis using the SCF Density.

 **********************************************************************

 Orbital symmetries:
       Occupied  (A) (A) (A) (A) (A) (A) (A) (A) (A) (A) (A) (A)
                 (A) (A) (A) (A) (A) (A) (A) (A) (A) (A) (A) (A)
                 (A) (A) (A) (A) (A) (A) (A) (A) (A) (A) (A) (A)
                 (A) (A) (A) (A) (A)
       Virtual   (A) (A) (A) (A) (A) (A) (A) (A) (A) (A) (A) (A)
                 (A) (A) (A) (A) (A) (A) (A) (A) (A) (A) (A) (A)
                 (A) (A) (A) (A) (A) (A) (A) (A) (A) (A) (A) (A)
                 (A) (A) (A) (A) (A) (A) (A) (A) (A) (A) (A) (A)
                 (A) (A) (A) (A) (A) (A) (A) (A) (A) (A) (A) (A)
                 (A) (A) (A) (A) (A) (A) (A) (A) (A) (A) (A) (A)
                 (A) (A) (A) (A) (A) (A) (A) (A) (A) (A) (A) (A)
                 (A) (A) (A) (A) (A) (A) (A) (A) (A) (A) (A) (A)
                 (A) (A) (A) (A) (A) (A) (A) (A) (A) (A) (A) (A)
                 (A) (A) (A) (A) (A) (A) (A) (A) (A) (A) (A) (A)
                 (A) (A) (A) (A) (A) (A) (A) (A) (A) (A) (A) (A)
                 (A) (A) (A) (A) (A) (A) (A) (A) (A) (A) (A) (A)
                 (A) (A) (A) (A) (A) (A) (A) (A) (A) (A) (A) (A)
                 (A) (A) (A) (A) (A) (A) (A) (A) (A) (A) (A) (A)
                 (A) (A) (A) (A) (A) (A) (A) (A) (A) (A) (A) (A)
                 (A) (A) (A) (A) (A) (A) (A) (A) (A) (A) (A) (A)
                 (A) (A) (A) (A) (A) (A) (A) (A) (A) (A) (A) (A)
                 (A) (A) (A) (A) (A) (A) (A) (A) (A) (A) (A) (A)
                 (A) (A) (A) (A) (A) (A) (A) (A) (A) (A) (A) (A)
                 (A) (A) (A) (A) (A) (A) (A) (A) (A) (A) (A) (A)
                 (A) (A) (A) (A) (A) (A) (A) (A) (A) (A) (A) (A)
                 (A) (A) (A) (A) (A) (A) (A) (A) (A) (A) (A)
 The electronic state is 1-A.
 Alpha  occ. eigenvalues --  -19.62806 -19.62598 -10.64188 -10.63958 -10.58522
 Alpha  occ. eigenvalues --  -10.58412 -10.57422 -10.57149 -10.57072 -10.56989
 Alpha  occ. eigenvalues --  -10.56615 -10.56497  -1.20400  -1.16885  -1.01843
 Alpha  occ. eigenvalues --   -0.95413  -0.89650  -0.87323  -0.81768  -0.74485
 Alpha  occ. eigenvalues --   -0.72225  -0.70037  -0.63518  -0.61348  -0.59257
 Alpha  occ. eigenvalues --   -0.56154  -0.54711  -0.53558  -0.53468  -0.52884
 Alpha  occ. eigenvalues --   -0.51799  -0.48881  -0.47773  -0.45501  -0.45108
 Alpha  occ. eigenvalues --   -0.43889  -0.39892  -0.38441  -0.34205  -0.33572
 Alpha  occ. eigenvalues --   -0.31841
 Alpha virt. eigenvalues --   -0.10633  -0.03805  -0.03598  -0.02358  -0.01215
 Alpha virt. eigenvalues --   -0.00064   0.00150   0.00738   0.00841   0.02589
 Alpha virt. eigenvalues --    0.02826   0.03421   0.04044   0.04247   0.04744
 Alpha virt. eigenvalues --    0.06606   0.07325   0.07337   0.07635   0.07951
 Alpha virt. eigenvalues --    0.09000   0.09561   0.10210   0.10679   0.10845
 Alpha virt. eigenvalues --    0.10887   0.11230   0.12140   0.12227   0.12832
 Alpha virt. eigenvalues --    0.13253   0.13560   0.13573   0.14040   0.15551
 Alpha virt. eigenvalues --    0.16984   0.17352   0.17612   0.17662   0.18069
 Alpha virt. eigenvalues --    0.19797   0.20455   0.21544   0.22234   0.22853
 Alpha virt. eigenvalues --    0.22876   0.23047   0.24086   0.24503   0.24973
 Alpha virt. eigenvalues --    0.25849   0.26757   0.26939   0.27090   0.27661
 Alpha virt. eigenvalues --    0.28979   0.29466   0.30395   0.31221   0.32268
 Alpha virt. eigenvalues --    0.33281   0.33532   0.34143   0.34455   0.36000
 Alpha virt. eigenvalues --    0.36608   0.37846   0.38913   0.40296   0.41396
 Alpha virt. eigenvalues --    0.43936   0.46410   0.48475   0.50142   0.52227
 Alpha virt. eigenvalues --    0.53251   0.53594   0.55233   0.55885   0.56815
 Alpha virt. eigenvalues --    0.57978   0.58441   0.59786   0.60371   0.60440
 Alpha virt. eigenvalues --    0.61007   0.61720   0.63533   0.64531   0.65179
 Alpha virt. eigenvalues --    0.65327   0.66056   0.68191   0.70652   0.72135
 Alpha virt. eigenvalues --    0.74134   0.74612   0.75410   0.76844   0.78716
 Alpha virt. eigenvalues --    0.79658   0.80555   0.80847   0.83409   0.84759
 Alpha virt. eigenvalues --    0.86024   0.87180   0.88462   0.89858   0.90735
 Alpha virt. eigenvalues --    0.91308   0.92884   0.93654   0.96123   0.96231
 Alpha virt. eigenvalues --    0.96957   0.98607   1.01221   1.02026   1.05561
 Alpha virt. eigenvalues --    1.06025   1.07411   1.07557   1.09660   1.09898
 Alpha virt. eigenvalues --    1.13286   1.14741   1.16203   1.16567   1.19818
 Alpha virt. eigenvalues --    1.21137   1.25313   1.27056   1.27744   1.28645
 Alpha virt. eigenvalues --    1.31498   1.32220   1.36893   1.39566   1.47316
 Alpha virt. eigenvalues --    1.49368   1.50105   1.51773   1.52007   1.53543
 Alpha virt. eigenvalues --    1.55681   1.57350   1.59560   1.62354   1.65063
 Alpha virt. eigenvalues --    1.66447   1.68162   1.69059   1.69380   1.73118
 Alpha virt. eigenvalues --    1.74625   1.75183   1.75634   1.76461   1.80927
 Alpha virt. eigenvalues --    1.81627   1.82968   1.84489   1.85814   1.89230
 Alpha virt. eigenvalues --    1.92738   1.93359   1.94737   1.95393   1.96810
 Alpha virt. eigenvalues --    1.97621   1.97773   2.00786   2.03750   2.08027
 Alpha virt. eigenvalues --    2.09145   2.12609   2.16483   2.17144   2.17832
 Alpha virt. eigenvalues --    2.17882   2.24328   2.33346   2.35347   2.38745
 Alpha virt. eigenvalues --    2.40377   2.45385   2.46416   2.47513   2.53896
 Alpha virt. eigenvalues --    2.58790   2.65214   2.66709   2.66997   2.67481
 Alpha virt. eigenvalues --    2.68195   2.69597   2.70460   2.71950   2.72486
 Alpha virt. eigenvalues --    2.72748   2.75367   2.79377   2.80514   2.82057
 Alpha virt. eigenvalues --    2.86173   2.89004   2.91955   2.92500   2.93758
 Alpha virt. eigenvalues --    2.96552   2.96610   2.99835   3.00852   3.01861
 Alpha virt. eigenvalues --    3.09119   3.12102   3.15280   3.23843   3.27213
 Alpha virt. eigenvalues --    3.28151   3.34272   3.36401   3.37099   3.41015
 Alpha virt. eigenvalues --    3.44748   3.45969   3.52020   3.54975   3.56394
 Alpha virt. eigenvalues --    3.60451   3.64503   3.68982   3.73949   3.79019
 Alpha virt. eigenvalues --    3.85549   4.05164   4.06139   4.08556   4.20086
 Alpha virt. eigenvalues --    4.22050   4.28484   4.40313   4.79185   4.89751
 Alpha virt. eigenvalues --    5.10215   5.18567   5.27211   5.44617   5.76461
 Alpha virt. eigenvalues --    5.92719  23.59708  23.81847  23.92663  23.94417
 Alpha virt. eigenvalues --   23.97677  23.99998  24.10120  24.11105  24.20518
 Alpha virt. eigenvalues --   24.27891  49.97440  50.08171
          Condensed to atoms (all electrons):
               1          2          3          4          5          6
     1  O    7.914259   0.032161   0.043058  -0.638549   0.681587  -0.068175
     2  O    0.032161   7.911963   0.055729  -0.124679  -0.228826  -0.009552
     3  C    0.043058   0.055729  41.807561 -15.779731  -5.383446  -2.489820
     4  C   -0.638549  -0.124679 -15.779731  39.706617  -1.247069  -2.265064
     5  C    0.681587  -0.228826  -5.383446  -1.247069  19.039519   2.218177
     6  C   -0.068175  -0.009552  -2.489820  -2.265064   2.218177   9.752063
     7  C    0.317934   0.039578  -2.745074  -8.419979  -1.095573  -0.042947
     8  C   -0.026803  -0.001157  -6.709576  -2.767118   0.082219   0.157391
     9  C   -0.151959   0.695468  -2.757287  -0.899011  -3.514474  -1.364690
    10  C   -0.028860  -0.185969  -0.759063  -1.104672  -4.082159   0.371986
    11  C    0.079593   0.004951   0.201813  -0.560589  -0.322730   0.007910
    12  C   -0.000720  -0.006376  -0.244480   0.617971   0.511999  -0.428587
    13  H   -0.000874   0.003687  -0.063146   0.009776   0.110369   0.397888
    14  H   -0.022242  -0.000506  -0.033710   0.204375  -0.011882  -0.007547
    15  H    0.000785   0.000012   0.037867  -0.130118  -0.061627   0.006029
    16  H    0.001111  -0.017241   0.036767  -0.006028  -0.117391   0.010270
    17  H    0.002237   0.000113   0.041893  -0.093888   0.012130  -0.025849
    18  H   -0.000103  -0.000068  -0.038648   0.066550  -0.014794   0.018848
               7          8          9         10         11         12
     1  O    0.317934  -0.026803  -0.151959  -0.028860   0.079593  -0.000720
     2  O    0.039578  -0.001157   0.695468  -0.185969   0.004951  -0.006376
     3  C   -2.745074  -6.709576  -2.757287  -0.759063   0.201813  -0.244480
     4  C   -8.419979  -2.767118  -0.899011  -1.104672  -0.560589   0.617971
     5  C   -1.095573   0.082219  -3.514474  -4.082159  -0.322730   0.511999
     6  C   -0.042947   0.157391  -1.364690   0.371986   0.007910  -0.428587
     7  C   14.658868   3.987115  -0.275311   0.389105   0.404580  -1.782309
     8  C    3.987115  12.147371  -0.048150  -0.204008  -1.304455   0.208105
     9  C   -0.275311  -0.048150  14.311228   0.143735  -0.018949   0.195888
    10  C    0.389105  -0.204008   0.143735  11.274985   0.384505  -0.666946
    11  C    0.404580  -1.304455  -0.018949   0.384505   8.104303  -0.722958
    12  C   -1.782309   0.208105   0.195888  -0.666946  -0.722958   8.460933
    13  H   -0.064392   0.012830   0.032414  -0.121834  -0.012558   0.043355
    14  H    0.329187   0.047922  -0.021403  -0.013706  -0.148339   0.010989
    15  H    0.106961   0.456155   0.001656   0.056126   0.026849  -0.163821
    16  H   -0.011164  -0.021161  -0.110798   0.516147   0.008789  -0.006967
    17  H    0.000572  -0.007759   0.010543   0.003387   0.451072  -0.087873
    18  H   -0.041388  -0.025800   0.000197  -0.004565  -0.086556   0.435779
              13         14         15         16         17         18
     1  O   -0.000874  -0.022242   0.000785   0.001111   0.002237  -0.000103
     2  O    0.003687  -0.000506   0.000012  -0.017241   0.000113  -0.000068
     3  C   -0.063146  -0.033710   0.037867   0.036767   0.041893  -0.038648
     4  C    0.009776   0.204375  -0.130118  -0.006028  -0.093888   0.066550
     5  C    0.110369  -0.011882  -0.061627  -0.117391   0.012130  -0.014794
     6  C    0.397888  -0.007547   0.006029   0.010270  -0.025849   0.018848
     7  C   -0.064392   0.329187   0.106961  -0.011164   0.000572  -0.041388
     8  C    0.012830   0.047922   0.456155  -0.021161  -0.007759  -0.025800
     9  C    0.032414  -0.021403   0.001656  -0.110798   0.010543   0.000197
    10  C   -0.121834  -0.013706   0.056126   0.516147   0.003387  -0.004565
    11  C   -0.012558  -0.148339   0.026849   0.008789   0.451072  -0.086556
    12  C    0.043355   0.010989  -0.163821  -0.006967  -0.087873   0.435779
    13  H    0.408958   0.000617  -0.003662  -0.011899  -0.000384   0.001604
    14  H    0.000617   0.389337   0.001277  -0.000473  -0.010445   0.001829
    15  H   -0.003662   0.001277   0.422766   0.001739   0.002582  -0.010268
    16  H   -0.011899  -0.000473   0.001739   0.397928   0.000082  -0.000485
    17  H   -0.000384  -0.010445   0.002582   0.000082   0.413071  -0.009691
    18  H    0.001604   0.001829  -0.010268  -0.000485  -0.009691   0.412226
 Mulliken charges:
               1
     1  O   -0.134440
     2  O   -0.169289
     3  C    0.779294
     4  C   -0.568793
     5  C   -0.576029
     6  C   -0.238332
     7  C    0.244238
     8  C    0.016880
     9  C   -0.229097
    10  C    0.031806
    11  C   -0.497230
    12  C   -0.373980
    13  H    0.257250
    14  H    0.284720
    15  H    0.248691
    16  H    0.330773
    17  H    0.298206
    18  H    0.295332
 Sum of Mulliken charges =  -0.00000
 Mulliken charges with hydrogens summed into heavy atoms:
               1
     1  O   -0.134440
     2  O   -0.169289
     3  C    0.779294
     4  C   -0.568793
     5  C   -0.576029
     6  C    0.018918
     7  C    0.528958
     8  C    0.265571
     9  C   -0.229097
    10  C    0.362579
    11  C   -0.199024
    12  C   -0.078648
 Electronic spatial extent (au):  <R**2>=           1849.1092
 Charge=             -0.0000 electrons
 Dipole moment (field-independent basis, Debye):
    X=              5.3919    Y=              3.5666    Z=              0.0002  Tot=              6.4648
 Quadrupole moment (field-independent basis, Debye-Ang):
   XX=            -73.3677   YY=            -64.6450   ZZ=            -70.9544
   XY=             -7.4659   XZ=              0.0050   YZ=             -0.0001
 Traceless Quadrupole moment (field-independent basis, Debye-Ang):
   XX=             -3.7120   YY=              5.0107   ZZ=             -1.2987
   XY=             -7.4659   XZ=              0.0050   YZ=             -0.0001
 Octapole moment (field-independent basis, Debye-Ang**2):
  XXX=             68.8905  YYY=             17.8227  ZZZ=              0.0012  XYY=             11.8808
  XXY=             12.4112  XXZ=              0.0064  XZZ=            -13.1099  YZZ=             -5.7562
  YYZ=              0.0080  XYZ=             -0.0045
 Hexadecapole moment (field-independent basis, Debye-Ang**3):
 XXXX=          -1714.4565 YYYY=           -695.1536 ZZZZ=            -77.8629 XXXY=            -30.9716
 XXXZ=              0.0777 YYYX=            -30.3795 YYYZ=              0.0017 ZZZX=             -0.0044
 ZZZY=             -0.0004 XXYY=           -375.4381 XXZZ=           -306.4164 YYZZ=           -145.9233
 XXYZ=              0.0003 YYXZ=             -0.0040 ZZXY=              8.0421
 N-N= 6.216316458360D+02 E-N=-2.489846609159D+03  KE= 5.327687076258D+02
 R6APFD:  NTU= -4 IXU= 1 FactS= 1.050
 Calling FoFJK, ICntrl=      2127 FMM=F ISym2X=0 I1Cent= 0 IOpClX= 0 NMat=1 NMatS=1 NMatT=0.
 ***** Axes restored to original set *****
 -------------------------------------------------------------------
 Center     Atomic                   Forces (Hartrees/Bohr)
 Number     Number              X              Y              Z
 -------------------------------------------------------------------
      1        8          -0.011082542   -0.023624878    0.000009257
      2        8          -0.025123129   -0.009607803   -0.000049150
      3        6          -0.004289430    0.005857757    0.000016312
      4        6          -0.010804105   -0.005982816    0.000031687
      5        6           0.001250321    0.043911866   -0.000063444
      6        6          -0.000320220    0.003203177    0.000001739
      7        6          -0.005061453   -0.005327773    0.000007628
      8        6          -0.002951619    0.004975201    0.000001926
      9        6           0.041856588   -0.008506586    0.000127021
     10        6           0.001478481    0.001840775   -0.000060649
     11        6           0.002507056   -0.001425589   -0.000028908
     12        6           0.005458840   -0.000956306    0.000004857
     13        1          -0.002953338   -0.002651092   -0.000000125
     14        1           0.005857184   -0.000086078    0.000000432
     15        1           0.002523058   -0.001845121   -0.000006308
     16        1           0.003877830   -0.000026311    0.000006315
     17        1          -0.000895420    0.001100358    0.000003749
     18        1          -0.001328101   -0.000848782   -0.000002339
 -------------------------------------------------------------------
 Cartesian Forces:  Max     0.043911866 RMS     0.010170455

 GradGradGradGradGradGradGradGradGradGradGradGradGradGradGradGradGradGrad
 Berny optimization.
 FormGI is forming the generalized inverse of G from B-inverse, IUseBI=4.
 Internal  Forces:  Max     0.026815526 RMS     0.004992462
 Search for a local minimum.
 Step number   1 out of a maximum of  103
 All quantities printed in internal units (Hartrees-Bohrs-Radians)
 Mixed Optimization -- RFO/linear search
 Second derivative matrix not updated -- first step.
 ITU=  0
     Eigenvalues ---    0.00872   0.00968   0.00976   0.01608   0.01661
     Eigenvalues ---    0.01855   0.01981   0.01996   0.02107   0.02120
     Eigenvalues ---    0.02140   0.02148   0.02156   0.02167   0.02332
     Eigenvalues ---    0.16000   0.16000   0.16000   0.16000   0.16000
     Eigenvalues ---    0.16000   0.22000   0.22361   0.22686   0.24360
     Eigenvalues ---    0.24641   0.25000   0.25000   0.25000   0.31316
     Eigenvalues ---    0.33957   0.34759   0.35083   0.35235   0.35247
     Eigenvalues ---    0.35259   0.35311   0.35550   0.35873   0.40801
     Eigenvalues ---    0.41881   0.45225   0.46048   0.46079   0.46527
     Eigenvalues ---    0.56100   0.94749   0.95127
 RFO step:  Lambda=-4.61482711D-03 EMin= 8.72394360D-03
 Linear search not attempted -- first point.
 Iteration  1 RMS(Cart)=  0.01477332 RMS(Int)=  0.00016203
 Iteration  2 RMS(Cart)=  0.00017889 RMS(Int)=  0.00000818
 Iteration  3 RMS(Cart)=  0.00000002 RMS(Int)=  0.00000818
 Variable       Old X    -DE/DX   Delta X   Delta X   Delta X     New X
                                 (Linear)    (Quad)   (Total)
    R1        2.30656  -0.02578   0.00000  -0.02697  -0.02697   2.27959
    R2        2.30818  -0.02682   0.00000  -0.02816  -0.02816   2.28002
    R3        2.64709   0.00378   0.00000   0.00809   0.00808   2.65517
    R4        2.78584   0.00597   0.00000   0.01702   0.01703   2.80287
    R5        2.64160  -0.00623   0.00000  -0.01344  -0.01344   2.62816
    R6        2.76824   0.00212   0.00000   0.00529   0.00528   2.77352
    R7        2.64612  -0.00387   0.00000  -0.00838  -0.00839   2.63773
    R8        2.84268   0.02241   0.00000   0.06970   0.06972   2.91240
    R9        2.52662   0.00699   0.00000   0.01179   0.01178   2.53841
   R10        2.05173   0.00333   0.00000   0.00932   0.00932   2.06105
   R11        2.63408  -0.00148   0.00000  -0.00317  -0.00317   2.63091
   R12        2.05296   0.00111   0.00000   0.00310   0.00310   2.05606
   R13        2.63949  -0.00372   0.00000  -0.00794  -0.00794   2.63155
   R14        2.05541   0.00118   0.00000   0.00332   0.00332   2.05872
   R15        2.78670  -0.00084   0.00000  -0.00222  -0.00221   2.78448
   R16        2.04790   0.00279   0.00000   0.00774   0.00774   2.05565
   R17        2.63484   0.00049   0.00000   0.00106   0.00106   2.63590
   R18        2.05256   0.00140   0.00000   0.00393   0.00393   2.05649
   R19        2.05276   0.00152   0.00000   0.00426   0.00426   2.05702
    A1        2.07583   0.00314   0.00000   0.01229   0.01229   2.08811
    A2        2.11152  -0.00149   0.00000  -0.00599  -0.00599   2.10553
    A3        2.09584  -0.00165   0.00000  -0.00630  -0.00630   2.08954
    A4        2.11275  -0.00170   0.00000  -0.00787  -0.00789   2.10486
    A5        2.07366   0.00095   0.00000   0.00425   0.00426   2.07792
    A6        2.09677   0.00074   0.00000   0.00362   0.00364   2.10040
    A7        2.14870  -0.00289   0.00000  -0.01176  -0.01177   2.13692
    A8        2.06362   0.00638   0.00000   0.02464   0.02463   2.08825
    A9        2.07087  -0.00348   0.00000  -0.01288  -0.01286   2.05801
   A10        2.14048   0.00309   0.00000   0.01211   0.01208   2.15256
   A11        2.05729  -0.00375   0.00000  -0.01942  -0.01940   2.03788
   A12        2.08542   0.00065   0.00000   0.00731   0.00732   2.09274
   A13        2.08650   0.00115   0.00000   0.00480   0.00481   2.09131
   A14        2.11776  -0.00647   0.00000  -0.03824  -0.03824   2.07953
   A15        2.07892   0.00533   0.00000   0.03343   0.03343   2.11235
   A16        2.10117  -0.00047   0.00000  -0.00212  -0.00213   2.09904
   A17        2.10802  -0.00275   0.00000  -0.01706  -0.01705   2.09097
   A18        2.07400   0.00321   0.00000   0.01917   0.01918   2.09318
   A19        2.07671   0.00355   0.00000   0.01366   0.01365   2.09036
   A20        2.14232  -0.00124   0.00000  -0.00513  -0.00514   2.13717
   A21        2.06415  -0.00231   0.00000  -0.00853  -0.00851   2.05565
   A22        2.10229   0.00126   0.00000   0.00488   0.00488   2.10717
   A23        2.11919   0.00214   0.00000   0.01436   0.01436   2.13355
   A24        2.06171  -0.00340   0.00000  -0.01925  -0.01924   2.04246
   A25        2.09571  -0.00046   0.00000  -0.00224  -0.00224   2.09348
   A26        2.09397   0.00003   0.00000  -0.00009  -0.00009   2.09388
   A27        2.09350   0.00043   0.00000   0.00233   0.00233   2.09583
   A28        2.09781   0.00031   0.00000   0.00129   0.00129   2.09910
   A29        2.09248  -0.00059   0.00000  -0.00330  -0.00330   2.08917
   A30        2.09290   0.00028   0.00000   0.00201   0.00201   2.09491
    D1        0.00025  -0.00001   0.00000  -0.00021  -0.00021   0.00004
    D2        3.14119   0.00001   0.00000   0.00040   0.00041  -3.14159
    D3       -3.14094  -0.00001   0.00000  -0.00056  -0.00056  -3.14150
    D4        0.00001   0.00000   0.00000   0.00005   0.00005   0.00006
    D5        3.14150   0.00000   0.00000   0.00009   0.00008   3.14158
    D6       -0.00001  -0.00001   0.00000  -0.00062  -0.00062  -0.00063
    D7       -0.00050   0.00001   0.00000   0.00044   0.00043  -0.00007
    D8        3.14118  -0.00000   0.00000  -0.00027  -0.00027   3.14091
    D9        0.00016  -0.00000   0.00000  -0.00017  -0.00017  -0.00001
   D10        3.14157   0.00000   0.00000   0.00004   0.00004  -3.14158
   D11       -3.14102  -0.00001   0.00000  -0.00053  -0.00053  -3.14155
   D12        0.00039  -0.00001   0.00000  -0.00032  -0.00032   0.00007
   D13        0.00002   0.00000   0.00000   0.00026   0.00027   0.00029
   D14        3.14128   0.00001   0.00000   0.00051   0.00051  -3.14139
   D15       -3.14092  -0.00001   0.00000  -0.00036  -0.00036  -3.14127
   D16        0.00034  -0.00000   0.00000  -0.00011  -0.00011   0.00023
   D17       -0.00009   0.00000   0.00000   0.00001   0.00001  -0.00008
   D18       -3.14141  -0.00001   0.00000  -0.00027  -0.00027   3.14151
   D19        3.14086   0.00001   0.00000   0.00062   0.00062   3.14148
   D20       -0.00046   0.00001   0.00000   0.00034   0.00034  -0.00012
   D21        0.00049  -0.00002   0.00000  -0.00164  -0.00166  -0.00117
   D22        3.14121   0.00001   0.00000   0.00072   0.00072  -3.14126
   D23       -3.14119  -0.00001   0.00000  -0.00097  -0.00098   3.14102
   D24       -0.00047   0.00002   0.00000   0.00140   0.00140   0.00093
   D25       -0.00053   0.00001   0.00000   0.00057   0.00057   0.00004
   D26        3.14147   0.00000   0.00000   0.00012   0.00011   3.14158
   D27        3.14140   0.00001   0.00000   0.00032   0.00033  -3.14146
   D28        0.00022  -0.00000   0.00000  -0.00013  -0.00013   0.00008
   D29       -0.00025   0.00001   0.00000   0.00022   0.00022  -0.00003
   D30        3.14150   0.00000   0.00000   0.00007   0.00007   3.14157
   D31        3.14152   0.00000   0.00000   0.00002   0.00002   3.14154
   D32        0.00009  -0.00000   0.00000  -0.00013  -0.00013  -0.00005
   D33        0.00000   0.00000   0.00000   0.00004   0.00004   0.00005
   D34       -3.14141  -0.00000   0.00000  -0.00013  -0.00014  -3.14155
   D35        3.14133   0.00001   0.00000   0.00031   0.00032  -3.14154
   D36       -0.00008   0.00000   0.00000   0.00013   0.00014   0.00005
   D37        3.14142   0.00001   0.00000   0.00108   0.00107  -3.14069
   D38       -0.00056   0.00002   0.00000   0.00153   0.00151   0.00095
   D39        0.00074  -0.00002   0.00000  -0.00139  -0.00139  -0.00065
   D40       -3.14125  -0.00001   0.00000  -0.00094  -0.00094   3.14099
   D41        0.00017  -0.00000   0.00000  -0.00016  -0.00016   0.00001
   D42        3.14158  -0.00000   0.00000   0.00001   0.00002  -3.14159
   D43       -3.14158   0.00000   0.00000  -0.00001  -0.00001  -3.14159
   D44       -0.00016   0.00000   0.00000   0.00017   0.00017   0.00000
         Item               Value     Threshold  Converged?
 Maximum Force            0.026816     0.000450     NO 
 RMS     Force            0.004992     0.000300     NO 
 Maximum Displacement     0.060297     0.001800     NO 
 RMS     Displacement     0.014730     0.001200     NO 
 Predicted change in Energy=-2.338370D-03
 GradGradGradGradGradGradGradGradGradGradGradGradGradGradGradGradGradGrad

                          Input orientation:                          
 ---------------------------------------------------------------------
 Center     Atomic      Atomic             Coordinates (Angstroms)
 Number     Number       Type             X           Y           Z
 ---------------------------------------------------------------------
      1          8           0        1.372530    2.094992   -0.000192
      2          8           0        3.317721    0.169607   -0.000028
      3          6           0       -0.355772    0.486445   -0.000012
      4          6           0       -0.653656   -0.886668    0.000031
      5          6           0        1.059571    0.929989   -0.000134
      6          6           0        0.422531   -1.884622    0.000003
      7          6           0       -1.374930    1.432777    0.000121
      8          6           0       -1.989797   -1.290476    0.000138
      9          6           0        2.155330   -0.153768    0.000650
     10          6           0        1.726870   -1.563584    0.000260
     11          6           0       -2.704173    1.018794    0.000290
     12          6           0       -3.009605   -0.342213    0.000295
     13          1           0        0.120480   -2.932621   -0.000155
     14          1           0       -1.116692    2.489705    0.000067
     15          1           0       -2.234638   -2.352037    0.000090
     16          1           0        2.510303   -2.318267    0.000241
     17          1           0       -3.503544    1.757231    0.000415
     18          1           0       -4.048429   -0.667384    0.000420
 ---------------------------------------------------------------------
                    Distance matrix (angstroms):
                    1          2          3          4          5
     1  O    0.000000
     2  O    2.736947   0.000000
     3  C    2.361028   3.687131   0.000000
     4  C    3.604959   4.109447   1.405053   0.000000
     5  C    1.206307   2.382734   1.483215   2.497076   0.000000
     6  C    4.091433   3.549928   2.495539   1.467681   2.885802
     7  C    2.826139   4.859688   1.390765   2.429004   2.485879
     8  C    4.771440   5.504688   2.414019   1.395827   3.772149
     9  C    2.381113   1.206534   2.591430   2.903024   1.541174
    10  C    3.675696   2.352607   2.922331   2.474898   2.581316
    11  C    4.216362   6.081474   2.407983   2.799180   3.764792
    12  C    5.014287   6.347993   2.780198   2.418042   4.263413
    13  H    5.181170   4.454904   3.452076   2.187512   3.975128
    14  H    2.520322   5.004686   2.142907   3.407976   2.677469
    15  H    5.726057   6.098146   3.403986   2.155647   4.650109
    16  H    4.557563   2.615615   4.010087   3.472767   3.557497
    17  H    4.887758   7.003586   3.394609   3.887425   4.637495
    18  H    6.084203   7.413550   3.868726   3.401849   5.351941
                    6          7          8          9         10
     6  C    0.000000
     7  C    3.773062   0.000000
     8  C    2.484418   2.791804   0.000000
     9  C    2.449174   3.870383   4.298161   0.000000
    10  C    1.343267   4.312696   3.726688   1.473486   0.000000
    11  C    4.266861   1.392217   2.417243   4.998967   5.128628
    12  C    3.762789   2.413038   1.392556   5.168372   4.891415
    13  H    1.090659   4.614428   2.673931   3.444218   2.110628
    14  H    4.637235   1.088019   3.879702   4.206433   4.951263
    15  H    2.697967   3.881226   1.089430   4.909604   4.039209
    16  H    2.132332   5.400496   4.615978   2.193413   1.087802
    17  H    5.355106   2.153200   3.402933   5.972837   6.195567
    18  H    4.633697   3.399747   2.150863   6.224985   5.844421
                   11         12         13         14         15
    11  C    0.000000
    12  C    1.394858   0.000000
    13  H    4.857196   4.062960   0.000000
    14  H    2.164180   3.406300   5.561674   0.000000
    15  H    3.403376   2.154058   2.425626   4.969132   0.000000
    16  H    6.190859   5.862949   2.467526   6.022598   4.745061
    17  H    1.088248   2.156767   5.926911   2.496714   4.300722
    18  H    2.156438   1.088528   4.744587   4.308398   2.475458
                   16         17         18
    16  H    0.000000
    17  H    7.264712   0.000000
    18  H    6.763312   2.485088   0.000000
 Stoichiometry    C10H6O2
 Framework group  C1[X(C10H6O2)]
 Deg. of freedom    48
 Full point group                 C1      NOp   1
 Largest Abelian subgroup         C1      NOp   1
 Largest concise Abelian subgroup C1      NOp   1
                         Standard orientation:                         
 ---------------------------------------------------------------------
 Center     Atomic      Atomic             Coordinates (Angstroms)
 Number     Number       Type             X           Y           Z
 ---------------------------------------------------------------------
      1          8           0       -1.350292   -2.095238   -0.000304
      2          8           0       -3.305736   -0.180267   -0.000140
      3          6           0        0.369396   -0.477486   -0.000124
      4          6           0        0.659944    0.897198   -0.000081
      5          6           0       -1.043559   -0.928580   -0.000246
      6          6           0       -0.421555    1.889391   -0.000109
      7          6           0        1.393593   -1.418363    0.000009
      8          6           0        1.993910    1.308135    0.000026
      9          6           0       -2.145089    0.149310    0.000538
     10          6           0       -1.724162    1.561394    0.000148
     11          6           0        2.720606   -0.997288    0.000178
     12          6           0        3.018767    0.365330    0.000183
     13          1           0       -0.125105    2.938988   -0.000266
     14          1           0        1.141002   -2.476655   -0.000044
     15          1           0        2.233080    2.370988   -0.000022
     16          1           0       -2.511613    2.311882    0.000130
     17          1           0        3.523909   -1.731447    0.000303
     18          1           0        4.055840    0.696044    0.000308
 ---------------------------------------------------------------------
 Rotational constants (GHZ):           1.9953566           0.8052648           0.5737264
 Standard basis: 6-311++G(d,p) (5D, 7F)
 There are   318 symmetry adapted cartesian basis functions of A   symmetry.
 There are   306 symmetry adapted basis functions of A   symmetry.
   306 basis functions,   486 primitive gaussians,   318 cartesian basis functions
    41 alpha electrons       41 beta electrons
       nuclear repulsion energy       620.9000305484 Hartrees.
 NAtoms=   18 NActive=   18 NUniq=   18 SFac= 1.00D+00 NAtFMM=   60 NAOKFM=F Big=F
 Integral buffers will be    131072 words long.
 Raffenetti 2 integral format.
 Two-electron integral symmetry is turned on.
 R6APFD:  NTU= -4 IXU= 1 FactS= 1.050
 Nuclear repulsion after empirical dispersion term =      620.8887739927 Hartrees.
 One-electron integrals computed using PRISM.
 NBasis=   306 RedAO= T EigKep=  1.37D-06  NBF=   306
 NBsUse=   304 1.00D-06 EigRej=  7.89D-07 NBFU=   304
 Initial guess from the checkpoint file:  "BENA0090.chk"
 B after Tr=    -0.000000   -0.000000    0.000000
         Rot=    0.999997   -0.000016    0.000013   -0.002411 Ang=  -0.28 deg.
 ExpMin= 3.60D-02 ExpMax= 8.59D+03 ExpMxC= 1.30D+03 IAcc=3 IRadAn=         5 AccDes= 0.00D+00
 Harris functional with IExCor= 1009 and IRadAn=       5 diagonalized for initial guess.
 HarFok:  IExCor= 1009 AccDes= 0.00D+00 IRadAn=         5 IDoV= 1 UseB2=F ITyADJ=14
 ICtDFT=  3500011 ScaDFX=  1.000000  1.000000  1.000000  1.000000
 FoFCou: FMM=F IPFlag=           0 FMFlag=      100000 FMFlg1=           0
         NFxFlg=           0 DoJE=T BraDBF=F KetDBF=T FulRan=T
         wScrn=  0.000000 ICntrl=       500 IOpCl=  0 I1Cent=   200000004 NGrid=           0
         NMat0=    1 NMatS0=      1 NMatT0=    0 NMatD0=    1 NMtDS0=    0 NMtDT0=    0
 Petite list used in FoFCou.
 Requested convergence on RMS density matrix=1.00D-08 within  32 cycles.
 Requested convergence on MAX density matrix=1.00D-06.
 Requested convergence on             energy=1.00D-06.
 No special actions if energy rises.
 SCF Done:  E(RM08HX) =  -535.080352422     A.U. after   14 cycles
            NFock= 14  Conv=0.74D-08     -V/T= 2.0043
 QCSCF skips out because SCF is already converged.
 R6APFD:  NTU= -4 IXU= 1 FactS= 1.050
 Calling FoFJK, ICntrl=      2127 FMM=F ISym2X=0 I1Cent= 0 IOpClX= 0 NMat=1 NMatS=1 NMatT=0.
 ***** Axes restored to original set *****
 -------------------------------------------------------------------
 Center     Atomic                   Forces (Hartrees/Bohr)
 Number     Number              X              Y              Z
 -------------------------------------------------------------------
      1        8          -0.000935177   -0.008068014   -0.000028976
      2        8          -0.006479674   -0.000091193    0.000067143
      3        6          -0.001027566   -0.001974873   -0.000020351
      4        6          -0.000998536   -0.001540095    0.000001659
      5        6          -0.000112603    0.014609910    0.000120053
      6        6           0.002299249    0.000849614    0.000006704
      7        6          -0.002203727   -0.000374748   -0.000005325
      8        6          -0.000502561    0.000442002    0.000000522
      9        6           0.012419408   -0.003091808   -0.000192838
     10        6          -0.004766010   -0.001316859    0.000058365
     11        6          -0.000333971   -0.000374124    0.000002038
     12        6           0.000394001    0.000830603   -0.000001208
     13        1          -0.000345363   -0.000203649   -0.000010730
     14        1           0.001419541    0.000059929    0.000000831
     15        1           0.000718078   -0.000201752    0.000002647
     16        1           0.000537416    0.000444876    0.000000728
     17        1          -0.000033051   -0.000130265   -0.000000171
     18        1          -0.000049453    0.000130444   -0.000001090
 -------------------------------------------------------------------
 Cartesian Forces:  Max     0.014609910 RMS     0.003144277

 GradGradGradGradGradGradGradGradGradGradGradGradGradGradGradGradGradGrad
 Berny optimization.
 Using GEDIIS/GDIIS optimizer.
 FormGI is forming the generalized inverse of G from B-inverse, IUseBI=4.
 Internal  Forces:  Max     0.008032108 RMS     0.001363350
 Search for a local minimum.
 Step number   2 out of a maximum of  103
 All quantities printed in internal units (Hartrees-Bohrs-Radians)
 Mixed Optimization -- RFO/linear search
 Update second derivatives using D2CorX and points    1    2
 DE= -2.75D-03 DEPred=-2.34D-03 R= 1.18D+00
 TightC=F SS=  1.41D+00  RLast= 1.16D-01 DXNew= 5.0454D-01 3.4773D-01
 Trust test= 1.18D+00 RLast= 1.16D-01 DXMaxT set to 3.48D-01
 ITU=  1  0
 Use linear search instead of GDIIS.
     Eigenvalues ---    0.00870   0.00970   0.00973   0.01611   0.01663
     Eigenvalues ---    0.01856   0.01991   0.02005   0.02107   0.02120
     Eigenvalues ---    0.02141   0.02148   0.02156   0.02167   0.02342
     Eigenvalues ---    0.14956   0.16000   0.16000   0.16000   0.16000
     Eigenvalues ---    0.16025   0.21936   0.22315   0.22690   0.23617
     Eigenvalues ---    0.24589   0.24747   0.25000   0.26149   0.28643
     Eigenvalues ---    0.33876   0.34993   0.35105   0.35229   0.35252
     Eigenvalues ---    0.35274   0.35427   0.35719   0.35787   0.40784
     Eigenvalues ---    0.41877   0.45279   0.46040   0.46406   0.46739
     Eigenvalues ---    0.57309   0.85686   0.95093
 RFO step:  Lambda=-2.61874241D-04 EMin= 8.69808096D-03
 Quartic linear search produced a step of  0.27399.
 Iteration  1 RMS(Cart)=  0.00451023 RMS(Int)=  0.00002773
 Iteration  2 RMS(Cart)=  0.00003196 RMS(Int)=  0.00000964
 Iteration  3 RMS(Cart)=  0.00000000 RMS(Int)=  0.00000964
 Variable       Old X    -DE/DX   Delta X   Delta X   Delta X     New X
                                 (Linear)    (Quad)   (Total)
    R1        2.27959  -0.00803  -0.00739  -0.00498  -0.01237   2.26722
    R2        2.28002  -0.00627  -0.00772  -0.00239  -0.01011   2.26991
    R3        2.65517   0.00046   0.00221  -0.00027   0.00193   2.65710
    R4        2.80287   0.00297   0.00467   0.00775   0.01242   2.81529
    R5        2.62816   0.00032  -0.00368   0.00377   0.00009   2.62826
    R6        2.77352  -0.00009   0.00145  -0.00191  -0.00048   2.77304
    R7        2.63773  -0.00031  -0.00230   0.00088  -0.00142   2.63631
    R8        2.91240   0.00511   0.01910   0.00648   0.02559   2.93799
    R9        2.53841  -0.00160   0.00323  -0.00638  -0.00315   2.53525
   R10        2.06105   0.00029   0.00255  -0.00090   0.00166   2.06270
   R11        2.63091  -0.00007  -0.00087   0.00049  -0.00037   2.63054
   R12        2.05606   0.00039   0.00085   0.00077   0.00162   2.05768
   R13        2.63155   0.00036  -0.00218   0.00260   0.00043   2.63197
   R14        2.05872   0.00004   0.00091  -0.00055   0.00036   2.05908
   R15        2.78448   0.00145  -0.00061   0.00559   0.00499   2.78948
   R16        2.05565   0.00008   0.00212  -0.00133   0.00079   2.05644
   R17        2.63590  -0.00060   0.00029  -0.00193  -0.00164   2.63426
   R18        2.05649  -0.00007   0.00108  -0.00105   0.00002   2.05651
   R19        2.05702   0.00001   0.00117  -0.00085   0.00032   2.05734
    A1        2.08811   0.00088   0.00337   0.00270   0.00607   2.09418
    A2        2.10553  -0.00034  -0.00164  -0.00070  -0.00235   2.10318
    A3        2.08954  -0.00054  -0.00173  -0.00200  -0.00372   2.08582
    A4        2.10486  -0.00013  -0.00216   0.00019  -0.00199   2.10287
    A5        2.07792  -0.00020   0.00117  -0.00143  -0.00026   2.07766
    A6        2.10040   0.00033   0.00100   0.00124   0.00226   2.10266
    A7        2.13692   0.00215  -0.00323   0.01263   0.00939   2.14631
    A8        2.08825  -0.00055   0.00675  -0.00854  -0.00180   2.08645
    A9        2.05801  -0.00161  -0.00352  -0.00409  -0.00760   2.05042
   A10        2.15256   0.00064   0.00331  -0.00067   0.00262   2.15518
   A11        2.03788  -0.00060  -0.00532   0.00074  -0.00457   2.03332
   A12        2.09274  -0.00004   0.00201  -0.00007   0.00195   2.09469
   A13        2.09131   0.00047   0.00132   0.00188   0.00320   2.09450
   A14        2.07953  -0.00163  -0.01048  -0.00502  -0.01550   2.06402
   A15        2.11235   0.00116   0.00916   0.00315   0.01231   2.12466
   A16        2.09904   0.00019  -0.00058   0.00134   0.00075   2.09979
   A17        2.09097  -0.00087  -0.00467  -0.00325  -0.00792   2.08304
   A18        2.09318   0.00068   0.00525   0.00191   0.00717   2.10035
   A19        2.09036  -0.00132   0.00374  -0.00969  -0.00597   2.08439
   A20        2.13717   0.00246  -0.00141   0.01336   0.01193   2.14911
   A21        2.05565  -0.00114  -0.00233  -0.00365  -0.00597   2.04968
   A22        2.10717   0.00136   0.00134   0.00553   0.00687   2.11404
   A23        2.13355   0.00004   0.00394  -0.00034   0.00360   2.13715
   A24        2.04246  -0.00140  -0.00527  -0.00519  -0.01046   2.03200
   A25        2.09348  -0.00034  -0.00061  -0.00170  -0.00231   2.09116
   A26        2.09388   0.00030  -0.00003   0.00211   0.00208   2.09596
   A27        2.09583   0.00004   0.00064  -0.00041   0.00023   2.09606
   A28        2.09910   0.00021   0.00035   0.00062   0.00097   2.10007
   A29        2.08917   0.00003  -0.00090   0.00129   0.00039   2.08956
   A30        2.09491  -0.00024   0.00055  -0.00191  -0.00136   2.09355
    D1        0.00004  -0.00000  -0.00006  -0.00012  -0.00018  -0.00014
    D2       -3.14159  -0.00000   0.00011  -0.00038  -0.00027   3.14133
    D3       -3.14150   0.00000  -0.00015   0.00013  -0.00002  -3.14153
    D4        0.00006  -0.00000   0.00001  -0.00013  -0.00012  -0.00006
    D5        3.14158  -0.00001   0.00002  -0.00118  -0.00117   3.14040
    D6       -0.00063   0.00002  -0.00017   0.00286   0.00269   0.00206
    D7       -0.00007  -0.00001   0.00012  -0.00143  -0.00133  -0.00139
    D8        3.14091   0.00002  -0.00007   0.00261   0.00253  -3.13974
    D9       -0.00001  -0.00000  -0.00005   0.00001  -0.00003  -0.00004
   D10       -3.14158  -0.00000   0.00001  -0.00007  -0.00006   3.14155
   D11       -3.14155   0.00000  -0.00014   0.00026   0.00012  -3.14143
   D12        0.00007   0.00000  -0.00009   0.00018   0.00010   0.00017
   D13        0.00029  -0.00001   0.00007  -0.00101  -0.00094  -0.00065
   D14       -3.14139  -0.00000   0.00014  -0.00082  -0.00069   3.14110
   D15       -3.14127  -0.00000  -0.00010  -0.00075  -0.00085   3.14106
   D16        0.00023   0.00000  -0.00003  -0.00056  -0.00060  -0.00037
   D17       -0.00008   0.00000   0.00000   0.00019   0.00019   0.00011
   D18        3.14151   0.00000  -0.00007   0.00018   0.00011  -3.14157
   D19        3.14148  -0.00000   0.00017  -0.00007   0.00010   3.14158
   D20       -0.00012  -0.00000   0.00009  -0.00008   0.00002  -0.00010
   D21       -0.00117   0.00005  -0.00046   0.00629   0.00580   0.00463
   D22       -3.14126  -0.00001   0.00020  -0.00064  -0.00044   3.14149
   D23        3.14102   0.00002  -0.00027   0.00237   0.00207  -3.14009
   D24        0.00093  -0.00004   0.00038  -0.00457  -0.00417  -0.00324
   D25        0.00004  -0.00001   0.00016  -0.00088  -0.00073  -0.00068
   D26        3.14158  -0.00000   0.00003  -0.00015  -0.00013   3.14145
   D27       -3.14146  -0.00001   0.00009  -0.00107  -0.00099   3.14074
   D28        0.00008  -0.00001  -0.00004  -0.00035  -0.00039  -0.00031
   D29       -0.00003   0.00000   0.00006   0.00005   0.00011   0.00008
   D30        3.14157   0.00000   0.00002   0.00000   0.00002   3.14159
   D31        3.14154   0.00000   0.00000   0.00013   0.00013  -3.14151
   D32       -0.00005   0.00000  -0.00004   0.00008   0.00005  -0.00000
   D33        0.00005  -0.00000   0.00001  -0.00013  -0.00012  -0.00007
   D34       -3.14155  -0.00000  -0.00004  -0.00007  -0.00011   3.14153
   D35       -3.14154  -0.00000   0.00009  -0.00013  -0.00004  -3.14158
   D36        0.00005  -0.00000   0.00004  -0.00007  -0.00003   0.00002
   D37       -3.14069  -0.00002   0.00029  -0.00348  -0.00322   3.13927
   D38        0.00095  -0.00003   0.00041  -0.00417  -0.00378  -0.00283
   D39       -0.00065   0.00003  -0.00038   0.00363   0.00325   0.00261
   D40        3.14099   0.00002  -0.00026   0.00294   0.00269  -3.13950
   D41        0.00001   0.00000  -0.00004   0.00001  -0.00003  -0.00003
   D42       -3.14159  -0.00000   0.00000  -0.00004  -0.00004   3.14156
   D43       -3.14159   0.00000  -0.00000   0.00006   0.00005  -3.14154
   D44        0.00000   0.00000   0.00005   0.00000   0.00005   0.00005
         Item               Value     Threshold  Converged?
 Maximum Force            0.008032     0.000450     NO 
 RMS     Force            0.001363     0.000300     NO 
 Maximum Displacement     0.020109     0.001800     NO 
 RMS     Displacement     0.004509     0.001200     NO 
 Predicted change in Energy=-2.489240D-04
 GradGradGradGradGradGradGradGradGradGradGradGradGradGradGradGradGradGrad

                          Input orientation:                          
 ---------------------------------------------------------------------
 Center     Atomic      Atomic             Coordinates (Angstroms)
 Number     Number       Type             X           Y           Z
 ---------------------------------------------------------------------
      1          8           0        1.376875    2.097228   -0.000164
      2          8           0        3.320522    0.170941    0.000235
      3          6           0       -0.357753    0.486139    0.000417
      4          6           0       -0.656391   -0.887855    0.000271
      5          6           0        1.061311    0.939712    0.000890
      6          6           0        0.421206   -1.883913    0.000400
      7          6           0       -1.378796    1.430507    0.000372
      8          6           0       -1.992076   -1.290572    0.000148
      9          6           0        2.164600   -0.155684   -0.001633
     10          6           0        1.724251   -1.564601   -0.000071
     11          6           0       -2.708362    1.018231    0.000130
     12          6           0       -3.012144   -0.342257    0.000035
     13          1           0        0.115803   -2.931853    0.000752
     14          1           0       -1.106051    2.484673    0.000528
     15          1           0       -2.229236   -2.354069    0.000058
     16          1           0        2.509928   -2.317549    0.000162
     17          1           0       -3.508367    1.756001    0.000094
     18          1           0       -4.051222   -0.667178   -0.000124
 ---------------------------------------------------------------------
                    Distance matrix (angstroms):
                    1          2          3          4          5
     1  O    0.000000
     2  O    2.736484   0.000000
     3  C    2.367392   3.691755   0.000000
     4  C    3.611772   4.115444   1.406074   0.000000
     5  C    1.199761   2.386428   1.489789   2.508088   0.000000
     6  C    4.094239   3.553654   2.494779   1.467428   2.895271
     7  C    2.835178   4.865192   1.390813   2.428307   2.488976
     8  C    4.777764   5.509965   2.414066   1.395076   3.781183
     9  C    2.386656   1.201183   2.602731   2.914459   1.554717
    10  C    3.678269   2.358005   2.922375   2.474962   2.590574
    11  C    4.225328   6.088131   2.410080   2.800670   3.770491
    12  C    5.021412   6.353426   2.780653   2.418109   4.270419
    13  H    5.184782   4.460667   3.450641   2.184997   3.985348
    14  H    2.512973   4.994787   2.134031   3.402373   2.661647
    15  H    5.728707   6.097170   3.401357   2.150261   4.655824
    16  H    4.557858   2.617183   4.010519   3.474133   3.564862
    17  H    4.897144   7.010430   3.396898   3.888926   4.642013
    18  H    6.091484   7.419235   3.869348   3.401996   5.359113
                    6          7          8          9         10
     6  C    0.000000
     7  C    3.771656   0.000000
     8  C    2.485153   2.789335   0.000000
     9  C    2.454832   3.882224   4.308821   0.000000
    10  C    1.341598   4.312722   3.726416   1.476129   0.000000
    11  C    4.268096   1.392020   2.417362   5.012369   5.130212
    12  C    3.763588   2.410502   1.392781   5.180105   4.891580
    13  H    1.091535   4.611292   2.671509   3.450317   2.111038
    14  H    4.627857   1.088878   3.877824   4.203410   4.940367
    15  H    2.691819   3.878951   1.089619   4.913115   4.031540
    16  H    2.133260   5.400935   4.617654   2.189273   1.088219
    17  H    5.356353   2.154302   3.403049   5.986409   6.197312
    18  H    4.634982   3.397374   2.151441   6.236832   5.844780
                   11         12         13         14         15
    11  C    0.000000
    12  C    1.393991   0.000000
    13  H    4.855829   4.060795   0.000000
    14  H    2.172062   3.409505   5.552629   0.000000
    15  H    3.406166   2.158779   2.415170   4.967390   0.000000
    16  H    6.193382   5.864730   2.471680   6.011376   4.739305
    17  H    1.088261   2.156136   5.925418   2.510395   4.304514
    18  H    2.154965   1.088695   4.742663   4.313722   2.482988
                   16         17         18
    16  H    0.000000
    17  H    7.267302   0.000000
    18  H    6.765531   2.483241   0.000000
 Stoichiometry    C10H6O2
 Framework group  C1[X(C10H6O2)]
 Deg. of freedom    48
 Full point group                 C1      NOp   1
 Largest Abelian subgroup         C1      NOp   1
 Largest concise Abelian subgroup C1      NOp   1
                         Standard orientation:                         
 ---------------------------------------------------------------------
 Center     Atomic      Atomic             Coordinates (Angstroms)
 Number     Number       Type             X           Y           Z
 ---------------------------------------------------------------------
      1          8           0       -1.357406   -2.095232   -0.000259
      2          8           0       -3.308798   -0.176791    0.000140
      3          6           0        0.370716   -0.477166    0.000322
      4          6           0        0.663816    0.898020    0.000176
      5          6           0       -1.046509   -0.936453    0.000795
      6          6           0       -0.417786    1.889728    0.000305
      7          6           0        1.395556   -1.417413    0.000277
      8          6           0        1.997868    1.306116    0.000053
      9          6           0       -2.154202    0.154489   -0.001728
     10          6           0       -1.719533    1.565168   -0.000166
     11          6           0        2.723451   -0.999783    0.000035
     12          6           0        3.021748    0.361918   -0.000060
     13          1           0       -0.116608    2.938890    0.000657
     14          1           0        1.127061   -2.472669    0.000433
     15          1           0        2.230741    2.370559   -0.000037
     16          1           0       -2.508238    2.314945    0.000067
     17          1           0        3.526421   -1.734323   -0.000001
     18          1           0        4.059508    0.691023   -0.000219
 ---------------------------------------------------------------------
 Rotational constants (GHZ):           1.9931824           0.8031376           0.5724666
 Standard basis: 6-311++G(d,p) (5D, 7F)
 There are   318 symmetry adapted cartesian basis functions of A   symmetry.
 There are   306 symmetry adapted basis functions of A   symmetry.
   306 basis functions,   486 primitive gaussians,   318 cartesian basis functions
    41 alpha electrons       41 beta electrons
       nuclear repulsion energy       620.4999222390 Hartrees.
 NAtoms=   18 NActive=   18 NUniq=   18 SFac= 1.00D+00 NAtFMM=   60 NAOKFM=F Big=F
 Integral buffers will be    131072 words long.
 Raffenetti 2 integral format.
 Two-electron integral symmetry is turned on.
 R6APFD:  NTU= -4 IXU= 1 FactS= 1.050
 Nuclear repulsion after empirical dispersion term =      620.4886642894 Hartrees.
 One-electron integrals computed using PRISM.
 NBasis=   306 RedAO= T EigKep=  1.38D-06  NBF=   306
 NBsUse=   304 1.00D-06 EigRej=  8.01D-07 NBFU=   304
 Initial guess from the checkpoint file:  "BENA0090.chk"
 B after Tr=     0.000000    0.000000   -0.000000
         Rot=    1.000000    0.000026    0.000018    0.000627 Ang=   0.07 deg.
 ExpMin= 3.60D-02 ExpMax= 8.59D+03 ExpMxC= 1.30D+03 IAcc=3 IRadAn=         5 AccDes= 0.00D+00
 Harris functional with IExCor= 1009 and IRadAn=       5 diagonalized for initial guess.
 HarFok:  IExCor= 1009 AccDes= 0.00D+00 IRadAn=         5 IDoV= 1 UseB2=F ITyADJ=14
 ICtDFT=  3500011 ScaDFX=  1.000000  1.000000  1.000000  1.000000
 FoFCou: FMM=F IPFlag=           0 FMFlag=      100000 FMFlg1=           0
         NFxFlg=           0 DoJE=T BraDBF=F KetDBF=T FulRan=T
         wScrn=  0.000000 ICntrl=       500 IOpCl=  0 I1Cent=   200000004 NGrid=           0
         NMat0=    1 NMatS0=      1 NMatT0=    0 NMatD0=    1 NMtDS0=    0 NMtDT0=    0
 Petite list used in FoFCou.
 Requested convergence on RMS density matrix=1.00D-08 within  32 cycles.
 Requested convergence on MAX density matrix=1.00D-06.
 Requested convergence on             energy=1.00D-06.
 No special actions if energy rises.
 SCF Done:  E(RM08HX) =  -535.080608790     A.U. after   14 cycles
            NFock= 14  Conv=0.51D-08     -V/T= 2.0043
 QCSCF skips out because SCF is already converged.
 R6APFD:  NTU= -4 IXU= 1 FactS= 1.050
 Calling FoFJK, ICntrl=      2127 FMM=F ISym2X=0 I1Cent= 0 IOpClX= 0 NMat=1 NMatS=1 NMatT=0.
 ***** Axes restored to original set *****
 -------------------------------------------------------------------
 Center     Atomic                   Forces (Hartrees/Bohr)
 Number     Number              X              Y              Z
 -------------------------------------------------------------------
      1        8           0.000104346    0.000642768    0.000152146
      2        8           0.000650846    0.000227466   -0.000208989
      3        6          -0.000222204   -0.000823466    0.000136519
      4        6           0.000814157    0.000466936    0.000002223
      5        6          -0.001203407    0.000287308   -0.000548374
      6        6           0.000274186   -0.000070211   -0.000018620
      7        6           0.000381459    0.000332408    0.000000954
      8        6           0.000068071   -0.000097532   -0.000019313
      9        6           0.000066614   -0.000996773    0.000674843
     10        6          -0.000565743   -0.000294630   -0.000210885
     11        6          -0.000114745    0.000158900   -0.000002457
     12        6          -0.000212202    0.000008211    0.000000484
     13        1           0.000288282    0.000135813    0.000042018
     14        1          -0.000245456    0.000112067    0.000002425
     15        1          -0.000151266    0.000105676    0.000001104
     16        1          -0.000072773   -0.000137832   -0.000004601
     17        1           0.000057002   -0.000094587   -0.000001976
     18        1           0.000082833    0.000037479    0.000002498
 -------------------------------------------------------------------
 Cartesian Forces:  Max     0.001203407 RMS     0.000360526

 GradGradGradGradGradGradGradGradGradGradGradGradGradGradGradGradGradGrad
 Berny optimization.
 Using GEDIIS/GDIIS optimizer.
 FormGI is forming the generalized inverse of G from B-inverse, IUseBI=4.
 Internal  Forces:  Max     0.001147996 RMS     0.000215613
 Search for a local minimum.
 Step number   3 out of a maximum of  103
 All quantities printed in internal units (Hartrees-Bohrs-Radians)
 Mixed Optimization -- En-DIIS/RFO-DIIS
 Update second derivatives using D2CorX and points    1    2    3
 DE= -2.56D-04 DEPred=-2.49D-04 R= 1.03D+00
 TightC=F SS=  1.41D+00  RLast= 4.89D-02 DXNew= 5.8481D-01 1.4674D-01
 Trust test= 1.03D+00 RLast= 4.89D-02 DXMaxT set to 3.48D-01
 ITU=  1  1  0
 Use linear search instead of GDIIS.
     Eigenvalues ---    0.00875   0.00974   0.00979   0.01612   0.01664
     Eigenvalues ---    0.01857   0.01995   0.02009   0.02108   0.02120
     Eigenvalues ---    0.02142   0.02148   0.02156   0.02167   0.02346
     Eigenvalues ---    0.15029   0.16000   0.16000   0.16000   0.16008
     Eigenvalues ---    0.16084   0.21528   0.22141   0.22686   0.22767
     Eigenvalues ---    0.24596   0.24692   0.25003   0.25745   0.27654
     Eigenvalues ---    0.34038   0.35086   0.35226   0.35244   0.35257
     Eigenvalues ---    0.35322   0.35431   0.35766   0.35798   0.40838
     Eigenvalues ---    0.41873   0.45352   0.46054   0.46427   0.46758
     Eigenvalues ---    0.57278   0.89905   0.95097
 RFO step:  Lambda=-2.42891142D-05 EMin= 8.75051410D-03
 Quartic linear search produced a step of -0.01025.
 Iteration  1 RMS(Cart)=  0.00202428 RMS(Int)=  0.00001609
 Iteration  2 RMS(Cart)=  0.00001368 RMS(Int)=  0.00001219
 Iteration  3 RMS(Cart)=  0.00000000 RMS(Int)=  0.00001219
 Variable       Old X    -DE/DX   Delta X   Delta X   Delta X     New X
                                 (Linear)    (Quad)   (Total)
    R1        2.26722   0.00065   0.00013  -0.00001   0.00012   2.26734
    R2        2.26991   0.00069   0.00010   0.00014   0.00024   2.27015
    R3        2.65710  -0.00038  -0.00002  -0.00075  -0.00077   2.65632
    R4        2.81529  -0.00035  -0.00013  -0.00030  -0.00042   2.81487
    R5        2.62826   0.00026  -0.00000   0.00052   0.00051   2.62877
    R6        2.77304   0.00009   0.00000   0.00017   0.00017   2.77321
    R7        2.63631   0.00023   0.00001   0.00039   0.00040   2.63672
    R8        2.93799   0.00115  -0.00026   0.00511   0.00486   2.94285
    R9        2.53525  -0.00069   0.00003  -0.00130  -0.00127   2.53398
   R10        2.06270  -0.00021  -0.00002  -0.00048  -0.00050   2.06220
   R11        2.63054  -0.00000   0.00000  -0.00002  -0.00001   2.63052
   R12        2.05768   0.00004  -0.00002   0.00021   0.00020   2.05788
   R13        2.63197   0.00014  -0.00000   0.00029   0.00029   2.63226
   R14        2.05908  -0.00007  -0.00000  -0.00016  -0.00016   2.05892
   R15        2.78948   0.00013  -0.00005   0.00063   0.00058   2.79006
   R16        2.05644   0.00004  -0.00001   0.00018   0.00018   2.05661
   R17        2.63426  -0.00002   0.00002  -0.00010  -0.00008   2.63418
   R18        2.05651  -0.00011  -0.00000  -0.00028  -0.00028   2.05623
   R19        2.05734  -0.00009  -0.00000  -0.00022  -0.00022   2.05711
    A1        2.09418  -0.00008  -0.00006   0.00002  -0.00004   2.09414
    A2        2.10318   0.00038   0.00002   0.00131   0.00134   2.10452
    A3        2.08582  -0.00029   0.00004  -0.00133  -0.00129   2.08453
    A4        2.10287   0.00035   0.00002   0.00113   0.00114   2.10401
    A5        2.07766  -0.00031   0.00000  -0.00121  -0.00121   2.07645
    A6        2.10266  -0.00004  -0.00002   0.00009   0.00007   2.10273
    A7        2.14631   0.00002  -0.00010   0.00037   0.00024   2.14655
    A8        2.08645   0.00018   0.00002   0.00066   0.00064   2.08709
    A9        2.05042  -0.00020   0.00008  -0.00099  -0.00094   2.04948
   A10        2.15518   0.00005  -0.00003   0.00020   0.00017   2.15535
   A11        2.03332   0.00022   0.00005   0.00124   0.00130   2.03461
   A12        2.09469  -0.00028  -0.00002  -0.00145  -0.00146   2.09323
   A13        2.09450  -0.00015  -0.00003  -0.00048  -0.00052   2.09399
   A14        2.06402   0.00035   0.00016   0.00117   0.00133   2.06536
[...]
 17,0.1565047,-0.1218951,0.0000185,-0.0001254,-0.0000263,0.0393684,1.14
 48789,0.3432745,0.0000459,0.3488689,0.8584296,-0.0000315,0.0000366,-0.
 0002515,0.2338601,0.4672617,-0.062311,0.0000151,-0.2093838,0.2888599,0
 .0000365,-0.0000454,-0.0000005,-0.1052251,-0.1478938,0.1593053,0.00001
 35,-0.0358968,0.0517414,0.0000008,-0.0000233,-0.0000079,-0.0888211,-0.
 328239,0.0348953,0.000016,0.1544311,0.1011886,-0.0000016,0.0000216,0.0
 000218,-0.1336929,1.14022,0.1855381,-0.0000623,0.7780147,0.7303206,0.0
 000028,-0.0001456,0.0000082,0.2575651,-0.452972,-0.0420028,-0.0000462,
 -0.46393,-0.2601336,0.0000501,-0.0001065,-0.0000085,-0.147544,0.076747
 6,-0.1621907,0.0000124,0.038033,-0.0779587,-0.0000162,0.0000207,-0.000
 0074,-0.1290812,0.2122417,0.0221747,0.0000067,-0.0959287,0.0038618,0.0
 000017,-0.0000048,-0.0000058,-0.1144646,0.0448755,-0.0601854,0.0000043
 ,0.0054166,-0.0525139,-0.0000132,-0.0000121,-0.0000145,0.1226258,0.092
 0439,-0.0275588,-0.0000045,0.0043273,0.0219105,-0.0000047,-0.00002,-0.
 0000061,0.133219,0.0762314,-0.0006781,-0.0000011,-0.0249134,-0.0637465
 ,-0.0000009,0.0000142,-0.000016,0.1401064,0.0188484,0.0530002,0.000015
 5,0.0127526,0.0018809,-0.0000091,0.0000399,-0.0000357,0.1480473,-0.004
 5129,0.0611632,-0.0000052,0.0695956,0.0172633,0.0000051,0.0000061,0.00
 00033,0.1428096,-0.0578337,-0.03408,-0.0000032,-0.0412154,0.0670697,-0
 .0000012,-0.0000119,0.0000003,0.1376826\Polar=172.1799902,0.5392506,12
 3.0413877,-0.0057131,-0.0031209,59.8630779\Quadrupole=-2.6486764,3.600
 8138,-0.9521374,-5.2161175,0.0029351,0.0015846\PG=C01 [X(C10H6O2)]\NIm
 ag=0\\0.15127036,0.21452947,0.80582401,-0.00009903,-0.00034967,0.02221
 347,0.00682342,-0.00082315,-0.00000765,0.79863818,0.00450948,0.0068607
 4,-0.00000783,0.22438482,0.15045665,-0.00000763,-0.00000661,-0.0023383
 2,-0.00037337,-0.00010554,0.02154937,-0.01583951,-0.04577137,0.0000128
 8,-0.00520833,0.00404603,0.00000535,0.65259762,-0.05461192,-0.03039189
 ,0.00001674,0.01001181,-0.00571425,-0.00000933,-0.03505582,0.70729769,
 0.00001530,0.00001717,0.01786563,-0.00000681,0.00000090,-0.00218468,0.
 00003121,-0.00002291,0.12987226,-0.00901813,-0.00395118,0.00000265,-0.
 00150925,-0.00018014,0.00000081,-0.13474925,-0.01298518,-0.00001254,0.
 69766723,0.00379328,0.00673210,-0.00000350,0.00295637,-0.00034739,-0.0
 0000186,-0.06756432,-0.29574078,-0.00000221,0.01086104,0.66943310,0.00
 000086,-0.00000059,0.00246636,0.00000140,0.00000042,0.00038643,-0.0000
 0735,-0.00000264,-0.05992263,0.00000624,0.00001360,0.14714048,-0.14353
 885,-0.16612708,0.00007781,-0.03493036,0.00789320,0.00002197,-0.205274
 87,-0.01180261,-0.00002425,0.00324112,-0.01417857,0.00000219,0.5077718
 3,-0.17466774,-0.74169664,0.00031673,-0.01134936,0.01711372,0.00002337
 ,0.00597019,-0.10581737,0.00000265,-0.03171253,-0.00931731,-0.00000173
 ,0.15495542,0.95624841,0.00008796,0.00031347,-0.05684869,0.00003796,0.
 00000150,0.01983866,-0.00001876,-0.00000631,-0.06914970,0.00000108,0.0
 0000390,-0.00099523,-0.00007247,-0.00029699,0.17401628,-0.00278576,0.0
 0098467,-0.00000107,0.01390484,0.00574798,-0.00000524,0.00543391,0.014
 63272,-0.00000097,-0.17540271,0.06534746,0.00000029,0.00515241,-0.0008
 4341,0.00000021,0.79867174,0.00191500,0.00083012,-0.00000016,-0.006331
 82,-0.01245005,0.00000173,0.03184493,-0.02967371,0.00000078,0.08280892
 ,-0.18621849,-0.00000911,-0.00255452,-0.00058960,0.00000087,0.09233429
 ,0.66002042,0.00000075,0.00000168,0.00041895,-0.00000223,-0.00000214,0
 .00225375,0.00000406,-0.00000002,-0.00196029,0.00000758,-0.00001438,-0
 .05754919,-0.00000122,-0.00000009,-0.00220643,-0.00002909,0.00004114,0
 .13302532,0.00103742,0.00968878,-0.00000373,-0.00372357,0.00016559,0.0
 0000208,-0.22913413,0.07615980,-0.00000971,0.05623993,0.06711952,0.000
 00071,-0.04085707,0.01014899,0.00000157,0.00902411,-0.00758184,-0.0000
 0073,0.68885761,-0.00202671,-0.00738146,0.00000274,-0.00232453,0.00165
 084,0.00000226,0.13721434,-0.23523624,0.00001157,0.01232140,-0.0460454
 1,0.00000080,0.00126385,0.02371361,-0.00000351,-0.00701826,-0.00390324
 ,0.00000018,0.02527815,0.73992728,0.00000178,0.00000043,-0.00040237,-0
 .00000114,-0.00000033,0.00013031,-0.00001102,0.00000935,-0.06122372,0.
 00000102,0.00000380,0.00372453,-0.00000454,0.00000059,0.00303413,0.000
 00245,-0.00000099,0.00744665,0.00002549,-0.00000771,0.14008825,-0.0021
 4905,-0.00187924,0.,0.00062192,0.00015795,-0.00000074,0.00602676,-0.08
 434641,0.00000449,-0.30918945,-0.02946127,-0.00000878,0.00494853,0.000
 09662,-0.00000015,-0.03800109,0.00017890,0.00000018,-0.07419343,0.0179
 8903,-0.00000312,0.67452021,-0.00250597,-0.00027364,0.00000132,0.00024
 096,0.00090737,0.00000012,-0.03563393,0.00146060,-0.00000438,-0.099618
 95,-0.14977199,-0.00000184,0.00109647,-0.00598717,-0.00000064,0.024675
 75,0.01195708,0.00000130,0.01636592,-0.00451855,0.00000075,0.00810385,
 0.74274491,-0.00000142,-0.00000138,-0.00142541,0.00000052,-0.00000014,
 0.00030372,-0.00000106,-0.00000305,0.00589316,-0.00000590,0.00000081,-
 0.06366836,0.00000095,-0.00000018,0.00800681,0.00000083,-0.00000024,0.
 00285020,-0.00000304,0.00000115,-0.00365572,0.00001565,0.00000306,0.13
 579938,0.01678227,-0.01193248,0.00002528,-0.72883952,-0.18183217,0.000
 33692,-0.01007359,0.01235499,0.00001225,0.00229350,-0.00194143,0.00000
 025,-0.11163653,0.02285224,-0.00005415,-0.02205186,-0.03389502,-0.0000
 0285,-0.00131822,-0.00150662,0.00000005,-0.00055044,-0.00049598,-0.000
 00102,0.93867292,0.00792349,-0.03327926,0.00001816,-0.17280175,-0.1496
 7508,0.00008475,-0.01203813,0.01972730,-0.00000813,0.00393342,-0.00107
 421,0.00000008,0.03967453,-0.11336621,-0.00000103,-0.02852436,0.010270
 35,0.00000514,-0.00145056,-0.00434079,0.00000068,-0.00157642,-0.002182
 98,-0.00000006,0.16791118,0.52643852,0.00000056,0.00003514,0.02107708,
 0.00033340,0.00009197,-0.05604071,-0.00001096,0.00001564,0.01804270,0.
 00000038,0.00000237,-0.00560213,0.00000464,-0.00005281,-0.09423479,0.0
 0000647,0.00000568,0.00038960,-0.00000433,-0.00000287,0.00147060,0.000
 00044,-0.00000011,-0.00174314,-0.00032323,-0.00005327,0.17083501,-0.00
 274303,0.01081022,-0.00000929,-0.04433420,-0.06541244,0.00001889,0.002
 46498,-0.00844061,-0.00000310,-0.03971122,0.00870070,0.00000404,0.0118
 6025,0.01444298,0.00001897,-0.49340661,-0.10413820,0.00002429,-0.00380
 794,0.00096366,-0.00000012,0.00549382,0.00384009,0.00000118,-0.0885960
 4,0.00560458,-0.00000685,0.85749928,0.00499046,-0.00505237,0.00000454,
 -0.04277910,-0.01384954,0.00001030,0.00467622,-0.00406149,0.00000279,0
 .02340102,0.01734726,0.00000428,-0.01276371,-0.01276074,-0.00001054,-0
 .08083015,-0.15082943,-0.00000878,-0.00463225,0.00249556,-0.00000199,0
 .00238069,-0.00375268,-0.00000063,0.00154963,-0.23341073,-0.00003479,-
 0.01284246,0.60069639,0.00000075,-0.00000816,-0.00264194,0.00002083,0.
 00002228,0.02080406,0.00000275,-0.00000259,0.00010149,0.00000556,0.000
 00070,0.00105793,-0.00000634,0.00000787,0.01744776,0.00003063,-0.00001
 259,-0.04779934,0.00000067,0.00000095,-0.00044849,-0.00000008,-0.00000
 061,0.00299285,0.00000221,-0.00004110,-0.07017591,-0.00008873,0.000068
 64,0.10309547,0.00175460,-0.00258987,0.00000122,-0.00037175,0.00035858
 ,0.00000054,-0.05461077,0.05248473,-0.00000476,-0.03558755,-0.04239938
 ,-0.00000059,0.00203457,0.00927811,-0.00000214,-0.00489084,0.00049859,
 0.00000026,-0.32665057,-0.09859562,-0.00000706,0.06477293,0.00917740,0
 .00000256,-0.00003918,-0.00075628,0.00000038,0.00086459,0.00241892,0.0
 0000003,0.71242210,-0.00209956,-0.00059344,-0.00000021,0.00143866,0.00
 082670,-0.00000055,-0.00279137,0.06332239,-0.00000226,-0.04022990,-0.0
 4286978,-0.00000087,0.00868701,-0.00178709,0.00000133,-0.00226502,0.00
 082505,0.00000009,-0.02024863,-0.15125417,0.00000069,0.06616067,-0.047
 56165,0.00000347,0.00069620,-0.00132914,0.00000131,0.00033364,0.002589
 42,-0.00000002,-0.04332011,0.69923642,-0.00000020,-0.00000096,-0.00062
 260,0.00000065,-0.00000030,0.00029513,-0.00000453,0.00000365,0.0064509
 4,-0.00000019,-0.00000155,-0.00465882,0.00000061,0.00000008,0.00724475
 ,-0.00000022,-0.00000006,-0.00142523,-0.00000718,-0.00000356,-0.062714
 74,0.00000182,0.00000164,0.00564348,-0.00000114,0.00000101,-0.00126835
 ,0.00000034,-0.00000008,0.00034359,0.00001922,-0.00001423,0.13507876,-
 0.00063936,0.00029811,-0.00000064,0.00007958,0.00063547,0.00000032,-0.
 01008890,0.02109198,-0.00000087,-0.05208895,0.00175268,-0.00000190,0.0
 0231594,0.00063435,0.00000141,-0.00386716,-0.00383382,-0.00000076,0.01
 447793,-0.04018847,0.00000093,-0.24514504,0.14292275,-0.00000714,0.000
 20991,-0.00137955,-0.00000041,-0.00086465,0.00271907,0.00000039,-0.143
 21011,-0.08246232,-0.00000081,0.74016466,-0.00167799,0.00035964,-0.000
 00060,0.00009451,0.00008459,-0.00000038,0.02036028,-0.06796379,0.00000
 386,0.05931677,0.06491366,0.00000088,0.00046594,-0.00384657,0.00000090
 ,-0.00441651,0.00075522,-0.00000016,-0.09559794,0.00350810,-0.00000381
 ,0.06495781,-0.22895194,0.00000188,-0.00022276,-0.00090968,-0.00000042
 ,0.00186546,-0.00048788,0.00000021,-0.00191613,-0.32836144,0.00000789,
 0.02202976,0.67300563,-0.00000003,0.00000033,0.00005604,-0.00000016,0.
 00000017,0.00004986,-0.00000026,0.00000135,-0.00450869,-0.00000255,0.0
 0000055,0.00508185,-0.00000022,-0.00000026,-0.00129166,0.00000101,-0.0
 0000120,0.00827127,0.00000160,-0.00000126,0.00486007,-0.00000832,0.000
 00659,-0.06314747,0.00000027,-0.00000007,0.00029991,-0.00000056,-0.000
 00032,-0.00037533,-0.00000215,0.00000476,-0.06242466,0.00002076,-0.000
 00964,0.13943289,0.00040417,-0.00026963,0.00000019,-0.00161190,-0.0024
 9209,0.00000081,-0.00373233,0.00212601,0.00000074,0.00784687,0.0221531
 7,0.00000170,-0.00092777,0.00001918,-0.00000039,-0.07725789,-0.0719459
 4,-0.00000378,0.00093378,0.00106038,-0.00000012,0.00166901,0.00139297,
 0.00000007,-0.00398688,0.00255952,0.00000147,-0.00401580,-0.03206696,-
 0.00000603,-0.00005727,-0.00020774,0.00000004,-0.00009800,-0.00013794,
 0.00000006,0.08160604,-0.00032176,-0.00029321,0.00000004,-0.00060271,-
 0.00043705,0.00000060,0.00377393,-0.00075666,-0.00000078,-0.00803700,-
 0.01727456,-0.00000194,0.00073348,0.00078492,0.00000030,-0.07300908,-0
 .31193796,-0.00002483,-0.00092848,-0.00091867,0.00000017,-0.00172912,0
 .00082855,0.00000019,0.00008684,0.00166943,-0.00000102,0.00025453,-0.0
 0271812,-0.00000151,0.00011412,0.00029078,-0.00000004,0.00036016,0.000
 01981,0.00000022,0.07802173,0.32963806,0.00000003,0.00000066,0.0005464
 6,-0.00000235,-0.00000134,-0.00282295,-0.00000029,0.00000022,0.0038874
 9,-0.00000238,-0.00000172,0.00348887,0.00000025,-0.00000102,-0.0028886
 2,-0.00000428,-0.00002539,-0.04269498,-0.00000055,-0.00000014,-0.00040
 889,-0.00000002,0.00000039,-0.00103004,0.00000153,-0.00000029,0.013239
 48,0.00000264,-0.00000097,0.00978602,0.00000015,0.00000018,0.00013310,
 0.00000006,-0.00000006,-0.00014544,0.00000593,0.00002803,0.02582987,-0
 .00110390,-0.00118338,0.00000008,0.00024390,-0.00036311,-0.00000016,0.
 01138007,0.02165553,0.00000058,-0.00364183,0.00315385,-0.00000023,0.00
 035674,0.00126202,-0.00000014,0.00094951,0.00108914,-0.00000012,-0.075
 01333,-0.06591925,-0.00000288,-0.00140487,0.00058047,-0.00000015,-0.00
 008904,0.00065110,0.00000030,-0.00000496,-0.00043146,-0.00000006,-0.00
 068273,-0.02818803,0.00000006,-0.00530229,-0.00137317,-0.00000042,-0.0
 0028376,0.00028692,0.00000001,0.07405911,-0.00112635,0.00193996,-0.000
 00083,0.00010023,0.00017704,-0.00000014,-0.00547908,-0.01710794,0.0000
 0043,0.00348761,-0.00048363,0.00000037,-0.00156468,-0.00239285,0.00000
 055,-0.00057551,-0.00075300,0.,-0.06508619,-0.32296917,-0.00000161,0.0
 0022682,0.00073087,-0.00000009,-0.00002201,-0.00027083,0.00000034,-0.0
 0001291,0.00002990,-0.00000006,0.00120587,-0.00198120,0.00000027,-0.00
 105725,0.00125322,0.00000007,0.00022435,-0.00017962,-0.00000006,0.0698
 5482,0.34171490,0.00000032,0.00000002,-0.00002661,-0.00000027,0.000000
 09,-0.00012652,-0.00000045,-0.00000038,0.00399878,-0.00000032,0.000001
 04,0.00765329,0.00000061,0.00000115,-0.00420927,-0.00000001,0.00000028
 ,0.00027477,-0.00000306,-0.00000133,-0.04118812,-0.00000087,-0.0000001
 8,-0.00127349,0.00000035,-0.00000034,0.00043442,0.00000005,0.00000015,
 0.00004007,0.00000085,-0.00000051,0.00474861,-0.00000019,-0.00000081,0
 .00752572,-0.00000007,0.00000007,-0.00031302,0.00000284,0.00000084,0.0
 2762526,-0.00094580,-0.00051560,0.00000035,-0.00000622,0.00031662,0.00
 000003,-0.00582666,-0.00076747,-0.00000106,-0.00188985,-0.02907856,-0.
 00000040,0.00122567,-0.00116127,-0.00000015,0.00112317,-0.00215946,0.0
 0000003,-0.00129404,0.00049274,-0.00000004,-0.07177731,-0.05953222,-0.
 00000129,0.00017641,-0.00063966,-0.00000001,0.00011250,0.00075663,0.00
 000013,-0.00314942,0.00333673,-0.00000034,0.00961673,0.02322390,0.0000
 0039,-0.00085092,0.00115988,0.00000010,0.00007238,-0.00005743,0.000000
 02,0.07257847,-0.00040122,-0.00026655,0.00000010,-0.00010301,0.0001655
 8,0.00000009,-0.00186228,0.00168674,-0.00000038,0.00045146,-0.00642891
 ,-0.00000002,0.00085069,-0.00013740,0.00000004,0.00146745,0.00073598,-
 0.00000008,0.00049778,0.00062667,-0.00000002,-0.06010889,-0.32182498,-
 0.00000566,0.00012571,-0.00034369,-0.00000010,-0.00012563,0.00049584,0
 .00000015,0.00391136,-0.00079401,0.00000005,-0.00772017,-0.01505047,-0
 .00000034,-0.00063833,0.00037932,0.00000008,-0.00003229,-0.00007319,0.
 ,0.06377973,0.34112542,-0.00000005,-0.00000007,-0.00038034,-0.00000003
 ,-0.00000002,-0.00002135,0.00000010,0.00000036,0.00725286,-0.00000051,
 -0.00000173,0.00293460,-0.00000025,0.00000019,0.00060864,-0.00000051,0
 .00000064,-0.00420230,0.00000051,-0.00000019,-0.00133686,-0.00000050,-
 0.00000666,-0.03723287,-0.00000007,-0.00000005,0.00008812,0.00000017,0
 .00000009,0.00018788,-0.00000091,-0.00000018,0.00731560,-0.00000036,0.
 00000186,0.00368366,-0.00000004,-0.00000015,0.00026672,0.00000008,0.,-
 0.00082987,0.00000220,0.00000599,0.02545857,0.00078403,-0.00070762,0.0
 0000066,0.00083285,0.00193830,-0.00000098,0.00048922,-0.00012423,0.000
 00009,-0.00294078,-0.00388570,0.00000175,-0.00146830,-0.00198849,-0.00
 000052,-0.01592539,0.02246128,0.00000373,-0.00000935,0.00018430,-0.000
 00018,-0.00055074,0.00130747,-0.00000002,0.00888085,-0.00861076,-0.000
 00179,-0.20057856,0.14311009,0.00003713,0.00011379,-0.00000058,0.00000
 004,-0.00040610,-0.00034292,-0.00000017,0.00038023,-0.00024344,-0.0000
 0084,-0.00004599,0.00002294,0.,-0.00000743,-0.00005963,0.00000004,0.21
 055112,0.00176073,-0.00349039,0.00000243,-0.00202046,0.00409649,0.0000
 0111,0.00007302,-0.00026655,0.00000076,-0.00226986,0.00011344,-0.00000
 182,-0.00607175,-0.00059621,-0.00000375,-0.00871545,0.01029623,0.00000
 082,-0.00003943,0.00019224,0.00000023,-0.00002115,0.00054958,-0.000000
 09,0.02644593,-0.01762175,-0.00000687,0.14391621,-0.19646424,-0.000034
 15,-0.00001800,0.00013586,-0.00000013,-0.00004062,0.00004069,0.0000002
 0,0.00026944,0.00087301,0.00000144,-0.00011161,0.00003284,0.00000004,0
 .00003322,-0.00001439,-0.00000003,-0.15317493,0.20208217,-0.00000009,-
 0.00000150,-0.00023452,-0.00000079,0.00000015,-0.00187264,-0.00000136,
 0.00000028,-0.00084129,-0.00000045,0.00000070,0.01181836,0.00000002,0.
 00000020,0.00260083,0.00000005,-0.00000158,0.00411865,0.00000088,-0.00
 000040,-0.00075065,0.00000059,-0.00000034,-0.00011359,0.00000317,-0.00
 000509,0.00294497,0.00003816,-0.00003321,-0.03411268,-0.00000063,-0.00
 000040,0.00008733,-0.00000006,0.00000065,-0.00087723,-0.00000055,0.000
 00073,-0.00695624,-0.00000002,0.,-0.00001541,0.00000001,0.,0.00017507,
 -0.00003896,0.00003984,0.02383079,-0.00009285,-0.00053506,0.00000023,-
 0.00045154,0.00025303,0.00000035,-0.00477515,-0.00299763,-0.00000058,-
 0.00023507,-0.00123909,0.00000003,-0.00005473,0.00209420,-0.00000027,-
 0.00004108,0.00018002,0.00000006,-0.01607574,0.02197620,-0.00000119,0.
 00106296,-0.00212091,-0.00000003,-0.00000256,-0.00079162,-0.00000044,0
 .00009847,0.00011378,0.00000009,-0.21064975,0.14014847,-0.00000781,0.0
 0889828,-0.00683225,0.00000032,-0.00002379,0.00005188,0.,0.00069168,-0
 .00029754,0.00000018,0.00028963,-0.00041509,0.,-0.00000315,0.00003951,
 0.,0.22082066,0.00013765,-0.00004450,0.00000003,-0.00006406,0.00005977
 ,0.00000008,-0.00253658,0.00060036,0.00000009,-0.00120102,-0.00051771,
 -0.00000007,-0.00045261,0.00058123,-0.00000013,0.00004025,0.00003186,-
 0.00000002,-0.00877122,0.01038772,-0.00000050,-0.00244355,-0.00502861,
 0.00000020,-0.00011229,-0.00013510,-0.00000011,0.00003657,0.00005891,0
 .00000002,0.13999855,-0.18782210,0.00000725,0.02417993,-0.01441529,0.0
 0000119,-0.00006333,0.00005214,0.,0.00043234,0.00049241,-0.00000003,0.
 00116987,-0.00083009,0.00000003,0.00001489,0.00000319,-0.00000001,-0.1
 5000727,0.19595421,0.00000007,0.,0.00009374,0.00000014,0.00000013,-0.0
 0015246,-0.00000040,-0.00000006,0.00755834,0.00000019,-0.00000039,-0.0
 0114495,0.00000015,0.00000011,0.00023395,-0.00000049,0.00000024,-0.001
 23538,-0.00000051,0.00000056,0.00375413,0.00000010,0.00000029,0.007674
 31,0.00000004,-0.00000032,-0.00001790,0.00000004,0.00000038,-0.0000493
 4,-0.00000797,0.00000673,-0.03876304,-0.00000067,0.00000051,0.00375864
 ,-0.00000002,-0.00000005,0.00007703,0.00000017,-0.00000010,-0.00403700
 ,-0.00000008,0.00000003,0.00001274,0.00000003,-0.00000004,0.00019144,0
 .00000898,-0.00000793,0.02603498,-0.00000002,-0.00002561,0.00000008,-0
 .00015802,-0.00012710,0.00000005,0.00092093,0.00061432,0.,-0.00132461,
 0.00391026,-0.00000020,-0.00021858,-0.00003148,-0.00000002,-0.00062930
 ,-0.00087046,-0.00000015,0.00150663,-0.00116458,-0.00000030,-0.0161547
 1,-0.00979613,-0.00000070,0.00016801,0.00031128,-0.00000003,-0.0003308
 6,0.00022956,0.00000006,-0.00206265,0.00101188,-0.00000038,-0.31405246
 ,-0.07979680,-0.00000957,0.00000621,0.00002811,0.,-0.00018069,0.000156
 32,0.00000002,0.00055270,0.00038237,0.00000014,-0.00009630,-0.00005480
 ,0.00000002,0.00054373,-0.00035812,0.00000023,0.33150999,-0.00012033,0
 .00021677,-0.00000004,-0.00002738,0.00007385,0.00000002,0.00077394,-0.
 00136442,0.00000007,0.00360414,-0.00244940,0.00000019,-0.00010506,-0.0
 0014674,0.00000003,0.00096717,0.00063317,0.00000012,-0.00108800,-0.005
 93434,0.00000027,0.02131373,0.01067522,0.00000074,-0.00006196,-0.00016
 616,-0.00000006,0.00020362,-0.00032608,-0.00000004,-0.02985083,-0.0028
 7260,-0.00000092,-0.07994205,-0.08395351,-0.00000233,-0.00000479,-0.00
 002018,0.,-0.00136389,-0.00015973,-0.00000009,-0.00035767,0.00054811,-
 0.00000006,0.00009901,0.00003777,-0.00000001,0.00037936,0.00057160,-0.
 00000008,0.08558100,0.08463665,0.00000009,0.00000005,0.00018306,-0.000
 00009,0.00000002,-0.00005165,0.00000009,-0.00000031,-0.00113266,-0.000
 00066,-0.00000012,0.00778863,0.00000007,0.00000014,-0.00120739,-0.0000
 0007,-0.00000004,0.00002397,-0.00000067,0.00000075,0.00762090,-0.00000
 070,-0.00000071,0.00412618,0.00000014,-0.00000006,0.00026105,-0.000000
 15,0.00000016,-0.00025407,0.00000099,0.00000067,0.00453615,-0.00001007
 ,-0.00000275,-0.04024942,0.,0.,0.00000514,0.00000007,0.,-0.00028162,0.
 00000011,0.00000009,-0.00398089,0.,0.00000002,0.00000681,0.00000009,-0
 .00000009,-0.00398925,0.00001078,0.00000221,0.02659507\\0.00003401,0.0
 0009551,-0.00002600,0.00006977,0.00001257,-0.00002527,-0.00000674,-0.0
 0001069,-0.00002235,0.00001159,0.00001372,-0.00000293,-0.00001498,-0.0
 0011754,0.00005031,-0.00005392,-0.00000288,0.00000177,0.00003793,0.000
 01673,-0.00000371,0.00000966,-0.00000927,0.00000276,-0.00009351,0.0000
 2382,0.00004899,0.00005633,0.00001939,-0.00002688,-0.00000826,-0.00000
 875,0.00000037,-0.00000220,-0.00001424,0.00000053,0.00000027,0.0000027
 5,0.00000244,-0.00002132,-0.00001612,0.00000062,-0.00001186,-0.0000031
 7,-0.00000029,-0.00000070,0.00001531,-0.00000040,-0.00000695,-0.000003
 72,0.00000075,0.00000089,-0.00001344,-0.00000072\\\@


 THERE'S SMALL CHOICE IN A BOWL OF ROTTEN APPLES.
                     SHAKESPEARE
 Job cpu time:       0 days  2 hours 42 minutes 53.3 seconds.
 Elapsed time:       0 days  0 hours 10 minutes 14.0 seconds.
 File lengths (MBytes):  RWF=    163 Int=      0 D2E=      0 Chk=      9 Scr=      1
 Normal termination of Gaussian 16 at Thu Sep 18 11:16:11 2025.
