 Entering Gaussian System, Link 0=g16
 Input=BLBE0004.gjf
 Output=BLBE0004.log
 Initial command:
 /usr/local/g16/l1.exe "/dados_01/scratch/Gau-2344903.inp" -scrdir="/dados_01/scratch/"
 Entering Link 1 = /usr/local/g16/l1.exe PID=   2344904.
  
 Copyright (c) 1988-2017, Gaussian, Inc.  All Rights Reserved.
  
 This is part of the Gaussian(R) 16 program.  It is based on
 the Gaussian(R) 09 system (copyright 2009, Gaussian, Inc.),
 the Gaussian(R) 03 system (copyright 2003, Gaussian, Inc.),
 the Gaussian(R) 98 system (copyright 1998, Gaussian, Inc.),
 the Gaussian(R) 94 system (copyright 1995, Gaussian, Inc.),
 the Gaussian 92(TM) system (copyright 1992, Gaussian, Inc.),
 the Gaussian 90(TM) system (copyright 1990, Gaussian, Inc.),
 the Gaussian 88(TM) system (copyright 1988, Gaussian, Inc.),
 the Gaussian 86(TM) system (copyright 1986, Carnegie Mellon
 University), and the Gaussian 82(TM) system (copyright 1983,
 Carnegie Mellon University). Gaussian is a federally registered
 trademark of Gaussian, Inc.
  
 This software contains proprietary and confidential information,
 including trade secrets, belonging to Gaussian, Inc.
  
 This software is provided under written license and may be
 used, copied, transmitted, or stored only in accord with that
 written license.
  
 The following legend is applicable only to US Government
 contracts under FAR:
  
                    RESTRICTED RIGHTS LEGEND
  
 Use, reproduction and disclosure by the US Government is
 subject to restrictions as set forth in subparagraphs (a)
 and (c) of the Commercial Computer Software - Restricted
 Rights clause in FAR 52.227-19.
  
 Gaussian, Inc.
 340 Quinnipiac St., Bldg. 40, Wallingford CT 06492
  
  
 ---------------------------------------------------------------
 Warning -- This program may not be used in any manner that
 competes with the business of Gaussian, Inc. or will provide
 assistance to any competitor of Gaussian, Inc.  The licensee
 of this program is prohibited from giving any competitor of
 Gaussian, Inc. access to this program.  By using this program,
 the user acknowledges that Gaussian, Inc. is engaged in the
 business of creating and licensing software in the field of
 computational chemistry and represents and warrants to the
 licensee that it is not a competitor of Gaussian, Inc. and that
 it will not use this program in any manner prohibited above.
 ---------------------------------------------------------------
  

 Cite this work as:
 Gaussian 16, Revision B.01,
 M. J. Frisch, G. W. Trucks, H. B. Schlegel, G. E. Scuseria, 
 M. A. Robb, J. R. Cheeseman, G. Scalmani, V. Barone, 
 G. A. Petersson, H. Nakatsuji, X. Li, M. Caricato, A. V. Marenich, 
 J. Bloino, B. G. Janesko, R. Gomperts, B. Mennucci, H. P. Hratchian, 
 J. V. Ortiz, A. F. Izmaylov, J. L. Sonnenberg, D. Williams-Young, 
 F. Ding, F. Lipparini, F. Egidi, J. Goings, B. Peng, A. Petrone, 
 T. Henderson, D. Ranasinghe, V. G. Zakrzewski, J. Gao, N. Rega, 
 G. Zheng, W. Liang, M. Hada, M. Ehara, K. Toyota, R. Fukuda, 
 J. Hasegawa, M. Ishida, T. Nakajima, Y. Honda, O. Kitao, H. Nakai, 
 T. Vreven, K. Throssell, J. A. Montgomery, Jr., J. E. Peralta, 
 F. Ogliaro, M. J. Bearpark, J. J. Heyd, E. N. Brothers, K. N. Kudin, 
 V. N. Staroverov, T. A. Keith, R. Kobayashi, J. Normand, 
 K. Raghavachari, A. P. Rendell, J. C. Burant, S. S. Iyengar, 
 J. Tomasi, M. Cossi, J. M. Millam, M. Klene, C. Adamo, R. Cammi, 
 J. W. Ochterski, R. L. Martin, K. Morokuma, O. Farkas, 
 J. B. Foresman, and D. J. Fox, Gaussian, Inc., Wallingford CT, 2016.
 
 ******************************************
 Gaussian 16:  ES64L-G16RevB.01 20-Dec-2017
                30-Sep-2025 
 ******************************************
 %nprocs=16
 Will use up to   16 processors via shared memory.
 %mem=40GB
 %chk=BLBE0004.chk
 ----------------------------------------------------------------------
 # opt freq=noraman M08HX/6-311++G** scf=xqc Empiricaldispersion=pfd In
 t(Grid=ultraFine)
 ----------------------------------------------------------------------
 1/18=20,19=15,26=4,38=1/1,3;
 2/9=110,12=2,17=6,18=5,40=1/2;
 3/5=4,6=6,7=1111,11=2,25=1,30=1,71=1,74=-74,75=-5,124=11/1,2,3;
 4//1;
 5/5=2,8=3,13=1,38=5/2,8;
 6/7=2,8=2,9=2,10=2,28=1/1;
 7//1,2,3,16;
 1/18=20,19=15,26=4/3(2);
 2/9=110/2;
 99//99;
 2/9=110/2;
 3/5=4,6=6,7=1111,11=2,25=1,30=1,71=1,74=-74,75=-5,124=11/1,2,3;
 4/5=5,16=3,69=1/1;
 5/5=2,8=3,13=1,38=5/2,8;
 7//1,2,3,16;
 1/18=20,19=15,26=4/3(-5);
 2/9=110/2;
 6/7=2,8=2,9=2,10=2,19=2,28=1/1;
 99/9=1/99;
 --------
 BLBE0004
 --------
 Symbolic Z-matrix:
 Charge =  0 Multiplicity = 1
 C                     1.0162   -0.0194    0.6396 
 C                    -0.4408   -0.0075    0.3199 
 C                     1.9304   -0.0258   -0.5979 
 C                    -1.1124    1.206     0.1715 
 C                    -1.1317   -1.2099    0.1695 
 C                    -2.4748    1.2171   -0.1272 
 C                    -2.494    -1.1989   -0.1294 
 C                    -3.1657    0.0146   -0.2779 
 C                     3.3547    0.0005   -0.2319 
 C                     4.518     0.0233    0.0639 
 H                     1.245    -0.8908    1.2689 
 H                     1.2564    0.8491    1.2689 
 H                     1.7028    0.8411   -1.2302 
 H                     1.7252   -0.9165   -1.2042 
 H                    -0.5851    2.1497    0.2842 
 H                    -0.6194   -2.1619    0.2807 
 H                    -2.9977    2.1619   -0.2433 
 H                    -3.0319   -2.1351   -0.2472 
 H                    -4.2265    0.0233   -0.5109 
 H                     5.5499    0.0434    0.3265 
 

 GradGradGradGradGradGradGradGradGradGradGradGradGradGradGradGradGradGrad
 Berny optimization.
 Initialization pass.
                           ----------------------------
                           !    Initial Parameters    !
                           ! (Angstroms and Degrees)  !
 --------------------------                            --------------------------
 ! Name  Definition              Value          Derivative Info.                !
 --------------------------------------------------------------------------------
 ! R1    R(1,2)                  1.4917         estimate D2E/DX2                !
 ! R2    R(1,3)                  1.5386         estimate D2E/DX2                !
 ! R3    R(1,11)                 1.099          estimate D2E/DX2                !
 ! R4    R(1,12)                 1.0991         estimate D2E/DX2                !
 ! R5    R(2,4)                  1.3949         estimate D2E/DX2                !
 ! R6    R(2,5)                  1.3949         estimate D2E/DX2                !
 ! R7    R(3,9)                  1.4708         estimate D2E/DX2                !
 ! R8    R(3,13)                 1.0969         estimate D2E/DX2                !
 ! R9    R(3,14)                 1.0968         estimate D2E/DX2                !
 ! R10   R(4,6)                  1.3948         estimate D2E/DX2                !
 ! R11   R(4,15)                 1.0869         estimate D2E/DX2                !
 ! R12   R(5,7)                  1.3947         estimate D2E/DX2                !
 ! R13   R(5,16)                 1.0868         estimate D2E/DX2                !
 ! R14   R(6,8)                  1.395          estimate D2E/DX2                !
 ! R15   R(6,17)                 1.0861         estimate D2E/DX2                !
 ! R16   R(7,8)                  1.3949         estimate D2E/DX2                !
 ! R17   R(7,18)                 1.0861         estimate D2E/DX2                !
 ! R18   R(8,19)                 1.0861         estimate D2E/DX2                !
 ! R19   R(9,10)                 1.2005         estimate D2E/DX2                !
 ! R20   R(10,20)                1.065          estimate D2E/DX2                !
 ! A1    A(2,1,3)              114.0802         estimate D2E/DX2                !
 ! A2    A(2,1,11)             109.4148         estimate D2E/DX2                !
 ! A3    A(2,1,12)             109.2606         estimate D2E/DX2                !
 ! A4    A(3,1,11)             109.4857         estimate D2E/DX2                !
 ! A5    A(3,1,12)             109.5089         estimate D2E/DX2                !
 ! A6    A(11,1,12)            104.6672         estimate D2E/DX2                !
 ! A7    A(1,2,4)              120.0012         estimate D2E/DX2                !
 ! A8    A(1,2,5)              120.0009         estimate D2E/DX2                !
 ! A9    A(4,2,5)              119.9979         estimate D2E/DX2                !
 ! A10   A(1,3,9)              112.0351         estimate D2E/DX2                !
 ! A11   A(1,3,13)             109.6987         estimate D2E/DX2                !
 ! A12   A(1,3,14)             109.6831         estimate D2E/DX2                !
 ! A13   A(9,3,13)             109.2842         estimate D2E/DX2                !
 ! A14   A(9,3,14)             109.4656         estimate D2E/DX2                !
 ! A15   A(13,3,14)            106.5192         estimate D2E/DX2                !
 ! A16   A(2,4,6)              120.0001         estimate D2E/DX2                !
 ! A17   A(2,4,15)             120.7136         estimate D2E/DX2                !
 ! A18   A(6,4,15)             119.2863         estimate D2E/DX2                !
 ! A19   A(2,5,7)              120.0061         estimate D2E/DX2                !
 ! A20   A(2,5,16)             120.7021         estimate D2E/DX2                !
 ! A21   A(7,5,16)             119.2917         estimate D2E/DX2                !
 ! A22   A(4,6,8)              120.0022         estimate D2E/DX2                !
 ! A23   A(4,6,17)             120.006          estimate D2E/DX2                !
 ! A24   A(8,6,17)             119.9918         estimate D2E/DX2                !
 ! A25   A(5,7,8)              120.0002         estimate D2E/DX2                !
 ! A26   A(5,7,18)             120.011          estimate D2E/DX2                !
 ! A27   A(8,7,18)             119.9887         estimate D2E/DX2                !
 ! A28   A(6,8,7)              119.9935         estimate D2E/DX2                !
 ! A29   A(6,8,19)             119.9992         estimate D2E/DX2                !
 ! A30   A(7,8,19)             120.0073         estimate D2E/DX2                !
 ! A31   L(3,9,10,12,-1)       180.1063         estimate D2E/DX2                !
 ! A32   L(9,10,20,12,-1)      179.9927         estimate D2E/DX2                !
 ! A33   L(3,9,10,12,-2)       180.1471         estimate D2E/DX2                !
 ! A34   L(9,10,20,12,-2)      179.9823         estimate D2E/DX2                !
 ! D1    D(3,1,2,4)            -90.0088         estimate D2E/DX2                !
 ! D2    D(3,1,2,5)             89.9988         estimate D2E/DX2                !
 ! D3    D(11,1,2,4)           146.9729         estimate D2E/DX2                !
 ! D4    D(11,1,2,5)           -33.0195         estimate D2E/DX2                !
 ! D5    D(12,1,2,4)            32.9224         estimate D2E/DX2                !
 ! D6    D(12,1,2,5)          -147.07           estimate D2E/DX2                !
 ! D7    D(2,1,3,9)            178.404          estimate D2E/DX2                !
 ! D8    D(2,1,3,13)            56.848          estimate D2E/DX2                !
 ! D9    D(2,1,3,14)           -59.8203         estimate D2E/DX2                !
 ! D10   D(11,1,3,9)           -58.6162         estimate D2E/DX2                !
 ! D11   D(11,1,3,13)          179.8277         estimate D2E/DX2                !
 ! D12   D(11,1,3,14)           63.1594         estimate D2E/DX2                !
 ! D13   D(12,1,3,9)            55.608          estimate D2E/DX2                !
 ! D14   D(12,1,3,13)          -65.948          estimate D2E/DX2                !
 ! D15   D(12,1,3,14)          177.3837         estimate D2E/DX2                !
 ! D16   D(1,2,4,6)           -179.9888         estimate D2E/DX2                !
 ! D17   D(1,2,4,15)             0.1311         estimate D2E/DX2                !
 ! D18   D(5,2,4,6)              0.0036         estimate D2E/DX2                !
 ! D19   D(5,2,4,15)          -179.8765         estimate D2E/DX2                !
 ! D20   D(1,2,5,7)            179.9991         estimate D2E/DX2                !
 ! D21   D(1,2,5,16)            -0.1289         estimate D2E/DX2                !
 ! D22   D(4,2,5,7)              0.0067         estimate D2E/DX2                !
 ! D23   D(4,2,5,16)           179.8787         estimate D2E/DX2                !
 ! D24   D(2,4,6,8)             -0.0175         estimate D2E/DX2                !
 ! D25   D(2,4,6,17)          -179.9668         estimate D2E/DX2                !
 ! D26   D(15,4,6,8)           179.8643         estimate D2E/DX2                !
 ! D27   D(15,4,6,17)           -0.085          estimate D2E/DX2                !
 ! D28   D(2,5,7,8)             -0.0031         estimate D2E/DX2                !
 ! D29   D(2,5,7,18)           179.958          estimate D2E/DX2                !
 ! D30   D(16,5,7,8)          -179.8769         estimate D2E/DX2                !
 ! D31   D(16,5,7,18)            0.0841         estimate D2E/DX2                !
 ! D32   D(4,6,8,7)              0.0211         estimate D2E/DX2                !
 ! D33   D(4,6,8,19)          -179.9747         estimate D2E/DX2                !
 ! D34   D(17,6,8,7)           179.9704         estimate D2E/DX2                !
 ! D35   D(17,6,8,19)           -0.0254         estimate D2E/DX2                !
 ! D36   D(5,7,8,6)             -0.0108         estimate D2E/DX2                !
 ! D37   D(5,7,8,19)           179.985          estimate D2E/DX2                !
 ! D38   D(18,7,8,6)          -179.9719         estimate D2E/DX2                !
 ! D39   D(18,7,8,19)            0.024          estimate D2E/DX2                !
 --------------------------------------------------------------------------------
 Trust Radius=3.00D-01 FncErr=1.00D-07 GrdErr=1.00D-06 EigMax=2.50D+02 EigMin=1.00D-04
 Number of steps in this run=    103 maximum allowed number of steps=    120.
 GradGradGradGradGradGradGradGradGradGradGradGradGradGradGradGradGradGrad

                          Input orientation:                          
 ---------------------------------------------------------------------
 Center     Atomic      Atomic             Coordinates (Angstroms)
 Number     Number       Type             X           Y           Z
 ---------------------------------------------------------------------
      1          6           0        1.016200   -0.019400    0.639600
      2          6           0       -0.440800   -0.007500    0.319900
      3          6           0        1.930400   -0.025800   -0.597900
      4          6           0       -1.112400    1.206000    0.171500
      5          6           0       -1.131700   -1.209900    0.169500
      6          6           0       -2.474800    1.217100   -0.127200
      7          6           0       -2.494000   -1.198900   -0.129400
      8          6           0       -3.165700    0.014600   -0.277900
      9          6           0        3.354700    0.000500   -0.231900
     10          6           0        4.518000    0.023300    0.063900
     11          1           0        1.245000   -0.890800    1.268900
     12          1           0        1.256400    0.849100    1.268900
     13          1           0        1.702800    0.841100   -1.230200
     14          1           0        1.725200   -0.916500   -1.204200
     15          1           0       -0.585100    2.149700    0.284200
     16          1           0       -0.619400   -2.161900    0.280700
     17          1           0       -2.997700    2.161900   -0.243300
     18          1           0       -3.031900   -2.135100   -0.247200
     19          1           0       -4.226500    0.023300   -0.510900
     20          1           0        5.549900    0.043400    0.326500
 ---------------------------------------------------------------------
                    Distance matrix (angstroms):
                    1          2          3          4          5
     1  C    0.000000
     2  C    1.491710   0.000000
     3  C    1.538574   2.542692   0.000000
     4  C    2.500332   1.394866   3.371638   0.000000
     5  C    2.500352   1.394894   3.371565   2.415978   0.000000
     6  C    3.782062   2.415926   4.601320   1.394804   2.789673
     7  C    3.782074   2.415975   4.601192   2.789786   1.394749
     8  C    4.281501   2.789791   5.106297   2.416078   2.415931
     9  C    2.495694   3.835410   1.470809   4.644453   4.664116
    10  C    3.549064   4.965499   2.671341   5.754282   5.783688
    11  H    1.098957   2.126674   2.168626   3.340388   2.638031
    12  H    1.099094   2.124818   2.169025   2.634934   3.339339
    13  H    2.169800   2.778120   1.096869   3.165954   3.768309
    14  H    2.169578   2.800128   1.096838   3.801254   3.183553
    15  H    2.719461   2.162316   3.440733   1.086884   3.405707
    16  H    2.719247   2.162146   3.440398   3.405543   1.086794
    17  H    4.652846   3.400181   5.403512   2.154103   3.875744
    18  H    4.652925   3.400306   5.403384   3.875918   2.154157
    19  H    5.367623   3.875913   6.157710   3.400304   3.400223
    20  H    4.544932   5.990920   3.736320   6.764755   6.799940
                    6          7          8          9         10
     6  C    0.000000
     7  C    2.416077   0.000000
     8  C    1.395012   1.394925   0.000000
     9  C    5.956018   5.971295   6.520578   0.000000
    10  C    7.096543   7.120343   7.691303   1.200535   0.000000
    11  H    4.497694   4.003784   4.760947   2.738184   3.605570
    12  H    4.000797   4.496115   4.758566   2.715766   3.573794
    13  H    4.337087   4.794423   5.029142   2.105228   3.204504
    14  H    4.832409   4.363094   5.064176   2.107493   3.207964
    15  H    2.147081   3.876608   3.396190   4.517460   5.532788
    16  H    3.876407   2.147016   3.396002   4.553263   5.587037
    17  H    1.086071   3.400245   2.154140   6.710050   7.820085
    18  H    3.400295   1.086132   2.154079   6.734217   7.858528
    19  H    2.154260   2.154268   1.086122   7.586366   8.763371
    20  H    8.122760   8.152023   8.736579   2.265514   1.064979
                   11         12         13         14         15
    11  H    0.000000
    12  H    1.739937   0.000000
    13  H    3.074827   2.538669   0.000000
    14  H    2.519420   3.074628   1.757935   0.000000
    15  H    3.682871   2.460146   3.039791   4.117572   0.000000
    16  H    2.463376   3.682565   4.085761   3.041891   4.311738
    17  H    5.441161   4.701868   4.981283   5.718886   2.469624
    18  H    4.705180   5.439993   5.678155   5.003083   4.962734
    19  H    5.825854   5.823386   6.028498   6.065198   4.291102
    20  H    4.504777   4.468939   4.226088   4.229986   6.486641
                   16         17         18         19         20
    16  H    0.000000
    17  H    4.962473   0.000000
    18  H    2.469727   4.297138   0.000000
    19  H    4.291026   2.480961   2.480987   0.000000
    20  H    6.551771   8.824635   8.872558   9.812219   0.000000
 Stoichiometry    C10H10
 Framework group  C1[X(C10H10)]
 Deg. of freedom    54
 Full point group                 C1      NOp   1
 Largest Abelian subgroup         C1      NOp   1
 Largest concise Abelian subgroup C1      NOp   1
                         Standard orientation:                         
 ---------------------------------------------------------------------
 Center     Atomic      Atomic             Coordinates (Angstroms)
 Number     Number       Type             X           Y           Z
 ---------------------------------------------------------------------
      1          6           0        1.021981   -0.018609    0.630001
      2          6           0       -0.437994   -0.006779    0.324172
      3          6           0        1.924364   -0.025761   -0.616138
      4          6           0       -1.110893    1.206688    0.181496
      5          6           0       -1.130376   -1.209211    0.181019
      6          6           0       -2.476073    1.217723   -0.104234
      7          6           0       -2.495458   -1.198277   -0.104912
      8          6           0       -3.168458    0.015190   -0.247687
      9          6           0        3.352084    0.000637   -0.263721
     10          6           0        4.518147    0.023515    0.020984
     11          1           0        1.256699   -0.889677    1.257578
     12          1           0        1.268217    0.850221    1.256505
     13          1           0        1.690817    0.840805   -1.246724
     14          1           0        1.713344   -0.916782   -1.219964
     15          1           0       -0.582480    2.150411    0.288651
     16          1           0       -0.617106   -2.161187    0.287867
     17          1           0       -2.999990    2.162497   -0.215877
     18          1           0       -3.034518   -2.134502   -0.217070
     19          1           0       -4.231426    0.023839   -0.470588
     20          1           0        5.552501    0.043684    0.273743
 ---------------------------------------------------------------------
 Rotational constants (GHZ):           4.5191445           0.6050636           0.5571540
 Standard basis: 6-311++G(d,p) (5D, 7F)
 There are   300 symmetry adapted cartesian basis functions of A   symmetry.
 There are   290 symmetry adapted basis functions of A   symmetry.
   290 basis functions,   450 primitive gaussians,   300 cartesian basis functions
    35 alpha electrons       35 beta electrons
       nuclear repulsion energy       443.7699092757 Hartrees.
 NAtoms=   20 NActive=   20 NUniq=   20 SFac= 1.00D+00 NAtFMM=   60 NAOKFM=F Big=F
 Integral buffers will be    131072 words long.
 Raffenetti 2 integral format.
 Two-electron integral symmetry is turned on.
 R6APFD:  NTU= -4 IXU= 1 FactS= 1.050
 Nuclear repulsion after empirical dispersion term =      443.7591360113 Hartrees.
 One-electron integrals computed using PRISM.
 NBasis=   290 RedAO= T EigKep=  3.38D-06  NBF=   290
 NBsUse=   288 1.00D-06 EigRej=  7.97D-07 NBFU=   288
 ExpMin= 3.60D-02 ExpMax= 4.56D+03 ExpMxC= 6.82D+02 IAcc=3 IRadAn=         5 AccDes= 0.00D+00
 Harris functional with IExCor= 1009 and IRadAn=       5 diagonalized for initial guess.
 HarFok:  IExCor= 1009 AccDes= 0.00D+00 IRadAn=         5 IDoV= 1 UseB2=F ITyADJ=14
 ICtDFT=  3500011 ScaDFX=  1.000000  1.000000  1.000000  1.000000
 FoFCou: FMM=F IPFlag=           0 FMFlag=      100000 FMFlg1=           0
         NFxFlg=           0 DoJE=T BraDBF=F KetDBF=T FulRan=T
         wScrn=  0.000000 ICntrl=       500 IOpCl=  0 I1Cent=   200000004 NGrid=           0
         NMat0=    1 NMatS0=      1 NMatT0=    0 NMatD0=    1 NMtDS0=    0 NMtDT0=    0
 Petite list used in FoFCou.
 Requested convergence on RMS density matrix=1.00D-08 within  32 cycles.
 Requested convergence on MAX density matrix=1.00D-06.
 Requested convergence on             energy=1.00D-06.
 No special actions if energy rises.
 SCF Done:  E(RM08HX) =  -387.022113930     A.U. after   13 cycles
            NFock= 13  Conv=0.94D-08     -V/T= 2.0052
 QCSCF skips out because SCF is already converged.

 **********************************************************************

            Population analysis using the SCF Density.

 **********************************************************************

 Orbital symmetries:
       Occupied  (A) (A) (A) (A) (A) (A) (A) (A) (A) (A) (A) (A)
                 (A) (A) (A) (A) (A) (A) (A) (A) (A) (A) (A) (A)
                 (A) (A) (A) (A) (A) (A) (A) (A) (A) (A) (A)
       Virtual   (A) (A) (A) (A) (A) (A) (A) (A) (A) (A) (A) (A)
                 (A) (A) (A) (A) (A) (A) (A) (A) (A) (A) (A) (A)
                 (A) (A) (A) (A) (A) (A) (A) (A) (A) (A) (A) (A)
                 (A) (A) (A) (A) (A) (A) (A) (A) (A) (A) (A) (A)
                 (A) (A) (A) (A) (A) (A) (A) (A) (A) (A) (A) (A)
                 (A) (A) (A) (A) (A) (A) (A) (A) (A) (A) (A) (A)
                 (A) (A) (A) (A) (A) (A) (A) (A) (A) (A) (A) (A)
                 (A) (A) (A) (A) (A) (A) (A) (A) (A) (A) (A) (A)
                 (A) (A) (A) (A) (A) (A) (A) (A) (A) (A) (A) (A)
                 (A) (A) (A) (A) (A) (A) (A) (A) (A) (A) (A) (A)
                 (A) (A) (A) (A) (A) (A) (A) (A) (A) (A) (A) (A)
                 (A) (A) (A) (A) (A) (A) (A) (A) (A) (A) (A) (A)
                 (A) (A) (A) (A) (A) (A) (A) (A) (A) (A) (A) (A)
                 (A) (A) (A) (A) (A) (A) (A) (A) (A) (A) (A) (A)
                 (A) (A) (A) (A) (A) (A) (A) (A) (A) (A) (A) (A)
                 (A) (A) (A) (A) (A) (A) (A) (A) (A) (A) (A) (A)
                 (A) (A) (A) (A) (A) (A) (A) (A) (A) (A) (A) (A)
                 (A) (A) (A) (A) (A) (A) (A) (A) (A) (A) (A) (A)
                 (A) (A) (A) (A) (A) (A) (A) (A) (A) (A) (A) (A)
                 (A) (A) (A) (A) (A) (A) (A) (A) (A) (A) (A) (A)
                 (A) (A) (A) (A) (A) (A) (A) (A) (A) (A) (A) (A)
                 (A)
 The electronic state is 1-A.
 Alpha  occ. eigenvalues --  -10.55962 -10.54799 -10.54085 -10.54074 -10.54064
 Alpha  occ. eigenvalues --  -10.53903 -10.53902 -10.53833 -10.53492 -10.52097
 Alpha  occ. eigenvalues --   -0.98046  -0.92118  -0.86984  -0.85529  -0.81981
 Alpha  occ. eigenvalues --   -0.74719  -0.70137  -0.67135  -0.60902  -0.59638
 Alpha  occ. eigenvalues --   -0.55546  -0.54881  -0.52632  -0.51371  -0.49548
 Alpha  occ. eigenvalues --   -0.48969  -0.46703  -0.43506  -0.43227  -0.40706
 Alpha  occ. eigenvalues --   -0.40545  -0.33936  -0.33588  -0.31619  -0.30643
 Alpha virt. eigenvalues --   -0.02801  -0.01623  -0.01448  -0.00779  -0.00241
 Alpha virt. eigenvalues --    0.00109   0.00728   0.00809   0.01588   0.02679
 Alpha virt. eigenvalues --    0.03040   0.03416   0.03564   0.04150   0.04982
 Alpha virt. eigenvalues --    0.05269   0.07152   0.07776   0.08213   0.08527
 Alpha virt. eigenvalues --    0.09022   0.09585   0.10115   0.10632   0.10941
 Alpha virt. eigenvalues --    0.11449   0.11466   0.11873   0.12208   0.13042
 Alpha virt. eigenvalues --    0.13197   0.13315   0.13640   0.13807   0.14169
 Alpha virt. eigenvalues --    0.14812   0.15348   0.15685   0.16043   0.16654
 Alpha virt. eigenvalues --    0.16798   0.17571   0.18562   0.18847   0.19574
 Alpha virt. eigenvalues --    0.20427   0.21105   0.22265   0.22299   0.22538
 Alpha virt. eigenvalues --    0.23160   0.24434   0.24719   0.25987   0.26532
 Alpha virt. eigenvalues --    0.27546   0.29348   0.29545   0.29798   0.31130
 Alpha virt. eigenvalues --    0.31583   0.32854   0.33249   0.33737   0.35009
 Alpha virt. eigenvalues --    0.35521   0.37936   0.38876   0.40481   0.41087
 Alpha virt. eigenvalues --    0.46018   0.49164   0.50731   0.52630   0.54098
 Alpha virt. eigenvalues --    0.55847   0.56206   0.57265   0.57458   0.58086
 Alpha virt. eigenvalues --    0.58651   0.60618   0.60996   0.61299   0.63136
 Alpha virt. eigenvalues --    0.64485   0.65782   0.66649   0.68474   0.68870
 Alpha virt. eigenvalues --    0.69363   0.71167   0.71278   0.71515   0.72848
 Alpha virt. eigenvalues --    0.73091   0.74181   0.74836   0.75191   0.75946
 Alpha virt. eigenvalues --    0.76591   0.77911   0.78700   0.79190   0.80181
 Alpha virt. eigenvalues --    0.84978   0.86165   0.87087   0.87210   0.87721
 Alpha virt. eigenvalues --    0.88542   0.90462   0.93371   0.93678   0.93898
 Alpha virt. eigenvalues --    0.99729   1.01781   1.03362   1.04276   1.07284
 Alpha virt. eigenvalues --    1.08178   1.08719   1.10533   1.12083   1.16424
 Alpha virt. eigenvalues --    1.17052   1.18038   1.19956   1.21502   1.23315
 Alpha virt. eigenvalues --    1.28179   1.28967   1.31442   1.34863   1.43592
 Alpha virt. eigenvalues --    1.44134   1.48997   1.51157   1.52498   1.53478
 Alpha virt. eigenvalues --    1.56578   1.56693   1.58680   1.59521   1.59991
 Alpha virt. eigenvalues --    1.61920   1.64993   1.65354   1.65584   1.66872
 Alpha virt. eigenvalues --    1.67431   1.67617   1.70595   1.72219   1.74182
 Alpha virt. eigenvalues --    1.75431   1.76418   1.79291   1.80781   1.83336
 Alpha virt. eigenvalues --    1.83759   1.87219   1.89199   1.93113   1.96466
 Alpha virt. eigenvalues --    1.96921   1.97416   1.97487   1.98228   1.99507
 Alpha virt. eigenvalues --    1.99753   2.02992   2.05670   2.07062   2.11864
 Alpha virt. eigenvalues --    2.12820   2.13516   2.17162   2.24159   2.25587
 Alpha virt. eigenvalues --    2.28249   2.34544   2.38133   2.41929   2.42749
 Alpha virt. eigenvalues --    2.45821   2.46626   2.47336   2.49540   2.50504
 Alpha virt. eigenvalues --    2.58890   2.62965   2.63998   2.65755   2.66342
 Alpha virt. eigenvalues --    2.67313   2.68235   2.70617   2.70716   2.70998
 Alpha virt. eigenvalues --    2.71818   2.72259   2.72447   2.75187   2.76745
 Alpha virt. eigenvalues --    2.77681   2.79127   2.82270   2.83648   2.89625
 Alpha virt. eigenvalues --    2.90321   2.91238   2.92359   2.95732   2.96099
 Alpha virt. eigenvalues --    2.99538   3.01914   3.02690   3.09693   3.09827
 Alpha virt. eigenvalues --    3.15102   3.18365   3.23461   3.26982   3.33571
 Alpha virt. eigenvalues --    3.43250   3.44259   3.46898   3.54645   3.59726
 Alpha virt. eigenvalues --    3.61958   3.64397   3.76348   3.82505   3.88838
 Alpha virt. eigenvalues --    4.03166   4.08218   4.15660   4.21026   4.21160
 Alpha virt. eigenvalues --    4.31350   4.43839   4.92233  23.61331  23.69098
 Alpha virt. eigenvalues --   23.95436  23.99026  24.02800  24.03137  24.14694
 Alpha virt. eigenvalues --   24.14966  24.24506  25.17719
          Condensed to atoms (all electrons):
               1          2          3          4          5          6
     1  C   17.154720  -5.701129  -0.843373  -1.944779  -1.724093   0.030365
     2  C   -5.701129  11.871252   0.001918  -0.292166  -0.309132  -0.772988
     3  C   -0.843373   0.001918   7.824621   0.157932   0.101845   0.033496
     4  C   -1.944779  -0.292166   0.157932  10.393486  -2.723048  -0.593896
     5  C   -1.724093  -0.309132   0.101845  -2.723048  10.233538   1.338153
     6  C    0.030365  -0.772988   0.033496  -0.593896   1.338153   6.339627
     7  C   -0.060247  -0.755073   0.043110   1.368907  -0.540214  -0.484696
     8  C   -0.288001   0.666853   0.037856  -0.484388  -0.536562   0.146468
     9  C   -0.251115   0.164087  -2.117329   0.085373   0.092079   0.022520
    10  C   -0.441347   0.186776   1.117443   0.021364   0.014364   0.000184
    11  H    0.472131  -0.042104  -0.078112  -0.036939   0.035433  -0.033460
    12  H    0.506765  -0.069439  -0.084207   0.036557  -0.043174   0.022439
    13  H   -0.062549   0.056382   0.466660  -0.051155   0.027657  -0.000967
    14  H   -0.040395   0.038332   0.469586   0.024849  -0.051643  -0.012829
    15  H   -0.026963  -0.000956  -0.008498   0.387694   0.003130  -0.085645
    16  H   -0.011709  -0.011009  -0.010392  -0.000147   0.386065   0.046885
    17  H    0.003536   0.016058   0.000388  -0.061341   0.034908   0.381203
    18  H    0.001420   0.014692   0.000658   0.034635  -0.058065  -0.006394
    19  H   -0.021088   0.044653  -0.000184  -0.004985  -0.005918  -0.048447
    20  H    0.014439  -0.013886   0.036996   0.000121   0.000115   0.000427
               7          8          9         10         11         12
     1  C   -0.060247  -0.288001  -0.251115  -0.441347   0.472131   0.506765
     2  C   -0.755073   0.666853   0.164087   0.186776  -0.042104  -0.069439
     3  C    0.043110   0.037856  -2.117329   1.117443  -0.078112  -0.084207
     4  C    1.368907  -0.484388   0.085373   0.021364  -0.036939   0.036557
     5  C   -0.540214  -0.536562   0.092079   0.014364   0.035433  -0.043174
     6  C   -0.484696   0.146468   0.022520   0.000184  -0.033460   0.022439
     7  C    6.308532   0.164143   0.029407  -0.001023   0.020250  -0.033095
     8  C    0.164143   6.508504   0.018353  -0.000760   0.000919   0.000294
     9  C    0.029407   0.018353   7.895769  -0.663586   0.010150   0.014329
    10  C   -0.001023  -0.000760  -0.663586   6.102522  -0.002599  -0.005423
    11  H    0.020250   0.000919   0.010150  -0.002599   0.478873  -0.036097
    12  H   -0.033095   0.000294   0.014329  -0.005423  -0.036097   0.478486
    13  H   -0.013466   0.003415  -0.095475   0.022046   0.001361   0.000594
    14  H    0.000146   0.002932  -0.099110   0.021821  -0.000223   0.000828
    15  H    0.046506  -0.015965   0.007000   0.000132   0.004819  -0.011878
    16  H   -0.083005  -0.016827   0.006266   0.000242  -0.011526   0.004587
    17  H   -0.006549  -0.067723  -0.000667   0.000234  -0.000381   0.001517
    18  H    0.380043  -0.066378  -0.000701   0.000218   0.001526  -0.000364
    19  H   -0.048231   0.413752   0.001192  -0.000055   0.000131   0.000105
    20  H    0.000308  -0.000203  -0.070233   0.387226  -0.000461  -0.000404
              13         14         15         16         17         18
     1  C   -0.062549  -0.040395  -0.026963  -0.011709   0.003536   0.001420
     2  C    0.056382   0.038332  -0.000956  -0.011009   0.016058   0.014692
     3  C    0.466660   0.469586  -0.008498  -0.010392   0.000388   0.000658
     4  C   -0.051155   0.024849   0.387694  -0.000147  -0.061341   0.034635
     5  C    0.027657  -0.051643   0.003130   0.386065   0.034908  -0.058065
     6  C   -0.000967  -0.012829  -0.085645   0.046885   0.381203  -0.006394
     7  C   -0.013466   0.000146   0.046506  -0.083005  -0.006549   0.380043
     8  C    0.003415   0.002932  -0.015965  -0.016827  -0.067723  -0.066378
     9  C   -0.095475  -0.099110   0.007000   0.006266  -0.000667  -0.000701
    10  C    0.022046   0.021821   0.000132   0.000242   0.000234   0.000218
    11  H    0.001361  -0.000223   0.004819  -0.011526  -0.000381   0.001526
    12  H    0.000594   0.000828  -0.011878   0.004587   0.001517  -0.000364
    13  H    0.470094  -0.043174  -0.003780   0.000389  -0.000030  -0.000188
    14  H   -0.043174   0.469921   0.000220  -0.004467  -0.000193   0.000014
    15  H   -0.003780   0.000220   0.428797  -0.002454  -0.007280   0.001623
    16  H    0.000389  -0.004467  -0.002454   0.429225   0.001607  -0.007287
    17  H   -0.000030  -0.000193  -0.007280   0.001607   0.418541   0.000211
    18  H   -0.000188   0.000014   0.001623  -0.007287   0.000211   0.418537
    19  H    0.000041   0.000024  -0.000058  -0.000093  -0.006217  -0.006230
    20  H    0.000102   0.000207  -0.000120  -0.000082   0.000007   0.000006
              19         20
     1  C   -0.021088   0.014439
     2  C    0.044653  -0.013886
     3  C   -0.000184   0.036996
     4  C   -0.004985   0.000121
     5  C   -0.005918   0.000115
     6  C   -0.048447   0.000427
     7  C   -0.048231   0.000308
     8  C    0.413752  -0.000203
     9  C    0.001192  -0.070233
    10  C   -0.000055   0.387226
    11  H    0.000131  -0.000461
    12  H    0.000105  -0.000404
    13  H    0.000041   0.000102
    14  H    0.000024   0.000207
    15  H   -0.000058  -0.000120
    16  H   -0.000093  -0.000082
    17  H   -0.006217   0.000007
    18  H   -0.006230   0.000006
    19  H    0.416992  -0.000006
    20  H   -0.000006   0.384147
 Mulliken charges:
               1
     1  C   -0.766589
     2  C    0.906879
     3  C   -1.150415
     4  C   -0.318075
     5  C   -0.275437
     6  C   -0.322446
     7  C   -0.335752
     8  C   -0.486682
     9  C    0.951691
    10  C   -0.759779
    11  H    0.216309
    12  H    0.217581
    13  H    0.222044
    14  H    0.223155
    15  H    0.283674
    16  H    0.283732
    17  H    0.292170
    18  H    0.292023
    19  H    0.264622
    20  H    0.261295
 Sum of Mulliken charges =  -0.00000
 Mulliken charges with hydrogens summed into heavy atoms:
               1
     1  C   -0.332699
     2  C    0.906879
     3  C   -0.705215
     4  C   -0.034401
     5  C    0.008295
     6  C   -0.030276
     7  C   -0.043729
     8  C   -0.222060
     9  C    0.951691
    10  C   -0.498485
 Electronic spatial extent (au):  <R**2>=           1973.1021
 Charge=             -0.0000 electrons
 Dipole moment (field-independent basis, Debye):
    X=             -0.6655    Y=             -0.0096    Z=             -0.0728  Tot=              0.6695
 Quadrupole moment (field-independent basis, Debye-Ang):
   XX=            -56.4214   YY=            -56.5393   ZZ=            -64.2737
   XY=              0.0767   XZ=              2.7032   YZ=              0.0183
 Traceless Quadrupole moment (field-independent basis, Debye-Ang):
   XX=              2.6567   YY=              2.5388   ZZ=             -5.1956
   XY=              0.0767   XZ=              2.7032   YZ=              0.0183
 Octapole moment (field-independent basis, Debye-Ang**2):
  XXX=              9.7631  YYY=             -0.1409  ZZZ=             -0.1379  XYY=            -13.4449
  XXY=              0.8513  XXZ=              3.8539  XZZ=              3.3863  YZZ=             -0.0520
  YYZ=             -0.1068  XYZ=              0.1736
 Hexadecapole moment (field-independent basis, Debye-Ang**3):
 XXXX=          -1930.9007 YYYY=           -317.1599 ZZZZ=           -144.2561 XXXY=              6.0434
 XXXZ=             93.5658 YYYX=             -0.6119 YYYZ=              0.0260 ZZZX=              0.0666
 ZZZY=             -0.0236 XXYY=           -454.4441 XXZZ=           -457.6389 YYZZ=            -85.4595
 XXYZ=              0.5834 YYXZ=              3.4271 ZZXY=             -0.0752
 N-N= 4.437591360113D+02 E-N=-1.783810677773D+03  KE= 3.850018282624D+02
 R6APFD:  NTU= -4 IXU= 1 FactS= 1.050
 Calling FoFJK, ICntrl=      2127 FMM=F ISym2X=0 I1Cent= 0 IOpClX= 0 NMat=1 NMatS=1 NMatT=0.
 ***** Axes restored to original set *****
 -------------------------------------------------------------------
 Center     Atomic                   Forces (Hartrees/Bohr)
 Number     Number              X              Y              Z
 -------------------------------------------------------------------
      1        6           0.009333308    0.000246204    0.012378410
      2        6           0.000115498   -0.000326335   -0.001763978
      3        6           0.003169253    0.000315071    0.001592185
      4        6          -0.008698698   -0.003109458   -0.003203709
      5        6          -0.008631900    0.003352832   -0.003193314
      6        6           0.001690375   -0.003308205   -0.000291151
      7        6           0.001644998    0.003180465   -0.000283000
      8        6           0.002095650    0.000031411    0.000434611
      9        6          -0.006400087   -0.000383811   -0.003201470
     10        6          -0.000554326   -0.000020269    0.000794442
     11        1           0.001478153   -0.001365835   -0.002079110
     12        1           0.001611170    0.001328788   -0.002224160
     13        1          -0.000514507    0.001286324   -0.000799844
     14        1          -0.000346055   -0.001218025   -0.000856283
     15        1           0.003155672    0.000675922    0.001222452
     16        1           0.003165255   -0.000785033    0.001232975
     17        1          -0.001007814    0.001675560   -0.000017748
     18        1          -0.001006830   -0.001628746   -0.000019197
     19        1          -0.001748823    0.000015241   -0.000178928
     20        1           0.001449708    0.000037898    0.000456815
 -------------------------------------------------------------------
 Cartesian Forces:  Max     0.012378410 RMS     0.003138618

 GradGradGradGradGradGradGradGradGradGradGradGradGradGradGradGradGradGrad
 Berny optimization.
 FormGI is forming the generalized inverse of G from B-inverse, IUseBI=4.
 Internal  Forces:  Max     0.010309150 RMS     0.002103506
 Search for a local minimum.
 Step number   1 out of a maximum of  103
 All quantities printed in internal units (Hartrees-Bohrs-Radians)
 Mixed Optimization -- RFO/linear search
 Second derivative matrix not updated -- first step.
 ITU=  0
     Eigenvalues ---    0.00256   0.00566   0.00566   0.00876   0.01644
     Eigenvalues ---    0.02155   0.02156   0.02156   0.02157   0.02157
     Eigenvalues ---    0.02157   0.02157   0.02157   0.03888   0.04727
     Eigenvalues ---    0.04727   0.05338   0.05338   0.05995   0.09729
     Eigenvalues ---    0.13066   0.16000   0.16000   0.16000   0.16000
     Eigenvalues ---    0.16000   0.16000   0.16000   0.21896   0.22000
     Eigenvalues ---    0.22000   0.22314   0.23486   0.25000   0.28646
     Eigenvalues ---    0.33263   0.33783   0.33798   0.34031   0.34034
     Eigenvalues ---    0.35175   0.35186   0.35263   0.35265   0.35271
     Eigenvalues ---    0.35644   0.37872   0.42141   0.42319   0.46465
     Eigenvalues ---    0.46476   0.46483   0.46498   1.04555
 RFO step:  Lambda=-2.12069818D-03 EMin= 2.55692201D-03
 Linear search not attempted -- first point.
 Iteration  1 RMS(Cart)=  0.04217518 RMS(Int)=  0.00065914
 Iteration  2 RMS(Cart)=  0.00127972 RMS(Int)=  0.00017490
 Iteration  3 RMS(Cart)=  0.00000031 RMS(Int)=  0.00017490
 Variable       Old X    -DE/DX   Delta X   Delta X   Delta X     New X
                                 (Linear)    (Quad)   (Total)
    R1        2.81892   0.01031   0.00000   0.03080   0.03080   2.84972
    R2        2.90748  -0.00028   0.00000  -0.00097  -0.00097   2.90652
    R3        2.07673   0.00020   0.00000   0.00059   0.00059   2.07732
    R4        2.07699   0.00013   0.00000   0.00038   0.00038   2.07736
    R5        2.63591   0.00066   0.00000   0.00150   0.00154   2.63745
    R6        2.63597   0.00066   0.00000   0.00149   0.00154   2.63750
    R7        2.77943  -0.00582   0.00000  -0.01624  -0.01624   2.76319
    R8        2.07278   0.00158   0.00000   0.00463   0.00463   2.07741
    R9        2.07272   0.00153   0.00000   0.00446   0.00446   2.07718
   R10        2.63580  -0.00081   0.00000  -0.00174  -0.00174   2.63406
   R11        2.05391   0.00224   0.00000   0.00634   0.00634   2.06026
   R12        2.63569  -0.00074   0.00000  -0.00158  -0.00158   2.63411
   R13        2.05374   0.00231   0.00000   0.00651   0.00651   2.06026
   R14        2.63619  -0.00181   0.00000  -0.00397  -0.00401   2.63218
   R15        2.05238   0.00194   0.00000   0.00548   0.00548   2.05786
   R16        2.63603  -0.00177   0.00000  -0.00387  -0.00391   2.63211
   R17        2.05249   0.00190   0.00000   0.00537   0.00537   2.05786
   R18        2.05247   0.00175   0.00000   0.00492   0.00492   2.05740
   R19        2.26868   0.00118   0.00000   0.00112   0.00112   2.26981
   R20        2.01252   0.00152   0.00000   0.00399   0.00399   2.01650
    A1        1.99107  -0.00874   0.00000  -0.04651  -0.04673   1.94434
    A2        1.90965   0.00387   0.00000   0.01985   0.01914   1.92879
    A3        1.90696   0.00416   0.00000   0.02333   0.02266   1.92962
    A4        1.91089   0.00070   0.00000  -0.00832  -0.00824   1.90265
    A5        1.91129   0.00049   0.00000  -0.00884  -0.00867   1.90262
    A6        1.82679   0.00032   0.00000   0.02696   0.02653   1.85332
    A7        2.09442   0.00247   0.00000   0.00987   0.00954   2.10396
    A8        2.09441   0.00258   0.00000   0.01027   0.00994   2.10435
    A9        2.09436  -0.00505   0.00000  -0.02014  -0.02026   2.07410
   A10        1.95538  -0.00063   0.00000  -0.00280  -0.00280   1.95258
   A11        1.91460  -0.00015   0.00000  -0.00066  -0.00066   1.91394
   A12        1.91433   0.00008   0.00000  -0.00011  -0.00011   1.91422
   A13        1.90737   0.00047   0.00000   0.00323   0.00323   1.91059
   A14        1.91054   0.00018   0.00000  -0.00012  -0.00013   1.91041
   A15        1.85911   0.00008   0.00000   0.00066   0.00066   1.85977
   A16        2.09440   0.00272   0.00000   0.01192   0.01199   2.10639
   A17        2.10685  -0.00399   0.00000  -0.02222  -0.02227   2.08458
   A18        2.08194   0.00128   0.00000   0.01032   0.01027   2.09220
   A19        2.09450   0.00272   0.00000   0.01196   0.01203   2.10653
   A20        2.10665  -0.00399   0.00000  -0.02219  -0.02224   2.08441
   A21        2.08203   0.00127   0.00000   0.01024   0.01019   2.09223
   A22        2.09443   0.00036   0.00000   0.00098   0.00096   2.09540
   A23        2.09450  -0.00014   0.00000  -0.00027  -0.00028   2.09422
   A24        2.09425  -0.00021   0.00000  -0.00070  -0.00070   2.09355
   A25        2.09440   0.00032   0.00000   0.00085   0.00083   2.09523
   A26        2.09459  -0.00013   0.00000  -0.00026  -0.00026   2.09432
   A27        2.09420  -0.00019   0.00000  -0.00058  -0.00058   2.09361
   A28        2.09428  -0.00106   0.00000  -0.00556  -0.00561   2.08867
   A29        2.09438   0.00053   0.00000   0.00277   0.00280   2.09718
   A30        2.09452   0.00053   0.00000   0.00278   0.00281   2.09733
   A31        3.14345  -0.00222   0.00000  -0.04486  -0.04486   3.09859
   A32        3.14146  -0.00016   0.00000  -0.02113  -0.02113   3.12033
   A33        3.14416  -0.00078   0.00000  -0.01576  -0.01576   3.12840
   A34        3.14128  -0.00003   0.00000  -0.00408  -0.00408   3.13720
    D1       -1.57095   0.00042   0.00000   0.02168   0.02192  -1.54903
    D2        1.57078  -0.00038   0.00000  -0.02110  -0.02128   1.54949
    D3        2.56516   0.00276   0.00000   0.05048   0.05107   2.61623
    D4       -0.57630   0.00197   0.00000   0.00770   0.00786  -0.56844
    D5        0.57460  -0.00196   0.00000  -0.00496  -0.00515   0.56945
    D6       -2.56686  -0.00275   0.00000  -0.04774  -0.04836  -2.61522
    D7        3.11374   0.00023   0.00000   0.01918   0.01918   3.13291
    D8        0.99218   0.00015   0.00000   0.01742   0.01741   1.00960
    D9       -1.04406   0.00009   0.00000   0.01706   0.01706  -1.02700
   D10       -1.02305  -0.00041   0.00000   0.00566   0.00586  -1.01718
   D11        3.13859  -0.00049   0.00000   0.00390   0.00410  -3.14050
   D12        1.10234  -0.00054   0.00000   0.00354   0.00375   1.10609
   D13        0.97054   0.00063   0.00000   0.02845   0.02825   0.99879
   D14       -1.15101   0.00055   0.00000   0.02669   0.02648  -1.12453
   D15        3.09593   0.00049   0.00000   0.02634   0.02613   3.12206
   D16       -3.14140  -0.00065   0.00000  -0.03260  -0.03247   3.10932
   D17        0.00229  -0.00082   0.00000  -0.03999  -0.03978  -0.03749
   D18        0.00006   0.00014   0.00000   0.01018   0.01000   0.01006
   D19       -3.13944  -0.00003   0.00000   0.00280   0.00270  -3.13674
   D20        3.14158   0.00065   0.00000   0.03243   0.03231  -3.10930
   D21       -0.00225   0.00082   0.00000   0.04013   0.03993   0.03768
   D22        0.00012  -0.00014   0.00000  -0.01035  -0.01017  -0.01005
   D23        3.13948   0.00003   0.00000  -0.00265  -0.00255   3.13692
   D24       -0.00031  -0.00002   0.00000  -0.00263  -0.00263  -0.00293
   D25       -3.14101  -0.00021   0.00000  -0.00995  -0.00995   3.13222
   D26        3.13922   0.00013   0.00000   0.00461   0.00467  -3.13929
   D27       -0.00148  -0.00005   0.00000  -0.00270  -0.00266  -0.00414
   D28       -0.00005   0.00003   0.00000   0.00296   0.00296   0.00291
   D29        3.14086   0.00021   0.00000   0.01002   0.01003  -3.13230
   D30       -3.13944  -0.00013   0.00000  -0.00459  -0.00465   3.13909
   D31        0.00147   0.00005   0.00000   0.00247   0.00242   0.00389
   D32        0.00037  -0.00009   0.00000  -0.00475  -0.00473  -0.00436
   D33       -3.14115  -0.00018   0.00000  -0.00744  -0.00744   3.13459
   D34        3.14108   0.00009   0.00000   0.00256   0.00259  -3.13952
   D35       -0.00044   0.00000   0.00000  -0.00012  -0.00012  -0.00056
   D36       -0.00019   0.00009   0.00000   0.00459   0.00457   0.00438
   D37        3.14133   0.00018   0.00000   0.00727   0.00727  -3.13458
   D38       -3.14110  -0.00009   0.00000  -0.00247  -0.00250   3.13958
   D39        0.00042  -0.00000   0.00000   0.00021   0.00021   0.00063
         Item               Value     Threshold  Converged?
 Maximum Force            0.010309     0.000450     NO 
 RMS     Force            0.002104     0.000300     NO 
 Maximum Displacement     0.135067     0.001800     NO 
 RMS     Displacement     0.042468     0.001200     NO 
 Predicted change in Energy=-1.091014D-03
 GradGradGradGradGradGradGradGradGradGradGradGradGradGradGradGradGradGrad

                          Input orientation:                          
 ---------------------------------------------------------------------
 Center     Atomic      Atomic             Coordinates (Angstroms)
 Number     Number       Type             X           Y           Z
 ---------------------------------------------------------------------
      1          6           0        1.040167   -0.011269    0.691634
      2          6           0       -0.432429   -0.004146    0.366833
      3          6           0        1.896681   -0.015434   -0.585864
      4          6           0       -1.113683    1.200847    0.188480
      5          6           0       -1.125909   -1.202246    0.188961
      6          6           0       -2.465945    1.210253   -0.149465
      7          6           0       -2.478222   -1.198246   -0.149005
      8          6           0       -3.151714    0.009415   -0.316356
      9          6           0        3.327121   -0.010577   -0.282726
     10          6           0        4.490106    0.002679    0.017278
     11          1           0        1.296675   -0.891791    1.297666
     12          1           0        1.305965    0.866194    1.298143
     13          1           0        1.649290    0.862207   -1.199902
     14          1           0        1.653726   -0.899989   -1.191481
     15          1           0       -0.580357    2.142527    0.320484
     16          1           0       -0.602069   -2.149155    0.321555
     17          1           0       -2.988487    2.157072   -0.277305
     18          1           0       -3.010303   -2.139783   -0.276526
     19          1           0       -4.209524    0.014834   -0.573914
     20          1           0        5.517511    0.020807    0.305008
 ---------------------------------------------------------------------
                    Distance matrix (angstroms):
                    1          2          3          4          5
     1  C    0.000000
     2  C    1.508007   0.000000
     3  C    1.538062   2.516449   0.000000
     4  C    2.522193   1.395680   3.337849   0.000000
     5  C    2.522497   1.395707   3.338402   2.403124   0.000000
     6  C    3.806887   2.424153   4.552501   1.393883   2.780356
     7  C    3.807184   2.424301   4.552984   2.780559   1.393911
     8  C    4.311420   2.803827   5.055645   2.414113   2.413992
     9  C    2.485867   3.815257   1.462216   4.627129   4.633793
    10  C    3.515257   4.934935   2.662698   5.733007   5.746385
    11  H    1.099268   2.155033   2.162336   3.379239   2.682261
    12  H    1.099293   2.155654   2.162336   2.682917   3.379755
    13  H    2.170690   2.745683   1.099317   3.110674   3.727282
    14  H    2.170805   2.753710   1.099198   3.738496   3.118229
    15  H    2.720789   2.152263   3.407930   1.090240   3.391524
    16  H    2.721112   2.152183   3.408801   3.391455   1.090241
    17  H    4.676601   3.408696   5.355358   2.155507   3.869317
    18  H    4.676988   3.408855   5.356029   3.869523   2.155596
    19  H    5.400144   3.892533   6.106292   3.401780   3.401756
    20  H    4.494120   5.950313   3.728991   6.736379   6.756060
                    6          7          8          9         10
     6  C    0.000000
     7  C    2.408530   0.000000
     8  C    1.392890   1.392855   0.000000
     9  C    5.921808   5.927094   6.478954   0.000000
    10  C    7.062060   7.073010   7.649103   1.201129   0.000000
    11  H    4.546437   4.054210   4.817200   2.719722   3.554922
    12  H    4.054782   4.547112   4.817840   2.711632   3.539072
    13  H    4.261421   4.731406   4.955557   2.101924   3.207889
    14  H    4.744534   4.271850   4.968412   2.101700   3.212625
    15  H    2.155326   3.870798   3.401119   4.502012   5.511849
    16  H    3.870596   2.155366   3.401036   4.514112   5.536535
    17  H    1.088971   3.396320   2.154204   6.677248   7.788295
    18  H    3.396352   1.088974   2.154214   6.685544   7.805934
    19  H    2.156212   2.156275   1.088727   7.542312   8.719703
    20  H    8.084361   8.100861   8.691472   2.268088   1.067088
                   11         12         13         14         15
    11  H    0.000000
    12  H    1.758010   0.000000
    13  H    3.072245   2.521530   0.000000
    14  H    2.514638   3.072225   1.762221   0.000000
    15  H    3.699355   2.478519   2.986991   4.066210   0.000000
    16  H    2.477698   3.699547   4.056075   2.989700   4.291737
    17  H    5.489873   4.752969   4.902737   5.633069   2.481260
    18  H    4.752434   5.490506   5.619286   4.911965   4.959762
    19  H    5.885832   5.886428   5.952781   5.966238   4.300916
    20  H    4.430988   4.408867   4.235073   4.244547   6.456464
                   16         17         18         19         20
    16  H    0.000000
    17  H    4.959557   0.000000
    18  H    2.481407   4.296910   0.000000
    19  H    4.300982   2.483564   2.483736   0.000000
    20  H    6.492940   8.789466   8.816458   9.766665   0.000000
 Stoichiometry    C10H10
 Framework group  C1[X(C10H10)]
 Deg. of freedom    54
 Full point group                 C1      NOp   1
 Largest Abelian subgroup         C1      NOp   1
 Largest concise Abelian subgroup C1      NOp   1
                         Standard orientation:                         
 ---------------------------------------------------------------------
 Center     Atomic      Atomic             Coordinates (Angstroms)
 Number     Number       Type             X           Y           Z
 ---------------------------------------------------------------------
      1          6           0        1.047697   -0.008337    0.683577
      2          6           0       -0.428041   -0.003106    0.373325
      3          6           0        1.891569   -0.010596   -0.602311
      4          6           0       -1.112708    1.201024    0.202380
      5          6           0       -1.121563   -1.202083    0.201630
      6          6           0       -2.468252    1.208714   -0.122202
      7          6           0       -2.477149   -1.199800   -0.122975
      8          6           0       -3.153951    0.007005   -0.282994
      9          6           0        3.324923   -0.003894   -0.313298
     10          6           0        4.490791    0.010833   -0.024776
     11          1           0        1.311406   -0.888830    1.286554
     12          1           0        1.318237    0.869167    1.287928
     13          1           0        1.636902    0.867033   -1.213384
     14          1           0        1.643890   -0.895159   -1.205999
     15          1           0       -0.579426    2.143382    0.329645
     16          1           0       -0.595114   -2.148327    0.328517
     17          1           0       -2.993355    2.154867   -0.244347
     18          1           0       -3.009143   -2.142014   -0.245770
     19          1           0       -4.214257    0.011077   -0.530100
     20          1           0        5.520958    0.030248    0.252814
 ---------------------------------------------------------------------
 Rotational constants (GHZ):           4.4627534           0.6107206           0.5636569
 Standard basis: 6-311++G(d,p) (5D, 7F)
 There are   300 symmetry adapted cartesian basis functions of A   symmetry.
 There are   290 symmetry adapted basis functions of A   symmetry.
   290 basis functions,   450 primitive gaussians,   300 cartesian basis functions
    35 alpha electrons       35 beta electrons
       nuclear repulsion energy       444.2804151784 Hartrees.
 NAtoms=   20 NActive=   20 NUniq=   20 SFac= 1.00D+00 NAtFMM=   60 NAOKFM=F Big=F
 Integral buffers will be    131072 words long.
 Raffenetti 2 integral format.
 Two-electron integral symmetry is turned on.
 R6APFD:  NTU= -4 IXU= 1 FactS= 1.050
 Nuclear repulsion after empirical dispersion term =      444.2695201799 Hartrees.
 One-electron integrals computed using PRISM.
 NBasis=   290 RedAO= T EigKep=  3.89D-06  NBF=   290
 NBsUse=   288 1.00D-06 EigRej=  7.76D-07 NBFU=   288
 Initial guess from the checkpoint file:  "BLBE0004.chk"
 B after Tr=     0.000000    0.000000    0.000000
         Rot=    0.999999   -0.000037   -0.001146   -0.000445 Ang=  -0.14 deg.
 ExpMin= 3.60D-02 ExpMax= 4.56D+03 ExpMxC= 6.82D+02 IAcc=3 IRadAn=         5 AccDes= 0.00D+00
 Harris functional with IExCor= 1009 and IRadAn=       5 diagonalized for initial guess.
 HarFok:  IExCor= 1009 AccDes= 0.00D+00 IRadAn=         5 IDoV= 1 UseB2=F ITyADJ=14
 ICtDFT=  3500011 ScaDFX=  1.000000  1.000000  1.000000  1.000000
 FoFCou: FMM=F IPFlag=           0 FMFlag=      100000 FMFlg1=           0
         NFxFlg=           0 DoJE=T BraDBF=F KetDBF=T FulRan=T
         wScrn=  0.000000 ICntrl=       500 IOpCl=  0 I1Cent=   200000004 NGrid=           0
         NMat0=    1 NMatS0=      1 NMatT0=    0 NMatD0=    1 NMtDS0=    0 NMtDT0=    0
 Petite list used in FoFCou.
 Requested convergence on RMS density matrix=1.00D-08 within  32 cycles.
 Requested convergence on MAX density matrix=1.00D-06.
 Requested convergence on             energy=1.00D-06.
 No special actions if energy rises.
 SCF Done:  E(RM08HX) =  -387.023248100     A.U. after   12 cycles
            NFock= 12  Conv=0.41D-08     -V/T= 2.0053
 QCSCF skips out because SCF is already converged.
 R6APFD:  NTU= -4 IXU= 1 FactS= 1.050
 Calling FoFJK, ICntrl=      2127 FMM=F ISym2X=0 I1Cent= 0 IOpClX= 0 NMat=1 NMatS=1 NMatT=0.
 ***** Axes restored to original set *****
 -------------------------------------------------------------------
 Center     Atomic                   Forces (Hartrees/Bohr)
 Number     Number              X              Y              Z
 -------------------------------------------------------------------
      1        6          -0.000156436   -0.000082038    0.004837751
      2        6           0.001318289   -0.000008793   -0.000401459
      3        6           0.001261197   -0.000309042   -0.002968987
      4        6          -0.001581237    0.000351327   -0.000558365
      5        6          -0.001534276   -0.000329289   -0.000525909
      6        6           0.000818112    0.000170180    0.000224528
      7        6           0.000839231   -0.000167281    0.000221206
      8        6          -0.000059584    0.000019235   -0.000155469
      9        6          -0.000458428    0.000443870    0.000601880
     10        6           0.000087023    0.000167620    0.001306524
     11        1          -0.000484347    0.000008920   -0.000930985
     12        1          -0.000581103    0.000032177   -0.001000113
     13        1          -0.000477049   -0.000099629   -0.000101237
     14        1          -0.000699713    0.000091962   -0.000179854
     15        1           0.000450966    0.000142569    0.000339893
     16        1           0.000443423   -0.000153784    0.000332453
     17        1           0.000272409    0.000087632    0.000005759
     18        1           0.000280780   -0.000089970    0.000011213
     19        1           0.000111140   -0.000004479   -0.000030126
     20        1           0.000149603   -0.000271186   -0.001028704
 -------------------------------------------------------------------
 Cartesian Forces:  Max     0.004837751 RMS     0.000920188

 GradGradGradGradGradGradGradGradGradGradGradGradGradGradGradGradGradGrad
 Berny optimization.
 Using GEDIIS/GDIIS optimizer.
 FormGI is forming the generalized inverse of G from B-inverse, IUseBI=4.
 Internal  Forces:  Max     0.002831857 RMS     0.000592450
 Search for a local minimum.
 Step number   2 out of a maximum of  103
 All quantities printed in internal units (Hartrees-Bohrs-Radians)
 Mixed Optimization -- En-DIIS/RFO-DIIS
 Update second derivatives using D2CorX and points    1    2
 DE= -1.13D-03 DEPred=-1.09D-03 R= 1.04D+00
 TightC=F SS=  1.41D+00  RLast= 1.59D-01 DXNew= 5.0454D-01 4.7791D-01
 Trust test= 1.04D+00 RLast= 1.59D-01 DXMaxT set to 4.78D-01
 ITU=  1  0
 Use linear search instead of GDIIS.
     Eigenvalues ---    0.00255   0.00566   0.00575   0.00876   0.01616
     Eigenvalues ---    0.02116   0.02155   0.02156   0.02156   0.02157
     Eigenvalues ---    0.02157   0.02157   0.02168   0.04214   0.04688
     Eigenvalues ---    0.04924   0.05227   0.05365   0.06019   0.09381
     Eigenvalues ---    0.12751   0.15423   0.16000   0.16000   0.16000
     Eigenvalues ---    0.16000   0.16000   0.16105   0.19625   0.22000
     Eigenvalues ---    0.22004   0.22318   0.24049   0.24977   0.28769
     Eigenvalues ---    0.33650   0.33791   0.33997   0.34032   0.34733
     Eigenvalues ---    0.35109   0.35181   0.35264   0.35268   0.35390
     Eigenvalues ---    0.36498   0.37952   0.42083   0.42528   0.46430
     Eigenvalues ---    0.46469   0.46484   0.46815   1.04529
 RFO step:  Lambda=-1.04236047D-03 EMin= 2.55353431D-03
 Quartic linear search produced a step of  0.07812.
 Iteration  1 RMS(Cart)=  0.07293221 RMS(Int)=  0.01608246
 Iteration  2 RMS(Cart)=  0.02911255 RMS(Int)=  0.00225546
 Iteration  3 RMS(Cart)=  0.00221834 RMS(Int)=  0.00009293
 Iteration  4 RMS(Cart)=  0.00000518 RMS(Int)=  0.00009287
 Iteration  5 RMS(Cart)=  0.00000000 RMS(Int)=  0.00009287
 Variable       Old X    -DE/DX   Delta X   Delta X   Delta X     New X
                                 (Linear)    (Quad)   (Total)
    R1        2.84972  -0.00121   0.00241   0.00893   0.01134   2.86106
    R2        2.90652   0.00189  -0.00008   0.00667   0.00659   2.91311
    R3        2.07732  -0.00063   0.00005  -0.00176  -0.00172   2.07560
    R4        2.07736  -0.00067   0.00003  -0.00196  -0.00193   2.07543
    R5        2.63745   0.00022   0.00012   0.00115   0.00129   2.63875
    R6        2.63750   0.00016   0.00012   0.00102   0.00117   2.63867
    R7        2.76319  -0.00003  -0.00127  -0.00687  -0.00813   2.75505
    R8        2.07741   0.00008   0.00036   0.00219   0.00255   2.07996
    R9        2.07718   0.00018   0.00035   0.00242   0.00277   2.07995
   R10        2.63406  -0.00113  -0.00014  -0.00332  -0.00345   2.63060
   R11        2.06026   0.00038   0.00050   0.00381   0.00431   2.06457
   R12        2.63411  -0.00114  -0.00012  -0.00328  -0.00341   2.63070
   R13        2.06026   0.00039   0.00051   0.00389   0.00440   2.06466
   R14        2.63218   0.00044  -0.00031  -0.00066  -0.00100   2.63118
   R15        2.05786  -0.00006   0.00043   0.00212   0.00254   2.06040
   R16        2.63211   0.00046  -0.00031  -0.00057  -0.00090   2.63121
   R17        2.05786  -0.00006   0.00042   0.00205   0.00247   2.06033
   R18        2.05740  -0.00010   0.00038   0.00175   0.00213   2.05953
   R19        2.26981   0.00030   0.00009   0.00077   0.00086   2.27067
   R20        2.01650  -0.00014   0.00031   0.00127   0.00158   2.01809
    A1        1.94434  -0.00283  -0.00365  -0.03661  -0.04048   1.90386
    A2        1.92879   0.00070   0.00149   0.00866   0.00973   1.93852
    A3        1.92962   0.00067   0.00177   0.00953   0.01088   1.94050
    A4        1.90265   0.00073  -0.00064  -0.00074  -0.00142   1.90123
    A5        1.90262   0.00074  -0.00068  -0.00111  -0.00180   1.90082
    A6        1.85332   0.00016   0.00207   0.02295   0.02482   1.87814
    A7        2.10396  -0.00014   0.00075   0.00308   0.00360   2.10755
    A8        2.10435  -0.00021   0.00078   0.00295   0.00351   2.10785
    A9        2.07410   0.00034  -0.00158  -0.00712  -0.00879   2.06531
   A10        1.95258  -0.00037  -0.00022  -0.00181  -0.00203   1.95054
   A11        1.91394  -0.00024  -0.00005  -0.00290  -0.00296   1.91099
   A12        1.91422  -0.00036  -0.00001  -0.00302  -0.00304   1.91118
   A13        1.91059   0.00044   0.00025   0.00526   0.00551   1.91611
   A14        1.91041   0.00059  -0.00001   0.00568   0.00567   1.91608
   A15        1.85977  -0.00004   0.00005  -0.00323  -0.00320   1.85657
   A16        2.10639  -0.00012   0.00094   0.00449   0.00548   2.11186
   A17        2.08458  -0.00033  -0.00174  -0.01159  -0.01336   2.07122
   A18        2.09220   0.00045   0.00080   0.00710   0.00788   2.10008
   A19        2.10653  -0.00014   0.00094   0.00441   0.00540   2.11193
   A20        2.08441  -0.00031  -0.00174  -0.01146  -0.01323   2.07119
   A21        2.09223   0.00045   0.00080   0.00705   0.00782   2.10005
   A22        2.09540  -0.00013   0.00008  -0.00016  -0.00008   2.09531
   A23        2.09422  -0.00022  -0.00002  -0.00171  -0.00173   2.09249
   A24        2.09355   0.00035  -0.00005   0.00187   0.00182   2.09537
   A25        2.09523  -0.00010   0.00006  -0.00009  -0.00002   2.09521
   A26        2.09432  -0.00024  -0.00002  -0.00183  -0.00185   2.09247
   A27        2.09361   0.00034  -0.00005   0.00192   0.00187   2.09549
   A28        2.08867   0.00016  -0.00044  -0.00151  -0.00197   2.08670
   A29        2.09718  -0.00007   0.00022   0.00078   0.00101   2.09818
   A30        2.09733  -0.00008   0.00022   0.00073   0.00096   2.09829
   A31        3.09859   0.00178  -0.00350   0.02129   0.01779   3.11638
   A32        3.12033   0.00212  -0.00165   0.33286   0.33121   3.45154
   A33        3.12840  -0.00006  -0.00123  -0.00778  -0.00901   3.11939
   A34        3.13720   0.00021  -0.00032   0.03286   0.03255   3.16975
    D1       -1.54903   0.00011   0.00171   0.01562   0.01742  -1.53160
    D2        1.54949  -0.00010  -0.00166  -0.01445  -0.01618   1.53331
    D3        2.61623   0.00062   0.00399   0.03538   0.03959   2.65582
    D4       -0.56844   0.00041   0.00061   0.00531   0.00599  -0.56245
    D5        0.56945  -0.00042  -0.00040  -0.00407  -0.00455   0.56490
    D6       -2.61522  -0.00062  -0.00378  -0.03414  -0.03815  -2.65337
    D7        3.13291  -0.00002   0.00150   0.01227   0.01377  -3.13650
    D8        1.00960  -0.00017   0.00136   0.00882   0.01019   1.01979
    D9       -1.02700   0.00023   0.00133   0.01616   0.01749  -1.00951
   D10       -1.01718  -0.00050   0.00046  -0.00129  -0.00072  -1.01790
   D11       -3.14050  -0.00064   0.00032  -0.00474  -0.00430   3.13839
   D12        1.10609  -0.00024   0.00029   0.00261   0.00300   1.10909
   D13        0.99879   0.00049   0.00221   0.02502   0.02712   1.02591
   D14       -1.12453   0.00034   0.00207   0.02157   0.02354  -1.10099
   D15        3.12206   0.00074   0.00204   0.02891   0.03084  -3.13028
   D16        3.10932  -0.00035  -0.00254  -0.03053  -0.03302   3.07630
   D17       -0.03749  -0.00030  -0.00311  -0.03126  -0.03429  -0.07177
   D18        0.01006  -0.00013   0.00078  -0.00123  -0.00050   0.00956
   D19       -3.13674  -0.00008   0.00021  -0.00195  -0.00178  -3.13852
   D20       -3.10930   0.00035   0.00252   0.03053   0.03300  -3.07630
   D21        0.03768   0.00029   0.00312   0.03119   0.03423   0.07191
   D22       -0.01005   0.00013  -0.00079   0.00122   0.00048  -0.00957
   D23        3.13692   0.00008  -0.00020   0.00188   0.00172   3.13864
   D24       -0.00293   0.00002  -0.00021  -0.00053  -0.00072  -0.00365
   D25        3.13222   0.00009  -0.00078  -0.00013  -0.00090   3.13132
   D26       -3.13929  -0.00003   0.00036   0.00025   0.00064  -3.13865
   D27       -0.00414   0.00004  -0.00021   0.00065   0.00046  -0.00368
   D28        0.00291  -0.00002   0.00023   0.00055   0.00076   0.00367
   D29       -3.13230  -0.00009   0.00078   0.00015   0.00092  -3.13137
   D30        3.13909   0.00003  -0.00036  -0.00017  -0.00056   3.13853
   D31        0.00389  -0.00004   0.00019  -0.00057  -0.00040   0.00349
   D32       -0.00436   0.00009  -0.00037   0.00225   0.00189  -0.00247
   D33        3.13459   0.00006  -0.00058  -0.00011  -0.00069   3.13390
   D34       -3.13952   0.00003   0.00020   0.00186   0.00209  -3.13743
   D35       -0.00056  -0.00001  -0.00001  -0.00049  -0.00050  -0.00106
   D36        0.00438  -0.00009   0.00036  -0.00226  -0.00191   0.00246
   D37       -3.13458  -0.00006   0.00057   0.00010   0.00067  -3.13391
   D38        3.13958  -0.00003  -0.00020  -0.00187  -0.00209   3.13749
   D39        0.00063   0.00001   0.00002   0.00048   0.00049   0.00112
         Item               Value     Threshold  Converged?
 Maximum Force            0.002832     0.000450     NO 
 RMS     Force            0.000592     0.000300     NO 
 Maximum Displacement     0.666159     0.001800     NO 
 RMS     Displacement     0.097523     0.001200     NO 
 Predicted change in Energy=-5.909732D-04
 GradGradGradGradGradGradGradGradGradGradGradGradGradGradGradGradGradGrad

                          Input orientation:                          
 ---------------------------------------------------------------------
 Center     Atomic      Atomic             Coordinates (Angstroms)
 Number     Number       Type             X           Y           Z
 ---------------------------------------------------------------------
      1          6           0        1.035286    0.011018    0.783467
      2          6           0       -0.436262    0.005210    0.427481
      3          6           0        1.867687    0.013885   -0.514021
      4          6           0       -1.123868    1.201566    0.213553
      5          6           0       -1.115379   -1.196397    0.216145
      6          6           0       -2.456408    1.200527   -0.189130
      7          6           0       -2.447944   -1.205735   -0.186534
      8          6           0       -3.123459   -0.005172   -0.389122
      9          6           0        3.299180    0.012623   -0.237738
     10          6           0        4.471541    0.004328    0.025526
     11          1           0        1.301722   -0.874705    1.375836
     12          1           0        1.296737    0.897988    1.376023
     13          1           0        1.605349    0.896730   -1.116712
     14          1           0        1.604703   -0.865639   -1.121259
     15          1           0       -0.596953    2.145006    0.374439
     16          1           0       -0.581793   -2.135764    0.379192
     17          1           0       -2.978678    2.145388   -0.341658
     18          1           0       -2.963416   -2.154603   -0.337041
     19          1           0       -4.168785   -0.009120   -0.697441
     20          1           0        5.529339   -0.122935   -0.047508
 ---------------------------------------------------------------------
                    Distance matrix (angstroms):
                    1          2          3          4          5
     1  C    0.000000
     2  C    1.514006   0.000000
     3  C    1.541549   2.488911   0.000000
     4  C    2.530643   1.396365   3.299902   0.000000
     5  C    2.530824   1.396325   3.301001   2.397980   0.000000
     6  C    3.814814   2.426929   4.495717   1.392055   2.776302
     7  C    3.815007   2.426987   4.496597   2.776391   1.392108
     8  C    4.320925   2.808555   4.992745   2.412012   2.412002
     9  C    2.483561   3.794219   1.457912   4.602239   4.599573
    10  C    3.518859   4.924236   2.659184   5.725149   5.717670
    11  H    1.098361   2.166614   2.163670   3.397837   2.700139
    12  H    1.098269   2.167965   2.163305   2.702374   3.398540
    13  H    2.172587   2.710629   1.100669   3.051418   3.682397
    14  H    2.172727   2.706014   1.100664   3.674257   3.049082
    15  H    2.717612   2.146477   3.377201   1.092521   3.385084
    16  H    2.717914   2.146458   3.379167   3.385122   1.092570
    17  H    4.683305   3.411131   5.297194   2.153922   3.866595
    18  H    4.683489   3.411128   5.298417   3.866647   2.153930
    19  H    5.410717   3.898383   6.039302   3.401058   3.401111
    20  H    4.572196   5.985852   3.693785   6.788786   6.736031
                    6          7          8          9         10
     6  C    0.000000
     7  C    2.406278   0.000000
     8  C    1.392359   1.392377   0.000000
     9  C    5.877098   5.875070   6.424448   0.000000
    10  C    7.033737   7.027695   7.606317   1.201585   0.000000
    11  H    4.569382   4.075607   4.842871   2.716765   3.555811
    12  H    4.077663   4.570544   4.844541   2.719903   3.563966
    13  H    4.177388   4.659910   4.868720   2.103165   3.211876
    14  H    4.650864   4.172928   4.861270   2.103142   3.207915
    15  H    2.160376   3.868891   3.404339   4.483489   5.513064
    16  H    3.868851   2.160444   3.404379   4.478629   5.499205
    17  H    1.090318   3.396434   2.155951   6.631062   7.760459
    18  H    3.396444   1.090282   2.156010   6.627733   7.750550
    19  H    2.157281   2.157361   1.089854   7.482133   8.670531
    20  H    8.095911   8.051635   8.660340   2.242359   1.067926
                   11         12         13         14         15
    11  H    0.000000
    12  H    1.772701   0.000000
    13  H    3.072941   2.511766   0.000000
    14  H    2.515425   3.072726   1.762375   0.000000
    15  H    3.704918   2.478767   2.938002   4.018506   0.000000
    16  H    2.476125   3.704889   4.027075   2.940295   4.280799
    17  H    5.512946   4.773427   4.813850   5.539083   2.487047
    18  H    4.771110   5.513783   5.549066   4.810836   4.959131
    19  H    5.913896   5.915576   5.859776   5.852044   4.306643
    20  H    4.523694   4.580791   4.192924   4.136099   6.546224
                   16         17         18         19         20
    16  H    0.000000
    17  H    4.959128   0.000000
    18  H    2.487062   4.300021   0.000000
    19  H    4.306770   2.486935   2.487147   0.000000
    20  H    6.448215   8.810117   8.737184   9.720545   0.000000
 Stoichiometry    C10H10
 Framework group  C1[X(C10H10)]
 Deg. of freedom    54
 Full point group                 C1      NOp   1
 Largest Abelian subgroup         C1      NOp   1
 Largest concise Abelian subgroup C1      NOp   1
                         Standard orientation:                         
 ---------------------------------------------------------------------
 Center     Atomic      Atomic             Coordinates (Angstroms)
 Number     Number       Type             X           Y           Z
 ---------------------------------------------------------------------
      1          6           0        1.051896    0.008412    0.752662
      2          6           0       -0.426264    0.002618    0.425214
      3          6           0        1.859036    0.011611   -0.560688
      4          6           0       -1.117930    1.198991    0.224902
      5          6           0       -1.109294   -1.198972    0.226784
      6          6           0       -2.458012    1.197982   -0.151922
      7          6           0       -2.449400   -1.208280   -0.150038
      8          6           0       -3.128758   -0.007702   -0.339245
      9          6           0        3.295607    0.010352   -0.312154
     10          6           0        4.472843    0.002050   -0.071625
     11          1           0        1.329780   -0.877433    1.339564
     12          1           0        1.324727    0.895260    1.340250
     13          1           0        1.585049    0.894580   -1.157989
     14          1           0        1.584389   -0.867788   -1.162924
     15          1           0       -0.588040    2.142418    0.375777
     16          1           0       -0.572614   -2.138352    0.379264
     17          1           0       -2.983174    2.142854   -0.294102
     18          1           0       -2.967649   -2.157137   -0.290758
     19          1           0       -4.179854   -0.011628   -0.627281
     20          1           0        5.529035   -0.125148   -0.165142
 ---------------------------------------------------------------------
 Rotational constants (GHZ):           4.3834598           0.6170967           0.5706650
 Standard basis: 6-311++G(d,p) (5D, 7F)
 There are   300 symmetry adapted cartesian basis functions of A   symmetry.
 There are   290 symmetry adapted basis functions of A   symmetry.
   290 basis functions,   450 primitive gaussians,   300 cartesian basis functions
    35 alpha electrons       35 beta electrons
       nuclear repulsion energy       444.9873665159 Hartrees.
 NAtoms=   20 NActive=   20 NUniq=   20 SFac= 1.00D+00 NAtFMM=   60 NAOKFM=F Big=F
 Integral buffers will be    131072 words long.
 Raffenetti 2 integral format.
 Two-electron integral symmetry is turned on.
 R6APFD:  NTU= -4 IXU= 1 FactS= 1.050
 Nuclear repulsion after empirical dispersion term =      444.9763587312 Hartrees.
 One-electron integrals computed using PRISM.
 NBasis=   290 RedAO= T EigKep=  4.29D-06  NBF=   290
 NBsUse=   288 1.00D-06 EigRej=  7.84D-07 NBFU=   288
 Initial guess from the checkpoint file:  "BLBE0004.chk"
 B after Tr=    -0.000000    0.000000    0.000000
         Rot=    0.999999    0.000419   -0.000581   -0.000794 Ang=   0.12 deg.
 ExpMin= 3.60D-02 ExpMax= 4.56D+03 ExpMxC= 6.82D+02 IAcc=3 IRadAn=         5 AccDes= 0.00D+00
 Harris functional with IExCor= 1009 and IRadAn=       5 diagonalized for initial guess.
 HarFok:  IExCor= 1009 AccDes= 0.00D+00 IRadAn=         5 IDoV= 1 UseB2=F ITyADJ=14
 ICtDFT=  3500011 ScaDFX=  1.000000  1.000000  1.000000  1.000000
 FoFCou: FMM=F IPFlag=           0 FMFlag=      100000 FMFlg1=           0
         NFxFlg=           0 DoJE=T BraDBF=F KetDBF=T FulRan=T
         wScrn=  0.000000 ICntrl=       500 IOpCl=  0 I1Cent=   200000004 NGrid=           0
         NMat0=    1 NMatS0=      1 NMatT0=    0 NMatD0=    1 NMtDS0=    0 NMtDT0=    0
 Petite list used in FoFCou.
 Requested convergence on RMS density matrix=1.00D-08 within  32 cycles.
 Requested convergence on MAX density matrix=1.00D-06.
 Requested convergence on             energy=1.00D-06.
 No special actions if energy rises.
 SCF Done:  E(RM08HX) =  -387.020377175     A.U. after   13 cycles
            NFock= 13  Conv=0.58D-08     -V/T= 2.0053
 QCSCF skips out because SCF is already converged.
 R6APFD:  NTU= -4 IXU= 1 FactS= 1.050
 Calling FoFJK, ICntrl=      2127 FMM=F ISym2X=0 I1Cent= 0 IOpClX= 0 NMat=1 NMatS=1 NMatT=0.
 ***** Axes restored to original set *****
 -------------------------------------------------------------------
 Center     Atomic                   Forces (Hartrees/Bohr)
 Number     Number              X              Y              Z
 -------------------------------------------------------------------
      1        6          -0.005544270   -0.000243495   -0.002306989
      2        6           0.000137752    0.000170338    0.000634258
      3        6          -0.000526928    0.001687224    0.000998566
      4        6           0.003172185    0.001832844    0.001334420
      5        6           0.003216353   -0.001875207    0.001356440
      6        6          -0.000492876    0.001599523    0.000087354
      7        6          -0.000438444   -0.001528594    0.000093827
      8        6          -0.001120740   -0.000030945   -0.000307961
      9        6          -0.001698768    0.000317379    0.000758307
     10        6           0.003483011   -0.005140982   -0.012444492
     11        1          -0.000768499    0.000668863    0.000203928
     12        1          -0.000917782   -0.000628577    0.000242851
     13        1          -0.000019335   -0.000575829    0.000591247
     14        1           0.000603680    0.000436192    0.000687519
     15        1          -0.001217992   -0.000283063   -0.000387960
     16        1          -0.001236530    0.000291238   -0.000393662
     17        1           0.000592784   -0.000784318    0.000071614
     18        1           0.000569411    0.000773439    0.000069221
     19        1           0.000915140   -0.000004203    0.000096693
     20        1           0.001291849    0.003318176    0.008614818
 -------------------------------------------------------------------
 Cartesian Forces:  Max     0.012444492 RMS     0.002491621

 GradGradGradGradGradGradGradGradGradGradGradGradGradGradGradGradGradGrad
 Berny optimization.
 Using GEDIIS/GDIIS optimizer.
[...]
 9210,0.17681743,-0.00076343,-0.00000423,0.00113983,0.00115281,-0.00019
 296,0.00151258,-0.00025398,0.00000298,-0.00088886,-0.02410783,-0.02757
 669,-0.00854720,-0.02359700,0.02785983,-0.00847728,-0.17571663,-0.1249
 4211,-0.03138269,-0.17493066,0.12438962,-0.03150355,0.70154936,-0.0000
 0453,-0.00179998,-0.00000325,-0.00018906,-0.08461780,0.00005643,0.0000
 0059,0.00082875,0.00000198,-0.08310357,0.04144350,-0.02403412,0.083386
 97,0.04098645,0.02401747,-0.05149170,-0.28760168,-0.01494503,0.0509398
 1,-0.28833335,0.01541756,0.00003160,0.66614294,-0.00013658,0.00000020,
 -0.00086894,0.00250028,0.00005355,-0.00591028,0.00006236,-0.00000076,-
 0.00011120,-0.00879074,-0.00771591,0.00475368,-0.00887960,0.00770026,0
 .00470521,-0.03124272,-0.03502175,-0.07199416,-0.03116438,0.03549490,-
 0.07206754,0.15800484,-0.00073357,0.17858028,-0.03218419,0.00005986,0.
 00588651,-0.00292534,0.00000862,0.00316019,-0.27889978,0.00038009,-0.0
 4468954,0.00024768,-0.00027847,0.00006017,0.00024754,0.00027634,0.0000
 5965,-0.00000774,-0.00001021,-0.00019741,-0.00000606,0.00000959,-0.000
 19648,-0.00001404,0.00000085,0.00001915,1.40627365,0.00005869,-0.00155
 319,-0.00000899,0.00000988,0.00144316,-0.00000618,0.00039744,-0.068123
 09,0.00008477,0.00034651,-0.00021986,0.00008828,-0.00034782,-0.0002196
 5,-0.00008810,-0.00066697,-0.00017333,-0.00030868,0.00066629,-0.000175
 82,0.00030875,0.00000145,0.00066028,-0.00000039,-0.00264748,0.09610442
 ,0.02849914,-0.00005369,0.00943204,0.00175200,-0.00000204,-0.00509586,
 -0.04508559,0.00008407,-0.07533037,0.00067567,0.00015057,0.00026675,0.
 00067737,-0.00015373,0.00026660,-0.00008280,-0.00002162,0.00040351,-0.
 00008302,0.00002307,0.00040398,0.00030471,-0.00000077,0.00004460,0.279
 02659,-0.00056421,0.16184219,0.00144030,-0.00000194,-0.00567340,0.0008
 2055,-0.00000165,0.00169135,-0.00188576,0.00002700,-0.00359631,-0.0004
 1247,-0.00029287,0.00005226,-0.00041082,0.00029531,0.00005163,0.000100
 94,-0.00003922,-0.00006995,0.00010039,0.00003874,-0.00007050,-0.000254
 93,0.00000016,-0.00006109,-1.07622260,0.00213953,-0.22924271,1.4852003
 7,-0.00000171,0.00046092,0.00001106,-0.00000104,0.00024137,-0.00000332
 ,0.00001054,0.00670144,0.00000493,-0.00008956,-0.00004612,-0.00003522,
 0.00009107,-0.00004760,0.00003459,0.00004153,0.00005303,0.00000184,-0.
 00004176,0.00005306,-0.00000123,0.00000039,-0.00005546,0.00000004,0.00
 215006,-0.03643369,0.00047261,-0.00295599,0.05228978,-0.00022145,0.000
 00030,-0.00264394,-0.00002478,-0.00000015,0.00096371,-0.00231998,0.000
 00562,0.00639772,-0.00003191,-0.00009209,0.00002119,-0.00003187,0.0000
 9261,0.00002132,0.00001846,-0.00004445,-0.00004645,0.00001853,0.000044
 19,-0.00004689,-0.00005031,0.,-0.00003627,-0.23071808,0.00047274,-0.08
 762316,0.31557651,-0.00064859,0.12274055,-0.06021155,0.04778419,-0.035
 63253,-0.00891607,0.02753377,-0.01684988,0.00260839,-0.01570166,0.0116
 5714,-0.00514356,-0.00168899,-0.00194815,0.00128477,0.00165073,0.00099
 465,-0.00047397,0.00131335,0.00073157,-0.00012600,0.00008256,0.0002620
 7,0.00000869,-0.00013037,-0.00013754,0.00179572,-0.00083466,0.00030644
 ,-0.00029375,0.00030250,-0.00052042,0.07002168,0.04896845,-0.22177188,
 0.11328063,0.00016138,0.00039361,-0.00181288,-0.00028774,0.00126748,-0
 .00089810,0.00046191,0.00030121,0.00059205,-0.00171451,0.00043645,-0.0
 0084974,-0.00025597,-0.00010689,-0.00008247,0.00074579,0.00006973,-0.0
 0034508,-0.00012424,0.00038711,-0.00004904,0.00009460,0.00016011,0.000
 13825,-0.00037643,-0.00002440,-0.00024545,-0.05348298,0.23564080,-0.03
 593801,0.11151579,-0.12014556,-0.00031367,0.00418737,-0.00301241,-0.00
 380201,0.02359792,-0.01816672,-0.00092587,-0.00051871,0.00010591,0.000
 55376,0.00064645,0.00064737,0.00055362,0.00042442,0.00030151,-0.000223
 90,-0.00000418,-0.00004689,-0.00004579,-0.00041632,-0.00004381,-0.0018
 2808,0.00002713,0.00038497,0.00060638,-0.00026156,0.00038210,0.0346707
 7,-0.12407998,0.13330826,-0.06058051,-0.04844103,-0.03609545,-0.009036
 03,-0.02749608,-0.01684187,0.00267232,0.01569797,0.01166112,0.00128325
 ,-0.00165124,0.00100125,-0.00513173,0.00170999,-0.00195125,-0.00012909
 ,-0.00008178,0.00026489,-0.00048085,-0.00130795,0.00073588,0.00000907,
 0.00013054,-0.00013799,0.00179777,0.00082869,0.00030625,-0.00029337,-0
 .00030115,-0.00051929,0.00118333,0.00615604,0.00461231,0.07043687,-0.0
 4961374,-0.22137026,-0.11313253,-0.00012856,0.00050883,0.00188070,0.00
 028183,0.00120300,0.00085126,0.00171205,0.00043520,0.00084661,-0.00044
 175,0.00029476,-0.00058414,-0.00074739,0.00007292,0.00034397,0.0002578
 0,-0.00010339,0.00008071,0.00012642,0.00038776,0.00004928,-0.00010118,
 0.00015731,-0.00013952,0.00037782,-0.00002449,0.00024764,-0.00623975,-
 0.01923130,-0.01410335,0.05415338,0.23519764,-0.03638731,-0.11136766,-
 0.12012799,-0.00033205,-0.00418493,-0.00300968,-0.00389684,-0.02358437
 ,-0.01816728,0.00054794,-0.00064876,0.00064964,-0.00092150,0.00052286,
 0.00010285,-0.00022373,0.00000497,-0.00004676,0.00055195,-0.00042591,0
 .00030128,-0.00004393,0.00041637,-0.00004465,-0.00182782,-0.00002087,0
 .00038558,0.00060736,0.00025935,0.00038207,0.00466975,0.01408272,0.009
 86124,0.03517134,0.12393968,0.13328990,0.00289062,-0.01492266,0.010606
 55,0.00135390,-0.00102019,0.00047473,-0.05844267,0.04936643,-0.0344364
 7,0.00031466,-0.00001868,-0.00034235,-0.00024073,-0.00026389,-0.000275
 08,-0.00036864,0.00000761,-0.00018954,0.00022744,-0.00010383,0.0000747
 2,0.00006251,0.00028272,0.00004614,-0.01340946,0.02825713,-0.01913713,
 -0.00184627,-0.00161015,0.00039330,-0.00182736,0.00010106,0.00336349,0
 .00046058,0.00039808,-0.00084516,0.06928707,-0.00066469,0.00085252,-0.
 00044624,0.00041356,0.00040951,-0.00006247,0.04802737,-0.21546026,0.11
 298783,-0.00020264,0.00035756,-0.00007413,-0.00033341,-0.00034477,-0.0
 0013388,-0.00021407,-0.00011262,-0.00011069,0.00016156,-0.00004255,0.0
 0008843,-0.00009146,0.00017425,-0.00003629,0.00262983,0.00254622,-0.00
 226536,-0.00162236,0.00013063,-0.00001380,0.00027858,0.00133327,-0.000
 51527,-0.00037300,0.00062774,0.00007558,-0.05382766,0.23023126,-0.0035
 9143,0.02328636,-0.01787324,-0.00170168,-0.00055700,0.00044361,-0.0333
 9982,0.11246815,-0.11778479,-0.00025544,0.00042516,0.00015291,0.000659
 15,0.00029874,0.00032194,0.00058869,0.00001376,0.00021273,-0.00060481,
 0.00023405,-0.00021586,-0.00001623,-0.00058691,-0.00006442,-0.00442295
 ,0.00318371,-0.00411640,0.00069540,0.00012515,0.00063591,0.00330920,-0
 .00064724,-0.00389452,-0.00077690,-0.00021302,0.00067895,0.03489550,-0
 .12361995,0.13224264,0.00295150,0.01491789,0.01060376,0.00135761,0.001
 01502,0.00047417,-0.05879097,-0.04995260,-0.03484783,-0.00023783,0.000
 26373,-0.00027563,0.00031735,0.00001688,-0.00034294,0.00022712,0.00010
 274,0.00007403,-0.00036778,-0.00000631,-0.00018925,0.00006145,-0.00028
 217,0.00004677,-0.01352545,-0.02819918,-0.01912217,-0.00183094,0.00161
 757,0.00039346,0.00046055,-0.00039751,-0.00084555,-0.00182850,-0.00008
 823,0.00336552,0.00140388,0.00596537,0.00456509,0.06966484,0.00065439,
 0.00079246,0.00040575,-0.00041494,0.00040734,0.00006130,-0.04861213,-0
 .21512561,-0.11284613,0.00033239,-0.00034744,0.00013544,0.00020505,0.0
 0035580,0.00007405,-0.00016183,-0.00004193,-0.00008857,0.00021395,-0.0
 0011281,0.00011070,0.00009191,0.00017417,0.00003601,-0.00257157,0.0026
 6065,0.00233458,0.00162964,0.00011795,0.00001286,0.00037333,0.00062828
 ,-0.00007235,-0.00026607,0.00133481,0.00050235,-0.00604683,-0.02052929
 ,-0.01398618,0.05442807,0.22986196,-0.00368108,-0.02327423,-0.01786619
 ,-0.00169747,0.00056286,0.00044208,-0.03380990,-0.11232944,-0.11773398
 ,0.00065760,-0.00030027,0.00032235,-0.00025706,-0.00042199,0.00015376,
 -0.00060537,-0.00023175,-0.00021563,0.00058792,-0.00001655,0.00021213,
 -0.00001343,0.00058627,-0.00006520,-0.00443432,-0.00316824,-0.00411590
 ,0.00069547,-0.00012759,0.00063596,-0.00077638,0.00021604,0.00067898,0
 .00331246,0.00063335,-0.00389473,0.00461721,0.01397184,0.00936735,0.03
 534708,0.12347691,0.13218536,0.00054626,0.00085247,0.00161126,0.009994
 14,0.01272784,0.00162136,-0.00007132,0.00014952,-0.00015597,-0.1201013
 6,-0.11348559,-0.02358417,-0.00022212,0.00339426,-0.00202727,-0.008839
 83,-0.02759474,-0.00325627,-0.00082113,0.00087411,0.00009555,-0.004824
 70,0.00125278,-0.00344982,-0.00005945,-0.00009345,0.00000762,0.0000869
 0,-0.00000225,0.00000251,0.00010025,-0.00020193,-0.00000926,-0.0000424
 9,-0.00007446,-0.00044012,0.00010443,-0.00018043,0.00013619,0.00007390
 ,-0.00006902,-0.00001504,0.12400793,-0.00163865,0.00058538,-0.00063465
 ,-0.01557823,-0.01890699,-0.00453514,0.00031855,-0.00007670,0.00009051
 ,-0.11366789,-0.26159679,-0.03203926,0.00380123,-0.00334007,0.00103257
 ,0.00225474,0.00346627,0.00068741,0.00113096,0.00018996,0.00028543,0.0
 0040257,0.00210262,0.00010709,0.00014856,0.00006664,-0.00008256,-0.000
 07354,0.00001801,-0.00000553,-0.00002609,0.00039135,0.00017093,0.00114
 377,0.00009450,0.00058801,0.00023599,-0.00015317,-0.00026385,-0.000124
 05,0.00009262,0.00006927,0.12275344,0.27759454,0.00156019,0.00088987,-
 0.00295978,0.00095166,0.00393467,0.00404551,0.00038517,-0.00037821,0.0
 0027271,-0.02333954,-0.03292439,-0.04372391,-0.00192071,0.00108280,0.0
 0642817,-0.00332252,-0.00757924,0.00236535,0.00006202,0.00022619,-0.00
 114488,-0.00343213,0.00030236,0.00658717,0.00011183,0.00018217,-0.0002
 4461,-0.00002783,0.00000084,-0.00000099,-0.00029881,-0.00000700,-0.000
 02363,-0.00039489,-0.00047724,-0.00022385,0.00019405,0.00003753,-0.000
 21656,-0.00000386,0.00004418,-0.00002218,0.02808622,0.03478871,0.03332
 149,0.00055245,-0.00085158,0.00161649,0.01000381,-0.01285646,0.0016595
 2,-0.00007370,-0.00014896,-0.00015629,-0.00025448,-0.00341183,-0.00202
 673,-0.11908183,0.11280264,-0.02360888,-0.00083063,-0.00086953,0.00009
 555,-0.00872350,0.02764481,-0.00330006,-0.00483238,-0.00122611,-0.0034
 4849,-0.00005974,0.00009338,0.00000806,0.00008701,0.00000210,0.0000024
 8,-0.00004878,0.00007456,-0.00044301,0.00010126,0.00020323,-0.00001034
 ,0.00007465,0.00006896,-0.00001538,0.00010360,0.00017850,0.00013655,0.
 00048998,-0.00076726,0.00013344,0.12290743,0.00164223,0.00058197,0.000
 62274,0.01544807,-0.01891734,0.00456174,-0.00031755,-0.00007362,-0.000
 08928,-0.00381783,-0.00331080,-0.00100861,0.11298305,-0.26253624,0.032
 46896,-0.00112646,0.00019818,-0.00028792,-0.00220492,0.00336169,-0.000
 67409,-0.00037644,0.00210956,-0.00008477,-0.00014757,0.00006621,0.0000
 8195,0.00007283,0.00001776,0.00000541,-0.00114517,0.00010005,-0.000586
 36,0.00002683,0.00039032,-0.00017108,0.00012403,0.00009149,-0.00006957
 ,-0.00023621,-0.00015339,0.00026181,0.00076028,-0.00109387,0.00018482,
 -0.12200562,0.27860805,0.00155345,-0.00090368,-0.00296377,0.00091023,-
 0.00390356,0.00404490,0.00038828,0.00037720,0.00027246,-0.00192012,-0.
 00105917,0.00643142,-0.02336076,0.03335249,-0.04382531,0.00006275,-0.0
 0022837,-0.00114409,-0.00328414,0.00759234,0.00235443,-0.00343264,-0.0
 0028024,0.00658719,0.00011118,-0.00018201,-0.00024458,-0.00002750,-0.0
 0000086,-0.00000088,-0.00039103,0.00047771,-0.00022212,-0.00029977,0.0
 0000677,-0.00002246,-0.00000429,-0.00004425,-0.00002235,0.00019385,-0.
 00003771,-0.00021639,0.00013139,-0.00018349,0.00016653,0.02811278,-0.0
 3527766,0.03343142,-0.00007806,0.00136192,-0.00021036,-0.00473216,-0.0
 0108329,-0.00324934,-0.00005080,0.00002454,-0.00014778,-0.00847803,0.0
 2779610,-0.00332259,-0.00097774,-0.00103072,0.00003172,-0.12056087,0.1
 1505547,-0.02293087,-0.00006236,-0.00333482,-0.00209232,0.01116888,-0.
 01424499,0.00207182,0.00001406,-0.00000654,0.00009520,-0.00009031,-0.0
 0001814,-0.00001405,-0.00045333,0.00004121,-0.00004494,0.00004004,-0.0
 0004467,0.00000317,-0.00000140,-0.00001056,0.00002507,0.00000182,0.000
 00323,0.00000312,0.00023279,-0.00040828,0.00118698,-0.00004201,0.00009
 765,0.00028111,0.12344949,-0.00019457,0.00000764,-0.00004463,-0.000555
 88,0.00204849,-0.00018542,0.00003870,-0.00001965,0.00005183,-0.0022797
 3,0.00338267,-0.00062202,-0.00100680,0.00032262,-0.00028291,0.11509522
 ,-0.26824735,0.03157739,-0.00385593,-0.00333615,-0.00108666,0.01572468
 ,-0.01733889,0.00433129,-0.00000926,-0.00000880,-0.00003953,0.00004921
 ,0.00000274,0.00001073,0.00003167,-0.00000356,-0.00001253,0.00001869,0
 .00000270,-0.00000787,-0.00000776,0.00000583,0.00001910,-0.00000363,-0
 .00000640,-0.00000144,0.00039297,0.00059788,0.00011527,0.00009126,-0.0
 0004695,0.00002538,-0.12385882,0.28307578,0.00011327,0.00047981,0.0000
 4603,-0.00367611,-0.00014879,0.00674644,0.00000471,-0.00004169,-0.0000
 2631,-0.00340114,0.00755253,0.00264440,0.00001610,-0.00028605,-0.00117
 040,-0.02284941,0.03149117,-0.04431548,-0.00206328,-0.00094253,0.00689
 720,0.00209044,-0.00389003,0.00418450,0.00001310,-0.00004094,0.0000127
 0,-0.00003762,0.00000634,-0.00001099,-0.00003562,0.00002211,-0.0000643
 4,-0.00000783,-0.00004349,-0.00002699,0.00001889,0.00000472,0.00001937
 ,-0.00000173,-0.00000981,-0.00000487,0.00121331,-0.00009999,-0.0037565
 7,0.00028468,0.00001567,-0.00097944,0.02704174,-0.03396506,0.03338396,
 -0.00008327,-0.00136112,-0.00020803,-0.00472459,0.00110895,-0.00324974
 ,-0.00005151,-0.00002449,-0.00014820,-0.00096833,0.00103647,0.00003159
 ,-0.00859402,-0.02774641,-0.00327813,-0.00002962,0.00331647,-0.0020925
 1,-0.12160099,-0.11576136,-0.02289785,0.01116146,0.01411863,0.00203089
 ,0.00001410,0.00000646,0.00009546,-0.00009049,0.00001849,-0.00001413,0
 .00004014,0.00004454,0.00000322,-0.00045326,-0.00003935,-0.00004483,0.
 00000186,-0.00000327,0.00000312,-0.00000132,0.00001061,0.00002497,-0.0
 0004285,-0.00009723,0.00028115,0.00023283,0.00041167,0.00118562,0.0003
 6867,0.00076781,0.00008827,0.12456986,0.00019529,0.00001227,0.00004564
 ,0.00058088,0.00204149,0.00020716,-0.00003851,-0.00001935,-0.00005121,
 0.00101261,0.00031413,0.00028054,0.00232843,0.00348766,0.00063574,0.00
 383772,-0.00336541,0.00111154,-0.11580037,-0.26729412,-0.03114081,-0.0
 1585059,-0.01733279,-0.00430842,0.00000918,-0.00000880,0.00003910,-0.0
 0004884,0.00000284,-0.00001066,-0.00001880,0.00000265,0.00000780,-0.00
 002973,-0.00000334,0.00001265,0.00000361,-0.00000638,0.00000142,0.0000
 0780,0.00000573,-0.00001914,-0.00009085,-0.00004618,-0.00002806,-0.000
 38953,0.00059771,-0.00012718,-0.00077395,-0.00100469,-0.00021800,0.124
 62459,0.28205054,0.00011137,-0.00048024,0.00004648,-0.00367633,0.00017
 267,0.00674470,0.00000448,0.00004191,-0.00002589,0.00001605,0.00028354
 ,-0.00117152,-0.00343908,-0.00753823,0.00265440,-0.00206520,0.00096739
 ,0.00689486,-0.02281523,-0.03105578,-0.04421596,0.00213186,0.00391351,
 0.00418540,0.00001321,0.00004097,0.00001271,-0.00003761,-0.00000622,-0
 .00001099,-0.00000754,0.00004339,-0.00002709,-0.00003554,-0.00002224,-
 0.00006399,-0.00000177,0.00000980,-0.00000494,0.00001875,-0.00000486,0
 .00001937,0.00028475,-0.00001839,-0.00097943,0.00121421,0.00008792,-0.
 00375599,0.00009042,0.00021927,0.00009895,0.02700600,0.03347149,0.0332
 7765,-0.00009949,0.00000081,0.00014685,0.00066313,-0.00000497,0.000505
 34,0.00000878,-0.00000015,0.00001701,0.00108657,-0.00313369,-0.0017336
 8,0.00111259,0.00310569,-0.00173534,-0.00997234,0.00332477,-0.00364168
 ,-0.00986494,-0.00326225,-0.00360302,-0.31590806,0.00052800,-0.0773399
 3,0.00003041,-0.00000002,0.00003066,-0.00005648,0.00000014,-0.00001040
 ,0.00002408,-0.00000123,0.00002603,0.00002454,0.00000138,0.00002621,0.
 00000375,-0.00000794,-0.00001582,0.00000363,0.00000793,-0.00001567,-0.
 00059704,0.00017746,-0.00021250,-0.00059161,-0.00017499,-0.00021051,0.
 00023947,-0.00043047,0.00118338,0.00023947,0.00043373,0.00118235,0.333
 64313,0.00000082,0.00013213,-0.00000107,-0.00000481,-0.00163687,-0.000
 00050,0.00000009,0.00000390,0.00000002,-0.00248649,-0.00447114,-0.0007
 0473,0.00245849,-0.00449428,0.00072968,-0.02683885,0.00515452,-0.00741
 508,0.02690176,0.00505777,0.00742733,0.00052740,-0.05828188,0.00017825
 ,0.,0.00001818,-0.00000015,0.00000012,0.00000777,0.00000002,-0.0000839
 7,0.00004296,-0.00003628,0.00008388,0.00004240,0.00003616,0.00002613,0
 .00000186,-0.00003477,-0.00002608,0.00000193,0.00003473,-0.00136743,0.
 00002518,-0.00038096,0.00136991,0.00002032,0.00038199,0.00042729,0.000
 56669,0.00011352,-0.00042405,0.00056663,-0.00012539,-0.00056418,0.0572
 4608,0.00040033,-0.00000174,-0.00084068,0.00034273,-0.00000010,-0.0008
 6474,0.00011882,-0.00000008,0.00001042,-0.00165777,-0.00091433,0.00688
 779,-0.00165762,0.00093893,0.00688643,-0.00369661,0.00080034,0.0021331
 3,-0.00374076,-0.00078767,0.00212341,-0.07733241,0.00017824,-0.0584271
 2,0.00002127,0.00000004,-0.00006528,-0.00000285,-0.00000002,0.00001386
 ,-0.00004177,0.00013447,0.00001532,-0.00004264,-0.00013470,0.00001541,
 0.00000637,0.00000439,-0.00000350,0.00000640,-0.00000432,-0.00000342,-
 0.00024964,0.00003673,0.00008812,-0.00025195,-0.00003556,0.00008769,0.
 00118643,-0.00010296,-0.00367975,0.00118765,0.00009115,-0.00368028,0.0
 8540159,-0.00020280,0.04930016,0.00031993,-0.00000040,0.00022317,-0.00
 012795,0.00000008,-0.00010702,0.00084281,0.00001077,-0.00105242,0.0000
 7016,0.00000850,0.00001260,0.00007024,-0.00000872,0.00001266,-0.000007
 40,0.,0.00000331,-0.00000757,0.00000007,0.00000321,0.00002940,-0.00000
 015,0.00000662,0.00689293,-0.00000933,0.00096826,-0.40414827,0.0007873
 4,-0.08192860,-0.00003322,-0.00000700,0.00003051,-0.00003319,0.0000070
 6,0.00003042,-0.00004882,-0.00001374,-0.00007696,-0.00004444,0.0000133
 9,-0.00007664,-0.00001429,0.00001393,0.00000007,-0.00001435,-0.0000138
 9,0.00000013,0.00001184,-0.00000735,0.00000486,0.00001185,0.00000731,0
 .00000485,0.00001042,-0.00000003,0.00000241,0.39621991,-0.00000048,0.0
 0011027,-0.00000052,-0.00000006,-0.00011469,0.00000019,0.00000839,0.00
 574010,0.00000184,-0.00001285,0.00002965,0.00000036,0.00001262,0.00002
 962,-0.00000033,0.00003699,-0.00000024,0.00002225,-0.00003694,-0.00000
 012,-0.00002234,-0.00000013,-0.00003554,0.00000005,-0.00000185,0.00303
 302,-0.00000103,0.00078248,-0.02346553,0.00016860,0.00000176,-0.000017
 01,0.00002909,-0.00000175,-0.00001710,-0.00002925,-0.00098114,-0.00011
 310,-0.00007714,0.00098087,-0.00011682,0.00007756,0.00000248,-0.000011
 18,-0.00001430,-0.00000247,-0.00001108,0.00001429,0.00000738,-0.000000
 61,0.00000051,-0.00000742,-0.00000060,-0.00000052,-0.00000004,-0.00000
 413,0.,-0.00078783,0.01496509,-0.00114824,0.00000220,-0.00024424,-0.00
 004490,0.00000002,0.00018678,-0.00051312,0.00000112,0.00518729,-0.0000
 3270,-0.00000754,-0.00000961,-0.00003273,0.00000763,-0.00000964,0.0000
 0316,0.00000162,-0.00002976,0.00000316,-0.00000167,-0.00002971,-0.0000
 1780,0.00000005,0.00000558,-0.00016816,0.00000004,0.00338056,-0.081128
 98,0.00016787,-0.04177381,0.00003809,0.00002961,-0.00003856,0.00003792
 ,-0.00002974,-0.00003854,0.00054083,0.00014217,0.00012116,0.00054008,-
 0.00014416,0.00012114,-0.00000260,0.00000620,0.00002133,-0.00000263,-0
 .00000611,0.00002133,-0.00000452,0.00000077,0.00000158,-0.00000452,-0.
 00000075,0.00000158,-0.00000088,0.,0.00000303,0.08193854,-0.00016934,0
 .03312249\\0.00005453,-0.00000358,-0.00002905,0.00000006,0.00000213,0.
 00000394,-0.00004350,-0.00000814,0.00002652,-0.00000526,0.00000875,-0.
 00000752,-0.00000446,-0.00000934,-0.00000708,-0.00001088,-0.00000195,-
 0.00000099,-0.00001291,0.00000398,-0.00000052,-0.00000600,-0.00000187,
 -0.00000205,0.00003620,0.00001861,0.00004914,-0.00001139,-0.00000470,-
 0.00002002,-0.00000005,0.00000384,-0.00000596,-0.00000032,-0.00000268,
 -0.00000530,0.00000058,-0.00000617,-0.00000192,-0.00000423,0.00000339,
 -0.00000351,0.00000412,-0.00000514,0.00000268,0.00000359,0.00000551,0.
 00000219,0.00000131,-0.00000471,-0.00000010,0.00000123,0.00000440,-0.0
 0000025,0.00000318,0.00000018,0.00000026,-0.00000581,-0.00000251,-0.00
 000045\\\@


 RESEARCH IS WHAT I AM DOING WHEN I DON'T KNOW WHAT I AM DOING.
     -- WERNER VON BRAUN
 Job cpu time:       0 days  2 hours 42 minutes 40.7 seconds.
 Elapsed time:       0 days  0 hours 10 minutes 13.1 seconds.
 File lengths (MBytes):  RWF=    151 Int=      0 D2E=      0 Chk=      8 Scr=      1
 Normal termination of Gaussian 16 at Tue Sep 30 21:33:30 2025.
