 Entering Gaussian System, Link 0=g16
 Input=BLDE0091.gjf
 Output=BLDE0091.log
 Initial command:
 /usr/local/g16/l1.exe "/dados_01/scratch/Gau-1920535.inp" -scrdir="/dados_01/scratch/"
 Entering Link 1 = /usr/local/g16/l1.exe PID=   1920539.
  
 Copyright (c) 1988-2017, Gaussian, Inc.  All Rights Reserved.
  
 This is part of the Gaussian(R) 16 program.  It is based on
 the Gaussian(R) 09 system (copyright 2009, Gaussian, Inc.),
 the Gaussian(R) 03 system (copyright 2003, Gaussian, Inc.),
 the Gaussian(R) 98 system (copyright 1998, Gaussian, Inc.),
 the Gaussian(R) 94 system (copyright 1995, Gaussian, Inc.),
 the Gaussian 92(TM) system (copyright 1992, Gaussian, Inc.),
 the Gaussian 90(TM) system (copyright 1990, Gaussian, Inc.),
 the Gaussian 88(TM) system (copyright 1988, Gaussian, Inc.),
 the Gaussian 86(TM) system (copyright 1986, Carnegie Mellon
 University), and the Gaussian 82(TM) system (copyright 1983,
 Carnegie Mellon University). Gaussian is a federally registered
 trademark of Gaussian, Inc.
  
 This software contains proprietary and confidential information,
 including trade secrets, belonging to Gaussian, Inc.
  
 This software is provided under written license and may be
 used, copied, transmitted, or stored only in accord with that
 written license.
  
 The following legend is applicable only to US Government
 contracts under FAR:
  
                    RESTRICTED RIGHTS LEGEND
  
 Use, reproduction and disclosure by the US Government is
 subject to restrictions as set forth in subparagraphs (a)
 and (c) of the Commercial Computer Software - Restricted
 Rights clause in FAR 52.227-19.
  
 Gaussian, Inc.
 340 Quinnipiac St., Bldg. 40, Wallingford CT 06492
  
  
 ---------------------------------------------------------------
 Warning -- This program may not be used in any manner that
 competes with the business of Gaussian, Inc. or will provide
 assistance to any competitor of Gaussian, Inc.  The licensee
 of this program is prohibited from giving any competitor of
 Gaussian, Inc. access to this program.  By using this program,
 the user acknowledges that Gaussian, Inc. is engaged in the
 business of creating and licensing software in the field of
 computational chemistry and represents and warrants to the
 licensee that it is not a competitor of Gaussian, Inc. and that
 it will not use this program in any manner prohibited above.
 ---------------------------------------------------------------
  

 Cite this work as:
 Gaussian 16, Revision B.01,
 M. J. Frisch, G. W. Trucks, H. B. Schlegel, G. E. Scuseria, 
 M. A. Robb, J. R. Cheeseman, G. Scalmani, V. Barone, 
 G. A. Petersson, H. Nakatsuji, X. Li, M. Caricato, A. V. Marenich, 
 J. Bloino, B. G. Janesko, R. Gomperts, B. Mennucci, H. P. Hratchian, 
 J. V. Ortiz, A. F. Izmaylov, J. L. Sonnenberg, D. Williams-Young, 
 F. Ding, F. Lipparini, F. Egidi, J. Goings, B. Peng, A. Petrone, 
 T. Henderson, D. Ranasinghe, V. G. Zakrzewski, J. Gao, N. Rega, 
 G. Zheng, W. Liang, M. Hada, M. Ehara, K. Toyota, R. Fukuda, 
 J. Hasegawa, M. Ishida, T. Nakajima, Y. Honda, O. Kitao, H. Nakai, 
 T. Vreven, K. Throssell, J. A. Montgomery, Jr., J. E. Peralta, 
 F. Ogliaro, M. J. Bearpark, J. J. Heyd, E. N. Brothers, K. N. Kudin, 
 V. N. Staroverov, T. A. Keith, R. Kobayashi, J. Normand, 
 K. Raghavachari, A. P. Rendell, J. C. Burant, S. S. Iyengar, 
 J. Tomasi, M. Cossi, J. M. Millam, M. Klene, C. Adamo, R. Cammi, 
 J. W. Ochterski, R. L. Martin, K. Morokuma, O. Farkas, 
 J. B. Foresman, and D. J. Fox, Gaussian, Inc., Wallingford CT, 2016.
 
 ******************************************
 Gaussian 16:  ES64L-G16RevB.01 20-Dec-2017
                18-Sep-2025 
 ******************************************
 %nprocs=16
 Will use up to   16 processors via shared memory.
 %mem=40GB
 %chk=BLDE0091.chk
 ----------------------------------------------------------------------
 # opt freq=noraman M08HX/6-311++G** scf=xqc Empiricaldispersion=pfd In
 t(Grid=ultraFine)
 ----------------------------------------------------------------------
 1/18=20,19=15,26=4,38=1/1,3;
 2/9=110,12=2,17=6,18=5,40=1/2;
 3/5=4,6=6,7=1111,11=2,25=1,30=1,71=1,74=-74,75=-5,124=11/1,2,3;
 4//1;
 5/5=2,8=3,13=1,38=5/2,8;
 6/7=2,8=2,9=2,10=2,28=1/1;
 7//1,2,3,16;
 1/18=20,19=15,26=4/3(2);
 2/9=110/2;
 99//99;
 2/9=110/2;
 3/5=4,6=6,7=1111,11=2,25=1,30=1,71=1,74=-74,75=-5,124=11/1,2,3;
 4/5=5,16=3,69=1/1;
 5/5=2,8=3,13=1,38=5/2,8;
 7//1,2,3,16;
 1/18=20,19=15,26=4/3(-5);
 2/9=110/2;
 6/7=2,8=2,9=2,10=2,19=2,28=1/1;
 99/9=1/99;
 --------
 BLDE0091
 --------
 Symbolic Z-matrix:
 Charge =  0 Multiplicity = 1
 O                     2.8466   -0.387     0.0002 
 C                     0.5644    0.2371    0. 
 C                    -0.3437    1.296     0. 
 C                     0.1013   -1.0787    0. 
 C                    -1.7147    1.0393    0.0001 
 C                    -1.2698   -1.3354   -0.0001 
 C                    -2.1777   -0.2764    0. 
 C                     1.9937    0.505    -0.0003 
 H                     0.0016    2.3267    0. 
 H                     0.7902   -1.9194   -0.0001 
 H                    -2.4218    1.8637    0.0001 
 H                    -1.6308   -2.3599   -0.0001 
 H                    -3.2452   -0.4764    0. 
 H                     2.2986    1.5653   -0.0006 
 

 GradGradGradGradGradGradGradGradGradGradGradGradGradGradGradGradGradGrad
 Berny optimization.
 Initialization pass.
                           ----------------------------
                           !    Initial Parameters    !
                           ! (Angstroms and Degrees)  !
 --------------------------                            --------------------------
 ! Name  Definition              Value          Derivative Info.                !
 --------------------------------------------------------------------------------
 ! R1    R(1,8)                  1.2341         estimate D2E/DX2                !
 ! R2    R(2,3)                  1.395          estimate D2E/DX2                !
 ! R3    R(2,4)                  1.3949         estimate D2E/DX2                !
 ! R4    R(2,8)                  1.4542         estimate D2E/DX2                !
 ! R5    R(3,5)                  1.3948         estimate D2E/DX2                !
 ! R6    R(3,9)                  1.087          estimate D2E/DX2                !
 ! R7    R(4,6)                  1.3949         estimate D2E/DX2                !
 ! R8    R(4,10)                 1.0869         estimate D2E/DX2                !
 ! R9    R(5,7)                  1.3948         estimate D2E/DX2                !
 ! R10   R(5,11)                 1.0861         estimate D2E/DX2                !
 ! R11   R(6,7)                  1.3949         estimate D2E/DX2                !
 ! R12   R(6,12)                 1.0862         estimate D2E/DX2                !
 ! R13   R(7,13)                 1.0861         estimate D2E/DX2                !
 ! R14   R(8,14)                 1.1033         estimate D2E/DX2                !
 ! A1    A(3,2,4)              119.9943         estimate D2E/DX2                !
 ! A2    A(3,2,8)              120.0            estimate D2E/DX2                !
 ! A3    A(4,2,8)              120.0057         estimate D2E/DX2                !
 ! A4    A(2,3,5)              120.011          estimate D2E/DX2                !
 ! A5    A(2,3,9)              120.8624         estimate D2E/DX2                !
 ! A6    A(5,3,9)              119.1266         estimate D2E/DX2                !
 ! A7    A(2,4,6)              119.9939         estimate D2E/DX2                !
 ! A8    A(2,4,10)             121.2779         estimate D2E/DX2                !
 ! A9    A(6,4,10)             118.7282         estimate D2E/DX2                !
 ! A10   A(3,5,7)              119.9922         estimate D2E/DX2                !
 ! A11   A(3,5,11)             120.0152         estimate D2E/DX2                !
 ! A12   A(7,5,11)             119.9927         estimate D2E/DX2                !
 ! A13   A(4,6,7)              120.0028         estimate D2E/DX2                !
 ! A14   A(4,6,12)             120.015          estimate D2E/DX2                !
 ! A15   A(7,6,12)             119.9821         estimate D2E/DX2                !
 ! A16   A(5,7,6)              120.0057         estimate D2E/DX2                !
 ! A17   A(5,7,13)             119.9987         estimate D2E/DX2                !
 ! A18   A(6,7,13)             119.9955         estimate D2E/DX2                !
 ! A19   A(1,8,2)              123.1003         estimate D2E/DX2                !
 ! A20   A(1,8,14)             120.2406         estimate D2E/DX2                !
 ! A21   A(2,8,14)             116.6592         estimate D2E/DX2                !
 ! D1    D(4,2,3,5)              0.0047         estimate D2E/DX2                !
 ! D2    D(4,2,3,9)            180.0            estimate D2E/DX2                !
 ! D3    D(8,2,3,5)            179.9911         estimate D2E/DX2                !
 ! D4    D(8,2,3,9)             -0.0136         estimate D2E/DX2                !
 ! D5    D(3,2,4,6)              0.0047         estimate D2E/DX2                !
 ! D6    D(3,2,4,10)           179.9938         estimate D2E/DX2                !
 ! D7    D(8,2,4,6)           -179.9816         estimate D2E/DX2                !
 ! D8    D(8,2,4,10)             0.0075         estimate D2E/DX2                !
 ! D9    D(3,2,8,1)            179.9714         estimate D2E/DX2                !
 ! D10   D(3,2,8,14)            -0.0047         estimate D2E/DX2                !
 ! D11   D(4,2,8,1)             -0.0422         estimate D2E/DX2                !
 ! D12   D(4,2,8,14)           179.9817         estimate D2E/DX2                !
 ! D13   D(2,3,5,7)             -0.0095         estimate D2E/DX2                !
 ! D14   D(2,3,5,11)           180.0            estimate D2E/DX2                !
 ! D15   D(9,3,5,7)            179.9952         estimate D2E/DX2                !
 ! D16   D(9,3,5,11)             0.0047         estimate D2E/DX2                !
 ! D17   D(2,4,6,7)             -0.0095         estimate D2E/DX2                !
 ! D18   D(2,4,6,12)          -180.0            estimate D2E/DX2                !
 ! D19   D(10,4,6,7)          -179.9989         estimate D2E/DX2                !
 ! D20   D(10,4,6,12)            0.0106         estimate D2E/DX2                !
 ! D21   D(3,5,7,6)              0.0047         estimate D2E/DX2                !
 ! D22   D(3,5,7,13)          -179.9953         estimate D2E/DX2                !
 ! D23   D(11,5,7,6)           179.9953         estimate D2E/DX2                !
 ! D24   D(11,5,7,13)           -0.0047         estimate D2E/DX2                !
 ! D25   D(4,6,7,5)              0.0047         estimate D2E/DX2                !
 ! D26   D(4,6,7,13)          -179.9953         estimate D2E/DX2                !
 ! D27   D(12,6,7,5)           179.9953         estimate D2E/DX2                !
 ! D28   D(12,6,7,13)           -0.0047         estimate D2E/DX2                !
 --------------------------------------------------------------------------------
 Trust Radius=3.00D-01 FncErr=1.00D-07 GrdErr=1.00D-06 EigMax=2.50D+02 EigMin=1.00D-04
 Number of steps in this run=     73 maximum allowed number of steps=    100.
 GradGradGradGradGradGradGradGradGradGradGradGradGradGradGradGradGradGrad

                          Input orientation:                          
 ---------------------------------------------------------------------
 Center     Atomic      Atomic             Coordinates (Angstroms)
 Number     Number       Type             X           Y           Z
 ---------------------------------------------------------------------
      1          8           0        2.846600   -0.387000    0.000200
      2          6           0        0.564400    0.237100    0.000000
      3          6           0       -0.343700    1.296000    0.000000
      4          6           0        0.101300   -1.078700    0.000000
      5          6           0       -1.714700    1.039300    0.000100
      6          6           0       -1.269800   -1.335400   -0.000100
      7          6           0       -2.177700   -0.276400    0.000000
      8          6           0        1.993700    0.505000   -0.000300
      9          1           0        0.001600    2.326700    0.000000
     10          1           0        0.790200   -1.919400   -0.000100
     11          1           0       -2.421800    1.863700    0.000100
     12          1           0       -1.630800   -2.359900   -0.000100
     13          1           0       -3.245200   -0.476400    0.000000
     14          1           0        2.298600    1.565300   -0.000600
 ---------------------------------------------------------------------
                    Distance matrix (angstroms):
                    1          2          3          4          5
     1  O    0.000000
     2  C    2.365996   0.000000
     3  C    3.607008   1.394961   0.000000
     4  C    2.831099   1.394916   2.416035   0.000000
     5  C    4.779099   2.416158   1.394825   2.789943   0.000000
     6  C    4.224241   2.415998   2.789611   1.394923   2.416017
     7  C    5.025517   2.789766   2.415781   2.416097   1.394789
     8  C    1.234140   1.454190   2.467614   2.467647   3.746693
     9  H    3.931691   2.164064   1.087003   3.406859   2.145480
    10  H    2.564572   2.168289   3.409476   1.086904   3.876652
    11  H    5.729022   3.400473   2.154248   3.876048   1.086106
    12  H    4.892795   3.400487   3.875852   2.154447   3.400235
    13  H    6.092456   3.875840   3.400015   3.400269   2.154014
    14  H    2.027752   2.184391   2.655988   3.437857   4.047623
                    6          7          8          9         10
     6  C    0.000000
     7  C    1.394906   0.000000
     8  C    3.746666   4.243956   0.000000
     9  H    3.876523   3.394919   2.699454   0.000000
    10  H    2.141181   3.392327   2.706682   4.318710   0.000000
    11  H    3.400198   2.153976   4.619817   2.467233   4.962740
    12  H    1.086242   2.154083   4.620027   4.962756   2.460748
    13  H    2.154086   1.086074   5.330030   4.289415   4.285639
    14  H    4.598645   4.840364   1.103268   2.419905   3.797157
                   11         12         13         14
    11  H    0.000000
    12  H    4.297031   0.000000
    13  H    2.480737   2.480697   0.000000
    14  H    4.729822   5.554042   5.907813   0.000000
 Stoichiometry    C7H6O
 Framework group  C1[X(C7H6O)]
 Deg. of freedom    36
 Full point group                 C1      NOp   1
 Largest Abelian subgroup         C1      NOp   1
 Largest concise Abelian subgroup C1      NOp   1
                         Standard orientation:                         
 ---------------------------------------------------------------------
 Center     Atomic      Atomic             Coordinates (Angstroms)
 Number     Number       Type             X           Y           Z
 ---------------------------------------------------------------------
      1          8           0       -2.817391   -0.409796   -0.000216
      2          6           0       -0.539397    0.229488   -0.000016
      3          6           0        0.361631    1.294412   -0.000016
      4          6           0       -0.067545   -1.083199   -0.000016
      5          6           0        1.734310    1.046848   -0.000116
      6          6           0        1.305234   -1.330763    0.000084
      7          6           0        2.206061   -0.265740   -0.000016
      8          6           0       -1.970450    0.487864    0.000284
      9          1           0        0.009475    2.322790   -0.000016
     10          1           0       -0.750831   -1.928468    0.000084
     11          1           0        2.435904    1.875938   -0.000116
     12          1           0        1.673048   -2.352836    0.000084
     13          1           0        3.274870   -0.458627   -0.000016
     14          1           0       -2.282404    1.546110    0.000584
 ---------------------------------------------------------------------
 Rotational constants (GHZ):           5.2373135           1.5847677           1.2166266
 Standard basis: 6-311++G(d,p) (5D, 7F)
 There are   226 symmetry adapted cartesian basis functions of A   symmetry.
 There are   218 symmetry adapted basis functions of A   symmetry.
   218 basis functions,   342 primitive gaussians,   226 cartesian basis functions
    28 alpha electrons       28 beta electrons
       nuclear repulsion energy       321.6659104475 Hartrees.
 NAtoms=   14 NActive=   14 NUniq=   14 SFac= 1.00D+00 NAtFMM=   60 NAOKFM=F Big=F
 Integral buffers will be    131072 words long.
 Raffenetti 2 integral format.
 Two-electron integral symmetry is turned on.
 R6APFD:  NTU= -4 IXU= 1 FactS= 1.050
 Nuclear repulsion after empirical dispersion term =      321.6596818619 Hartrees.
 One-electron integrals computed using PRISM.
 NBasis=   218 RedAO= T EigKep=  1.16D-06  NBF=   218
 NBsUse=   218 1.00D-06 EigRej= -1.00D+00 NBFU=   218
 ExpMin= 3.60D-02 ExpMax= 8.59D+03 ExpMxC= 1.30D+03 IAcc=3 IRadAn=         5 AccDes= 0.00D+00
 Harris functional with IExCor= 1009 and IRadAn=       5 diagonalized for initial guess.
 HarFok:  IExCor= 1009 AccDes= 0.00D+00 IRadAn=         5 IDoV= 1 UseB2=F ITyADJ=14
 ICtDFT=  3500011 ScaDFX=  1.000000  1.000000  1.000000  1.000000
 FoFCou: FMM=F IPFlag=           0 FMFlag=      100000 FMFlg1=           0
         NFxFlg=           0 DoJE=T BraDBF=F KetDBF=T FulRan=T
         wScrn=  0.000000 ICntrl=       500 IOpCl=  0 I1Cent=   200000004 NGrid=           0
         NMat0=    1 NMatS0=      1 NMatT0=    0 NMatD0=    1 NMtDS0=    0 NMtDT0=    0
 Petite list used in FoFCou.
 Requested convergence on RMS density matrix=1.00D-08 within  32 cycles.
 Requested convergence on MAX density matrix=1.00D-06.
 Requested convergence on             energy=1.00D-06.
 No special actions if energy rises.
 SCF Done:  E(RM08HX) =  -345.557872759     A.U. after   14 cycles
            NFock= 14  Conv=0.99D-08     -V/T= 2.0047
 QCSCF skips out because SCF is already converged.

 **********************************************************************

            Population analysis using the SCF Density.

 **********************************************************************

 Orbital symmetries:
       Occupied  (A) (A) (A) (A) (A) (A) (A) (A) (A) (A) (A) (A)
                 (A) (A) (A) (A) (A) (A) (A) (A) (A) (A) (A) (A)
                 (A) (A) (A) (A)
       Virtual   (A) (A) (A) (A) (A) (A) (A) (A) (A) (A) (A) (A)
                 (A) (A) (A) (A) (A) (A) (A) (A) (A) (A) (A) (A)
                 (A) (A) (A) (A) (A) (A) (A) (A) (A) (A) (A) (A)
                 (A) (A) (A) (A) (A) (A) (A) (A) (A) (A) (A) (A)
                 (A) (A) (A) (A) (A) (A) (A) (A) (A) (A) (A) (A)
                 (A) (A) (A) (A) (A) (A) (A) (A) (A) (A) (A) (A)
                 (A) (A) (A) (A) (A) (A) (A) (A) (A) (A) (A) (A)
                 (A) (A) (A) (A) (A) (A) (A) (A) (A) (A) (A) (A)
                 (A) (A) (A) (A) (A) (A) (A) (A) (A) (A) (A) (A)
                 (A) (A) (A) (A) (A) (A) (A) (A) (A) (A) (A) (A)
                 (A) (A) (A) (A) (A) (A) (A) (A) (A) (A) (A) (A)
                 (A) (A) (A) (A) (A) (A) (A) (A) (A) (A) (A) (A)
                 (A) (A) (A) (A) (A) (A) (A) (A) (A) (A) (A) (A)
                 (A) (A) (A) (A) (A) (A) (A) (A) (A) (A) (A) (A)
                 (A) (A) (A) (A) (A) (A) (A) (A) (A) (A) (A) (A)
                 (A) (A) (A) (A) (A) (A) (A) (A) (A) (A)
 The electronic state is 1-A.
 Alpha  occ. eigenvalues --  -19.61352 -10.62744 -10.56268 -10.55965 -10.55889
 Alpha  occ. eigenvalues --  -10.55639 -10.55625 -10.55446  -1.16441  -0.99341
 Alpha  occ. eigenvalues --   -0.88959  -0.87130  -0.75914  -0.71700  -0.67067
 Alpha  occ. eigenvalues --   -0.61511  -0.57280  -0.54835  -0.52424  -0.51287
 Alpha  occ. eigenvalues --   -0.50761  -0.49054  -0.44271  -0.43952  -0.42637
 Alpha  occ. eigenvalues --   -0.34387  -0.33322  -0.32964
 Alpha virt. eigenvalues --   -0.05343  -0.03009  -0.01765  -0.01034  -0.00826
 Alpha virt. eigenvalues --    0.00689   0.01438   0.01518   0.03454   0.04284
 Alpha virt. eigenvalues --    0.04411   0.05347   0.05813   0.06376   0.08382
 Alpha virt. eigenvalues --    0.09632   0.09802   0.10234   0.10577   0.10993
 Alpha virt. eigenvalues --    0.11085   0.11780   0.12155   0.12637   0.12645
 Alpha virt. eigenvalues --    0.13616   0.13894   0.14960   0.15720   0.15868
 Alpha virt. eigenvalues --    0.17019   0.18378   0.19949   0.20742   0.21046
 Alpha virt. eigenvalues --    0.22135   0.23099   0.23467   0.24511   0.26242
 Alpha virt. eigenvalues --    0.26717   0.28108   0.28936   0.29388   0.30707
 Alpha virt. eigenvalues --    0.31198   0.33734   0.35456   0.35932   0.37156
 Alpha virt. eigenvalues --    0.38028   0.41617   0.43207   0.46161   0.50270
 Alpha virt. eigenvalues --    0.52196   0.55165   0.55508   0.55738   0.56205
 Alpha virt. eigenvalues --    0.56424   0.57061   0.57982   0.59399   0.62432
 Alpha virt. eigenvalues --    0.63744   0.65428   0.66373   0.67782   0.70830
 Alpha virt. eigenvalues --    0.71611   0.74260   0.74819   0.76190   0.78077
 Alpha virt. eigenvalues --    0.80513   0.83093   0.85118   0.86280   0.86871
 Alpha virt. eigenvalues --    0.87586   0.90815   0.91117   0.91571   0.93443
 Alpha virt. eigenvalues --    0.96666   0.97690   1.00730   1.04428   1.05674
 Alpha virt. eigenvalues --    1.06249   1.09138   1.10448   1.13517   1.17287
 Alpha virt. eigenvalues --    1.17724   1.21914   1.27038   1.29973   1.31373
 Alpha virt. eigenvalues --    1.37887   1.48029   1.50481   1.52989   1.54294
 Alpha virt. eigenvalues --    1.54978   1.58394   1.59067   1.59113   1.64335
 Alpha virt. eigenvalues --    1.65462   1.66261   1.69895   1.72781   1.73536
 Alpha virt. eigenvalues --    1.76894   1.79289   1.80508   1.83914   1.85442
 Alpha virt. eigenvalues --    1.88818   1.94683   1.96045   1.96447   1.96458
 Alpha virt. eigenvalues --    1.99015   1.99861   2.04105   2.06503   2.09985
 Alpha virt. eigenvalues --    2.10661   2.21930   2.23097   2.34017   2.38679
 Alpha virt. eigenvalues --    2.39412   2.43641   2.44732   2.45492   2.48732
 Alpha virt. eigenvalues --    2.62111   2.63911   2.66504   2.68624   2.68768
 Alpha virt. eigenvalues --    2.70520   2.71030   2.72400   2.74009   2.74921
 Alpha virt. eigenvalues --    2.77125   2.86210   2.88218   2.89418   2.93215
 Alpha virt. eigenvalues --    2.94593   2.95007   2.96470   3.02632   3.06819
 Alpha virt. eigenvalues --    3.15131   3.25305   3.29531   3.40420   3.41134
 Alpha virt. eigenvalues --    3.42455   3.49607   3.52330   3.55808   3.58672
 Alpha virt. eigenvalues --    3.67363   3.71885   3.98372   4.02239   4.06740
 Alpha virt. eigenvalues --    4.18808   4.19861   4.41669   4.90062   5.11977
 Alpha virt. eigenvalues --    5.30318   5.83312  23.64538  23.95338  24.00224
 Alpha virt. eigenvalues --   24.00986  24.11948  24.13280  24.22960  49.98218
          Condensed to atoms (all electrons):
               1          2          3          4          5          6
     1  O    7.948419  -0.234100  -0.268662  -0.092629   0.074547   0.244108
     2  C   -0.234100  17.029515  -8.932836  -4.493153   4.520887   3.392801
     3  C   -0.268662  -8.932836  21.598043   3.092469  -6.628047  -5.052900
     4  C   -0.092629  -4.493153   3.092469  14.853457  -3.528247  -6.264638
     5  C    0.074547   4.520887  -6.628047  -3.528247  11.305467   4.294749
     6  C    0.244108   3.392801  -5.052900  -6.264638   4.294749  13.116550
     7  C   -0.050477  -4.290025   5.261949   3.832069  -4.724563  -4.667256
     8  C    0.637136  -2.525986  -1.473870  -1.267978   0.141745   0.529342
     9  H   -0.009089  -0.242874   0.744965   0.068488  -0.142100  -0.114542
    10  H   -0.019310  -0.093122   0.202275   0.543998  -0.065251  -0.255598
    11  H    0.001196   0.136805  -0.187933  -0.042062   0.444104   0.080948
    12  H    0.002888   0.072007  -0.088970  -0.174794   0.097749   0.504662
    13  H   -0.000827  -0.049372   0.094575   0.093557  -0.132196  -0.122820
    14  H   -0.022870  -0.133072  -0.446674   0.038040   0.086543   0.177606
               7          8          9         10         11         12
     1  O   -0.050477   0.637136  -0.009089  -0.019310   0.001196   0.002888
     2  C   -4.290025  -2.525986  -0.242874  -0.093122   0.136805   0.072007
     3  C    5.261949  -1.473870   0.744965   0.202275  -0.187933  -0.088970
     4  C    3.832069  -1.267978   0.068488   0.543998  -0.042062  -0.174794
     5  C   -4.724563   0.141745  -0.142100  -0.065251   0.444104   0.097749
     6  C   -4.667256   0.529342  -0.114542  -0.255598   0.080948   0.504662
     7  C   11.055892  -0.021553   0.149031   0.088139  -0.144144  -0.121041
     8  C   -0.021553   9.990434  -0.069768  -0.076465   0.006491   0.008002
     9  H    0.149031  -0.069768   0.422441   0.003558  -0.010083  -0.001776
    10  H    0.088139  -0.076465   0.003558   0.389353  -0.000397  -0.008212
    11  H   -0.144144   0.006491  -0.010083  -0.000397   0.401103   0.002137
    12  H   -0.121041   0.008002  -0.001776  -0.008212   0.002137   0.400370
    13  H    0.456081  -0.013154   0.003656   0.002375  -0.004222  -0.004075
    14  H   -0.101904   0.511974  -0.033020  -0.003781   0.007076   0.002631
              13         14
     1  O   -0.000827  -0.022870
     2  C   -0.049372  -0.133072
     3  C    0.094575  -0.446674
     4  C    0.093557   0.038040
     5  C   -0.132196   0.086543
     6  C   -0.122820   0.177606
     7  C    0.456081  -0.101904
     8  C   -0.013154   0.511974
     9  H    0.003656  -0.033020
    10  H    0.002375  -0.003781
    11  H   -0.004222   0.007076
    12  H   -0.004075   0.002631
    13  H    0.398553  -0.001810
    14  H   -0.001810   0.692188
 Mulliken charges:
               1
     1  O   -0.210329
     2  C    1.842526
     3  C   -1.914384
     4  C   -0.658575
     5  C    0.254614
     6  C    0.136990
     7  C   -0.722198
     8  C   -0.376349
     9  H    0.231112
    10  H    0.292437
    11  H    0.308982
    12  H    0.308421
    13  H    0.279680
    14  H    0.227073
 Sum of Mulliken charges =  -0.00000
 Mulliken charges with hydrogens summed into heavy atoms:
               1
     1  O   -0.210329
     2  C    1.842526
     3  C   -1.683272
     4  C   -0.366138
     5  C    0.563596
     6  C    0.445411
     7  C   -0.442517
     8  C   -0.149276
 Electronic spatial extent (au):  <R**2>=            929.6465
 Charge=              0.0000 electrons
 Dipole moment (field-independent basis, Debye):
    X=              3.3239    Y=              1.4136    Z=              0.0009  Tot=              3.6120
 Quadrupole moment (field-independent basis, Debye-Ang):
   XX=            -51.9773   YY=            -40.5712   ZZ=            -50.0939
   XY=             -4.3734   XZ=             -0.0025   YZ=             -0.0003
 Traceless Quadrupole moment (field-independent basis, Debye-Ang):
   XX=             -4.4298   YY=              6.9763   ZZ=             -2.5465
   XY=             -4.3734   XZ=             -0.0025   YZ=             -0.0003
 Octapole moment (field-independent basis, Debye-Ang**2):
  XXX=             41.3291  YYY=             -0.9707  ZZZ=             -0.0006  XYY=             -0.0811
  XXY=             10.6385  XXZ=              0.0051  XZZ=             -8.0132  YZZ=             -0.5148
  YYZ=              0.0005  XYZ=             -0.0001
 Hexadecapole moment (field-independent basis, Debye-Ang**3):
 XXXX=           -929.4361 YYYY=           -297.5347 ZZZZ=            -56.6832 XXXY=            -28.1016
 XXXZ=             -0.0106 YYYX=             -0.4236 YYYZ=             -0.0021 ZZZX=              0.0042
 ZZZY=             -0.0004 XXYY=           -182.9701 XXZZ=           -160.4526 YYZZ=            -71.6646
 XXYZ=             -0.0012 YYXZ=             -0.0008 ZZXY=              1.0812
 N-N= 3.216596818619D+02 E-N=-1.447298800043D+03  KE= 3.439330937256D+02
 R6APFD:  NTU= -4 IXU= 1 FactS= 1.050
 Calling FoFJK, ICntrl=      2127 FMM=F ISym2X=0 I1Cent= 0 IOpClX= 0 NMat=1 NMatS=1 NMatT=0.
 ***** Axes restored to original set *****
 -------------------------------------------------------------------
 Center     Atomic                   Forces (Hartrees/Bohr)
 Number     Number              X              Y              Z
 -------------------------------------------------------------------
      1        8          -0.028882208    0.034027672   -0.000038813
      2        6          -0.012569948   -0.001335753   -0.000027516
      3        6          -0.007248672   -0.001474056    0.000009592
      4        6          -0.011507434   -0.007698653   -0.000013602
      5        6           0.001886399   -0.001222014   -0.000010995
      6        6           0.005082192    0.003492943    0.000020713
      7        6           0.002893213    0.002353630    0.000001406
      8        6           0.043501144   -0.036462076    0.000076743
      9        1           0.003229803    0.001413280   -0.000003123
     10        1           0.004993825    0.002840756    0.000003651
     11        1          -0.000877872    0.001248066    0.000003880
     12        1          -0.000166062   -0.001455864   -0.000004947
     13        1          -0.001917254   -0.000099402   -0.000000943
     14        1           0.001582875    0.004371470   -0.000016046
 -------------------------------------------------------------------
 Cartesian Forces:  Max     0.043501144 RMS     0.011702976

 GradGradGradGradGradGradGradGradGradGradGradGradGradGradGradGradGradGrad
 Berny optimization.
 FormGI is forming the generalized inverse of G from B-inverse, IUseBI=4.
 Internal  Forces:  Max     0.044554059 RMS     0.006224314
 Search for a local minimum.
 Step number   1 out of a maximum of   73
 All quantities printed in internal units (Hartrees-Bohrs-Radians)
 Mixed Optimization -- RFO/linear search
 Second derivative matrix not updated -- first step.
 ITU=  0
     Eigenvalues ---    0.01372   0.01372   0.01915   0.02156   0.02156
     Eigenvalues ---    0.02156   0.02156   0.02156   0.02157   0.02157
     Eigenvalues ---    0.02157   0.16000   0.16000   0.16000   0.16000
     Eigenvalues ---    0.16000   0.16000   0.22000   0.22000   0.22000
     Eigenvalues ---    0.23486   0.25000   0.33323   0.35161   0.35173
     Eigenvalues ---    0.35251   0.35267   0.35270   0.37701   0.42133
     Eigenvalues ---    0.42323   0.46469   0.46474   0.46482   0.46489
     Eigenvalues ---    0.89383
 RFO step:  Lambda=-3.74468399D-03 EMin= 1.37192403D-02
 Linear search not attempted -- first point.
 Iteration  1 RMS(Cart)=  0.01339595 RMS(Int)=  0.00017582
 Iteration  2 RMS(Cart)=  0.00019545 RMS(Int)=  0.00000147
 Iteration  3 RMS(Cart)=  0.00000003 RMS(Int)=  0.00000147
 Variable       Old X    -DE/DX   Delta X   Delta X   Delta X     New X
                                 (Linear)    (Quad)   (Total)
    R1        2.33219  -0.04455   0.00000  -0.04964  -0.04964   2.28255
    R2        2.63609   0.00109   0.00000   0.00245   0.00244   2.63854
    R3        2.63601   0.00175   0.00000   0.00385   0.00385   2.63985
    R4        2.74802   0.01628   0.00000   0.04276   0.04276   2.79078
    R5        2.63584  -0.00285   0.00000  -0.00607  -0.00607   2.62976
    R6        2.05414   0.00237   0.00000   0.00666   0.00666   2.06080
    R7        2.63602  -0.00473   0.00000  -0.01010  -0.01010   2.62592
    R8        2.05395   0.00097   0.00000   0.00272   0.00272   2.05667
    R9        2.63577  -0.00101   0.00000  -0.00226  -0.00226   2.63351
   R10        2.05244   0.00152   0.00000   0.00426   0.00426   2.05670
   R11        2.63599   0.00192   0.00000   0.00398   0.00398   2.63997
   R12        2.05270   0.00143   0.00000   0.00401   0.00401   2.05671
   R13        2.05238   0.00190   0.00000   0.00534   0.00534   2.05772
   R14        2.08487   0.00464   0.00000   0.01376   0.01376   2.09864
    A1        2.09430   0.00030   0.00000   0.00165   0.00165   2.09595
    A2        2.09439  -0.00141   0.00000  -0.00581  -0.00581   2.08858
    A3        2.09449   0.00112   0.00000   0.00416   0.00416   2.09866
    A4        2.09459   0.00050   0.00000   0.00257   0.00257   2.09715
    A5        2.10945  -0.00294   0.00000  -0.01768  -0.01768   2.09177
    A6        2.07915   0.00243   0.00000   0.01511   0.01511   2.09426
    A7        2.09429  -0.00099   0.00000  -0.00413  -0.00413   2.09016
    A8        2.11670  -0.00532   0.00000  -0.03345  -0.03345   2.08325
    A9        2.07220   0.00631   0.00000   0.03758   0.03758   2.10978
   A10        2.09426  -0.00127   0.00000  -0.00587  -0.00587   2.08839
   A11        2.09466   0.00048   0.00000   0.00202   0.00202   2.09668
   A12        2.09427   0.00078   0.00000   0.00385   0.00385   2.09812
   A13        2.09444   0.00026   0.00000   0.00092   0.00092   2.09537
   A14        2.09466  -0.00047   0.00000  -0.00251  -0.00251   2.09215
   A15        2.09408   0.00021   0.00000   0.00159   0.00159   2.09567
   A16        2.09450   0.00119   0.00000   0.00485   0.00486   2.09935
   A17        2.09437  -0.00086   0.00000  -0.00403  -0.00403   2.09034
   A18        2.09432  -0.00033   0.00000  -0.00082  -0.00082   2.09349
   A19        2.14851   0.00389   0.00000   0.01738   0.01738   2.16588
   A20        2.09859  -0.00227   0.00000  -0.01068  -0.01068   2.08791
   A21        2.03609  -0.00162   0.00000  -0.00669  -0.00669   2.02939
    D1        0.00008  -0.00000   0.00000  -0.00005  -0.00005   0.00003
    D2        3.14159   0.00000   0.00000   0.00001   0.00001  -3.14158
    D3        3.14144   0.00000   0.00000   0.00016   0.00015   3.14159
    D4       -0.00024   0.00001   0.00000   0.00022   0.00021  -0.00002
    D5        0.00008  -0.00000   0.00000  -0.00012  -0.00012  -0.00003
    D6        3.14149   0.00000   0.00000   0.00011   0.00011  -3.14159
    D7       -3.14127  -0.00001   0.00000  -0.00032  -0.00032  -3.14159
    D8        0.00013  -0.00000   0.00000  -0.00009  -0.00010   0.00003
    D9        3.14109   0.00002   0.00000   0.00100   0.00100  -3.14109
   D10       -0.00008  -0.00002   0.00000  -0.00091  -0.00091  -0.00099
   D11       -0.00074   0.00002   0.00000   0.00121   0.00121   0.00047
   D12        3.14127  -0.00001   0.00000  -0.00070  -0.00070   3.14057
   D13       -0.00017   0.00000   0.00000   0.00014   0.00014  -0.00002
   D14       -3.14159  -0.00000   0.00000  -0.00001  -0.00001   3.14158
   D15        3.14151   0.00000   0.00000   0.00009   0.00009  -3.14159
   D16        0.00008  -0.00000   0.00000  -0.00007  -0.00007   0.00001
   D17       -0.00017   0.00000   0.00000   0.00019   0.00019   0.00002
   D18       -3.14159   0.00000   0.00000   0.00001   0.00001  -3.14158
   D19       -3.14157   0.00000   0.00000  -0.00003  -0.00003   3.14158
   D20        0.00019  -0.00000   0.00000  -0.00020  -0.00021  -0.00002
   D21        0.00008  -0.00000   0.00000  -0.00007  -0.00007   0.00001
   D22       -3.14151  -0.00000   0.00000  -0.00006  -0.00006  -3.14157
   D23        3.14151   0.00000   0.00000   0.00009   0.00009  -3.14159
   D24       -0.00008   0.00000   0.00000   0.00010   0.00010   0.00001
   D25        0.00008  -0.00000   0.00000  -0.00010  -0.00010  -0.00001
   D26       -3.14151  -0.00000   0.00000  -0.00011  -0.00011   3.14157
   D27        3.14151   0.00000   0.00000   0.00008   0.00008   3.14159
   D28       -0.00008   0.00000   0.00000   0.00007   0.00007  -0.00001
         Item               Value     Threshold  Converged?
 Maximum Force            0.044554     0.000450     NO 
 RMS     Force            0.006224     0.000300     NO 
 Maximum Displacement     0.058158     0.001800     NO 
 RMS     Displacement     0.013346     0.001200     NO 
 Predicted change in Energy=-1.888249D-03
 GradGradGradGradGradGradGradGradGradGradGradGradGradGradGradGradGradGrad

                          Input orientation:                          
 ---------------------------------------------------------------------
 Center     Atomic      Atomic             Coordinates (Angstroms)
 Number     Number       Type             X           Y           Z
 ---------------------------------------------------------------------
      1          8           0        2.858529   -0.356224   -0.000307
      2          6           0        0.555890    0.224923    0.000105
      3          6           0       -0.349262    1.288044    0.000082
      4          6           0        0.089588   -1.091904    0.000024
      5          6           0       -1.718650    1.040334    0.000017
      6          6           0       -1.277780   -1.339356   -0.000039
      7          6           0       -2.181605   -0.274112   -0.000051
      8          6           0        2.006816    0.500247    0.000173
      9          1           0        0.019050    2.314491    0.000136
     10          1           0        0.805599   -1.911551    0.000044
     11          1           0       -2.423807    1.869360    0.000011
     12          1           0       -1.643114   -2.364571   -0.000089
     13          1           0       -3.252733   -0.470029   -0.000122
     14          1           0        2.304180    1.570247   -0.000784
 ---------------------------------------------------------------------
                    Distance matrix (angstroms):
                    1          2          3          4          5
     1  O    0.000000
     2  C    2.374843   0.000000
     3  C    3.604655   1.396254   0.000000
     4  C    2.865006   1.396951   2.420070   0.000000
     5  C    4.785492   2.416284   1.391611   2.795741   0.000000
     6  C    4.251541   2.410252   2.786642   1.389578   2.420184
     7  C    5.040802   2.782609   2.407864   2.413939   1.393591
     8  C    1.207873   1.476818   2.484297   2.492130   3.764411
     9  H    3.898122   2.157426   1.090526   3.407125   2.154779
    10  H    2.575570   2.151018   3.401634   1.088345   3.884001
    11  H    5.732041   3.403346   2.154452   3.884101   1.088361
    12  H    4.929325   3.397219   3.875002   2.149869   3.405743
    13  H    6.112322   3.871507   3.394254   3.399683   2.152814
    14  H    2.004643   2.205996   2.668407   3.462870   4.057582
                    6          7          8          9         10
     6  C    0.000000
     7  C    1.397013   0.000000
     8  C    3.764667   4.259402   0.000000
     9  H    3.877159   3.397608   2.691226   0.000000
    10  H    2.160527   3.406552   2.694383   4.298615   0.000000
    11  H    3.407232   2.157112   4.637337   2.483081   4.972359
    12  H    1.088363   2.158701   4.639954   4.965521   2.490266
    13  H    2.157816   1.088899   5.348299   4.296290   4.306745
    14  H    4.614784   4.850147   1.110552   2.403273   3.790603
                   11         12         13         14
    11  H    0.000000
    12  H    4.305305   0.000000
    13  H    2.481906   2.485994   0.000000
    14  H    4.737440   5.573502   5.919630   0.000000
 Stoichiometry    C7H6O
 Framework group  C1[X(C7H6O)]
 Deg. of freedom    36
 Full point group                 C1      NOp   1
 Largest Abelian subgroup         C1      NOp   1
 Largest concise Abelian subgroup C1      NOp   1
                         Standard orientation:                         
 ---------------------------------------------------------------------
 Center     Atomic      Atomic             Coordinates (Angstroms)
 Number     Number       Type             X           Y           Z
 ---------------------------------------------------------------------
      1          8           0       -2.828198   -0.396821    0.000282
      2          6           0       -0.533176    0.213711   -0.000130
      3          6           0        0.358313    1.288314   -0.000107
      4          6           0       -0.050080   -1.097048   -0.000049
      5          6           0        1.730755    1.058129   -0.000041
      6          6           0        1.320339   -1.327002    0.000014
      7          6           0        2.210474   -0.250292    0.000026
      8          6           0       -1.987503    0.470467   -0.000198
      9          1           0       -0.023089    2.309969   -0.000161
     10          1           0       -0.755556   -1.925781   -0.000069
     11          1           0        2.425258    1.896100   -0.000036
     12          1           0        1.698747   -2.347464    0.000065
     13          1           0        3.284019   -0.432502    0.000097
     14          1           0       -2.298520    1.536578    0.000759
 ---------------------------------------------------------------------
 Rotational constants (GHZ):           5.2526236           1.5729576           1.2104690
 Standard basis: 6-311++G(d,p) (5D, 7F)
 There are   226 symmetry adapted cartesian basis functions of A   symmetry.
 There are   218 symmetry adapted basis functions of A   symmetry.
   218 basis functions,   342 primitive gaussians,   226 cartesian basis functions
    28 alpha electrons       28 beta electrons
       nuclear repulsion energy       321.5128907197 Hartrees.
 NAtoms=   14 NActive=   14 NUniq=   14 SFac= 1.00D+00 NAtFMM=   60 NAOKFM=F Big=F
 Integral buffers will be    131072 words long.
 Raffenetti 2 integral format.
 Two-electron integral symmetry is turned on.
 R6APFD:  NTU= -4 IXU= 1 FactS= 1.050
 Nuclear repulsion after empirical dispersion term =      321.5066718387 Hartrees.
 One-electron integrals computed using PRISM.
 NBasis=   218 RedAO= T EigKep=  1.16D-06  NBF=   218
 NBsUse=   218 1.00D-06 EigRej= -1.00D+00 NBFU=   218
 Initial guess from the checkpoint file:  "BLDE0091.chk"
 B after Tr=     0.000000   -0.000000   -0.000000
         Rot=    0.999998    0.000020   -0.000012   -0.002039 Ang=   0.23 deg.
 ExpMin= 3.60D-02 ExpMax= 8.59D+03 ExpMxC= 1.30D+03 IAcc=3 IRadAn=         5 AccDes= 0.00D+00
 Harris functional with IExCor= 1009 and IRadAn=       5 diagonalized for initial guess.
 HarFok:  IExCor= 1009 AccDes= 0.00D+00 IRadAn=         5 IDoV= 1 UseB2=F ITyADJ=14
 ICtDFT=  3500011 ScaDFX=  1.000000  1.000000  1.000000  1.000000
 FoFCou: FMM=F IPFlag=           0 FMFlag=      100000 FMFlg1=           0
         NFxFlg=           0 DoJE=T BraDBF=F KetDBF=T FulRan=T
         wScrn=  0.000000 ICntrl=       500 IOpCl=  0 I1Cent=   200000004 NGrid=           0
         NMat0=    1 NMatS0=      1 NMatT0=    0 NMatD0=    1 NMtDS0=    0 NMtDT0=    0
 Petite list used in FoFCou.
 Requested convergence on RMS density matrix=1.00D-08 within  32 cycles.
 Requested convergence on MAX density matrix=1.00D-06.
 Requested convergence on             energy=1.00D-06.
 No special actions if energy rises.
 SCF Done:  E(RM08HX) =  -345.560136256     A.U. after   13 cycles
            NFock= 13  Conv=0.65D-08     -V/T= 2.0046
 QCSCF skips out because SCF is already converged.
 R6APFD:  NTU= -4 IXU= 1 FactS= 1.050
 Calling FoFJK, ICntrl=      2127 FMM=F ISym2X=0 I1Cent= 0 IOpClX= 0 NMat=1 NMatS=1 NMatT=0.
 ***** Axes restored to original set *****
 -------------------------------------------------------------------
 Center     Atomic                   Forces (Hartrees/Bohr)
 Number     Number              X              Y              Z
 -------------------------------------------------------------------
      1        8          -0.006806742    0.005349146    0.000062472
      2        6          -0.004897938    0.001001356    0.000047498
      3        6           0.000521925    0.000084794    0.000002756
      4        6          -0.001990453   -0.001531081    0.000006509
      5        6          -0.000302513   -0.000447979   -0.000003782
      6        6           0.000794966    0.000468036   -0.000003547
      7        6           0.000417455    0.000366823    0.000000205
      8        6           0.011819539   -0.008346272   -0.000171533
      9        1           0.000910443   -0.000109440    0.000000841
     10        1           0.001456704    0.000747057   -0.000000286
     11        1          -0.000029890   -0.000135695   -0.000000503
     12        1          -0.000283621    0.000040779   -0.000000664
     13        1           0.000038847   -0.000160652    0.000001093
     14        1          -0.001648721    0.002673128    0.000058941
 -------------------------------------------------------------------
 Cartesian Forces:  Max     0.011819539 RMS     0.002806836

 GradGradGradGradGradGradGradGradGradGradGradGradGradGradGradGradGradGrad
 Berny optimization.
 Using GEDIIS/GDIIS optimizer.
 FormGI is forming the generalized inverse of G from B-inverse, IUseBI=4.
 Internal  Forces:  Max     0.008594534 RMS     0.001343323
 Search for a local minimum.
 Step number   2 out of a maximum of   73
 All quantities printed in internal units (Hartrees-Bohrs-Radians)
 Mixed Optimization -- RFO/linear search
 Update second derivatives using D2CorX and points    1    2
 DE= -2.26D-03 DEPred=-1.89D-03 R= 1.20D+00
 TightC=F SS=  1.41D+00  RLast= 9.22D-02 DXNew= 5.0454D-01 2.7651D-01
 Trust test= 1.20D+00 RLast= 9.22D-02 DXMaxT set to 3.00D-01
 ITU=  1  0
 Use linear search instead of GDIIS.
     Eigenvalues ---    0.01372   0.01372   0.01915   0.02156   0.02156
     Eigenvalues ---    0.02156   0.02156   0.02156   0.02157   0.02157
     Eigenvalues ---    0.02157   0.14329   0.16000   0.16000   0.16000
     Eigenvalues ---    0.16000   0.16669   0.21976   0.22000   0.22221
     Eigenvalues ---    0.23423   0.25048   0.32601   0.35137   0.35176
     Eigenvalues ---    0.35253   0.35268   0.35337   0.36575   0.42148
     Eigenvalues ---    0.42384   0.46284   0.46479   0.46487   0.46840
     Eigenvalues ---    0.80392
 RFO step:  Lambda=-1.73043495D-04 EMin= 1.37192257D-02
 Quartic linear search produced a step of  0.23511.
 Iteration  1 RMS(Cart)=  0.00600830 RMS(Int)=  0.00005385
 Iteration  2 RMS(Cart)=  0.00005664 RMS(Int)=  0.00000355
 Iteration  3 RMS(Cart)=  0.00000000 RMS(Int)=  0.00000355
 Variable       Old X    -DE/DX   Delta X   Delta X   Delta X     New X
                                 (Linear)    (Quad)   (Total)
    R1        2.28255  -0.00859  -0.01167  -0.00224  -0.01391   2.26864
    R2        2.63854  -0.00132   0.00057  -0.00402  -0.00345   2.63509
    R3        2.63985  -0.00002   0.00090  -0.00087   0.00004   2.63989
    R4        2.79078   0.00324   0.01005   0.00199   0.01205   2.80283
    R5        2.62976   0.00022  -0.00143   0.00184   0.00042   2.63018
    R6        2.06080   0.00020   0.00157  -0.00063   0.00093   2.06173
    R7        2.62592  -0.00087  -0.00237  -0.00034  -0.00272   2.62320
    R8        2.05667   0.00040   0.00064   0.00084   0.00148   2.05815
    R9        2.63351  -0.00006  -0.00053   0.00035  -0.00019   2.63332
   R10        2.05670  -0.00008   0.00100  -0.00116  -0.00016   2.05655
   R11        2.63997   0.00001   0.00094  -0.00076   0.00018   2.64015
   R12        2.05671   0.00006   0.00094  -0.00061   0.00033   2.05704
   R13        2.05772  -0.00001   0.00126  -0.00111   0.00014   2.05786
   R14        2.09864   0.00214   0.00324   0.00511   0.00835   2.10699
    A1        2.09595   0.00108   0.00039   0.00493   0.00532   2.10127
    A2        2.08858  -0.00045  -0.00137  -0.00099  -0.00235   2.08623
    A3        2.09866  -0.00063   0.00098  -0.00394  -0.00297   2.09569
    A4        2.09715  -0.00064   0.00060  -0.00396  -0.00336   2.09379
    A5        2.09177  -0.00060  -0.00416  -0.00150  -0.00565   2.08611
    A6        2.09426   0.00124   0.00355   0.00546   0.00901   2.10328
    A7        2.09016  -0.00037  -0.00097  -0.00128  -0.00225   2.08791
    A8        2.08325  -0.00145  -0.00786  -0.00416  -0.01203   2.07122
    A9        2.10978   0.00182   0.00884   0.00544   0.01428   2.12405
   A10        2.08839  -0.00018  -0.00138   0.00056  -0.00082   2.08757
   A11        2.09668   0.00021   0.00047   0.00082   0.00130   2.09797
   A12        2.09812  -0.00003   0.00091  -0.00138  -0.00047   2.09765
   A13        2.09537  -0.00027   0.00022  -0.00161  -0.00139   2.09398
   A14        2.09215   0.00042  -0.00059   0.00346   0.00287   2.09502
   A15        2.09567  -0.00015   0.00037  -0.00185  -0.00148   2.09419
   A16        2.09935   0.00038   0.00114   0.00137   0.00251   2.10186
   A17        2.09034  -0.00002  -0.00095   0.00100   0.00005   2.09040
   A18        2.09349  -0.00036  -0.00019  -0.00237  -0.00256   2.09093
   A19        2.16588   0.00001   0.00409  -0.00360   0.00047   2.16635
   A20        2.08791   0.00241  -0.00251   0.02091   0.01838   2.10629
   A21        2.02939  -0.00243  -0.00157  -0.01729  -0.01888   2.01051
    D1        0.00003  -0.00000  -0.00001  -0.00007  -0.00009  -0.00005
    D2       -3.14158  -0.00000   0.00000  -0.00002  -0.00002   3.14158
    D3        3.14159  -0.00000   0.00004  -0.00026  -0.00022   3.14137
    D4       -0.00002  -0.00000   0.00005  -0.00020  -0.00015  -0.00018
    D5       -0.00003   0.00000  -0.00003   0.00015   0.00012   0.00009
    D6       -3.14159  -0.00000   0.00003  -0.00006  -0.00003   3.14156
    D7       -3.14159   0.00000  -0.00008   0.00033   0.00026  -3.14133
    D8        0.00003   0.00000  -0.00002   0.00013   0.00010   0.00014
    D9       -3.14109  -0.00005   0.00024  -0.00538  -0.00514   3.13695
   D10       -0.00099   0.00006  -0.00021   0.00558   0.00537   0.00438
   D11        0.00047  -0.00006   0.00028  -0.00556  -0.00528  -0.00481
   D12        3.14057   0.00006  -0.00017   0.00540   0.00523  -3.13738
   D13       -0.00002   0.00000   0.00003  -0.00000   0.00003   0.00001
   D14        3.14158   0.00000  -0.00000   0.00005   0.00005  -3.14156
   D15       -3.14159  -0.00000   0.00002  -0.00005  -0.00004   3.14156
   D16        0.00001  -0.00000  -0.00002  -0.00000  -0.00002  -0.00001
   D17        0.00002  -0.00000   0.00004  -0.00015  -0.00010  -0.00008
   D18       -3.14158  -0.00000   0.00000  -0.00007  -0.00006   3.14154
   D19        3.14158   0.00000  -0.00001   0.00006   0.00006  -3.14155
   D20       -0.00002   0.00000  -0.00005   0.00014   0.00009   0.00007
   D21        0.00001  -0.00000  -0.00002   0.00000  -0.00001  -0.00000
   D22       -3.14157  -0.00000  -0.00001  -0.00000  -0.00002  -3.14159
   D23       -3.14159  -0.00000   0.00002  -0.00005  -0.00003   3.14157
   D24        0.00001  -0.00000   0.00002  -0.00006  -0.00004  -0.00002
   D25       -0.00001   0.00000  -0.00002   0.00007   0.00005   0.00004
   D26        3.14157   0.00000  -0.00002   0.00008   0.00005  -3.14156
   D27        3.14159   0.00000   0.00002  -0.00001   0.00001  -3.14158
   D28       -0.00001   0.00000   0.00002  -0.00000   0.00002   0.00001
         Item               Value     Threshold  Converged?
 Maximum Force            0.008595     0.000450     NO 
 RMS     Force            0.001343     0.000300     NO 
 Maximum Displacement     0.027418     0.001800     NO 
 RMS     Displacement     0.006020     0.001200     NO 
 Predicted change in Energy=-1.799579D-04
 GradGradGradGradGradGradGradGradGradGradGradGradGradGradGradGradGradGrad

                          Input orientation:                          
 ---------------------------------------------------------------------
 Center     Atomic      Atomic             Coordinates (Angstroms)
 Number     Number       Type             X           Y           Z
 ---------------------------------------------------------------------
      1          8           0        2.855146   -0.355673    0.001996
      2          6           0        0.551999    0.222516   -0.001102
      3          6           0       -0.347687    1.287880   -0.000694
      4          6           0        0.087391   -1.094932   -0.000691
      5          6           0       -1.717456    1.041045    0.000064
      6          6           0       -1.278798   -1.340818    0.000025
      7          6           0       -2.180175   -0.273380    0.000423
      8          6           0        2.009650    0.496588   -0.002198
      9          1           0        0.030715    2.311176   -0.001015
     10          1           0        0.814776   -1.905554   -0.001059
     11          1           0       -2.423081    1.869563    0.000350
     12          1           0       -1.648115   -2.364790    0.000301
     13          1           0       -3.251335   -0.469535    0.001014
     14          1           0        2.289672    1.575813    0.001786
 ---------------------------------------------------------------------
                    Distance matrix (angstroms):
                    1          2          3          4          5
     1  O    0.000000
     2  C    2.374615   0.000000
     3  C    3.599919   1.394431   0.000000
     4  C    2.864783   1.396972   2.422207   0.000000
     5  C    4.781163   2.412554   1.391832   2.796403   0.000000
     6  C    4.249707   2.407453   2.788731   1.388140   2.421919
     7  C    5.035993   2.776812   2.407394   2.411805   1.393492
     8  C    1.200512   1.483193   2.486601   2.495600   3.766664
     9  H    3.884521   2.152728   1.091019   3.406580   2.160865
    10  H    2.562275   2.144233   3.398433   1.089127   3.885183
    11  H    5.728120   3.400569   2.155369   3.884675   1.088278
    12  H    4.931117   3.396271   3.877256   2.150470   3.406541
    13  H    6.107543   3.865784   3.394065   3.396795   2.152820
    14  H    2.012560   2.202482   2.653031   3.461637   4.042654
                    6          7          8          9         10
     6  C    0.000000
     7  C    1.397106   0.000000
     8  C    3.766955   4.259987   0.000000
     9  H    3.879676   3.401171   2.684942   0.000000
    10  H    2.168405   3.410824   2.682911   4.289005   0.000000
    11  H    3.408214   2.156665   4.640492   2.493218   4.973452
    12  H    1.088538   2.158028   4.644000   4.968212   2.505340
    13  H    2.156395   1.088973   5.348959   4.301652   4.312240
    14  H    4.608765   4.837256   1.114969   2.375637   3.780906
                   11         12         13         14
    11  H    0.000000
    12  H    4.304685   0.000000
    13  H    2.481407   2.482400   0.000000
    14  H    4.721899   5.570864   5.906454   0.000000
 Stoichiometry    C7H6O
 Framework group  C1[X(C7H6O)]
 Deg. of freedom    36
 Full point group                 C1      NOp   1
 Largest Abelian subgroup         C1      NOp   1
 Largest concise Abelian subgroup C1      NOp   1
                         Standard orientation:                         
 ---------------------------------------------------------------------
 Center     Atomic      Atomic             Coordinates (Angstroms)
 Number     Number       Type             X           Y           Z
 ---------------------------------------------------------------------
      1          8           0       -2.825175   -0.396099   -0.001902
      2          6           0       -0.529741    0.211990    0.000944
      3          6           0        0.356016    1.288964    0.000248
      4          6           0       -0.048040   -1.099305    0.000803
      5          6           0        1.728879    1.059961   -0.000527
      6          6           0        1.321230   -1.327404    0.000070
      7          6           0        2.208650   -0.248335   -0.000616
      8          6           0       -1.990832    0.467085    0.002056
      9          1           0       -0.035661    2.307252    0.000360
     10          1           0       -0.764823   -1.919317    0.001392
     11          1           0        2.423670    1.897584   -0.001037
     12          1           0        1.703832   -2.346488    0.000005
     13          1           0        3.282271   -0.430545   -0.001219
     14          1           0       -2.284864    1.542577   -0.002156
 ---------------------------------------------------------------------
 Rotational constants (GHZ):           5.2498393           1.5747995           1.2114121
 Standard basis: 6-311++G(d,p) (5D, 7F)
 There are   226 symmetry adapted cartesian basis functions of A   symmetry.
 There are   218 symmetry adapted basis functions of A   symmetry.
   218 basis functions,   342 primitive gaussians,   226 cartesian basis functions
    28 alpha electrons       28 beta electrons
       nuclear repulsion energy       321.6518428939 Hartrees.
 NAtoms=   14 NActive=   14 NUniq=   14 SFac= 1.00D+00 NAtFMM=   60 NAOKFM=F Big=F
 Integral buffers will be    131072 words long.
 Raffenetti 2 integral format.
 Two-electron integral symmetry is turned on.
 R6APFD:  NTU= -4 IXU= 1 FactS= 1.050
 Nuclear repulsion after empirical dispersion term =      321.6456258559 Hartrees.
 One-electron integrals computed using PRISM.
 NBasis=   218 RedAO= T EigKep=  1.16D-06  NBF=   218
 NBsUse=   218 1.00D-06 EigRej= -1.00D+00 NBFU=   218
 Initial guess from the checkpoint file:  "BLDE0091.chk"
 B after Tr=    -0.000000    0.000000   -0.000000
         Rot=    1.000000   -0.000017    0.000015   -0.000287 Ang=  -0.03 deg.
 ExpMin= 3.60D-02 ExpMax= 8.59D+03 ExpMxC= 1.30D+03 IAcc=3 IRadAn=         5 AccDes= 0.00D+00
 Harris functional with IExCor= 1009 and IRadAn=       5 diagonalized for initial guess.
 HarFok:  IExCor= 1009 AccDes= 0.00D+00 IRadAn=         5 IDoV= 1 UseB2=F ITyADJ=14
 ICtDFT=  3500011 ScaDFX=  1.000000  1.000000  1.000000  1.000000
 FoFCou: FMM=F IPFlag=           0 FMFlag=      100000 FMFlg1=           0
         NFxFlg=           0 DoJE=T BraDBF=F KetDBF=T FulRan=T
         wScrn=  0.000000 ICntrl=       500 IOpCl=  0 I1Cent=   200000004 NGrid=           0
         NMat0=    1 NMatS0=      1 NMatT0=    0 NMatD0=    1 NMtDS0=    0 NMtDT0=    0
 Petite list used in FoFCou.
 Requested convergence on RMS density matrix=1.00D-08 within  32 cycles.
 Requested convergence on MAX density matrix=1.00D-06.
 Requested convergence on             energy=1.00D-06.
 No special actions if energy rises.
 SCF Done:  E(RM08HX) =  -345.560312937     A.U. after   13 cycles
            NFock= 13  Conv=0.40D-08     -V/T= 2.0046
 QCSCF skips out because SCF is already converged.
 R6APFD:  NTU= -4 IXU= 1 FactS= 1.050
 Calling FoFJK, ICntrl=      2127 FMM=F ISym2X=0 I1Cent= 0 IOpClX= 0 NMat=1 NMatS=1 NMatT=0.
 ***** Axes restored to original set *****
 -------------------------------------------------------------------
 Center     Atomic                   Forces (Hartrees/Bohr)
 Number     Number              X              Y              Z
 -------------------------------------------------------------------
      1        8           0.001179448   -0.000891845   -0.000368580
      2        6          -0.001294513    0.000418351   -0.000326107
      3        6           0.000555809    0.000125256   -0.000014639
      4        6           0.000072158   -0.000339936   -0.000016779
      5        6          -0.000387788   -0.000144464    0.000023446
      6        6           0.000137079   -0.000312653    0.000019010
      7        6          -0.000006164    0.000399390   -0.000000906
      8        6           0.000008556    0.000419242    0.001049559
      9        1          -0.000037905   -0.000086297   -0.000009722
     10        1           0.000068852    0.000121234   -0.000000191
     11        1          -0.000061208   -0.000076062    0.000003407
     12        1          -0.000136086    0.000090518    0.000002016
     13        1           0.000045753    0.000000532   -0.000003728
     14        1          -0.000143991    0.000276733   -0.000356787
 -------------------------------------------------------------------
 Cartesian Forces:  Max     0.001294513 RMS     0.000400666

 GradGradGradGradGradGradGradGradGradGradGradGradGradGradGradGradGradGrad
 Berny optimization.
 Using GEDIIS/GDIIS optimizer.
 FormGI is forming the generalized inverse of G from B-inverse, IUseBI=4.
 Internal  Forces:  Max     0.001460008 RMS     0.000270103
 Search for a local minimum.
 Step number   3 out of a maximum of   73
 All quantities printed in internal units (Hartrees-Bohrs-Radians)
 Mixed Optimization -- En-DIIS/RFO-DIIS
 Update second derivatives using D2CorX and points    1    2    3
 DE= -1.77D-04 DEPred=-1.80D-04 R= 9.82D-01
 TightC=F SS=  1.41D+00  RLast= 4.22D-02 DXNew= 5.0454D-01 1.2674D-01
 Trust test= 9.82D-01 RLast= 4.22D-02 DXMaxT set to 3.00D-01
 ITU=  1  1  0
 Use linear search instead of GDIIS.
     Eigenvalues ---    0.01372   0.01412   0.01916   0.02156   0.02156
     Eigenvalues ---    0.02156   0.02156   0.02156   0.02157   0.02157
     Eigenvalues ---    0.02157   0.13534   0.16000   0.16000   0.16000
     Eigenvalues ---    0.16054   0.16506   0.21900   0.22010   0.22218
     Eigenvalues ---    0.23273   0.25038   0.32057   0.35133   0.35181
     Eigenvalues ---    0.35253   0.35268   0.35318   0.35793   0.42168
     Eigenvalues ---    0.42392   0.46239   0.46484   0.46603   0.46816
     Eigenvalues ---    0.89952
 RFO step:  Lambda=-4.43801720D-05 EMin= 1.37191644D-02
 Quartic linear search produced a step of  0.00768.
 Iteration  1 RMS(Cart)=  0.00567948 RMS(Int)=  0.00012065
 Iteration  2 RMS(Cart)=  0.00009919 RMS(Int)=  0.00007742
 Iteration  3 RMS(Cart)=  0.00000001 RMS(Int)=  0.00007742
 Variable       Old X    -DE/DX   Delta X   Delta X   Delta X     New X
                                 (Linear)    (Quad)   (Total)
    R1        2.26864   0.00146  -0.00011  -0.00020  -0.00030   2.26833
    R2        2.63509  -0.00013  -0.00003  -0.00058  -0.00061   2.63448
    R3        2.63989   0.00019   0.00000   0.00047   0.00047   2.64036
    R4        2.80283   0.00099   0.00009   0.00423   0.00432   2.80715
    R5        2.63018   0.00033   0.00000   0.00068   0.00068   2.63086
    R6        2.06173  -0.00009   0.00001  -0.00011  -0.00011   2.06162
    R7        2.62320   0.00008  -0.00002  -0.00018  -0.00020   2.62300
    R8        2.05815  -0.00004   0.00001   0.00004   0.00006   2.05821
    R9        2.63332  -0.00021  -0.00000  -0.00050  -0.00051   2.63281
   R10        2.05655  -0.00002  -0.00000  -0.00003  -0.00003   2.05652
   R11        2.64015   0.00022   0.00000   0.00054   0.00054   2.64068
   R12        2.05704  -0.00004   0.00000  -0.00004  -0.00003   2.05700
   R13        2.05786  -0.00005   0.00000  -0.00006  -0.00006   2.05780
   R14        2.10699   0.00023   0.00006   0.00164   0.00171   2.10869
    A1        2.10127   0.00018   0.00004   0.00129   0.00134   2.10260
    A2        2.08623  -0.00003  -0.00002  -0.00042  -0.00044   2.08579
    A3        2.09569  -0.00015  -0.00002  -0.00087  -0.00090   2.09479
    A4        2.09379  -0.00010  -0.00003  -0.00073  -0.00076   2.09303
    A5        2.08611   0.00006  -0.00004  -0.00044  -0.00049   2.08563
    A6        2.10328   0.00004   0.00007   0.00118   0.00125   2.10453
    A7        2.08791  -0.00011  -0.00002  -0.00069  -0.00071   2.08720
    A8        2.07122  -0.00008  -0.00009  -0.00215  -0.00224   2.06898
    A9        2.12405   0.00019   0.00011   0.00283   0.00294   2.12700
   A10        2.08757  -0.00004  -0.00001  -0.00035  -0.00035   2.08722
   A11        2.09797   0.00012   0.00001   0.00089   0.00090   2.09887
   A12        2.09765  -0.00008  -0.00000  -0.00054  -0.00055   2.09710
   A13        2.09398  -0.00008  -0.00001  -0.00047  -0.00048   2.09350
   A14        2.09502   0.00020   0.00002   0.00142   0.00145   2.09646
   A15        2.09419  -0.00012  -0.00001  -0.00096  -0.00097   2.09322
   A16        2.10186   0.00015   0.00002   0.00094   0.00096   2.10282
   A17        2.09040  -0.00006   0.00000  -0.00029  -0.00029   2.09011
   A18        2.09093  -0.00009  -0.00002  -0.00065  -0.00067   2.09026
   A19        2.16635   0.00047   0.00000   0.00247   0.00212   2.16847
   A20        2.10629  -0.00001   0.00014   0.00212   0.00190   2.10819
   A21        2.01051  -0.00046  -0.00015  -0.00420  -0.00469   2.00582
    D1       -0.00005   0.00001  -0.00000   0.00042   0.00042   0.00036
    D2        3.14158   0.00000  -0.00000   0.00007   0.00007  -3.14153
    D3        3.14137   0.00003  -0.00000   0.00125   0.00125  -3.14057
    D4       -0.00018   0.00002  -0.00000   0.00090   0.00090   0.00072
    D5        0.00009  -0.00001   0.00000  -0.00036  -0.00036  -0.00027
    D6        3.14156   0.00000  -0.00000   0.00012   0.00011  -3.14151
    D7       -3.14133  -0.00003   0.00000  -0.00120  -0.00119   3.14066
    D8        0.00014  -0.00001   0.00000  -0.00072  -0.00072  -0.00059
    D9        3.13695   0.00034  -0.00004   0.02465   0.02461  -3.12163
   D10        0.00438  -0.00035   0.00004  -0.02483  -0.02478  -0.02040
   D11       -0.00481   0.00036  -0.00004   0.02548   0.02544   0.02063
   D12       -3.13738  -0.00033   0.00004  -0.02400  -0.02395   3.12185
   D13        0.00001  -0.00001   0.00000  -0.00030  -0.00029  -0.00028
   D14       -3.14156  -0.00001   0.00000  -0.00025  -0.00024   3.14138
   D15        3.14156   0.00000  -0.00000   0.00006   0.00006  -3.14157
   D16       -0.00001   0.00000  -0.00000   0.00011   0.00011   0.00010
   D17       -0.00008   0.00000  -0.00000   0.00018   0.00018   0.00010
   D18        3.14154   0.00001  -0.00000   0.00022   0.00022  -3.14142
   D19       -3.14155  -0.00001   0.00000  -0.00031  -0.00031   3.14133
   D20        0.00007  -0.00001   0.00000  -0.00027  -0.00027  -0.00019
   D21       -0.00000   0.00000  -0.00000   0.00012   0.00012   0.00012
   D22       -3.14159   0.00000  -0.00000   0.00011   0.00011  -3.14148
   D23        3.14157   0.00000  -0.00000   0.00007   0.00007  -3.14155
   D24       -0.00002   0.00000  -0.00000   0.00006   0.00006   0.00003
   D25        0.00004  -0.00000   0.00000  -0.00006  -0.00006  -0.00003
   D26       -3.14156  -0.00000   0.00000  -0.00005  -0.00005   3.14157
   D27       -3.14158  -0.00000   0.00000  -0.00010  -0.00010   3.14150
   D28        0.00001  -0.00000   0.00000  -0.00009  -0.00009  -0.00009
         Item               Value     Threshold  Converged?
 Maximum Force            0.001460     0.000450     NO 
 RMS     Force            0.000270     0.000300     YES
 Maximum Displacement     0.022036     0.001800     NO 
 RMS     Displacement     0.005679     0.001200     NO 
 Predicted change in Energy=-2.231111D-05
 GradGradGradGradGradGradGradGradGradGradGradGradGradGradGradGradGradGrad

                          Input orientation:                          
 ---------------------------------------------------------------------
 Center     Atomic      Atomic             Coordinates (Angstroms)
 Number     Number       Type             X           Y           Z
 ---------------------------------------------------------------------
      1          8           0        2.857835   -0.354888   -0.009138
      2          6           0        0.551031    0.221935    0.004490
      3          6           0       -0.347440    1.287902    0.002846
      4          6           0        0.086858   -1.095928    0.002741
      5          6           0       -1.717606    1.041255   -0.000127
      6          6           0       -1.279301   -1.341365   -0.000332
      7          6           0       -2.180013   -0.272995   -0.001778
      8          6           0        2.011060    0.495692    0.008984
      9          1           0        0.032406    2.310602    0.004194
     10          1           0        0.816390   -1.904657    0.004181
     11          1           0       -2.423815    1.869256   -0.001226
     12          1           0       -1.650412   -2.364668   -0.001553
     13          1           0       -3.251163   -0.469017   -0.004206
     14          1           0        2.286870    1.576776   -0.009875
 ---------------------------------------------------------------------
                    Distance matrix (angstroms):
                    1          2          3          4          5
     1  O    0.000000
     2  C    2.377868   0.000000
     3  C    3.601762   1.394109   0.000000
     4  C    2.868378   1.397219   2.423069   0.000000
     5  C    4.783718   2.412058   1.392192   2.797079   0.000000
     6  C    4.253129   2.407082   2.789520   1.388034   2.422600
     7  C    5.038518   2.775535   2.407227   2.411626   1.393225
     8  C    1.200351   1.485479   2.488003   2.497168   3.768378
     9  H    3.884336   2.152093   1.090963   3.406965   2.161898
    10  H    2.563095   2.143084   3.398079   1.089157   3.885815
    11  H    5.730855   3.400501   2.156228   3.885333   1.088264
    12  H    4.935946   3.396602   3.878019   2.151239   3.406587
    13  H    6.110065   3.864475   3.393880   3.396388   2.152378
    14  H    2.014281   2.202031   2.650133   3.461728   4.040138
                    6          7          8          9         10
     6  C    0.000000
     7  C    1.397390   0.000000
     8  C    3.768466   4.260996   0.000000
     9  H    3.880394   3.401441   2.684957   0.000000
    10  H    2.170078   3.411860   2.681219   4.287545   0.000000
    11  H    3.408519   2.156080   4.642725   2.495563   4.974071
    12  H    1.088520   2.157678   4.646305   4.968910   2.509334
    13  H    2.156211   1.088941   5.349937   4.302113   4.313481
    14  H    4.607951   4.834745   1.115872   2.370930   3.779270
                   11         12         13         14
    11  H    0.000000
    12  H    4.303983   0.000000
    13  H    2.480329   2.481110   0.000000
    14  H    4.719764   5.571108   5.903822   0.000000
 Stoichiometry    C7H6O
 Framework group  C1[X(C7H6O)]
 Deg. of freedom    36
 Full point group                 C1      NOp   1
 Largest Abelian subgroup         C1      NOp   1
 Largest concise Abelian subgroup C1      NOp   1
                         Standard orientation:                         
 ---------------------------------------------------------------------
 Center     Atomic      Atomic             Coordinates (Angstroms)
 Number     Number       Type             X           Y           Z
 ---------------------------------------------------------------------
      1          8           0       -2.827553   -0.395372    0.008071
      2          6           0       -0.528469    0.211521   -0.004127
      3          6           0        0.356012    1.289122   -0.001099
      4          6           0       -0.047137   -1.100173   -0.003498
      5          6           0        1.729280    1.060374    0.002144
      6          6           0        1.322108   -1.327762   -0.000155
      7          6           0        2.208799   -0.247730    0.002677
      8          6           0       -1.991945    0.466205   -0.008898
      9          1           0       -0.037148    2.306778   -0.001585
     10          1           0       -0.766051   -1.918352   -0.006005
     11          1           0        2.424621    1.897520    0.004321
     12          1           0        1.706542   -2.346136    0.000199
     13          1           0        3.282415   -0.429758    0.005314
     14          1           0       -2.281848    1.543578    0.010920
 ---------------------------------------------------------------------
 Rotational constants (GHZ):           5.2486526           1.5732866           1.2104683
 Standard basis: 6-311++G(d,p) (5D, 7F)
 There are   226 symmetry adapted cartesian basis functions of A   symmetry.
 There are   218 symmetry adapted basis functions of A   symmetry.
   218 basis functions,   342 primitive gaussians,   226 cartesian basis functions
    28 alpha electrons       28 beta electrons
       nuclear repulsion energy       321.5731328941 Hartrees.
 NAtoms=   14 NActive=   14 NUniq=   14 SFac= 1.00D+00 NAtFMM=   60 NAOKFM=F Big=F
 Integral buffers will be    131072 words long.
 Raffenetti 2 integral format.
 Two-electron integral symmetry is turned on.
 R6APFD:  NTU= -4 IXU= 1 FactS= 1.050
 Nuclear repulsion after empirical dispersion term =      321.5669183258 Hartrees.
 One-electron integrals computed using PRISM.
 NBasis=   218 RedAO= T EigKep=  1.16D-06  NBF=   218
 NBsUse=   218 1.00D-06 EigRej= -1.00D+00 NBFU=   218
 Initial guess from the checkpoint file:  "BLDE0091.chk"
 B after Tr=     0.000000   -0.000000    0.000000
         Rot=    1.000000    0.000001    0.000000   -0.000024 Ang=   0.00 deg.
 ExpMin= 3.60D-02 ExpMax= 8.59D+03 ExpMxC= 1.30D+03 IAcc=3 IRadAn=         5 AccDes= 0.00D+00
 Harris functional with IExCor= 1009 and IRadAn=       5 diagonalized for initial guess.
 HarFok:  IExCor= 1009 AccDes= 0.00D+00 IRadAn=         5 IDoV= 1 UseB2=F ITyADJ=14
 ICtDFT=  3500011 ScaDFX=  1.000000  1.000000  1.000000  1.000000
 FoFCou: FMM=F IPFlag=           0 FMFlag=      100000 FMFlg1=           0
         NFxFlg=           0 DoJE=T BraDBF=F KetDBF=T FulRan=T
         wScrn=  0.000000 ICntrl=       500 IOpCl=  0 I1Cent=   200000004 NGrid=           0
         NMat0=    1 NMatS0=      1 NMatT0=    0 NMatD0=    1 NMtDS0=    0 NMtDT0=    0
 Petite list used in FoFCou.
 Requested convergence on RMS density matrix=1.00D-08 within  32 cycles.
 Requested convergence on MAX density matrix=1.00D-06.
 Requested convergence on             energy=1.00D-06.
 No special actions if energy rises.
 SCF Done:  E(RM08HX) =  -345.560256728     A.U. after   12 cycles
            NFock= 12  Conv=0.41D-08     -V/T= 2.0046
 QCSCF skips out because SCF is already converged.
 R6APFD:  NTU= -4 IXU= 1 FactS= 1.050
 Calling FoFJK, ICntrl=      2127 FMM=F ISym2X=0 I1Cent= 0 IOpClX= 0 NMat=1 NMatS=1 NMatT=0.
 ***** Axes restored to original set *****
 -------------------------------------------------------------------
 Center     Atomic                   Forces (Hartrees/Bohr)
 Number     Number              X              Y              Z
 -------------------------------------------------------------------
      1        8           0.000936687   -0.000839911    0.001646439
      2        6           0.000035594    0.000030575    0.001456441
      3        6           0.000350341    0.000031291    0.000071511
      4        6           0.000233584    0.000072452    0.000061465
      5        6          -0.000118530   -0.000040145   -0.000118262
      6        6           0.000039216   -0.000204585   -0.000065376
      7        6          -0.000048746    0.000135048    0.000004286
      8        6          -0.001273003    0.001081652   -0.004700442
      9        1          -0.000126357   -0.000015258    0.000042213
     10        1          -0.000138495   -0.000061782    0.000003918
     11        1           0.000001242   -0.000018604   -0.000011626
     12        1          -0.000035590    0.000044605   -0.000012681
     13        1           0.000012017    0.000002414    0.000015911
     14        1           0.000132042   -0.000217752    0.001606202
 -------------------------------------------------------------------
 Cartesian Forces:  Max     0.004700442 RMS     0.000903460

 GradGradGradGradGradGradGradGradGradGradGradGradGradGradGradGradGradGrad
 Berny optimization.
 Using GEDIIS/GDIIS optimizer.
 FormGI is forming the generalized inverse of G from B-inverse, IUseBI=4.
 Internal  Forces:  Max     0.001597951 RMS     0.000426096
 Search for a local minimum.
 Step number   4 out of a maximum of   73
 All quantities printed in internal units (Hartrees-Bohrs-Radians)
 Mixed Optimization -- En-DIIS/RFO-DIIS
 Swapping is turned off.
 Update second derivatives using D2CorX and points    1    2    3    4
 DE=  5.62D-05 DEPred=-2.23D-05 R=-2.52D+00
 Trust test=-2.52D+00 RLast= 5.02D-02 DXMaxT set to 1.50D-01
 ITU= -1  1  1  0
     Eigenvalues ---    0.01372   0.01916   0.02153   0.02156   0.02156
     Eigenvalues ---    0.02156   0.02156   0.02157   0.02157   0.02157
     Eigenvalues ---    0.06089   0.08747   0.16000   0.16000   0.16001
     Eigenvalues ---    0.16039   0.16375   0.21622   0.22004   0.22163
     Eigenvalues ---    0.23115   0.25022   0.29677   0.34728   0.35171
     Eigenvalues ---    0.35238   0.35256   0.35272   0.35339   0.42172
     Eigenvalues ---    0.42421   0.46089   0.46484   0.46550   0.46796
     Eigenvalues ---    0.79914
 En-DIIS/RFO-DIIS/Sim-DIIS IScMMF=       -3 using points:     4    3
 RFO step:  Lambda=-1.29218261D-04.
 DidBck=T Rises=T En-DIIS coefs:    0.36033    0.63967
 Iteration  1 RMS(Cart)=  0.00459796 RMS(Int)=  0.00006214
 Iteration  2 RMS(Cart)=  0.00006594 RMS(Int)=  0.00000422
 Iteration  3 RMS(Cart)=  0.00000001 RMS(Int)=  0.00000422
 Variable       Old X    -DE/DX   Delta X   Delta X   Delta X     New X
                                 (Linear)    (Quad)   (Total)
    R1        2.26833   0.00123   0.00019   0.00065   0.00084   2.26918
    R2        2.63448  -0.00006   0.00039  -0.00036   0.00003   2.63451
    R3        2.64036   0.00005  -0.00030   0.00039   0.00009   2.64046
    R4        2.80715  -0.00020  -0.00276   0.00278   0.00002   2.80717
    R5        2.63086   0.00011  -0.00044   0.00057   0.00014   2.63100
    R6        2.06162  -0.00006   0.00007  -0.00016  -0.00009   2.06153
    R7        2.62300   0.00005   0.00013  -0.00002   0.00011   2.62312
    R8        2.05821  -0.00005  -0.00004  -0.00005  -0.00008   2.05812
    R9        2.63281  -0.00006   0.00032  -0.00042  -0.00010   2.63272
   R10        2.05652  -0.00002   0.00002  -0.00002  -0.00001   2.05651
   R11        2.64068   0.00008  -0.00034   0.00046   0.00011   2.64080
   R12        2.05700  -0.00003   0.00002  -0.00006  -0.00004   2.05697
   R13        2.05780  -0.00001   0.00004  -0.00006  -0.00002   2.05778
   R14        2.10869  -0.00020  -0.00109   0.00086  -0.00023   2.10846
    A1        2.10260   0.00004  -0.00085   0.00087   0.00001   2.10262
    A2        2.08579  -0.00002   0.00028  -0.00026   0.00002   2.08580
    A3        2.09479  -0.00002   0.00057  -0.00060  -0.00003   2.09476
    A4        2.09303  -0.00004   0.00049  -0.00050  -0.00001   2.09302
    A5        2.08563   0.00014   0.00031   0.00004   0.00035   2.08598
    A6        2.10453  -0.00010  -0.00080   0.00046  -0.00034   2.10419
    A7        2.08720  -0.00001   0.00045  -0.00047  -0.00002   2.08719
    A8        2.06898   0.00015   0.00143  -0.00105   0.00038   2.06936
    A9        2.12700  -0.00014  -0.00188   0.00152  -0.00036   2.12663
   A10        2.08722   0.00002   0.00023  -0.00022   0.00000   2.08722
   A11        2.09887   0.00000  -0.00058   0.00067   0.00009   2.09896
   A12        2.09710  -0.00003   0.00035  -0.00044  -0.00009   2.09700
   A13        2.09350  -0.00003   0.00031  -0.00035  -0.00004   2.09346
   A14        2.09646   0.00006  -0.00092   0.00110   0.00017   2.09664
   A15        2.09322  -0.00003   0.00062  -0.00075  -0.00013   2.09309
   A16        2.10282   0.00002  -0.00062   0.00067   0.00005   2.10287
   A17        2.09011  -0.00000   0.00018  -0.00023  -0.00005   2.09006
   A18        2.09026  -0.00001   0.00043  -0.00044  -0.00001   2.09025
   A19        2.16847   0.00005  -0.00135   0.00195   0.00057   2.16904
   A20        2.10819  -0.00018  -0.00122   0.00073  -0.00051   2.10769
   A21        2.00582   0.00024   0.00300  -0.00234   0.00064   2.00646
    D1        0.00036  -0.00005  -0.00027  -0.00010  -0.00037  -0.00001
    D2       -3.14153  -0.00001  -0.00004  -0.00001  -0.00005  -3.14159
    D3       -3.14057  -0.00012  -0.00080  -0.00025  -0.00105   3.14157
    D4        0.00072  -0.00008  -0.00058  -0.00015  -0.00073  -0.00001
    D5       -0.00027   0.00004   0.00023   0.00004   0.00026  -0.00001
    D6       -3.14151  -0.00001  -0.00007  -0.00000  -0.00008  -3.14159
    D7        3.14066   0.00011   0.00076   0.00018   0.00095  -3.14158
    D8       -0.00059   0.00007   0.00046   0.00014   0.00061   0.00002
    D9       -3.12163  -0.00153  -0.01574  -0.00468  -0.02042   3.14114
   D10       -0.02040   0.00157   0.01585   0.00487   0.02073   0.00032
   D11        0.02063  -0.00160  -0.01627  -0.00483  -0.02110  -0.00047
   D12        3.12185   0.00150   0.01532   0.00473   0.02005  -3.14128
   D13       -0.00028   0.00004   0.00019   0.00011   0.00030   0.00001
   D14        3.14138   0.00003   0.00016   0.00005   0.00021  -3.14159
   D15       -3.14157  -0.00000  -0.00004   0.00001  -0.00002   3.14159
   D16        0.00010  -0.00001  -0.00007  -0.00004  -0.00011  -0.00001
   D17        0.00010  -0.00001  -0.00011   0.00002  -0.00009   0.00001
[...]
 ! A16   A(5,7,6)              120.4818         -DE/DX =    0.0                 !
 ! A17   A(5,7,13)             119.7552         -DE/DX =    0.0                 !
 ! A18   A(6,7,13)             119.763          -DE/DX =    0.0                 !
 ! A19   A(1,8,2)              124.2444         -DE/DX =    0.0                 !
 ! A20   A(1,8,14)             120.7298         -DE/DX =    0.0                 !
 ! A21   A(2,8,14)             115.0259         -DE/DX =    0.0                 !
 ! D1    D(4,2,3,5)              0.0003         -DE/DX =    0.0                 !
 ! D2    D(4,2,3,9)            180.0002         -DE/DX =    0.0                 !
 ! D3    D(8,2,3,5)           -179.9997         -DE/DX =    0.0                 !
 ! D4    D(8,2,3,9)              0.0002         -DE/DX =    0.0                 !
 ! D5    D(3,2,4,6)              0.0            -DE/DX =    0.0                 !
 ! D6    D(3,2,4,10)          -179.9999         -DE/DX =    0.0                 !
 ! D7    D(8,2,4,6)            179.9999         -DE/DX =    0.0                 !
 ! D8    D(8,2,4,10)             0.0            -DE/DX =    0.0                 !
 ! D9    D(3,2,8,1)            179.9976         -DE/DX =    0.0                 !
 ! D10   D(3,2,8,14)            -0.0034         -DE/DX =    0.0                 !
 ! D11   D(4,2,8,1)             -0.0024         -DE/DX =    0.0                 !
 ! D12   D(4,2,8,14)          -180.0034         -DE/DX =    0.0                 !
 ! D13   D(2,3,5,7)             -0.0004         -DE/DX =    0.0                 !
 ! D14   D(2,3,5,11)          -180.0003         -DE/DX =    0.0                 !
 ! D15   D(9,3,5,7)           -180.0002         -DE/DX =    0.0                 !
 ! D16   D(9,3,5,11)            -0.0001         -DE/DX =    0.0                 !
 ! D17   D(2,4,6,7)             -0.0002         -DE/DX =    0.0                 !
 ! D18   D(2,4,6,12)           179.9998         -DE/DX =    0.0                 !
 ! D19   D(10,4,6,7)           179.9997         -DE/DX =    0.0                 !
 ! D20   D(10,4,6,12)           -0.0003         -DE/DX =    0.0                 !
 ! D21   D(3,5,7,6)              0.0001         -DE/DX =    0.0                 !
 ! D22   D(3,5,7,13)           180.0002         -DE/DX =    0.0                 !
 ! D23   D(11,5,7,6)           180.0            -DE/DX =    0.0                 !
 ! D24   D(11,5,7,13)            0.0001         -DE/DX =    0.0                 !
 ! D25   D(4,6,7,5)              0.0001         -DE/DX =    0.0                 !
 ! D26   D(4,6,7,13)          -179.9999         -DE/DX =    0.0                 !
 ! D27   D(12,6,7,5)          -179.9998         -DE/DX =    0.0                 !
 ! D28   D(12,6,7,13)            0.0001         -DE/DX =    0.0                 !
 --------------------------------------------------------------------------------
 GradGradGradGradGradGradGradGradGradGradGradGradGradGradGradGradGradGrad


 ----------------------------------------------------------------------

 Electric dipole moment (input orientation):
 (Debye = 10**-18 statcoulomb cm , SI units = C m)
                  (au)            (Debye)         (10**-30 SI)
   Tot        0.132119D+01      0.335813D+01      0.112015D+02
   x         -0.122236D+01     -0.310693D+01     -0.103636D+02
   y          0.501379D+00      0.127438D+01      0.425087D+01
   z          0.131515D-04      0.334277D-04      0.111503D-03

 Dipole polarizability, Alpha (input orientation).
 (esu units = cm**3 , SI units = C**2 m**2 J**-1)
 Alpha(0;0):
               (au)            (10**-24 esu)      (10**-40 SI)
   iso        0.811730D+02      0.120286D+02      0.133836D+02
   aniso      0.560860D+02      0.831109D+01      0.924733D+01
   xx         0.109060D+03      0.161611D+02      0.179816D+02
   yx        -0.690357D+00     -0.102300D+00     -0.113824D+00
   yy         0.887886D+02      0.131571D+02      0.146393D+02
   zx        -0.238684D-02     -0.353693D-03     -0.393537D-03
   zy        -0.387621D-03     -0.574395D-04     -0.639101D-04
   zz         0.456703D+02      0.676764D+01      0.753001D+01

 ----------------------------------------------------------------------

 Dipole orientation:
     8          0.54185807          1.32160167         -5.25174261
     6          0.29730724          0.72526876         -0.80420687
     6          0.76000146          1.85321104          1.53113640
     6         -0.70338620         -1.71452541         -0.93808578
     6          0.22335052          0.54461387          3.74973620
     6         -1.23812803         -3.01843878          1.27437976
     6         -0.77440342         -1.88800702          3.61554032
     6          0.87605394          2.13647468         -3.15956678
     1          1.54178799          3.75930322          1.60253714
     1         -1.04219081         -2.54044948         -2.79243967
     1          0.58042854          1.41506515          5.57836009
     1         -2.01801645         -4.91987145          1.18955751
     1         -1.19594907         -2.91590795          5.34760507
     1          1.66823928          4.06819112         -2.86984745

 Electric dipole moment (dipole orientation):
 (Debye = 10**-18 statcoulomb cm , SI units = C m)
                  (au)            (Debye)         (10**-30 SI)
   Tot        0.132119D+01      0.335813D+01      0.112015D+02
   x          0.000000D+00      0.000000D+00      0.000000D+00
   y          0.000000D+00      0.000000D+00      0.000000D+00
   z          0.132119D+01      0.335813D+01      0.112015D+02

 Dipole polarizability, Alpha (dipole orientation).
 (esu units = cm**3 , SI units = C**2 m**2 J**-1)
 Alpha(0;0):
               (au)            (10**-24 esu)      (10**-40 SI)
   iso        0.811730D+02      0.120286D+02      0.133836D+02
   aniso      0.560860D+02      0.831109D+01      0.924733D+01
   xx         0.522297D+02      0.773964D+01      0.861151D+01
   yx         0.159929D+02      0.236990D+01      0.263687D+01
   yy         0.846638D+02      0.125459D+02      0.139592D+02
   zx        -0.251313D+01     -0.372408D+00     -0.414360D+00
   zy        -0.613084D+01     -0.908497D+00     -0.101084D+01
   zz         0.106626D+03      0.158003D+02      0.175802D+02

 ----------------------------------------------------------------------
 1\1\GINC-PITOMBA\Freq\RM08HX\6-311++G(d,p)\C7H6O1\VALTER\18-Sep-2025\0
 \\#N Geom=AllCheck Guess=TCheck SCRF=Check GenChk RM08HX/6-311++G(d,p)
  Freq\\BLDE0091\\0,1\O,2.8580555777,-0.3553234289,-0.0001389923\C,0.55
 11426983,0.222263591,-0.0000916233\C,-0.3473958602,1.2881310402,-0.000
 058452\C,0.087124485,-1.0956968633,-0.0000705453\C,-1.7176345539,1.041
 2039171,0.0000024003\C,-1.2790951982,-1.3413795316,-0.0000156298\C,-2.
 1799407992,-0.2730247722,0.0000221182\C,2.0106104135,0.4960266417,-0.0
 001490808\H,0.0313691555,2.3111224588,-0.0000782479\H,0.8157293509,-1.
 9051501581,-0.0000963595\H,-2.4239766609,1.8690547341,0.0000327538\H,-
 1.6502787811,-2.3646029508,-0.0000023137\H,-3.2510514713,-0.4691240139
 ,0.0000663244\H,2.2880416439,1.576399336,-0.0002223519\\Version=ES64L-
 G16RevB.01\State=1-A\HF=-345.5603212\RMSD=3.067e-09\RMSF=3.084e-05\Zer
 oPoint=0.1099154\Thermal=0.1162463\Dipole=-1.2223607,0.5013795,0.00001
 32\DipoleDeriv=-1.2551681,0.1953994,0.0000174,0.4953609,-0.6629516,0.0
 000033,0.0000116,0.0000094,-0.3389706,-0.7053482,-0.0687007,0.0000261,
 -0.2482698,-0.125438,0.0000168,0.000039,0.0000097,0.0039907,0.0915962,
 0.1285187,-0.0000104,-0.0626675,0.037467,0.0000004,-0.0000034,-0.00000
 61,-0.1257225,0.0653639,-0.1185493,-0.0000054,0.1000226,-0.009801,-0.0
 000039,-0.0000135,0.0000006,-0.1020774,-0.0466444,-0.1795842,-0.000003
 6,-0.1634927,-0.0469707,0.0000075,-0.0000063,0.0000073,-0.1450684,-0.1
 696829,0.1517881,0.0000006,0.1042059,0.0711395,-0.0000034,0.0000023,-0
 .0000039,-0.1349517,0.0942721,0.00696,-0.0000095,-0.0073752,0.0630303,
 -0.0000008,-0.0000106,-0.0000008,-0.1157569,1.8287096,-0.0622526,-0.00
 0046,-0.0867882,0.8952996,-0.0000389,-0.0000534,-0.0000367,0.1854964,0
 .054944,-0.0675486,0.0000045,-0.0467455,-0.038304,0.0000026,0.0000046,
 0.0000041,0.1425783,0.0658323,0.054106,0.0000035,0.0330026,0.0370262,-
 0.0000015,0.0000041,-0.0000011,0.1395813,0.0028243,0.0665479,0.000006,
 0.0760815,-0.011009,-0.0000032,0.0000062,-0.0000021,0.1435849,0.044487
 6,-0.0457305,0.000004,-0.0533708,-0.053505,0.000002,0.0000045,0.000000
 9,0.1402786,-0.0674126,-0.0258014,0.0000088,-0.0270023,0.0717634,0.000
 0011,0.00001,0.0000009,0.1399575,-0.0037738,-0.0351526,0.0000039,-0.11
 29615,-0.2277466,0.000018,0.0000051,0.0000178,0.0670799\Polar=109.0602
 683,-0.6903566,88.7885604,-0.0023868,-0.0003876,45.6702873\Quadrupole=
 -3.0219663,4.9595528,-1.9375865,2.90759,-0.0001701,-0.0001054\PG=C01 [
 X(C7H6O1)]\NImag=0\\0.47702273,-0.39979412,0.49074618,0.00000350,-0.00
 000856,0.02380761,-0.04875081,0.02833897,0.00000108,0.64046552,0.03591
 107,0.01791156,-0.00000105,-0.01440727,0.71574365,0.00000086,-0.000000
 99,0.01921285,-0.00001990,-0.00000306,0.13918578,-0.00166388,-0.004637
 34,0.00000019,-0.20626414,0.06789325,0.00000660,0.68666243,-0.01044238
 ,0.00332080,0.00000014,0.13214500,-0.25609069,-0.00000490,0.02424684,0
 .72428339,0.00000025,0.00000011,0.00265320,0.00000638,-0.00000238,-0.0
 6512414,-0.00002332,-0.00000259,0.14171281,0.00237441,-0.00318812,-0.0
 0000006,-0.14108544,-0.02321583,0.00000241,0.06719814,-0.00301419,-0.0
 0000251,0.72562887,0.00678093,-0.00852147,0.00000001,-0.08407681,-0.30
 824099,0.00000410,0.04946203,-0.05294123,-0.00000200,-0.03696835,0.697
 50160,-0.00000037,0.00000011,-0.00070782,0.00000275,0.00000141,-0.0668
 6197,-0.00000255,0.00000031,0.00756925,-0.00002138,0.00000041,0.142911
 01,-0.00365468,-0.00020383,-0.00000001,-0.04486014,0.06628708,0.000002
 02,-0.33612082,-0.07222793,0.00001131,-0.04715941,-0.04102831,0.000001
 80,0.70054575,0.00011278,0.00147652,0.,0.01178696,0.05469917,-0.000000
 76,0.00302879,-0.13605822,0.00000007,-0.03848354,-0.03334733,0.0000015
 9,-0.04174387,0.71175665,0.00000011,-0.00000004,-0.00190288,0.00000203
 ,-0.00000259,0.00969629,0.00001112,0.00000303,-0.06556386,0.00000182,0
 .00000179,-0.00661357,-0.00002340,0.00000156,0.13703234,-0.00048438,0.
 00300894,0.,-0.00868070,-0.09006332,0.00000118,-0.07241672,0.02500431,
 0.00000268,-0.34774404,-0.00225386,0.00000978,0.07209315,0.05159866,-0
 .00000281,0.68153760,0.00153615,0.00170050,-0.00000010,-0.03537934,0.0
 1823105,0.00000111,0.02464784,-0.00929466,-0.00000106,-0.07757099,-0.1
 3992016,0.00000319,-0.00429282,-0.05301891,0.00000028,0.03405598,0.730
 62536,0.00000010,-0.00000011,-0.00060099,0.00000065,0.00000389,0.00855
 026,0.00000262,-0.00000102,-0.00712072,0.00001026,-0.00000012,-0.06511
 093,-0.00000254,-0.00000206,0.00793259,-0.00002146,-0.00000009,0.13852
 839,-0.00092457,-0.00059918,0.00000003,-0.00709967,0.01199787,-0.00000
 012,-0.00283754,-0.03798673,0.00000054,-0.04380766,0.01492724,0.000002
 15,-0.15513688,-0.10320622,0.00000376,-0.21385441,0.13606196,0.0000068
 2,0.74035463,0.00118599,0.00110599,0.,0.01220292,-0.07548372,-0.000000
 05,-0.09607186,0.01751062,0.00000390,0.07084766,0.06063215,-0.00000315
 ,-0.02533082,-0.31942925,0.00000124,0.05810268,-0.24919985,-0.00000313
 ,0.01893113,0.66749498,0.00000004,0.00000004,-0.00009931,-0.00000010,-
 0.00000051,-0.00907643,0.00000060,0.00000165,0.00807090,0.00000203,-0.
 00000063,0.00760165,0.00000362,0.00000444,-0.06495652,0.00000690,-0.00
 000628,-0.06510819,-0.00002510,-0.00000027,0.14153797,-0.43287097,0.34
 113954,-0.00000328,-0.19181459,-0.03414681,0.00000440,-0.03022743,0.00
 978824,0.00000090,-0.01913169,-0.02241518,0.00000129,0.00332615,0.0043
 2609,0.00000042,0.00735569,-0.00203701,0.00000002,0.00079078,0.0014605
 2,-0.00000006,0.74561379,0.34576899,-0.46809311,0.00000709,-0.05998041
 ,-0.12527399,0.00000354,0.02929261,0.00868136,-0.00000123,-0.03254562,
 0.00493775,0.00000127,0.00667410,-0.00368166,-0.00000023,-0.00559617,-
 0.00737753,0.00000012,0.00194629,-0.00469586,-0.00000008,-0.22073348,0
 .83508360,-0.00000372,0.00000757,-0.06279077,0.00000592,0.00000235,-0.
 07735218,0.00000103,-0.00000038,0.00131647,0.00000105,0.00000067,0.003
 77954,0.00000017,-0.00000011,0.00845387,0.00000004,0.00000024,0.007157
 08,-0.00000009,-0.00000004,-0.00055773,-0.00000853,-0.00002294,0.18925
 310,0.00064357,-0.00150937,0.00000011,0.01190433,0.01690675,-0.0000003
 5,-0.09162162,-0.08652646,0.00000268,-0.00242166,0.00343026,0.00000038
 ,-0.00406776,-0.02980995,0.00000040,-0.00118423,0.00062334,0.,-0.00587
 908,-0.00033659,0.00000059,0.00031051,0.00333951,-0.00000041,0.0923653
 8,0.00077668,0.00052114,-0.00000005,-0.00990067,-0.01839049,0.00000049
 ,-0.08779558,-0.29891958,0.00000478,0.00432417,-0.00185083,-0.00000011
 ,0.00098532,-0.00081742,-0.00000007,0.00060441,0.00053465,-0.00000003,
 -0.00075515,0.00182116,0.00000006,-0.00342347,-0.00036430,0.00000017,0
 .09479748,0.31755655,-0.00000006,0.00000016,0.00085199,-0.00000035,-0.
 00000065,0.00368210,0.00000280,0.00000460,-0.03849685,0.00000031,-0.00
 000016,0.00661663,0.00000028,0.00000131,0.00423967,0.00000005,-0.00000
 006,-0.00095595,0.00000059,0.00000004,0.00730363,-0.00000022,-0.000000
 21,-0.00476491,-0.00000323,-0.00000513,0.02613846,-0.00092720,-0.00017
 671,0.00000006,0.01191161,-0.00663773,-0.00000032,-0.00005916,-0.00270
 390,0.00000026,-0.18148156,0.13876297,0.00000508,-0.00055395,-0.001114
 42,-0.00000002,-0.01229117,0.02329031,0.00000057,-0.00489592,-0.002046
 52,0.00000048,-0.00016385,-0.00039220,-0.00000013,0.00033569,-0.000744
 83,0.,0.18800655,-0.00073748,0.00235841,-0.00000003,0.02065272,-0.0174
 8910,-0.00000078,-0.00343464,-0.00429086,0.00000018,0.13829076,-0.2149
 4638,-0.00000505,-0.00086474,0.00003125,0.00000003,-0.00638713,0.00914
 270,0.00000025,-0.00208746,0.00088065,0.00000010,0.00303625,-0.0018085
 5,-0.00000003,0.00105289,-0.00095509,-0.00000004,-0.14952532,0.2260251
 1,0.00000001,-0.00000004,-0.00014627,-0.00000007,0.00000045,0.00445292
 ,0.00000028,0.00000013,0.00657597,0.00000482,-0.00000516,-0.04093444,-
 0.00000004,0.00000001,-0.00106188,0.00000080,-0.00000099,0.00484828,0.
 00000052,0.00000011,0.00786026,-0.00000032,0.00000009,-0.00405962,0.,0
 .00000002,0.00036288,-0.00000578,0.00000539,0.02740662,-0.00115311,0.0
 0017337,0.,-0.00532289,-0.00280195,0.00000059,-0.01399382,0.02532978,0
 .00000071,-0.00043021,-0.00112228,-0.00000002,-0.17633625,0.13791863,0
 .00000578,0.00040697,-0.00268622,0.00000031,0.01061563,-0.00988137,-0.
 00000029,0.00061157,0.00155831,0.,0.00062894,-0.00035163,-0.00000020,-
 0.00000523,0.00009738,-0.00000005,0.18412738,-0.00005497,-0.00007573,0
 .,-0.00173381,0.00138338,0.00000007,-0.00580856,0.00810338,0.00000025,
 -0.00123904,-0.00022691,0.00000006,0.13797101,-0.22036958,-0.00000599,
 -0.00320922,-0.00437732,0.00000012,0.02131926,-0.01617081,-0.00000091,
 -0.00041217,0.00035803,0.00000002,0.00041741,0.00055818,-0.00000002,0.
 00008036,0.00001297,0.,-0.14793695,0.23118669,0.00000008,-0.00000002,-
 0.00030293,0.00000060,0.00000015,0.00763180,0.00000072,-0.00000117,0.0
 0334394,-0.00000003,0.00000008,-0.00095375,0.00000581,-0.00000594,-0.0
 3857572,0.00000028,0.00000013,0.00739782,-0.00000034,0.00000042,0.0037
 1545,-0.00000004,-0.00000007,0.00040192,-0.00000021,0.,-0.00400930,-0.
 00000004,0.,-0.00107335,-0.00000663,0.00000642,0.02638836,-0.00025360,
 0.00052306,0.,-0.00595924,-0.00040789,0.00000051,-0.00128312,0.0007840
 8,0.00000002,-0.00500485,-0.03018140,0.00000034,-0.00210030,0.00363242
 ,0.00000038,-0.09085715,-0.08925747,0.00000201,0.01097808,0.02009317,-
 0.00000027,0.00070915,-0.00190146,0.00000002,0.00006012,-0.00008201,-0
 .00000005,0.00069569,0.00040883,-0.00000020,0.00035637,0.00103609,-0.0
 0000002,0.09263526,-0.00028189,0.00017319,0.,-0.00096178,0.00184315,0.
 00000002,0.00083645,0.00061415,-0.00000004,0.00067339,-0.00091682,-0.0
 0000005,0.00406394,-0.00183895,-0.00000018,-0.08915554,-0.30557673,0.0
 0000324,-0.01109279,-0.01671682,0.00000042,0.00059054,-0.00025151,0.,-
 0.00006997,-0.00006572,0.,-0.00033023,0.00051655,0.00000002,-0.0005512
 5,-0.00091233,0.00000002,0.09594880,0.32261621,0.,-0.00000001,0.000108
 09,0.00000057,0.00000002,0.00820348,0.00000003,-0.00000001,-0.00086402
 ,0.00000038,0.00000123,0.00403006,0.00000038,-0.00000013,0.00709699,0.
 00000197,0.00000318,-0.03936205,-0.00000029,-0.00000083,0.00367558,-0.
 00000003,0.00000007,0.00011066,-0.00000005,0.,-0.00107047,-0.00000017,
 -0.00000002,-0.00434801,-0.00000001,-0.00000004,0.00007221,-0.00000258
 ,-0.00000345,0.02652623,-0.00010607,-0.00008118,0.,0.00096412,0.000523
 32,-0.00000006,0.00127360,-0.00202179,0.00000025,-0.00090874,0.0038094
 5,0.00000032,-0.00576762,0.00141877,0.00000043,-0.01425118,-0.00704747
 ,0.00000078,-0.32843872,-0.04942499,0.00001153,-0.00014650,0.00000205,
 -0.00000005,-0.00037298,0.00013008,0.00000001,-0.00068118,-0.00041824,
 0.00000002,0.00057167,-0.00042458,-0.00000019,0.00055134,0.00041862,-0
 .00000018,0.34733121,-0.00004221,0.00026746,0.,0.00043924,-0.00154398,
 0.,-0.00190605,-0.00537161,0.00000008,0.00362793,-0.00337481,-0.000000
 16,-0.02961058,0.00030784,0.00000122,0.02400400,0.00897037,-0.00000099
 ,-0.04940075,-0.06804975,0.00000195,0.00002678,-0.00019512,0.00000001,
 -0.00147178,-0.00016588,0.00000007,0.00111471,0.00030952,-0.00000004,0
 .00038647,0.00052457,-0.00000002,-0.00038782,0.00054440,0.00000002,0.0
 5312782,0.06770138,0.,0.,0.00028713,0.,-0.00000008,-0.00042045,0.00000
 022,0.00000011,0.00742052,0.00000031,-0.00000016,0.00702592,0.00000050
 ,0.00000003,0.00461937,0.00000078,0.00000029,0.00451295,0.00001151,0.0
 0000188,-0.04010022,-0.00000010,0.,-0.00143649,0.00000001,0.,-0.000060
 46,0.00000004,0.00000002,-0.00019409,-0.00000020,0.00000002,-0.0040691
 8,-0.00000018,0.,-0.00383248,-0.00001288,-0.00000212,0.02623449,0.0107
 4855,0.03700597,-0.00000160,-0.00540796,-0.02783852,0.00000216,0.00135
 408,-0.00237488,-0.00000015,-0.00602617,0.00087330,0.00000040,-0.00020
 724,0.00053490,-0.00000003,0.00037058,-0.00194425,-0.00000013,0.000135
 34,0.00026808,0.00000003,-0.08436261,-0.06743252,0.00000468,-0.0007012
 3,0.00143521,0.00000006,0.00010967,-0.00008382,0.00000002,-0.00007702,
 -0.00000482,0.00000001,-0.00052775,-0.00008829,0.,-0.00001896,0.000092
 25,0.,0.08461073,0.01928046,-0.04289145,0.00000258,0.00087429,-0.00729
 900,0.00000121,0.00024621,0.00045315,-0.00000007,-0.00153824,0.0012154
 2,0.00000015,-0.00067853,0.00028988,-0.00000006,0.00028624,-0.00043948
 ,-0.00000005,-0.00005546,0.00030051,0.00000002,-0.07719983,-0.23731911
 ,0.00001247,-0.00084353,0.00053763,0.00000008,0.00042352,0.00021281,0.
 ,-0.00013228,0.00000547,0.,-0.00020840,-0.00002877,0.,-0.00001185,0.00
 007563,0.,0.05955740,0.28488731,-0.00000081,0.00000177,0.01963012,0.00
 000044,0.00000205,0.01821971,-0.00000032,0.00000011,-0.00149347,0.0000
 0059,-0.00000007,0.00164842,0.00000010,0.,-0.00039668,-0.00000018,0.00
 000018,-0.00066853,0.,-0.00000013,0.00013296,0.00000555,0.00001258,-0.
 05951093,0.00000008,-0.00000011,0.00016258,-0.00000004,-0.00000001,0.0
 0031074,0.,0.,0.00003274,0.00000003,0.,-0.00034629,0.,-0.00000001,0.00
 001298,-0.00000546,-0.00001637,0.02226566\\0.00007103,-0.00007374,-0.0
 0000041,0.00002253,-0.00001864,-0.00000046,-0.00008161,0.00000929,0.00
 000006,0.00002883,0.00003455,-0.00000038,0.00004375,0.00003731,0.00000
 013,-0.00007102,0.00003160,0.00000008,0.00000337,-0.00007541,0.,-0.000
 03151,0.00002877,0.00000201,0.00000887,-0.00000088,-0.00000005,0.00000
 044,-0.00000659,0.00000007,0.00000232,-0.00000463,0.00000006,0.0000166
 9,-0.00000633,-0.00000007,0.00000842,0.00000060,-0.00000005,-0.0000220
 9,0.00004410,-0.00000100\\\@


 THE MEEK SHALL INHERIT THE EARTH.
 (THE REST OF US WILL ESCAPE TO THE STARS)
 Job cpu time:       0 days  1 hours  9 minutes  5.4 seconds.
 Elapsed time:       0 days  0 hours  4 minutes 20.7 seconds.
 File lengths (MBytes):  RWF=     69 Int=      0 D2E=      0 Chk=      5 Scr=      1
 Normal termination of Gaussian 16 at Thu Sep 18 11:23:13 2025.
