 Entering Gaussian System, Link 0=g16
 Input=BRNL0092.gjf
 Output=BRNL0092.log
 Initial command:
 /usr/local/g16/l1.exe "/dados_01/scratch/Gau-1922061.inp" -scrdir="/dados_01/scratch/"
 Entering Link 1 = /usr/local/g16/l1.exe PID=   1922062.
  
 Copyright (c) 1988-2017, Gaussian, Inc.  All Rights Reserved.
  
 This is part of the Gaussian(R) 16 program.  It is based on
 the Gaussian(R) 09 system (copyright 2009, Gaussian, Inc.),
 the Gaussian(R) 03 system (copyright 2003, Gaussian, Inc.),
 the Gaussian(R) 98 system (copyright 1998, Gaussian, Inc.),
 the Gaussian(R) 94 system (copyright 1995, Gaussian, Inc.),
 the Gaussian 92(TM) system (copyright 1992, Gaussian, Inc.),
 the Gaussian 90(TM) system (copyright 1990, Gaussian, Inc.),
 the Gaussian 88(TM) system (copyright 1988, Gaussian, Inc.),
 the Gaussian 86(TM) system (copyright 1986, Carnegie Mellon
 University), and the Gaussian 82(TM) system (copyright 1983,
 Carnegie Mellon University). Gaussian is a federally registered
 trademark of Gaussian, Inc.
  
 This software contains proprietary and confidential information,
 including trade secrets, belonging to Gaussian, Inc.
  
 This software is provided under written license and may be
 used, copied, transmitted, or stored only in accord with that
 written license.
  
 The following legend is applicable only to US Government
 contracts under FAR:
  
                    RESTRICTED RIGHTS LEGEND
  
 Use, reproduction and disclosure by the US Government is
 subject to restrictions as set forth in subparagraphs (a)
 and (c) of the Commercial Computer Software - Restricted
 Rights clause in FAR 52.227-19.
  
 Gaussian, Inc.
 340 Quinnipiac St., Bldg. 40, Wallingford CT 06492
  
  
 ---------------------------------------------------------------
 Warning -- This program may not be used in any manner that
 competes with the business of Gaussian, Inc. or will provide
 assistance to any competitor of Gaussian, Inc.  The licensee
 of this program is prohibited from giving any competitor of
 Gaussian, Inc. access to this program.  By using this program,
 the user acknowledges that Gaussian, Inc. is engaged in the
 business of creating and licensing software in the field of
 computational chemistry and represents and warrants to the
 licensee that it is not a competitor of Gaussian, Inc. and that
 it will not use this program in any manner prohibited above.
 ---------------------------------------------------------------
  

 Cite this work as:
 Gaussian 16, Revision B.01,
 M. J. Frisch, G. W. Trucks, H. B. Schlegel, G. E. Scuseria, 
 M. A. Robb, J. R. Cheeseman, G. Scalmani, V. Barone, 
 G. A. Petersson, H. Nakatsuji, X. Li, M. Caricato, A. V. Marenich, 
 J. Bloino, B. G. Janesko, R. Gomperts, B. Mennucci, H. P. Hratchian, 
 J. V. Ortiz, A. F. Izmaylov, J. L. Sonnenberg, D. Williams-Young, 
 F. Ding, F. Lipparini, F. Egidi, J. Goings, B. Peng, A. Petrone, 
 T. Henderson, D. Ranasinghe, V. G. Zakrzewski, J. Gao, N. Rega, 
 G. Zheng, W. Liang, M. Hada, M. Ehara, K. Toyota, R. Fukuda, 
 J. Hasegawa, M. Ishida, T. Nakajima, Y. Honda, O. Kitao, H. Nakai, 
 T. Vreven, K. Throssell, J. A. Montgomery, Jr., J. E. Peralta, 
 F. Ogliaro, M. J. Bearpark, J. J. Heyd, E. N. Brothers, K. N. Kudin, 
 V. N. Staroverov, T. A. Keith, R. Kobayashi, J. Normand, 
 K. Raghavachari, A. P. Rendell, J. C. Burant, S. S. Iyengar, 
 J. Tomasi, M. Cossi, J. M. Millam, M. Klene, C. Adamo, R. Cammi, 
 J. W. Ochterski, R. L. Martin, K. Morokuma, O. Farkas, 
 J. B. Foresman, and D. J. Fox, Gaussian, Inc., Wallingford CT, 2016.
 
 ******************************************
 Gaussian 16:  ES64L-G16RevB.01 20-Dec-2017
                18-Sep-2025 
 ******************************************
 %nprocs=16
 Will use up to   16 processors via shared memory.
 %mem=40GB
 %chk=BRNL0092.chk
 ----------------------------------------------------------------------
 # opt freq=noraman M08HX/6-311++G** scf=xqc Empiricaldispersion=pfd In
 t(Grid=ultraFine)
 ----------------------------------------------------------------------
 1/18=20,19=15,26=4,38=1/1,3;
 2/9=110,12=2,17=6,18=5,40=1/2;
 3/5=4,6=6,7=1111,11=2,25=1,30=1,71=1,74=-74,75=-5,124=11/1,2,3;
 4//1;
 5/5=2,8=3,13=1,38=5/2,8;
 6/7=2,8=2,9=2,10=2,28=1/1;
 7//1,2,3,16;
 1/18=20,19=15,26=4/3(2);
 2/9=110/2;
 99//99;
 2/9=110/2;
 3/5=4,6=6,7=1111,11=2,25=1,30=1,71=1,74=-74,75=-5,124=11/1,2,3;
 4/5=5,16=3,69=1/1;
 5/5=2,8=3,13=1,38=5/2,8;
 7//1,2,3,16;
 1/18=20,19=15,26=4/3(-5);
 2/9=110/2;
 6/7=2,8=2,9=2,10=2,19=2,28=1/1;
 99/9=1/99;
 --------
 BRNL0092
 --------
 Symbolic Z-matrix:
 Charge =  0 Multiplicity = 1
 O                    -2.5806   -0.3364   -0.1935 
 C                    -0.1716   -0.6919    0.3214 
 C                     1.107    -0.0345   -0.2814 
 C                     0.4251    1.3596   -0.3061 
 C                    -1.2656   -0.3099   -0.7211 
 C                    -0.4204    0.1536    1.6025 
 C                    -0.8687    1.1229   -1.1224 
 C                    -0.0181    1.5703    1.159 
 C                    -0.1078   -2.1805    0.6082 
 C                     1.5325   -0.5519   -1.6702 
 C                     2.3682   -0.1013    0.6037 
 H                     1.0353    2.1787   -0.694 
 H                    -1.2515   -0.9705   -1.5948 
 H                     0.2008   -0.1795    2.4414 
 H                    -1.4585    0.1188    1.9481 
 H                    -1.6465    1.8618   -0.9023 
 H                    -0.6577    1.176    -2.196 
 H                    -0.8514    2.2753    1.2478 
 H                     0.8018    1.9535    1.7754 
 H                     0.6984   -2.4169    1.3101 
 H                    -1.0446   -2.5364    1.0499 
 H                     0.0676   -2.7545   -0.3074 
 H                     2.3314    0.0764   -2.0812 
 H                     1.9179   -1.5754   -1.5994 
 H                     0.7349   -0.5679   -2.4155 
 H                     3.1552    0.5421    0.1931 
 H                     2.2155    0.2121    1.6384 
 H                     2.7608   -1.1239    0.6404 
 H                    -2.7645   -1.2482    0.0885 
 

 GradGradGradGradGradGradGradGradGradGradGradGradGradGradGradGradGradGrad
 Berny optimization.
 Initialization pass.
                           ----------------------------
                           !    Initial Parameters    !
                           ! (Angstroms and Degrees)  !
 --------------------------                            --------------------------
 ! Name  Definition              Value          Derivative Info.                !
 --------------------------------------------------------------------------------
 ! R1    R(1,5)                  1.4171         estimate D2E/DX2                !
 ! R2    R(1,29)                 0.972          estimate D2E/DX2                !
 ! R3    R(2,3)                  1.559          estimate D2E/DX2                !
 ! R4    R(2,5)                  1.5587         estimate D2E/DX2                !
 ! R5    R(2,6)                  1.555          estimate D2E/DX2                !
 ! R6    R(2,9)                  1.5173         estimate D2E/DX2                !
 ! R7    R(3,4)                  1.5521         estimate D2E/DX2                !
 ! R8    R(3,10)                 1.5419         estimate D2E/DX2                !
 ! R9    R(3,11)                 1.5422         estimate D2E/DX2                !
 ! R10   R(4,7)                  1.548          estimate D2E/DX2                !
 ! R11   R(4,8)                  1.5451         estimate D2E/DX2                !
 ! R12   R(4,12)                 1.0926         estimate D2E/DX2                !
 ! R13   R(5,7)                  1.54           estimate D2E/DX2                !
 ! R14   R(5,13)                 1.0954         estimate D2E/DX2                !
 ! R15   R(6,8)                  1.538          estimate D2E/DX2                !
 ! R16   R(6,14)                 1.0957         estimate D2E/DX2                !
 ! R17   R(6,15)                 1.0947         estimate D2E/DX2                !
 ! R18   R(7,16)                 1.0952         estimate D2E/DX2                !
 ! R19   R(7,17)                 1.0954         estimate D2E/DX2                !
 ! R20   R(8,18)                 1.0951         estimate D2E/DX2                !
 ! R21   R(8,19)                 1.095          estimate D2E/DX2                !
 ! R22   R(9,20)                 1.0948         estimate D2E/DX2                !
 ! R23   R(9,21)                 1.0952         estimate D2E/DX2                !
 ! R24   R(9,22)                 1.0948         estimate D2E/DX2                !
 ! R25   R(10,23)                1.0963         estimate D2E/DX2                !
 ! R26   R(10,24)                1.0959         estimate D2E/DX2                !
 ! R27   R(10,25)                1.0917         estimate D2E/DX2                !
 ! R28   R(11,26)                1.0963         estimate D2E/DX2                !
 ! R29   R(11,27)                1.0919         estimate D2E/DX2                !
 ! R30   R(11,28)                1.096          estimate D2E/DX2                !
 ! A1    A(5,1,29)             107.5252         estimate D2E/DX2                !
 ! A2    A(3,2,5)              102.3383         estimate D2E/DX2                !
 ! A3    A(3,2,6)              102.7385         estimate D2E/DX2                !
 ! A4    A(3,2,9)              116.892          estimate D2E/DX2                !
 ! A5    A(5,2,6)              107.7862         estimate D2E/DX2                !
 ! A6    A(5,2,9)              113.3513         estimate D2E/DX2                !
 ! A7    A(6,2,9)              112.6093         estimate D2E/DX2                !
 ! A8    A(2,3,4)               91.4089         estimate D2E/DX2                !
 ! A9    A(2,3,10)             115.6642         estimate D2E/DX2                !
 ! A10   A(2,3,11)             115.5012         estimate D2E/DX2                !
 ! A11   A(4,3,10)             114.0976         estimate D2E/DX2                !
 ! A12   A(4,3,11)             114.036          estimate D2E/DX2                !
 ! A13   A(10,3,11)            106.0641         estimate D2E/DX2                !
 ! A14   A(3,4,7)              103.7828         estimate D2E/DX2                !
 ! A15   A(3,4,8)              103.498          estimate D2E/DX2                !
 ! A16   A(3,4,12)             115.6993         estimate D2E/DX2                !
 ! A17   A(7,4,8)              106.328          estimate D2E/DX2                !
 ! A18   A(7,4,12)             113.2161         estimate D2E/DX2                !
 ! A19   A(8,4,12)             113.2419         estimate D2E/DX2                !
 ! A20   A(1,5,2)              113.434          estimate D2E/DX2                !
 ! A21   A(1,5,7)              110.706          estimate D2E/DX2                !
 ! A22   A(1,5,13)             107.3141         estimate D2E/DX2                !
 ! A23   A(2,5,7)              102.7922         estimate D2E/DX2                !
 ! A24   A(2,5,13)             112.1246         estimate D2E/DX2                !
 ! A25   A(7,5,13)             110.4829         estimate D2E/DX2                !
 ! A26   A(2,6,8)              102.7925         estimate D2E/DX2                !
 ! A27   A(2,6,14)             112.0094         estimate D2E/DX2                !
 ! A28   A(2,6,15)             113.238          estimate D2E/DX2                !
 ! A29   A(8,6,14)             110.64           estimate D2E/DX2                !
 ! A30   A(8,6,15)             111.615          estimate D2E/DX2                !
 ! A31   A(14,6,15)            106.6341         estimate D2E/DX2                !
 ! A32   A(4,7,5)              102.7244         estimate D2E/DX2                !
 ! A33   A(4,7,16)             112.6092         estimate D2E/DX2                !
 ! A34   A(4,7,17)             110.3906         estimate D2E/DX2                !
 ! A35   A(5,7,16)             113.0992         estimate D2E/DX2                !
 ! A36   A(5,7,17)             110.4961         estimate D2E/DX2                !
 ! A37   A(16,7,17)            107.5216         estimate D2E/DX2                !
 ! A38   A(4,8,6)              102.8761         estimate D2E/DX2                !
 ! A39   A(4,8,18)             112.5158         estimate D2E/DX2                !
 ! A40   A(4,8,19)             111.5134         estimate D2E/DX2                !
 ! A41   A(6,8,18)             111.7502         estimate D2E/DX2                !
 ! A42   A(6,8,19)             110.8471         estimate D2E/DX2                !
 ! A43   A(18,8,19)            107.3866         estimate D2E/DX2                !
 ! A44   A(2,9,20)             111.3462         estimate D2E/DX2                !
 ! A45   A(2,9,21)             111.0446         estimate D2E/DX2                !
 ! A46   A(2,9,22)             111.2867         estimate D2E/DX2                !
 ! A47   A(20,9,21)            107.528          estimate D2E/DX2                !
 ! A48   A(20,9,22)            107.7584         estimate D2E/DX2                !
 ! A49   A(21,9,22)            107.6962         estimate D2E/DX2                !
 ! A50   A(3,10,23)            110.2701         estimate D2E/DX2                !
 ! A51   A(3,10,24)            110.6238         estimate D2E/DX2                !
 ! A52   A(3,10,25)            114.7204         estimate D2E/DX2                !
 ! A53   A(23,10,24)           107.6484         estimate D2E/DX2                !
 ! A54   A(23,10,25)           106.5499         estimate D2E/DX2                !
 ! A55   A(24,10,25)           106.6982         estimate D2E/DX2                !
 ! A56   A(3,11,26)            110.2844         estimate D2E/DX2                !
 ! A57   A(3,11,27)            114.6494         estimate D2E/DX2                !
 ! A58   A(3,11,28)            110.6446         estimate D2E/DX2                !
 ! A59   A(26,11,27)           106.6702         estimate D2E/DX2                !
 ! A60   A(26,11,28)           107.6359         estimate D2E/DX2                !
 ! A61   A(27,11,28)           106.6294         estimate D2E/DX2                !
 ! D1    D(29,1,5,2)           -61.9885         estimate D2E/DX2                !
 ! D2    D(29,1,5,7)          -176.938          estimate D2E/DX2                !
 ! D3    D(29,1,5,13)           62.4194         estimate D2E/DX2                !
 ! D4    D(5,2,3,4)             56.1232         estimate D2E/DX2                !
 ! D5    D(5,2,3,10)           -61.5829         estimate D2E/DX2                !
 ! D6    D(5,2,3,11)           173.7133         estimate D2E/DX2                !
 ! D7    D(6,2,3,4)            -55.5941         estimate D2E/DX2                !
 ! D8    D(6,2,3,10)          -173.3001         estimate D2E/DX2                !
 ! D9    D(6,2,3,11)            61.996          estimate D2E/DX2                !
 ! D10   D(9,2,3,4)           -179.4142         estimate D2E/DX2                !
 ! D11   D(9,2,3,10)            62.8798         estimate D2E/DX2                !
 ! D12   D(9,2,3,11)           -61.8241         estimate D2E/DX2                !
 ! D13   D(3,2,5,1)           -157.4684         estimate D2E/DX2                !
 ! D14   D(3,2,5,7)            -37.8923         estimate D2E/DX2                !
 ! D15   D(3,2,5,13)            80.7713         estimate D2E/DX2                !
 ! D16   D(6,2,5,1)            -49.577          estimate D2E/DX2                !
 ! D17   D(6,2,5,7)             69.9991         estimate D2E/DX2                !
 ! D18   D(6,2,5,13)          -171.3372         estimate D2E/DX2                !
 ! D19   D(9,2,5,1)             75.7514         estimate D2E/DX2                !
 ! D20   D(9,2,5,7)           -164.6725         estimate D2E/DX2                !
 ! D21   D(9,2,5,13)           -46.0089         estimate D2E/DX2                !
 ! D22   D(3,2,6,8)             36.6355         estimate D2E/DX2                !
 ! D23   D(3,2,6,14)           -82.1584         estimate D2E/DX2                !
 ! D24   D(3,2,6,15)           157.2054         estimate D2E/DX2                !
 ! D25   D(5,2,6,8)            -70.9779         estimate D2E/DX2                !
 ! D26   D(5,2,6,14)           170.2281         estimate D2E/DX2                !
 ! D27   D(5,2,6,15)            49.592          estimate D2E/DX2                !
 ! D28   D(9,2,6,8)            163.2533         estimate D2E/DX2                !
 ! D29   D(9,2,6,14)            44.4594         estimate D2E/DX2                !
 ! D30   D(9,2,6,15)           -76.1767         estimate D2E/DX2                !
 ! D31   D(3,2,9,20)            58.8532         estimate D2E/DX2                !
 ! D32   D(3,2,9,21)           178.6437         estimate D2E/DX2                !
 ! D33   D(3,2,9,22)           -61.3928         estimate D2E/DX2                !
 ! D34   D(5,2,9,20)           177.5335         estimate D2E/DX2                !
 ! D35   D(5,2,9,21)           -62.676          estimate D2E/DX2                !
 ! D36   D(5,2,9,22)            57.2875         estimate D2E/DX2                !
 ! D37   D(6,2,9,20)           -59.7685         estimate D2E/DX2                !
 ! D38   D(6,2,9,21)            60.0221         estimate D2E/DX2                !
 ! D39   D(6,2,9,22)           179.9856         estimate D2E/DX2                !
 ! D40   D(2,3,4,7)            -55.3574         estimate D2E/DX2                !
 ! D41   D(2,3,4,8)             55.5326         estimate D2E/DX2                !
 ! D42   D(2,3,4,12)           179.9971         estimate D2E/DX2                !
 ! D43   D(10,3,4,7)            63.6935         estimate D2E/DX2                !
 ! D44   D(10,3,4,8)           174.5836         estimate D2E/DX2                !
 ! D45   D(10,3,4,12)          -60.952          estimate D2E/DX2                !
 ! D46   D(11,3,4,7)          -174.2074         estimate D2E/DX2                !
 ! D47   D(11,3,4,8)           -63.3173         estimate D2E/DX2                !
 ! D48   D(11,3,4,12)           61.1471         estimate D2E/DX2                !
 ! D49   D(2,3,10,23)          170.6286         estimate D2E/DX2                !
 ! D50   D(2,3,10,24)          -70.4039         estimate D2E/DX2                !
 ! D51   D(2,3,10,25)           50.3426         estimate D2E/DX2                !
 ! D52   D(4,3,10,23)           66.4589         estimate D2E/DX2                !
 ! D53   D(4,3,10,24)         -174.5737         estimate D2E/DX2                !
 ! D54   D(4,3,10,25)          -53.8272         estimate D2E/DX2                !
 ! D55   D(11,3,10,23)         -59.92           estimate D2E/DX2                !
 ! D56   D(11,3,10,24)          59.0475         estimate D2E/DX2                !
 ! D57   D(11,3,10,25)         179.794          estimate D2E/DX2                !
 ! D58   D(2,3,11,26)         -169.2683         estimate D2E/DX2                !
 ! D59   D(2,3,11,27)          -48.8643         estimate D2E/DX2                !
 ! D60   D(2,3,11,28)           71.7574         estimate D2E/DX2                !
 ! D61   D(4,3,11,26)          -65.2306         estimate D2E/DX2                !
 ! D62   D(4,3,11,27)           55.1734         estimate D2E/DX2                !
 ! D63   D(4,3,11,28)          175.7952         estimate D2E/DX2                !
 ! D64   D(10,3,11,26)          61.1856         estimate D2E/DX2                !
 ! D65   D(10,3,11,27)        -178.4104         estimate D2E/DX2                !
 ! D66   D(10,3,11,28)         -57.7886         estimate D2E/DX2                !
 ! D67   D(3,4,7,5)             34.6775         estimate D2E/DX2                !
 ! D68   D(3,4,7,16)           156.6642         estimate D2E/DX2                !
 ! D69   D(3,4,7,17)           -83.1552         estimate D2E/DX2                !
 ! D70   D(8,4,7,5)            -74.1242         estimate D2E/DX2                !
 ! D71   D(8,4,7,16)            47.8625         estimate D2E/DX2                !
 ! D72   D(8,4,7,17)           168.0431         estimate D2E/DX2                !
 ! D73   D(12,4,7,5)           160.9101         estimate D2E/DX2                !
 ! D74   D(12,4,7,16)          -77.1032         estimate D2E/DX2                !
 ! D75   D(12,4,7,17)           43.0775         estimate D2E/DX2                !
 ! D76   D(3,4,8,6)            -35.7812         estimate D2E/DX2                !
 ! D77   D(3,4,8,18)          -156.1952         estimate D2E/DX2                !
 ! D78   D(3,4,8,19)            83.0676         estimate D2E/DX2                !
 ! D79   D(7,4,8,6)             73.2223         estimate D2E/DX2                !
 ! D80   D(7,4,8,18)           -47.1917         estimate D2E/DX2                !
 ! D81   D(7,4,8,19)          -167.9289         estimate D2E/DX2                !
 ! D82   D(12,4,8,6)          -161.8279         estimate D2E/DX2                !
 ! D83   D(12,4,8,18)           77.7581         estimate D2E/DX2                !
 ! D84   D(12,4,8,19)          -42.9791         estimate D2E/DX2                !
 ! D85   D(1,5,7,4)            123.5453         estimate D2E/DX2                !
 ! D86   D(1,5,7,16)             1.8915         estimate D2E/DX2                !
 ! D87   D(1,5,7,17)          -118.6966         estimate D2E/DX2                !
 ! D88   D(2,5,7,4)              2.0924         estimate D2E/DX2                !
 ! D89   D(2,5,7,16)          -119.5614         estimate D2E/DX2                !
 ! D90   D(2,5,7,17)           119.8505         estimate D2E/DX2                !
 ! D91   D(13,5,7,4)          -117.715          estimate D2E/DX2                !
 ! D92   D(13,5,7,16)          120.6311         estimate D2E/DX2                !
 ! D93   D(13,5,7,17)            0.0431         estimate D2E/DX2                !
 ! D94   D(2,6,8,4)             -0.6712         estimate D2E/DX2                !
 ! D95   D(2,6,8,18)           120.2677         estimate D2E/DX2                !
 ! D96   D(2,6,8,19)          -119.9843         estimate D2E/DX2                !
 ! D97   D(14,6,8,4)           119.0765         estimate D2E/DX2                !
 ! D98   D(14,6,8,18)         -119.9845         estimate D2E/DX2                !
 ! D99   D(14,6,8,19)           -0.2365         estimate D2E/DX2                !
 ! D100  D(15,6,8,4)          -122.3505         estimate D2E/DX2                !
 ! D101  D(15,6,8,18)           -1.4115         estimate D2E/DX2                !
 ! D102  D(15,6,8,19)          118.3365         estimate D2E/DX2                !
 --------------------------------------------------------------------------------
 Trust Radius=3.00D-01 FncErr=1.00D-07 GrdErr=1.00D-06 EigMax=2.50D+02 EigMin=1.00D-04
 Number of steps in this run=    174 maximum allowed number of steps=    174.
 GradGradGradGradGradGradGradGradGradGradGradGradGradGradGradGradGradGrad

                          Input orientation:                          
 ---------------------------------------------------------------------
 Center     Atomic      Atomic             Coordinates (Angstroms)
 Number     Number       Type             X           Y           Z
 ---------------------------------------------------------------------
      1          8           0       -2.580600   -0.336400   -0.193500
      2          6           0       -0.171600   -0.691900    0.321400
      3          6           0        1.107000   -0.034500   -0.281400
      4          6           0        0.425100    1.359600   -0.306100
      5          6           0       -1.265600   -0.309900   -0.721100
      6          6           0       -0.420400    0.153600    1.602500
      7          6           0       -0.868700    1.122900   -1.122400
      8          6           0       -0.018100    1.570300    1.159000
      9          6           0       -0.107800   -2.180500    0.608200
     10          6           0        1.532500   -0.551900   -1.670200
     11          6           0        2.368200   -0.101300    0.603700
     12          1           0        1.035300    2.178700   -0.694000
     13          1           0       -1.251500   -0.970500   -1.594800
     14          1           0        0.200800   -0.179500    2.441400
     15          1           0       -1.458500    0.118800    1.948100
     16          1           0       -1.646500    1.861800   -0.902300
     17          1           0       -0.657700    1.176000   -2.196000
     18          1           0       -0.851400    2.275300    1.247800
     19          1           0        0.801800    1.953500    1.775400
     20          1           0        0.698400   -2.416900    1.310100
     21          1           0       -1.044600   -2.536400    1.049900
     22          1           0        0.067600   -2.754500   -0.307400
     23          1           0        2.331400    0.076400   -2.081200
     24          1           0        1.917900   -1.575400   -1.599400
     25          1           0        0.734900   -0.567900   -2.415500
     26          1           0        3.155200    0.542100    0.193100
     27          1           0        2.215500    0.212100    1.638400
     28          1           0        2.760800   -1.123900    0.640400
     29          1           0       -2.764500   -1.248200    0.088500
 ---------------------------------------------------------------------
                    Distance matrix (angstroms):
                    1          2          3          4          5
     1  O    0.000000
     2  C    2.488932   0.000000
     3  C    3.700981   1.558961   0.000000
     4  C    3.453017   2.226760   1.552132   0.000000
     5  C    1.417141   1.558707   2.428665   2.412037   0.000000
     6  C    2.851698   1.554988   2.432573   2.410821   2.515614
     7  C    2.433724   2.421571   2.439313   1.547996   1.539963
     8  C    3.468597   2.417165   2.432280   1.545102   2.937037
     9  C    3.187188   1.517318   2.621535   3.694893   2.570347
    10  C    4.375463   2.624886   1.541920   2.596331   2.964577
    11  C    5.018109   2.622801   1.542235   2.595689   3.873385
    12  H    4.432940   3.275361   2.252473   1.092582   3.389396
    13  H    2.032789   2.217121   2.857208   3.146602   1.095419
    14  H    3.834515   2.212608   2.873302   3.157197   3.488372
    15  H    2.460237   2.226993   3.402346   3.188879   2.710281
    16  H    2.491390   3.192829   3.400475   2.213410   2.212284
    17  H    3.161472   3.172167   2.871440   2.185838   2.180085
    18  H    3.447964   3.181921   3.392486   2.209652   3.275880
    19  H    4.534406   3.171713   2.876755   2.197103   3.953433
    20  H    4.164269   2.170266   2.894073   4.116886   3.524559
    21  H    2.957252   2.166800   3.558264   4.379220   2.853521
    22  H    3.587916   2.169545   2.911946   4.129604   2.815074
    23  H    5.278405   3.553559   2.179618   2.903715   3.864907
    24  H    4.873210   2.972550   2.183817   3.537697   3.536605
    25  H    3.997927   2.885782   2.230999   2.874161   2.634304
    26  H    5.815550   3.550608   2.180078   2.893260   4.594033
    27  H    5.163263   2.872273   2.230519   2.881557   4.237662
    28  H    5.463158   2.981167   2.184391   3.538238   4.327606
    29  H    0.971968   2.662112   4.074114   4.138826   1.944881
                    6          7          8          9         10
     6  C    0.000000
     7  C    2.926704   0.000000
     8  C    1.538043   2.475575   0.000000
     9  C    2.556242   3.806100   3.792087   0.000000
    10  C    3.875837   2.978389   3.861666   3.245617   0.000000
    11  C    2.973023   3.867248   2.965979   3.233213   2.464154
    12  H    3.390281   2.218886   2.216622   4.690952   2.942168
    13  H    3.489564   2.179913   3.944662   2.761405   2.816304
    14  H    1.095718   3.942175   2.180428   2.731274   4.337898
    15  H    1.094670   3.283908   2.191868   2.984376   4.742153
    16  H    3.270366   1.095167   2.643032   4.581419   4.064684
    17  H    3.940839   1.095426   3.438108   4.408176   2.838852
    18  H    2.193897   2.635559   1.095125   4.562476   4.710707
    19  H    2.182500   3.446406   1.095001   4.390864   4.322396
    20  H    2.818631   4.571985   4.053883   1.094763   3.613328
    21  H    2.816220   4.259144   4.234453   1.095152   4.240121
    22  H    3.513247   4.071255   4.567447   1.094790   2.975668
    23  H    4.598696   3.500728   4.272094   4.275063   1.096323
    24  H    4.325419   3.908131   4.610021   3.056649   1.095946
    25  H    4.242594   2.665041   4.232725   3.528935   1.091739
    26  H    3.862934   4.273130   3.472750   4.269898   2.702199
    27  H    2.636793   4.238380   2.657725   3.490497   3.463671
    28  H    3.560572   4.618316   3.905118   3.057173   2.678577
    29  H    3.122826   3.268402   4.078312   2.863097   4.694898
                   11         12         13         14         15
    11  C    0.000000
    12  H    2.942626   0.000000
    13  H    4.323325   3.994791   0.000000
    14  H    2.842689   4.011014   4.361854   0.000000
    15  H    4.061956   4.176472   3.712353   1.756589   0.000000
    16  H    4.715889   2.708480   2.942364   4.331253   3.346367
    17  H    4.315772   2.475411   2.306838   4.907126   4.351151
    18  H    4.053260   2.709161   4.333090   2.925380   2.347229
    19  H    2.837022   2.490617   4.911625   2.313968   2.916317
    20  H    2.940958   5.024884   3.785846   2.556052   3.389548
    21  H    4.216161   5.440527   3.080469   3.007037   2.833401
    22  H    3.627993   5.042060   2.565167   3.768855   3.958802
    23  H    2.691026   2.832643   3.764274   5.005882   5.531763
    24  H    2.688753   3.961313   3.226611   4.607063   5.182195
    25  H    3.464239   3.255398   2.186646   4.901591   4.931893
    26  H    1.096323   2.821238   4.990346   3.782068   4.954335
    27  H    1.091852   3.271158   4.885920   2.203900   3.688210
    28  H    1.095989   3.957921   4.595454   3.269418   4.588777
    29  H    5.284451   5.176334   2.280304   3.933353   2.651874
                   16         17         18         19         20
    16  H    0.000000
    17  H    1.766835   0.000000
    18  H    2.329398   3.620185   0.000000
    19  H    3.629416   4.301937   1.764933   0.000000
    20  H    5.357289   5.200065   4.941913   4.396316   0.000000
    21  H    4.849488   4.946461   4.819642   4.908640   1.766362
    22  H    4.960068   4.420600   5.344352   5.200228   1.768669
    23  H    4.516763   3.187008   5.103687   4.553740   4.514881
    24  H    5.000524   3.815737   5.532039   5.008801   3.265041
    25  H    3.723477   2.242477   4.901010   4.891378   4.159354
    26  H    5.098807   4.543989   4.491015   3.167683   4.004902
    27  H    4.908331   4.887433   3.716886   2.247174   3.053034
    28  H    5.542438   5.002084   4.997148   3.820510   2.524647
    29  H    3.450175   3.941357   4.173605   5.080847   3.853549
                   21         22         23         24         25
    21  H    0.000000
    22  H    1.768282   0.000000
    23  H    5.294137   4.035487   0.000000
    24  H    4.088853   2.546203   1.769621   0.000000
    25  H    4.364700   3.109758   1.753765   1.755154   0.000000
    26  H    5.277271   4.544375   2.463324   3.037725   3.727566
    27  H    4.304514   4.147328   3.723879   3.710400   4.385736
    28  H    4.079696   3.287934   3.005364   2.435372   3.708360
    29  H    2.354104   3.232099   5.694766   4.988079   4.356446
                   26         27         28         29
    26  H    0.000000
    27  H    1.755229   0.000000
    28  H    1.769515   1.754495   0.000000
    29  H    6.185383   5.416186   5.554186   0.000000
 Stoichiometry    C10H18O
 Framework group  C1[X(C10H18O)]
 Deg. of freedom    81
 Full point group                 C1      NOp   1
 Largest Abelian subgroup         C1      NOp   1
 Largest concise Abelian subgroup C1      NOp   1
                         Standard orientation:                         
 ---------------------------------------------------------------------
 Center     Atomic      Atomic             Coordinates (Angstroms)
 Number     Number       Type             X           Y           Z
 ---------------------------------------------------------------------
      1          8           0       -2.594549    0.263588    0.219268
      2          6           0       -0.197110    0.637902   -0.334767
      3          6           0        1.097713    0.014769    0.269798
      4          6           0        0.435793   -1.387355    0.340678
      5          6           0       -1.273088    0.269509    0.731123
      6          6           0       -0.449327   -0.245544   -1.589319
      7          6           0       -0.851342   -1.146242    1.166171
      8          6           0       -0.021903   -1.643977   -1.112593
      9          6           0       -0.157648    2.118864   -0.662564
     10          6           0        1.532494    0.575626    1.638711
     11          6           0        2.347171    0.074692   -0.632285
     12          1           0        1.062028   -2.187133    0.743070
     13          1           0       -1.257810    0.953816    1.586362
     14          1           0        0.157054    0.073043   -2.444539
     15          1           0       -1.491874   -0.234411   -1.922896
     16          1           0       -1.621271   -1.901460    0.975789
     17          1           0       -0.626788   -1.167153    2.238129
     18          1           0       -0.846228   -2.362492   -1.171966
     19          1           0        0.795861   -2.032567   -1.728455
     20          1           0        0.636699    2.347067   -1.380508
     21          1           0       -1.104569    2.449715   -1.102150
     22          1           0        0.020620    2.719965    0.234912
     23          1           0        2.344995   -0.030225    2.056694
     24          1           0        1.902615    1.602002    1.535453
     25          1           0        0.743723    0.601007    2.393091
     26          1           0        3.147981   -0.546426   -0.214146
     27          1           0        2.186516   -0.268866   -1.656149
     28          1           0        2.724911    1.101197   -0.701523
     29          1           0       -2.794591    1.164753   -0.085043
 ---------------------------------------------------------------------
 Rotational constants (GHZ):           1.4905449           1.1046350           1.0460368
 Standard basis: 6-311++G(d,p) (5D, 7F)
 There are   379 symmetry adapted cartesian basis functions of A   symmetry.
 There are   368 symmetry adapted basis functions of A   symmetry.
   368 basis functions,   558 primitive gaussians,   379 cartesian basis functions
    43 alpha electrons       43 beta electrons
       nuclear repulsion energy       715.9668852198 Hartrees.
 NAtoms=   29 NActive=   29 NUniq=   29 SFac= 1.00D+00 NAtFMM=   60 NAOKFM=F Big=F
 Integral buffers will be    131072 words long.
 Raffenetti 2 integral format.
 Two-electron integral symmetry is turned on.
 R6APFD:  NTU= -4 IXU= 1 FactS= 1.050
 Nuclear repulsion after empirical dispersion term =      715.9377023761 Hartrees.
 One-electron integrals computed using PRISM.
 NBasis=   368 RedAO= T EigKep=  2.46D-06  NBF=   368
 NBsUse=   368 1.00D-06 EigRej= -1.00D+00 NBFU=   368
 ExpMin= 3.60D-02 ExpMax= 8.59D+03 ExpMxC= 1.30D+03 IAcc=3 IRadAn=         5 AccDes= 0.00D+00
 Harris functional with IExCor= 1009 and IRadAn=       5 diagonalized for initial guess.
 HarFok:  IExCor= 1009 AccDes= 0.00D+00 IRadAn=         5 IDoV= 1 UseB2=F ITyADJ=14
 ICtDFT=  3500011 ScaDFX=  1.000000  1.000000  1.000000  1.000000
 FoFCou: FMM=F IPFlag=           0 FMFlag=      100000 FMFlg1=           0
         NFxFlg=           0 DoJE=T BraDBF=F KetDBF=T FulRan=T
         wScrn=  0.000000 ICntrl=       500 IOpCl=  0 I1Cent=   200000004 NGrid=           0
         NMat0=    1 NMatS0=      1 NMatT0=    0 NMatD0=    1 NMtDS0=    0 NMtDT0=    0
 Petite list used in FoFCou.
 Requested convergence on RMS density matrix=1.00D-08 within  32 cycles.
 Requested convergence on MAX density matrix=1.00D-06.
 Requested convergence on             energy=1.00D-06.
 No special actions if energy rises.
 SCF Done:  E(RM08HX) =  -467.172185768     A.U. after   14 cycles
            NFock= 14  Conv=0.30D-08     -V/T= 2.0055
 QCSCF skips out because SCF is already converged.

 **********************************************************************

            Population analysis using the SCF Density.

 **********************************************************************

 Orbital symmetries:
       Occupied  (A) (A) (A) (A) (A) (A) (A) (A) (A) (A) (A) (A)
                 (A) (A) (A) (A) (A) (A) (A) (A) (A) (A) (A) (A)
                 (A) (A) (A) (A) (A) (A) (A) (A) (A) (A) (A) (A)
                 (A) (A) (A) (A) (A) (A) (A)
       Virtual   (A) (A) (A) (A) (A) (A) (A) (A) (A) (A) (A) (A)
                 (A) (A) (A) (A) (A) (A) (A) (A) (A) (A) (A) (A)
                 (A) (A) (A) (A) (A) (A) (A) (A) (A) (A) (A) (A)
                 (A) (A) (A) (A) (A) (A) (A) (A) (A) (A) (A) (A)
                 (A) (A) (A) (A) (A) (A) (A) (A) (A) (A) (A) (A)
                 (A) (A) (A) (A) (A) (A) (A) (A) (A) (A) (A) (A)
                 (A) (A) (A) (A) (A) (A) (A) (A) (A) (A) (A) (A)
                 (A) (A) (A) (A) (A) (A) (A) (A) (A) (A) (A) (A)
                 (A) (A) (A) (A) (A) (A) (A) (A) (A) (A) (A) (A)
                 (A) (A) (A) (A) (A) (A) (A) (A) (A) (A) (A) (A)
                 (A) (A) (A) (A) (A) (A) (A) (A) (A) (A) (A) (A)
                 (A) (A) (A) (A) (A) (A) (A) (A) (A) (A) (A) (A)
                 (A) (A) (A) (A) (A) (A) (A) (A) (A) (A) (A) (A)
                 (A) (A) (A) (A) (A) (A) (A) (A) (A) (A) (A) (A)
                 (A) (A) (A) (A) (A) (A) (A) (A) (A) (A) (A) (A)
                 (A) (A) (A) (A) (A) (A) (A) (A) (A) (A) (A) (A)
                 (A) (A) (A) (A) (A) (A) (A) (A) (A) (A) (A) (A)
                 (A) (A) (A) (A) (A) (A) (A) (A) (A) (A) (A) (A)
                 (A) (A) (A) (A) (A) (A) (A) (A) (A) (A) (A) (A)
                 (A) (A) (A) (A) (A) (A) (A) (A) (A) (A) (A) (A)
                 (A) (A) (A) (A) (A) (A) (A) (A) (A) (A) (A) (A)
                 (A) (A) (A) (A) (A) (A) (A) (A) (A) (A) (A) (A)
                 (A) (A) (A) (A) (A) (A) (A) (A) (A) (A) (A) (A)
                 (A) (A) (A) (A) (A) (A) (A) (A) (A) (A) (A) (A)
                 (A) (A) (A) (A) (A) (A) (A) (A) (A) (A) (A) (A)
                 (A) (A) (A) (A) (A) (A) (A) (A) (A) (A) (A) (A)
                 (A) (A) (A) (A) (A) (A) (A) (A) (A) (A) (A) (A)
                 (A)
 The electronic state is 1-A.
 Alpha  occ. eigenvalues --  -19.60671 -10.57538 -10.54225 -10.53705 -10.52588
 Alpha  occ. eigenvalues --  -10.51879 -10.51747 -10.51711 -10.51633 -10.51487
 Alpha  occ. eigenvalues --  -10.51435  -1.14229  -0.98961  -0.86498  -0.85880
 Alpha  occ. eigenvalues --   -0.84238  -0.77430  -0.76014  -0.72679  -0.68795
 Alpha  occ. eigenvalues --   -0.61567  -0.60679  -0.59344  -0.55459  -0.55122
 Alpha  occ. eigenvalues --   -0.51592  -0.50642  -0.48428  -0.47294  -0.46975
 Alpha  occ. eigenvalues --   -0.45861  -0.45439  -0.44940  -0.44354  -0.42812
 Alpha  occ. eigenvalues --   -0.40252  -0.39278  -0.39034  -0.37936  -0.37144
 Alpha  occ. eigenvalues --   -0.36152  -0.34628  -0.32879
 Alpha virt. eigenvalues --   -0.03140  -0.01976  -0.01454  -0.01296   0.00229
 Alpha virt. eigenvalues --    0.00477   0.00806   0.01037   0.01247   0.03294
 Alpha virt. eigenvalues --    0.03606   0.03817   0.03944   0.04352   0.04437
 Alpha virt. eigenvalues --    0.04761   0.07026   0.07390   0.08085   0.08378
 Alpha virt. eigenvalues --    0.08769   0.09122   0.09631   0.09714   0.10111
 Alpha virt. eigenvalues --    0.10433   0.11045   0.11591   0.11907   0.12293
 Alpha virt. eigenvalues --    0.13058   0.13515   0.13697   0.13927   0.14142
 Alpha virt. eigenvalues --    0.14559   0.14879   0.15039   0.15183   0.15455
 Alpha virt. eigenvalues --    0.15782   0.15942   0.16394   0.16497   0.16991
 Alpha virt. eigenvalues --    0.17496   0.17838   0.18540   0.19044   0.19295
 Alpha virt. eigenvalues --    0.19619   0.20245   0.20795   0.21221   0.22028
 Alpha virt. eigenvalues --    0.22805   0.23440   0.23577   0.24395   0.24891
 Alpha virt. eigenvalues --    0.25235   0.25716   0.26645   0.26859   0.27225
 Alpha virt. eigenvalues --    0.27834   0.28644   0.29024   0.30401   0.30988
 Alpha virt. eigenvalues --    0.31207   0.31706   0.32001   0.32897   0.33136
 Alpha virt. eigenvalues --    0.33723   0.34286   0.35088   0.35609   0.36345
 Alpha virt. eigenvalues --    0.36761   0.37989   0.38153   0.38333   0.39229
 Alpha virt. eigenvalues --    0.40349   0.40890   0.42079   0.42496   0.43530
 Alpha virt. eigenvalues --    0.44771   0.48103   0.48689   0.49283   0.50702
 Alpha virt. eigenvalues --    0.51956   0.54834   0.54908   0.56720   0.57836
 Alpha virt. eigenvalues --    0.59000   0.61497   0.61655   0.62253   0.63617
 Alpha virt. eigenvalues --    0.64212   0.64864   0.65714   0.66588   0.68627
 Alpha virt. eigenvalues --    0.68799   0.69419   0.69698   0.70653   0.70711
 Alpha virt. eigenvalues --    0.71602   0.72179   0.72976   0.73197   0.73720
 Alpha virt. eigenvalues --    0.74762   0.75626   0.77390   0.77649   0.78067
 Alpha virt. eigenvalues --    0.79164   0.79354   0.79881   0.80421   0.80760
 Alpha virt. eigenvalues --    0.81318   0.82022   0.82311   0.83238   0.85046
 Alpha virt. eigenvalues --    0.85917   0.86477   0.89052   0.93458   0.94744
 Alpha virt. eigenvalues --    0.95995   0.98626   1.01719   1.02736   1.07167
 Alpha virt. eigenvalues --    1.10747   1.12464   1.15078   1.15962   1.19503
 Alpha virt. eigenvalues --    1.23136   1.25554   1.25816   1.26356   1.28456
 Alpha virt. eigenvalues --    1.29929   1.31919   1.33846   1.36984   1.39787
 Alpha virt. eigenvalues --    1.41708   1.44386   1.45130   1.48471   1.49208
 Alpha virt. eigenvalues --    1.50502   1.51216   1.51887   1.52227   1.54260
 Alpha virt. eigenvalues --    1.56111   1.56411   1.57400   1.59467   1.60813
 Alpha virt. eigenvalues --    1.61354   1.61942   1.63589   1.64939   1.65245
 Alpha virt. eigenvalues --    1.65997   1.67099   1.68330   1.68666   1.69346
 Alpha virt. eigenvalues --    1.69866   1.71150   1.73056   1.74357   1.75465
 Alpha virt. eigenvalues --    1.76348   1.77283   1.78015   1.78711   1.80123
 Alpha virt. eigenvalues --    1.81309   1.83038   1.84404   1.85675   1.86892
 Alpha virt. eigenvalues --    1.88060   1.88375   1.89741   1.92351   1.92461
 Alpha virt. eigenvalues --    1.93843   1.94286   1.96185   1.98006   1.98222
 Alpha virt. eigenvalues --    2.01509   2.03095   2.05045   2.06462   2.08780
 Alpha virt. eigenvalues --    2.10894   2.11243   2.14641   2.15830   2.16973
 Alpha virt. eigenvalues --    2.19048   2.19363   2.21090   2.22643   2.24384
 Alpha virt. eigenvalues --    2.25840   2.27072   2.28809   2.32674   2.35284
 Alpha virt. eigenvalues --    2.37136   2.38271   2.38613   2.42567   2.43531
 Alpha virt. eigenvalues --    2.46288   2.50547   2.51343   2.52715   2.54147
 Alpha virt. eigenvalues --    2.55114   2.55367   2.57172   2.57389   2.58011
 Alpha virt. eigenvalues --    2.59382   2.60413   2.61413   2.61722   2.63016
 Alpha virt. eigenvalues --    2.65163   2.65942   2.67092   2.68422   2.69245
 Alpha virt. eigenvalues --    2.70300   2.73359   2.74607   2.77312   2.78028
 Alpha virt. eigenvalues --    2.79566   2.80553   2.82780   2.85308   2.87232
 Alpha virt. eigenvalues --    2.88627   2.90872   2.93520   2.93870   2.95216
 Alpha virt. eigenvalues --    2.97053   2.99445   3.00979   3.02907   3.07254
 Alpha virt. eigenvalues --    3.10604   3.13428   3.15282   3.17794   3.21371
 Alpha virt. eigenvalues --    3.24238   3.27740   3.28450   3.30871   3.33920
 Alpha virt. eigenvalues --    3.40409   3.42219   3.45701   3.52086   3.61231
 Alpha virt. eigenvalues --    3.67314   3.76956   3.82779   3.83729   3.84214
 Alpha virt. eigenvalues --    3.84489   3.86692   3.88077   3.88806   3.94162
 Alpha virt. eigenvalues --    4.02203   4.10448   4.15077   4.22501   4.24283
 Alpha virt. eigenvalues --    4.31124   4.31719   4.39279   4.44787   4.50680
 Alpha virt. eigenvalues --    4.55733   5.28501   5.58700   5.78502  23.86036
 Alpha virt. eigenvalues --   23.88961  23.93746  23.98542  24.03541  24.05499
 Alpha virt. eigenvalues --   24.05898  24.06231  24.08223  24.15657  50.00003
          Condensed to atoms (all electrons):
               1          2          3          4          5          6
     1  O    7.697864  -0.044706   0.120316  -0.014101   0.661385  -0.067489
     2  C   -0.044706  15.789588  -2.411095  -3.220372  -3.827497  -1.409874
     3  C    0.120316  -2.411095  15.973448  -5.050970  -1.311507  -0.615381
     4  C   -0.014101  -3.220372  -5.050970  16.420770   3.227666   1.719345
     5  C    0.661385  -3.827497  -1.311507   3.227666  14.250608  -1.136512
     6  C   -0.067489  -1.409874  -0.615381   1.719345  -1.136512   9.278733
     7  C   -0.218201   1.746511   1.695589  -3.153220  -4.902294   0.470923
     8  C   -0.049262   0.723763   0.350565  -1.851219   0.216915  -1.766382
     9  C   -0.108002  -2.001990  -0.992928  -2.251436  -0.877613  -0.492123
    10  C   -0.006630  -0.270898  -0.357029  -0.328308   0.712382  -0.234284
    11  C   -0.010387   0.591923  -1.083518  -0.388989  -0.599316   0.086028
    12  H   -0.001055  -0.179505  -0.155040   0.802352   0.089468   0.056977
    13  H   -0.028256  -0.105820   0.158848   0.036470   0.976912  -0.077006
    14  H    0.001923  -0.100139   0.027942   0.168485  -0.002497   0.610834
    15  H    0.005129   0.000780   0.172697  -0.158894  -0.172049   0.503350
    16  H   -0.015262   0.028881   0.072643  -0.102828  -0.143275  -0.018001
    17  H    0.006214   0.119523   0.045206  -0.214500  -0.213820   0.019159
    18  H   -0.001164  -0.006349  -0.072255   0.016513   0.041108  -0.071068
    19  H   -0.000268  -0.000284   0.213840  -0.250397  -0.024704  -0.084862
    20  H   -0.000617  -0.130653   0.035940  -0.033122   0.081698  -0.088946
    21  H    0.000159  -0.028166   0.024018  -0.025047  -0.003145  -0.013436
    22  H   -0.006194  -0.038831  -0.124765  -0.024775  -0.188964   0.064867
    23  H    0.000607   0.049614   0.060327  -0.131878  -0.014430  -0.009881
    24  H    0.000387  -0.080845   0.020006   0.147672   0.105150   0.002113
    25  H    0.000026   0.029900  -0.113609  -0.020107  -0.151361   0.000744
    26  H    0.000330   0.075209  -0.003987  -0.113210  -0.008136  -0.011999
    27  H   -0.000509  -0.006315   0.010389  -0.108567  -0.001877  -0.041802
    28  H   -0.000444  -0.012647  -0.144123   0.185403  -0.001496   0.058537
    29  H    0.235539   0.180197   0.054578  -0.007408  -0.157667  -0.042524
               7          8          9         10         11         12
     1  O   -0.218201  -0.049262  -0.108002  -0.006630  -0.010387  -0.001055
     2  C    1.746511   0.723763  -2.001990  -0.270898   0.591923  -0.179505
     3  C    1.695589   0.350565  -0.992928  -0.357029  -1.083518  -0.155040
     4  C   -3.153220  -1.851219  -2.251436  -0.328308  -0.388989   0.802352
     5  C   -4.902294   0.216915  -0.877613   0.712382  -0.599316   0.089468
     6  C    0.470923  -1.766382  -0.492123  -0.234284   0.086028   0.056977
     7  C   10.445918   0.183280   0.159375  -0.483240   0.262383  -0.117186
     8  C    0.183280   8.039343   0.272655   0.156092  -0.102985  -0.085861
     9  C    0.159375   0.272655  10.790920   0.363120   0.628976  -0.104219
    10  C   -0.483240   0.156092   0.363120   6.742252  -0.757853  -0.018668
    11  C    0.262383  -0.102985   0.628976  -0.757853   6.906158  -0.035287
    12  H   -0.117186  -0.085861  -0.104219  -0.018668  -0.035287   0.399006
    13  H   -0.597635  -0.036542  -0.148223   0.022287  -0.030862  -0.002509
    14  H    0.012077  -0.153272  -0.157021  -0.007034  -0.061030   0.007688
    15  H    0.084551  -0.096870   0.016619  -0.000048   0.003350  -0.005603
    16  H    0.563646  -0.031460  -0.015174  -0.023178   0.007681  -0.003671
    17  H    0.604459  -0.006591   0.042588  -0.071018   0.036896  -0.015291
    18  H   -0.071435   0.512618   0.007328   0.010444  -0.010954   0.001739
    19  H    0.037471   0.532979   0.002107   0.020122  -0.087608  -0.011232
    20  H   -0.016941   0.009992   0.503993   0.034129  -0.026265  -0.001583
    21  H    0.006872   0.012469   0.395023   0.004859  -0.003382  -0.000477
    22  H    0.056359  -0.008843   0.625632  -0.040682   0.054984  -0.001055
    23  H    0.025168   0.018218  -0.012796   0.455600  -0.064701  -0.006765
    24  H   -0.058739  -0.004930  -0.110921   0.413971  -0.074251   0.006358
    25  H    0.134281   0.010159   0.099125   0.322053   0.070905   0.003689
    26  H    0.017967   0.007562   0.001831  -0.054255   0.467834  -0.007800
    27  H   -0.015424   0.038547   0.077814   0.032614   0.383849  -0.003986
    28  H   -0.003470  -0.017464  -0.072039  -0.053935   0.414389   0.008598
    29  H    0.100323   0.005345  -0.117664  -0.007420  -0.000186   0.000068
              13         14         15         16         17         18
     1  O   -0.028256   0.001923   0.005129  -0.015262   0.006214  -0.001164
     2  C   -0.105820  -0.100139   0.000780   0.028881   0.119523  -0.006349
     3  C    0.158848   0.027942   0.172697   0.072643   0.045206  -0.072255
     4  C    0.036470   0.168485  -0.158894  -0.102828  -0.214500   0.016513
     5  C    0.976912  -0.002497  -0.172049  -0.143275  -0.213820   0.041108
     6  C   -0.077006   0.610834   0.503350  -0.018001   0.019159  -0.071068
     7  C   -0.597635   0.012077   0.084551   0.563646   0.604459  -0.071435
     8  C   -0.036542  -0.153272  -0.096870  -0.031460  -0.006591   0.512618
     9  C   -0.148223  -0.157021   0.016619  -0.015174   0.042588   0.007328
    10  C    0.022287  -0.007034  -0.000048  -0.023178  -0.071018   0.010444
    11  C   -0.030862  -0.061030   0.003350   0.007681   0.036896  -0.010954
    12  H   -0.002509   0.007688  -0.005603  -0.003671  -0.015291   0.001739
    13  H    0.696213  -0.001632  -0.000670  -0.006157  -0.005757   0.000038
    14  H   -0.001632   0.439939  -0.010039   0.001185  -0.001761  -0.005928
    15  H   -0.000670  -0.010039   0.394442   0.002872   0.001621  -0.004576
    16  H   -0.006157   0.001185   0.002872   0.378454   0.012368  -0.006736
    17  H   -0.005757  -0.001761   0.001621   0.012368   0.443936  -0.001816
    18  H    0.000038  -0.005928  -0.004576  -0.006736  -0.001816   0.406149
    19  H   -0.002323   0.002490   0.001056  -0.000939  -0.001987   0.004799
    20  H    0.007280  -0.005615   0.001625   0.000512  -0.000040  -0.000537
    21  H   -0.009331  -0.001501  -0.000854  -0.001010  -0.000105  -0.000320
    22  H   -0.035071  -0.000589   0.001973  -0.000022   0.002284   0.000346
    23  H   -0.001873   0.000515   0.000477   0.000774  -0.000002  -0.000824
    24  H    0.021732   0.001382  -0.000093  -0.000650  -0.002786   0.000990
    25  H   -0.083789  -0.000754  -0.002070  -0.000026  -0.010321   0.000072
    26  H    0.000442  -0.001293   0.000189   0.000020   0.001492  -0.000524
    27  H    0.002215  -0.023976   0.005516  -0.001010   0.000814   0.000978
    28  H   -0.003582   0.008467  -0.003478   0.000253   0.000677   0.000745
    29  H   -0.041549   0.003636   0.003041   0.006102  -0.004164  -0.001961
              19         20         21         22         23         24
     1  O   -0.000268  -0.000617   0.000159  -0.006194   0.000607   0.000387
     2  C   -0.000284  -0.130653  -0.028166  -0.038831   0.049614  -0.080845
     3  C    0.213840   0.035940   0.024018  -0.124765   0.060327   0.020006
     4  C   -0.250397  -0.033122  -0.025047  -0.024775  -0.131878   0.147672
     5  C   -0.024704   0.081698  -0.003145  -0.188964  -0.014430   0.105150
     6  C   -0.084862  -0.088946  -0.013436   0.064867  -0.009881   0.002113
     7  C    0.037471  -0.016941   0.006872   0.056359   0.025168  -0.058739
     8  C    0.532979   0.009992   0.012469  -0.008843   0.018218  -0.004930
     9  C    0.002107   0.503993   0.395023   0.625632  -0.012796  -0.110921
    10  C    0.020122   0.034129   0.004859  -0.040682   0.455600   0.413971
    11  C   -0.087608  -0.026265  -0.003382   0.054984  -0.064701  -0.074251
    12  H   -0.011232  -0.001583  -0.000477  -0.001055  -0.006765   0.006358
    13  H   -0.002323   0.007280  -0.009331  -0.035071  -0.001873   0.021732
    14  H    0.002490  -0.005615  -0.001501  -0.000589   0.000515   0.001382
    15  H    0.001056   0.001625  -0.000854   0.001973   0.000477  -0.000093
    16  H   -0.000939   0.000512  -0.001010  -0.000022   0.000774  -0.000650
    17  H   -0.001987  -0.000040  -0.000105   0.002284  -0.000002  -0.002786
    18  H    0.004799  -0.000537  -0.000320   0.000346  -0.000824   0.000990
    19  H    0.444862   0.001352   0.000550  -0.000858   0.002195   0.000529
    20  H    0.001352   0.496891  -0.036554  -0.039861  -0.000962   0.007961
    21  H    0.000550  -0.036554   0.532213  -0.043610   0.000702  -0.001967
    22  H   -0.000858  -0.039861  -0.043610   0.531226  -0.002150  -0.017756
    23  H    0.002195  -0.000962   0.000702  -0.002150   0.471819  -0.032656
    24  H    0.000529   0.007961  -0.001967  -0.017756  -0.032656   0.522780
    25  H   -0.000433  -0.004592   0.001617   0.017714  -0.032173  -0.065036
    26  H    0.000754   0.000013   0.000653  -0.001513   0.003743  -0.000452
    27  H   -0.011788   0.007790  -0.001687  -0.000010  -0.001261  -0.000027
    28  H   -0.004661  -0.015965  -0.000944   0.008558  -0.003327  -0.003996
    29  H    0.001473  -0.001441  -0.003025   0.003385   0.000563  -0.001025
              25         26         27         28         29
     1  O    0.000026   0.000330  -0.000509  -0.000444   0.235539
     2  C    0.029900   0.075209  -0.006315  -0.012647   0.180197
     3  C   -0.113609  -0.003987   0.010389  -0.144123   0.054578
     4  C   -0.020107  -0.113210  -0.108567   0.185403  -0.007408
     5  C   -0.151361  -0.008136  -0.001877  -0.001496  -0.157667
     6  C    0.000744  -0.011999  -0.041802   0.058537  -0.042524
     7  C    0.134281   0.017967  -0.015424  -0.003470   0.100323
     8  C    0.010159   0.007562   0.038547  -0.017464   0.005345
     9  C    0.099125   0.001831   0.077814  -0.072039  -0.117664
    10  C    0.322053  -0.054255   0.032614  -0.053935  -0.007420
    11  C    0.070905   0.467834   0.383849   0.414389  -0.000186
    12  H    0.003689  -0.007800  -0.003986   0.008598   0.000068
    13  H   -0.083789   0.000442   0.002215  -0.003582  -0.041549
    14  H   -0.000754  -0.001293  -0.023976   0.008467   0.003636
    15  H   -0.002070   0.000189   0.005516  -0.003478   0.003041
    16  H   -0.000026   0.000020  -0.001010   0.000253   0.006102
    17  H   -0.010321   0.001492   0.000814   0.000677  -0.004164
    18  H    0.000072  -0.000524   0.000978   0.000745  -0.001961
    19  H   -0.000433   0.000754  -0.011788  -0.004661   0.001473
    20  H   -0.004592   0.000013   0.007790  -0.015965  -0.001441
    21  H    0.001617   0.000653  -0.001687  -0.000944  -0.003025
    22  H    0.017714  -0.001513  -0.000010   0.008558   0.003385
    23  H   -0.032173   0.003743  -0.001261  -0.003327   0.000563
    24  H   -0.065036  -0.000452  -0.000027  -0.003996  -0.001025
    25  H    0.583923  -0.001727  -0.002430   0.006593   0.002367
    26  H   -0.001727   0.473091  -0.031611  -0.033561   0.000094
    27  H   -0.002430  -0.031611   0.529234  -0.050769  -0.000862
    28  H    0.006593  -0.033561  -0.050769   0.526792  -0.000041
    29  H    0.002367   0.000094  -0.000862  -0.000041   0.505311
 Mulliken charges:
               1
     1  O   -0.157333
     2  C    0.540099
     3  C   -0.600145
     4  C    0.724668
     5  C   -0.625133
     6  C   -0.690041
     7  C   -0.969368
     8  C   -0.878820
     9  C   -0.524958
    10  C   -0.575446
    11  C   -0.577782
    12  H    0.380850
    13  H    0.296150
    14  H    0.247516
    15  H    0.255953
    16  H    0.294008
    17  H    0.212721
    18  H    0.252580
    19  H    0.215764
    20  H    0.214517
    21  H    0.195426
    22  H    0.208218
    23  H    0.225360
    24  H    0.205096
    25  H    0.205258
    26  H    0.218845
    27  H    0.214152
    28  H    0.206929
    29  H    0.284916
 Sum of Mulliken charges =  -0.00000
 Mulliken charges with hydrogens summed into heavy atoms:
               1
     1  O    0.127583
     2  C    0.540099
     3  C   -0.600145
     4  C    1.105518
     5  C   -0.328983
     6  C   -0.186572
     7  C   -0.462639
     8  C   -0.410476
     9  C    0.093203
    10  C    0.060269
    11  C    0.062144
 Electronic spatial extent (au):  <R**2>=           1546.7279
 Charge=              0.0000 electrons
 Dipole moment (field-independent basis, Debye):
    X=              1.1697    Y=              1.1249    Z=             -0.0394  Tot=              1.6233
 Quadrupole moment (field-independent basis, Debye-Ang):
   XX=            -75.0859   YY=            -69.2582   ZZ=            -70.7573
   XY=             -3.5735   XZ=              1.0568   YZ=             -0.3171
 Traceless Quadrupole moment (field-independent basis, Debye-Ang):
   XX=             -3.3854   YY=              2.4422   ZZ=              0.9432
   XY=             -3.5735   XZ=              1.0568   YZ=             -0.3171
 Octapole moment (field-independent basis, Debye-Ang**2):
  XXX=              1.7513  YYY=              2.7672  ZZZ=              1.9074  XYY=            -10.4185
  XXY=             10.3052  XXZ=             -5.0300  XZZ=             -3.1541  YZZ=              0.1843
  YYZ=              1.0853  XYZ=              0.2054
 Hexadecapole moment (field-independent basis, Debye-Ang**3):
 XXXX=           -954.9697 YYYY=           -656.1592 ZZZZ=           -576.2758 XXXY=            -43.4289
 XXXZ=             21.3347 YYYX=             -6.0971 YYYZ=              0.5239 ZZZX=             -8.1163
 ZZZY=              0.2839 XXYY=           -234.5007 XXZZ=           -249.8753 YYZZ=           -206.5858
 XXYZ=             -6.0026 YYXZ=              0.3746 ZZXY=             -3.9601
 N-N= 7.159377023761D+02 E-N=-2.516545436778D+03  KE= 4.645972643403D+02
 R6APFD:  NTU= -4 IXU= 1 FactS= 1.050
 Calling FoFJK, ICntrl=      2127 FMM=F ISym2X=0 I1Cent= 0 IOpClX= 0 NMat=1 NMatS=1 NMatT=0.
 ***** Axes restored to original set *****
 -------------------------------------------------------------------
 Center     Atomic                   Forces (Hartrees/Bohr)
 Number     Number              X              Y              Z
 -------------------------------------------------------------------
      1        8          -0.004621237   -0.011394818    0.006259999
      2        6           0.001350079   -0.014792992    0.006813859
      3        6          -0.002355670    0.005812931   -0.000435029
      4        6          -0.001929037    0.010912407   -0.000760683
      5        6          -0.001028316    0.004292945    0.008982530
      6        6          -0.001801739   -0.001672930   -0.004383400
      7        6           0.011146997    0.001165864   -0.004289092
      8        6           0.004873861    0.004046654   -0.000659514
      9        6           0.001112290    0.001638761   -0.003802109
     10        6          -0.004428559    0.000389299    0.002900652
     11        6          -0.006048951   -0.000354021    0.000353583
     12        1           0.003160958    0.001833448   -0.001802832
     13        1           0.005119997   -0.005436932   -0.001569357
     14        1           0.001264137   -0.005077140   -0.001253247
     15        1          -0.001313059   -0.003560947   -0.003018159
     16        1          -0.001575890   -0.002177072    0.002187253
     17        1          -0.001417408    0.001178242   -0.001665252
     18        1           0.000401923    0.001961390   -0.002407104
     19        1           0.001265501    0.002381539    0.000132583
     20        1           0.001065581    0.000150025    0.002220898
     21        1          -0.002184268   -0.001426626    0.002109530
     22        1           0.000418254   -0.001615015   -0.002888680
     23        1           0.001526635    0.000735580    0.001320650
     24        1           0.001241145   -0.001376857    0.001369076
     25        1          -0.003445043    0.000751265   -0.000326753
     26        1           0.000207378    0.000200582   -0.002230603
     27        1          -0.003077878    0.001343280    0.001874237
     28        1           0.000322533   -0.001850731   -0.001503311
     29        1           0.000749781    0.011941867   -0.003529724
 -------------------------------------------------------------------
 Cartesian Forces:  Max     0.014792992 RMS     0.004023726

 GradGradGradGradGradGradGradGradGradGradGradGradGradGradGradGradGradGrad
 Berny optimization.
 FormGI is forming the generalized inverse of G from B-inverse, IUseBI=4.
 Internal  Forces:  Max     0.012366769 RMS     0.002508065
 Search for a local minimum.
 Step number   1 out of a maximum of  174
 All quantities printed in internal units (Hartrees-Bohrs-Radians)
 Mixed Optimization -- RFO/linear search
 Second derivative matrix not updated -- first step.
 ITU=  0
     Eigenvalues ---    0.00230   0.00230   0.00305   0.00537   0.00659
     Eigenvalues ---    0.01465   0.01799   0.02240   0.02667   0.02868
     Eigenvalues ---    0.03547   0.03564   0.04196   0.04289   0.04346
     Eigenvalues ---    0.04610   0.05035   0.05042   0.05049   0.05102
     Eigenvalues ---    0.05283   0.05485   0.05487   0.05578   0.05616
     Eigenvalues ---    0.05622   0.05873   0.06068   0.06650   0.06708
     Eigenvalues ---    0.06736   0.06790   0.07586   0.07912   0.08846
     Eigenvalues ---    0.09131   0.10323   0.11027   0.11657   0.13443
     Eigenvalues ---    0.16000   0.16000   0.16000   0.16000   0.16000
     Eigenvalues ---    0.16000   0.16000   0.16000   0.16000   0.16000
     Eigenvalues ---    0.17105   0.21344   0.23152   0.24800   0.25342
     Eigenvalues ---    0.25545   0.27469   0.27753   0.28213   0.28322
     Eigenvalues ---    0.28349   0.30626   0.34092   0.34092   0.34130
     Eigenvalues ---    0.34134   0.34160   0.34193   0.34194   0.34222
     Eigenvalues ---    0.34224   0.34227   0.34241   0.34265   0.34268
     Eigenvalues ---    0.34279   0.34516   0.34599   0.34612   0.42894
     Eigenvalues ---    0.52977
 RFO step:  Lambda=-7.73528870D-03 EMin= 2.30000000D-03
 Linear search not attempted -- first point.
 Iteration  1 RMS(Cart)=  0.03367536 RMS(Int)=  0.00046966
 Iteration  2 RMS(Cart)=  0.00053037 RMS(Int)=  0.00027375
 Iteration  3 RMS(Cart)=  0.00000014 RMS(Int)=  0.00027375
 Variable       Old X    -DE/DX   Delta X   Delta X   Delta X     New X
                                 (Linear)    (Quad)   (Total)
    R1        2.67801   0.00460   0.00000   0.01054   0.01054   2.68855
    R2        1.83675  -0.01237   0.00000  -0.02301  -0.02301   1.81375
    R3        2.94601  -0.00233   0.00000  -0.01145  -0.01099   2.93502
    R4        2.94553  -0.00587   0.00000  -0.02182  -0.02205   2.92348
    R5        2.93850  -0.00808   0.00000  -0.03000  -0.03027   2.90824
    R6        2.86732   0.00080   0.00000   0.00255   0.00255   2.86987
    R7        2.93310   0.00141   0.00000  -0.00407  -0.00408   2.92902
    R8        2.91381  -0.00631   0.00000  -0.02168  -0.02168   2.89213
    R9        2.91440  -0.00787   0.00000  -0.02705  -0.02705   2.88735
   R10        2.92529  -0.00301   0.00000  -0.00915  -0.00895   2.91633
   R11        2.91982  -0.00253   0.00000  -0.00491  -0.00474   2.91507
   R12        2.06468   0.00378   0.00000   0.01071   0.01071   2.07539
   R13        2.91011   0.00658   0.00000   0.02456   0.02448   2.93459
   R14        2.07004   0.00460   0.00000   0.01314   0.01314   2.08318
   R15        2.90648   0.01200   0.00000   0.04684   0.04662   2.95310
   R16        2.07061   0.00130   0.00000   0.00373   0.00373   2.07434
   R17        2.06863   0.00040   0.00000   0.00115   0.00115   2.06978
   R18        2.06957   0.00009   0.00000   0.00026   0.00026   2.06983
   R19        2.07005   0.00141   0.00000   0.00405   0.00405   2.07410
   R20        2.06949   0.00076   0.00000   0.00217   0.00217   2.07166
   R21        2.06925   0.00186   0.00000   0.00530   0.00530   2.07455
   R22        2.06880   0.00218   0.00000   0.00621   0.00621   2.07502
   R23        2.06954   0.00318   0.00000   0.00909   0.00909   2.07863
   R24        2.06885   0.00333   0.00000   0.00950   0.00950   2.07835
   R25        2.07175   0.00104   0.00000   0.00298   0.00298   2.07473
   R26        2.07104   0.00181   0.00000   0.00518   0.00518   2.07622
   R27        2.06309   0.00273   0.00000   0.00772   0.00772   2.07081
   R28        2.07175   0.00110   0.00000   0.00317   0.00317   2.07492
   R29        2.06330   0.00259   0.00000   0.00732   0.00732   2.07062
   R30        2.07112   0.00179   0.00000   0.00513   0.00513   2.07625
    A1        1.87667   0.00287   0.00000   0.01713   0.01713   1.89380
    A2        1.78614  -0.00217   0.00000  -0.01797  -0.01837   1.76777
    A3        1.79312  -0.00192   0.00000  -0.01663  -0.01707   1.77606
    A4        2.04015   0.00208   0.00000   0.00837   0.00846   2.04861
    A5        1.88122  -0.00072   0.00000  -0.02274  -0.02322   1.85801
    A6        1.97835   0.00061   0.00000   0.01129   0.01155   1.98990
    A7        1.96540   0.00149   0.00000   0.02940   0.02954   1.99494
    A8        1.59539   0.00575   0.00000   0.05170   0.05200   1.64738
    A9        2.01872  -0.00340   0.00000  -0.02864  -0.02888   1.98984
   A10        2.01588  -0.00346   0.00000  -0.03123  -0.03147   1.98441
   A11        1.99138  -0.00241   0.00000  -0.00503  -0.00472   1.98666
   A12        1.99030  -0.00241   0.00000  -0.00638  -0.00599   1.98431
   A13        1.85117   0.00511   0.00000   0.01894   0.01830   1.86947
   A14        1.81135  -0.00391   0.00000  -0.03679  -0.03677   1.77458
   A15        1.80638  -0.00182   0.00000  -0.02518  -0.02527   1.78111
   A16        2.01933   0.00219   0.00000   0.00678   0.00724   2.02658
   A17        1.85577   0.00165   0.00000   0.01075   0.00998   1.86575
   A18        1.97599   0.00122   0.00000   0.01838   0.01795   1.99395
   A19        1.97644   0.00017   0.00000   0.01949   0.01912   1.99557
   A20        1.97980   0.00050   0.00000   0.00492   0.00524   1.98504
   A21        1.93218  -0.00053   0.00000  -0.00333  -0.00348   1.92870
   A22        1.87299   0.00222   0.00000   0.02450   0.02436   1.89735
   A23        1.79406   0.00201   0.00000   0.01520   0.01494   1.80900
   A24        1.95694  -0.00395   0.00000  -0.04866  -0.04877   1.90817
   A25        1.92829  -0.00038   0.00000   0.00632   0.00649   1.93478
   A26        1.79407   0.00320   0.00000   0.01903   0.01892   1.81299
   A27        1.95493  -0.00363   0.00000  -0.04043  -0.04092   1.91401
   A28        1.97638  -0.00349   0.00000  -0.03778  -0.03808   1.93830
   A29        1.93103   0.00088   0.00000   0.02695   0.02727   1.95831
   A30        1.94805   0.00158   0.00000   0.02362   0.02389   1.97194
   A31        1.86112   0.00147   0.00000   0.00973   0.00777   1.86888
   A32        1.79288   0.00032   0.00000   0.01266   0.01247   1.80535
   A33        1.96540   0.00035   0.00000  -0.00853  -0.00891   1.95649
   A34        1.92668   0.00080   0.00000   0.02058   0.02047   1.94715
   A35        1.97395  -0.00192   0.00000  -0.03893  -0.03873   1.93522
   A36        1.92852   0.00030   0.00000   0.01456   0.01388   1.94240
   A37        1.87661   0.00021   0.00000   0.00138   0.00154   1.87814
   A38        1.79553  -0.00267   0.00000   0.00070   0.00067   1.79620
   A39        1.96377  -0.00131   0.00000  -0.02746  -0.02753   1.93624
   A40        1.94628   0.00072   0.00000  -0.00098  -0.00100   1.94528
   A41        1.95041   0.00247   0.00000   0.01475   0.01479   1.96520
   A42        1.93465   0.00163   0.00000   0.01869   0.01852   1.95316
   A43        1.87425  -0.00075   0.00000  -0.00462  -0.00500   1.86925
   A44        1.94336  -0.00099   0.00000  -0.00761  -0.00761   1.93575
   A45        1.93809   0.00092   0.00000   0.00478   0.00476   1.94286
   A46        1.94232   0.00000   0.00000   0.00245   0.00244   1.94476
   A47        1.87672  -0.00057   0.00000  -0.00800  -0.00801   1.86871
   A48        1.88074   0.00070   0.00000   0.00544   0.00545   1.88619
   A49        1.87965  -0.00006   0.00000   0.00294   0.00292   1.88257
   A50        1.92458  -0.00138   0.00000  -0.00911  -0.00916   1.91542
   A51        1.93075  -0.00086   0.00000  -0.00606  -0.00610   1.92465
   A52        2.00225  -0.00236   0.00000  -0.01216  -0.01219   1.99006
   A53        1.87882   0.00067   0.00000   0.00023   0.00016   1.87898
   A54        1.85965   0.00228   0.00000   0.01540   0.01537   1.87502
   A55        1.86223   0.00199   0.00000   0.01359   0.01357   1.87580
   A56        1.92483  -0.00144   0.00000  -0.00981  -0.00988   1.91495
   A57        2.00101  -0.00314   0.00000  -0.01707  -0.01711   1.98390
   A58        1.93111  -0.00078   0.00000  -0.00502  -0.00506   1.92605
   A59        1.86175   0.00262   0.00000   0.01645   0.01638   1.87813
   A60        1.87860   0.00073   0.00000   0.00106   0.00100   1.87960
   A61        1.86103   0.00243   0.00000   0.01667   0.01666   1.87769
    D1       -1.08190   0.00160   0.00000   0.00867   0.00868  -1.07322
    D2       -3.08815  -0.00089   0.00000  -0.01124  -0.01108  -3.09923
    D3        1.08942  -0.00149   0.00000  -0.03228  -0.03246   1.05697
    D4        0.97953  -0.00090   0.00000  -0.01751  -0.01749   0.96205
    D5       -1.07482  -0.00038   0.00000  -0.03246  -0.03198  -1.10681
    D6        3.03187  -0.00145   0.00000  -0.00496  -0.00542   3.02645
    D7       -0.97030   0.00121   0.00000   0.01831   0.01824  -0.95206
    D8       -3.02466   0.00173   0.00000   0.00336   0.00375  -3.02091
    D9        1.08203   0.00067   0.00000   0.03086   0.03031   1.11235
   D10       -3.13137  -0.00050   0.00000  -0.01170  -0.01168   3.14013
   D11        1.09746   0.00001   0.00000  -0.02665  -0.02618   1.07128
   D12       -1.07903  -0.00105   0.00000   0.00085   0.00039  -1.07865
   D13       -2.74834   0.00264   0.00000   0.04120   0.04102  -2.70732
   D14       -0.66135   0.00352   0.00000   0.04923   0.04907  -0.61228
   D15        1.40973   0.00235   0.00000   0.04222   0.04194   1.45167
   D16       -0.86528  -0.00059   0.00000   0.00797   0.00803  -0.85725
   D17        1.22172   0.00029   0.00000   0.01600   0.01608   1.23780
   D18       -2.99040  -0.00088   0.00000   0.00899   0.00896  -2.98144
   D19        1.32211   0.00122   0.00000   0.03671   0.03665   1.35876
   D20       -2.87408   0.00210   0.00000   0.04474   0.04470  -2.82938
   D21       -0.80301   0.00093   0.00000   0.03773   0.03757  -0.76543
   D22        0.63941  -0.00279   0.00000  -0.03948  -0.03938   0.60003
   D23       -1.43393  -0.00395   0.00000  -0.06300  -0.06232  -1.49625
   D24        2.74375  -0.00067   0.00000  -0.01851  -0.01892   2.72484
   D25       -1.23880   0.00063   0.00000  -0.00514  -0.00529  -1.24409
   D26        2.97104  -0.00053   0.00000  -0.02867  -0.02823   2.94282
   D27        0.86554   0.00275   0.00000   0.01582   0.01517   0.88072
   D28        2.84931  -0.00066   0.00000  -0.02319  -0.02320   2.82610
   D29        0.77596  -0.00182   0.00000  -0.04672  -0.04614   0.72982
   D30       -1.32953   0.00146   0.00000  -0.00223  -0.00274  -1.33228
   D31        1.02718   0.00068   0.00000   0.01136   0.01146   1.03865
   D32        3.11792  -0.00008   0.00000  -0.00063  -0.00052   3.11740
   D33       -1.07151   0.00046   0.00000   0.00794   0.00806  -1.06344
   D34        3.09854  -0.00017   0.00000   0.00255   0.00241   3.10096
   D35       -1.09390  -0.00094   0.00000  -0.00943  -0.00957  -1.10347
   D36        0.99986  -0.00039   0.00000  -0.00086  -0.00099   0.99887
   D37       -1.04316   0.00050   0.00000   0.00385   0.00387  -1.03929
   D38        1.04758  -0.00026   0.00000  -0.00814  -0.00812   1.03947
   D39        3.14134   0.00029   0.00000   0.00043   0.00047  -3.14138
   D40       -0.96617   0.00012   0.00000   0.00229   0.00198  -0.96419
   D41        0.96923  -0.00010   0.00000  -0.00784  -0.00757   0.96166
   D42        3.14154   0.00012   0.00000   0.00231   0.00224  -3.13941
   D43        1.11166  -0.00137   0.00000  -0.00430  -0.00441   1.10725
   D44        3.04706  -0.00159   0.00000  -0.01443  -0.01396   3.03310
   D45       -1.06381  -0.00137   0.00000  -0.00428  -0.00415  -1.06797
   D46       -3.04049   0.00169   0.00000   0.01226   0.01182  -3.02868
   D47       -1.10510   0.00147   0.00000   0.00213   0.00227  -1.10283
   D48        1.06722   0.00169   0.00000   0.01228   0.01207   1.07929
   D49        2.97803   0.00257   0.00000   0.04199   0.04210   3.02013
   D50       -1.22878   0.00199   0.00000   0.03267   0.03281  -1.19598
   D51        0.87864   0.00227   0.00000   0.03722   0.03734   0.91598
   D52        1.15993  -0.00118   0.00000  -0.00305  -0.00301   1.15692
   D53       -3.04689  -0.00176   0.00000  -0.01237  -0.01230  -3.05919
   D54       -0.93946  -0.00148   0.00000  -0.00782  -0.00777  -0.94723
   D55       -1.04580  -0.00032   0.00000  -0.00589  -0.00607  -1.05187
   D56        1.03057  -0.00091   0.00000  -0.01520  -0.01536   1.01521
   D57        3.13800  -0.00062   0.00000  -0.01065  -0.01083   3.12717
   D58       -2.95429  -0.00246   0.00000  -0.03730  -0.03743  -2.99172
   D59       -0.85284  -0.00231   0.00000  -0.03513  -0.03524  -0.88809
   D60        1.25240  -0.00195   0.00000  -0.02921  -0.02935   1.22306
   D61       -1.13849   0.00127   0.00000   0.00540   0.00538  -1.13311
   D62        0.96296   0.00141   0.00000   0.00757   0.00757   0.97052
   D63        3.06820   0.00177   0.00000   0.01349   0.01346   3.08167
   D64        1.06789   0.00041   0.00000   0.00904   0.00918   1.07707
   D65       -3.11385   0.00056   0.00000   0.01121   0.01136  -3.10248
   D66       -1.00860   0.00092   0.00000   0.01713   0.01726  -0.99134
   D67        0.60524  -0.00088   0.00000   0.00510   0.00483   0.61006
   D68        2.73431  -0.00282   0.00000  -0.03828  -0.03846   2.69585
   D69       -1.45133  -0.00177   0.00000  -0.02789  -0.02822  -1.47955
   D70       -1.29371   0.00207   0.00000   0.04345   0.04336  -1.25035
   D71        0.83536   0.00013   0.00000   0.00008   0.00008   0.83544
   D72        2.93291   0.00118   0.00000   0.01046   0.01032   2.94322
   D73        2.80841  -0.00016   0.00000  -0.00123  -0.00142   2.80699
   D74       -1.34570  -0.00209   0.00000  -0.04461  -0.04471  -1.39041
   D75        0.75184  -0.00104   0.00000  -0.03422  -0.03447   0.71737
   D76       -0.62450   0.00205   0.00000   0.00900   0.00922  -0.61528
   D77       -2.72612   0.00140   0.00000   0.00489   0.00504  -2.72108
   D78        1.44980   0.00278   0.00000   0.03092   0.03096   1.48076
   D79        1.27797  -0.00238   0.00000  -0.03757  -0.03748   1.24049
   D80       -0.82365  -0.00303   0.00000  -0.04167  -0.04166  -0.86531
   D81       -2.93091  -0.00165   0.00000  -0.01565  -0.01574  -2.94665
   D82       -2.82443   0.00049   0.00000   0.00645   0.00663  -2.81780
   D83        1.35713  -0.00016   0.00000   0.00234   0.00246   1.35959
   D84       -0.75013   0.00122   0.00000   0.02836   0.02837  -0.72176
   D85        2.15627  -0.00061   0.00000  -0.02027  -0.02055   2.13572
   D86        0.03301  -0.00021   0.00000   0.00250   0.00237   0.03539
   D87       -2.07165   0.00062   0.00000   0.01702   0.01705  -2.05459
   D88        0.03652  -0.00210   0.00000  -0.03327  -0.03377   0.00275
   D89       -2.08674  -0.00171   0.00000  -0.01050  -0.01085  -2.09759
   D90        2.09179  -0.00087   0.00000   0.00403   0.00383   2.09562
   D91       -2.05451   0.00157   0.00000   0.01208   0.01183  -2.04268
   D92        2.10541   0.00196   0.00000   0.03485   0.03476   2.14017
   D93        0.00075   0.00280   0.00000   0.04937   0.04944   0.05019
   D94       -0.01172   0.00093   0.00000   0.01930   0.01949   0.00777
   D95        2.09907  -0.00098   0.00000  -0.00548  -0.00546   2.09360
   D96       -2.09412   0.00082   0.00000   0.01115   0.01130  -2.08282
   D97        2.07828  -0.00110   0.00000  -0.00444  -0.00449   2.07378
   D98       -2.09413  -0.00301   0.00000  -0.02922  -0.02944  -2.12357
   D99       -0.00413  -0.00121   0.00000  -0.01258  -0.01269  -0.01681
   D100      -2.13542   0.00234   0.00000   0.04068   0.04095  -2.09447
   D101      -0.02464   0.00043   0.00000   0.01590   0.01600  -0.00864
   D102       2.06536   0.00223   0.00000   0.03254   0.03276   2.09812
         Item               Value     Threshold  Converged?
 Maximum Force            0.012367     0.000450     NO 
 RMS     Force            0.002508     0.000300     NO 
 Maximum Displacement     0.132795     0.001800     NO 
 RMS     Displacement     0.033762     0.001200     NO 
 Predicted change in Energy=-4.203702D-03
 GradGradGradGradGradGradGradGradGradGradGradGradGradGradGradGradGradGrad

                          Input orientation:                          
 ---------------------------------------------------------------------
 Center     Atomic      Atomic             Coordinates (Angstroms)
 Number     Number       Type             X           Y           Z
 ---------------------------------------------------------------------
      1          8           0       -2.568177   -0.309500   -0.165471
      2          6           0       -0.161904   -0.706511    0.325920
      3          6           0        1.090980   -0.013792   -0.276306
      4          6           0        0.441393    1.392946   -0.315448
      5          6           0       -1.249714   -0.309812   -0.700055
      6          6           0       -0.417024    0.144243    1.582728
      7          6           0       -0.838492    1.123270   -1.134479
      8          6           0        0.003045    1.586160    1.150876
      9          6           0       -0.075591   -2.199741    0.588916
     10          6           0        1.495763   -0.546393   -1.652809
     11          6           0        2.326968   -0.094636    0.618311
     12          1           0        1.067607    2.203729   -0.711225
     13          1           0       -1.215135   -1.004299   -1.555460
     14          1           0        0.191713   -0.233573    2.414365
     15          1           0       -1.464662    0.079662    1.895650
     16          1           0       -1.632329    1.842939   -0.907345
     17          1           0       -0.644631    1.172354   -2.213674
     18          1           0       -0.822207    2.304327    1.221691
     19          1           0        0.823695    1.975638    1.767334
     20          1           0        0.737390   -2.427680    1.290930
     21          1           0       -1.005115   -2.581335    1.036454
     22          1           0        0.107404   -2.761197   -0.338920
     23          1           0        2.305352    0.069730   -2.065528
     24          1           0        1.870543   -1.575667   -1.567638
     25          1           0        0.681366   -0.552332   -2.385988
     26          1           0        3.123574    0.539781    0.207781
     27          1           0        2.145228    0.227334    1.649777
     28          1           0        2.706002   -1.125267    0.654207
     29          1           0       -2.778141   -1.198877    0.128004
 ---------------------------------------------------------------------
                    Distance matrix (angstroms):
                    1          2          3          4          5
     1  O    0.000000
     2  C    2.487816   0.000000
     3  C    3.672759   1.553144   0.000000
     4  C    3.460973   2.276629   1.549970   0.000000
     5  C    1.422718   1.547037   2.397090   2.430463   0.000000
     6  C    2.808833   1.538972   2.398970   2.428829   2.471970
[...]
 6792,0.00006090,-0.00013576,-0.00008237,-0.00001874,-0.00001108,0.0000
 3225,-0.00001910,0.00001320,0.00003418,0.00003339,0.00001374,-0.000020
 21,0.00006338,-0.00002322,-0.00011888,-0.00003810,-0.00002150,-0.00001
 669,-0.00014219,0.22805857,-0.00011323,-0.00000934,0.00003028,0.000272
 40,-0.00109536,-0.00205157,0.01043337,0.00595393,-0.00468443,0.0001848
 6,0.00139209,0.00036649,0.00003936,0.00000931,-0.00020815,0.00064123,0
 .00022351,-0.00030465,-0.00004736,0.00001797,0.00010888,-0.00015052,0.
 00017092,-0.00006718,-0.00012562,-0.00024644,-0.00029231,-0.10660329,-
 0.11260235,0.04475245,0.00047152,0.00036591,0.00006743,-0.00040035,-0.
 00007406,0.00020232,0.00015392,-0.00004542,0.00003490,-0.00001744,-0.0
 0003793,-0.00000260,0.00009832,-0.00007463,-0.00020766,0.00001826,-0.0
 0000413,0.00001452,-0.00002326,-0.00001092,0.00006260,-0.00002101,0.00
 000091,0.00006186,0.00001059,0.00000413,0.00000068,0.00003320,0.000031
 35,0.00005094,-0.00001045,0.00016813,0.00015176,0.00011145,0.00039145,
 0.00017471,0.11661722,0.11931999,0.00002485,0.00007626,0.00055344,-0.0
 0072454,-0.00335141,-0.00442695,0.02452475,0.01617166,-0.01177936,-0.0
 0053959,0.00089079,0.00101036,-0.00096538,-0.00031191,-0.00097694,0.00
 181715,0.00059508,-0.00030736,-0.00015942,-0.00006282,-0.00001856,-0.0
 0015652,0.00027717,-0.00008658,0.00000110,-0.00054065,0.00009961,0.067
 64427,0.04440905,-0.07232204,0.00135828,0.00080706,0.00081473,0.000057
 32,-0.00058995,0.00016888,0.00001298,0.00037924,0.00043005,-0.00002935
 ,0.00004073,-0.00006473,0.00007388,-0.00038194,-0.00060454,-0.00001331
 ,0.00001873,0.00003857,0.00001624,-0.00010194,0.00000945,-0.00005180,-
 0.00005488,0.00004336,-0.00002079,-0.00009562,-0.00005678,-0.00002446,
 0.00005811,-0.00002918,0.00001974,0.00014254,0.00000462,-0.00010329,0.
 00006179,0.00007015,-0.07648664,-0.04644021,0.08219727,-0.00000758,-0.
 00021099,-0.00001609,0.00028991,0.00066089,-0.00058991,-0.00411284,0.0
 0954827,-0.00078730,-0.00008881,-0.00028736,0.00175208,0.00022196,0.00
 043780,0.00000034,0.00007669,0.00000635,0.00006397,0.00012602,0.000266
 99,-0.00012550,-0.00019639,0.00062004,-0.00006558,0.00003025,0.0002816
 7,0.00059614,-0.06198891,0.06495096,-0.00610853,-0.00004844,-0.0009082
 1,-0.00046759,-0.00005479,0.00027515,-0.00001246,-0.00002165,-0.000092
 54,-0.00031954,0.00001034,-0.00001122,0.00002191,-0.00000675,-0.000015
 14,-0.00002521,-0.00001138,-0.00003605,0.00020238,-0.00001035,-0.00017
 733,0.00037459,-0.00000715,-0.00001793,0.00025308,0.00000355,-0.000036
 99,0.00008258,-0.00000830,-0.00003868,-0.00008220,0.00006280,-0.000128
 80,-0.00029976,-0.00081671,-0.00099574,0.00053230,0.00726754,-0.025246
 40,0.00150296,0.06470013,0.00015676,0.00011888,-0.00004725,-0.00061939
 ,-0.00042269,0.00021823,0.00385405,-0.01136098,0.00059832,-0.00034961,
 0.00131385,-0.00268939,-0.00006268,-0.00016540,-0.00004587,0.00007423,
 -0.00000187,0.00008069,-0.00048092,0.00018455,-0.00010925,0.00063068,-
 0.00068968,0.00036775,-0.00019499,-0.00019601,-0.00012680,0.06450654,-
 0.28683829,0.01859823,0.00030605,0.00008268,0.00088020,-0.00011094,0.0
 0020061,0.00013067,0.00024762,-0.00012197,-0.00002874,-0.00000934,0.00
 004866,-0.00007685,0.00003617,0.00001093,-0.00006659,0.00007020,0.0000
 2714,0.00001745,-0.00010832,0.00007113,0.00001366,0.00004831,-0.000035
 48,-0.00038145,-0.00005039,-0.00001804,-0.00008644,0.00013547,0.000019
 75,-0.00004534,-0.00003785,0.00027373,0.00013041,-0.00061149,0.0000569
 6,0.00084351,0.00503862,-0.01486335,0.00095480,-0.07147867,0.31251131,
 0.00000359,0.00002392,0.00004118,-0.00027878,0.00003329,0.00141307,0.0
 0726738,-0.03010232,0.00238224,0.00042486,-0.00040713,-0.00568212,-0.0
 0001680,0.00015252,-0.00003665,-0.00038158,-0.00022958,0.00010075,-0.0
 0066529,0.00035143,-0.00049401,0.00116962,-0.00149757,0.00024191,0.000
 16677,0.00013642,-0.00004204,-0.00622147,0.01880487,-0.04668743,0.0010
 0007,-0.00091059,0.00125316,-0.00011267,-0.00005428,-0.00003778,0.0000
 2531,0.00006636,-0.00003283,-0.00000069,0.00004514,-0.00006682,-0.0000
 0026,0.00008416,0.00005758,0.00005411,0.00001284,0.00020371,0.00013987
 ,-0.00011443,0.00037353,0.00023335,-0.00006186,-0.00063975,-0.00005395
 ,-0.00001401,0.00003395,-0.00012269,0.00004389,-0.00017729,-0.00017354
 ,0.00007659,0.00010010,0.00081329,0.00068794,-0.00033046,-0.00350977,0
 .00957975,-0.00193660,0.00437152,-0.01840639,0.05212719,-0.00008002,0.
 00009720,0.00050207,0.00017890,-0.00068548,-0.00062747,0.00802123,-0.0
 0204205,0.00554795,0.00038403,0.00008482,-0.00089425,-0.00265922,0.000
 02634,0.00090363,0.00002432,0.00003607,-0.00016880,-0.00146265,0.00106
 086,0.00061091,0.00007500,-0.00015851,-0.00011462,0.00001111,-0.000007
 64,-0.00007070,-0.18790664,0.01678900,-0.13365906,0.00024571,0.0004989
 4,0.00092150,-0.00007813,-0.00000248,-0.00010099,-0.00262387,-0.000229
 46,0.00174563,0.00000370,-0.00003614,-0.00003710,0.00002443,-0.0000218
 7,-0.00004672,0.00008626,-0.00017132,0.00020715,-0.00079703,0.00118874
 ,0.00051418,0.00004320,-0.00003345,-0.00003674,-0.00000183,-0.00000388
 ,-0.00002220,-0.00000182,0.00001282,0.00001969,0.00002276,0.00000230,-
 0.00002610,-0.00001052,0.00002115,-0.00011024,-0.01722755,0.00373772,-
 0.01669581,-0.00552206,-0.00045268,-0.00358670,0.20855490,0.00018198,-
 0.00027351,-0.00014958,0.00018687,-0.00003842,0.00031459,-0.00988769,-
 0.00023081,-0.00592169,-0.00078069,0.00033893,0.00039306,0.00000030,0.
 00085640,0.00032379,-0.00010889,0.00008599,0.00001894,0.00119155,-0.00
 071744,-0.00109696,0.00002501,0.00014812,0.00010183,-0.00004509,0.0000
 6627,0.00010400,0.01724838,-0.04763780,0.01523187,0.00109781,-0.000769
 70,-0.00234401,-0.00006138,-0.00012751,-0.00000982,-0.00116057,-0.0000
 4299,0.00032628,-0.00002019,-0.00005300,0.00002111,0.00000878,-0.00001
 521,0.00000972,-0.00013904,-0.00004205,0.00018668,0.00168860,-0.001344
 11,-0.00008095,-0.00000188,-0.00001198,0.00003085,-0.00000848,0.000020
 25,0.00010936,0.00002692,-0.00005036,-0.00013932,-0.00004975,0.0000239
 4,-0.00000801,0.00013871,-0.00007315,-0.00004336,-0.01191125,0.0012161
 1,-0.01222209,0.02285633,-0.00103319,0.02085349,-0.01999786,0.04859397
 ,-0.00048794,0.00015093,0.00101866,-0.00086388,0.00018064,0.00060234,-
 0.02284882,0.00401999,-0.01555988,-0.00094702,0.00060212,0.00036220,0.
 00103503,-0.00012130,-0.00180264,0.00016082,-0.00002818,0.00013050,-0.
 00016715,-0.00035687,-0.00011786,-0.00006598,0.00016017,0.00016465,0.0
 0024625,-0.00001353,-0.00002577,-0.13173525,0.01456120,-0.17101349,0.0
 0303443,-0.00230868,-0.00566087,0.00014644,-0.00009555,-0.00001297,0.0
 0116491,0.00080310,0.00064889,-0.00004464,0.00001509,0.00019949,0.0000
 1848,-0.00005782,-0.00007557,0.00000476,0.00014739,0.00042564,0.000142
 96,-0.00023094,0.00073190,0.00010239,-0.00003904,0.00000682,0.00000092
 ,0.00011209,0.00013760,0.00000022,-0.00012781,0.00016638,0.00004282,0.
 00009238,-0.00002904,-0.00007635,0.00011644,-0.00009168,0.00847558,-0.
 00174760,0.00758418,-0.00044532,-0.00005511,-0.00165657,0.14449445,-0.
 01550550,0.18475165,-0.00115235,0.00021429,-0.00046662,-0.00267551,0.0
 0150235,-0.00500820,-0.02141189,-0.01695385,0.01004360,0.00121574,-0.0
 0100913,0.00091926,-0.00034747,-0.00092046,0.00159202,0.00028568,-0.00
 033489,-0.00053940,0.00015629,-0.00009249,-0.00015749,-0.00003807,-0.0
 0015690,-0.00000340,0.00005710,0.00062050,-0.00025676,0.00032963,0.000
 26365,0.00135518,-0.17289774,-0.11525383,0.06393406,-0.00015982,0.0008
 9420,-0.00031948,-0.00000618,0.00001244,-0.00016327,0.00009073,0.00008
 685,-0.00008061,-0.00002628,0.00011318,0.00001016,0.00007470,0.0000847
 8,0.00001734,-0.00000516,0.00005415,-0.00004759,0.00002461,0.00008039,
 0.00001292,-0.00006469,0.00007467,0.00023843,0.00018250,0.00000002,0.0
 0017092,0.00006798,-0.00015857,0.00013224,-0.00003252,-0.00006660,-0.0
 0003601,0.00058928,-0.00012198,-0.00081827,0.00003855,0.00013779,-0.00
 001091,0.00025448,0.00041971,-0.00003432,0.19095748,-0.00002375,0.0000
 4278,-0.00000600,0.00117520,0.00005556,0.00003470,0.00263932,0.0012937
 2,-0.00075067,0.00042964,0.00111018,-0.00056770,0.00025087,0.00014095,
 0.00006705,0.00024500,0.00012894,-0.00013397,-0.00003241,0.00002439,-0
 .00000781,-0.00019307,0.00021972,0.00001728,0.00007723,0.00004972,0.00
 028669,-0.00008395,-0.00030598,0.00013454,-0.11479614,-0.14574578,0.05
 583498,-0.00055800,0.00016442,0.00012878,-0.00002302,-0.00003661,0.000
 01706,0.00013757,-0.00012117,0.00009004,0.00003749,-0.00001748,0.00010
 181,-0.00004084,-0.00000043,-0.00003120,-0.00000866,0.00001369,-0.0000
 3618,-0.00005536,-0.00004561,-0.00002579,-0.00024842,-0.00001807,-0.00
 008063,-0.00003818,0.00019546,-0.00034591,-0.00015277,0.00005963,-0.00
 012094,0.00002652,0.00000021,-0.00003401,-0.00012403,0.00011198,-0.000
 68558,-0.00013961,0.00000604,0.00012403,0.00027112,0.00012176,-0.00018
 224,0.12584954,0.15487150,-0.00049968,0.00014148,-0.00012713,-0.002581
 07,0.00027653,-0.00289956,-0.01368133,-0.01294384,0.00584134,0.0007124
 0,-0.00037289,0.00083245,-0.00052620,-0.00039653,0.00084431,0.00038205
 ,0.00017444,-0.00070044,0.00014612,-0.00025062,-0.00003449,0.00012473,
 0.00030669,0.00004615,-0.00008407,0.00030130,-0.00017341,-0.00083507,-
 0.00051872,0.00113205,0.06402364,0.05640376,-0.07679725,0.00029917,0.0
 0017808,0.00001621,0.00005917,-0.00006176,-0.00000971,0.00003754,-0.00
 017819,0.00054519,0.00010988,-0.00006953,0.00024437,0.00007067,0.00003
 332,0.00000892,-0.00001808,0.00002261,-0.00001960,0.00000480,-0.000066
 40,0.00001422,-0.00001426,0.00003032,-0.00020310,0.00008321,-0.0002048
 1,0.00002299,0.00004124,-0.00005357,0.00005981,0.00005458,-0.00000905,
 0.00004969,0.00002658,0.00014322,-0.00078408,0.00000370,0.00003271,-0.
 00006538,0.00023751,0.00018660,0.00017256,-0.06693758,-0.06161212,0.08
 167151,0.00014499,0.00003206,0.00019087,0.00126336,-0.00057483,0.00012
 962,0.00872582,-0.00765711,-0.02403962,0.00097794,-0.00023753,0.000092
 47,0.00025248,0.00020137,-0.00005107,-0.00264412,0.00030315,0.00005137
 ,0.00017555,-0.00007507,0.00013931,-0.00143528,0.00138352,0.00010335,-
 0.00007509,-0.00000191,0.00017099,-0.00456001,0.00057875,-0.00269629,-
 0.05595795,0.01280320,0.04969654,-0.00006993,0.00005505,0.00010499,0.0
 0013887,0.00003286,0.00013918,0.00075588,0.00031150,-0.00001349,0.0002
 0810,-0.00002079,0.00003001,-0.00003143,0.00001570,0.00005498,0.000073
 72,-0.00003884,0.00008631,0.00005602,-0.00022721,0.00008333,-0.0014128
 7,0.00221063,0.00017710,0.00005889,-0.00007501,0.00004764,0.00001768,-
 0.00004210,0.00002753,0.00003868,0.00013407,0.00003219,0.00007796,0.00
 027210,-0.00014594,-0.00013741,-0.00009806,0.00011934,0.00049836,-0.00
 054834,-0.00170878,-0.00438025,0.00689650,0.02020028,0.06062146,-0.000
 01243,-0.00005237,0.00006977,0.00003187,0.00018742,-0.00051080,-0.0018
 3130,-0.00116270,0.00203226,-0.00060669,-0.00009752,0.00021018,-0.0000
 6108,0.00007250,-0.00004516,0.00003087,0.00034759,-0.00042253,0.000052
 95,0.00006422,-0.00017083,0.00172143,-0.00068329,0.00020252,-0.0001372
 9,0.00014966,-0.00022564,-0.00029740,0.00021002,-0.00002548,0.01243430
 ,-0.05971041,-0.06039711,0.00002224,-0.00000641,0.00006590,0.00001897,
 -0.00001491,0.00002816,-0.00000203,0.00039911,0.00036793,0.00004415,-0
 .00022107,0.00013633,-0.00001674,-0.00001030,0.00000300,-0.00005871,-0
 .00005584,-0.00003813,-0.00013209,-0.00002927,0.00004686,0.00267551,-0
 .00336129,-0.00034858,0.00018183,-0.00028487,0.00008177,0.00004876,0.0
 0001641,0.00010055,0.00015674,0.00004963,0.00012591,0.00033044,-0.0000
 3582,-0.00017037,-0.00002668,0.00045680,0.00034022,0.00012604,0.000623
 99,-0.00016350,-0.00320283,0.00513508,0.01998134,-0.01695180,0.0637010
 7,-0.00017146,0.00009131,0.00028713,0.00062738,0.00024577,-0.00062725,
 0.00542351,-0.00461133,-0.01566876,0.00026644,-0.00054706,-0.00045757,
 0.00024005,-0.00013892,-0.00015216,0.00124182,-0.00052304,-0.00027624,
 0.00000581,0.00001193,0.00016981,0.00036991,-0.00015911,-0.00049290,-0
 .00018738,-0.00003978,0.00007527,-0.00441608,0.00099650,-0.00185355,0.
 04756938,-0.05962367,-0.29047285,-0.00005299,0.00000768,0.00001660,0.0
 0008749,0.00008537,0.00008761,0.00016071,-0.00027216,0.00088528,0.0002
 1175,-0.00005868,0.00039155,-0.00013198,0.00004205,0.00002366,0.000088
 21,-0.00002751,0.00010141,0.00038194,0.00013284,0.00034872,0.00054579,
 0.00013783,0.00075323,-0.00014316,-0.00027062,-0.00014422,-0.00003193,
 -0.00008735,0.00003746,0.00007247,0.00012701,0.00006010,-0.00009873,0.
 00006999,0.00048795,0.00008229,-0.00005826,0.00023016,0.00028555,-0.00
 066663,-0.00110823,0.00117854,-0.00283903,-0.00899174,-0.05331382,0.06
 744505,0.31564708,0.00003185,-0.00021666,0.00009908,0.00119603,0.00093
 389,0.00037709,-0.01057046,0.02672513,0.00073316,-0.00321408,-0.002055
 49,-0.00297286,0.00006292,0.00031581,-0.00027914,0.00001007,0.00002390
 ,-0.00000963,-0.00072181,0.00138959,0.00028595,0.00027637,-0.00025650,
 -0.00053197,-0.00019313,-0.00002031,-0.00023793,0.00060222,0.00064664,
 0.00133914,-0.07884224,0.08864444,0.00287478,-0.00003317,0.00023138,-0
 .00012663,-0.00005332,-0.00008812,-0.00006531,-0.00000880,0.00002378,0
 .00005968,-0.00005270,0.00000931,0.00000810,-0.00045790,-0.00014130,-0
 .00035715,-0.00004676,-0.00002673,-0.00007600,-0.00005920,-0.00001739,
 0.00004342,-0.00007857,-0.00008681,0.00006813,-0.00084606,-0.00083136,
 0.00070329,0.00032116,-0.00009939,0.00012758,-0.00002713,-0.00011651,-
 0.00006865,-0.00003556,-0.00024642,-0.00007057,0.00028448,-0.00059686,
 -0.00069156,-0.00005579,-0.00029573,0.00035755,0.00876471,-0.02158719,
 -0.00144605,-0.00333341,0.00549341,-0.00028936,0.08715851,0.00021147,0
 .00010370,0.00004337,0.00008874,-0.00024562,0.00052717,0.00122228,-0.0
 0207188,0.00000316,0.00007333,0.00156268,0.00027250,-0.00006167,-0.000
 08241,-0.00017671,0.00004201,-0.00004253,0.00003638,0.00001865,-0.0002
 7381,-0.00025234,-0.00028100,0.00001101,0.00007188,-0.00001335,-0.0001
 2950,0.00036228,-0.00065464,0.00057265,-0.00076892,0.08865664,-0.27107
 238,-0.00724953,-0.00016588,0.00014756,-0.00010558,0.00003237,0.000057
 80,0.00004560,0.00004411,-0.00007111,0.00000054,0.00004155,0.00002947,
 0.00000963,0.00007653,0.00005607,0.00014180,0.00006097,0.00001556,0.00
 008719,0.00008210,0.00002906,0.00001833,-0.00000127,0.00018558,0.00018
 161,-0.00080914,-0.00020384,-0.00002260,-0.00012246,0.00014028,-0.0001
 5381,0.00014367,-0.00000966,-0.00008849,0.00016503,-0.00026028,0.00012
 588,-0.00007579,0.00039266,0.00039401,-0.00011989,0.00038324,0.0000126
 2,0.00777602,-0.01745573,-0.00150655,0.00133977,-0.00569682,0.00053105
 ,-0.09777632,0.29395614,0.00004787,-0.00008606,0.00003064,0.00051087,-
 0.00029272,0.00023231,-0.00648145,0.01885069,-0.00095994,-0.00296070,-
 0.00114367,-0.00265103,0.00009885,0.00034286,-0.00005694,0.00007497,-0
 .00020704,-0.00013402,-0.00070239,0.00105604,0.00045123,0.00019181,-0.
 00068062,-0.00064629,0.00017065,-0.00014674,0.00043409,-0.00060740,0.0
 0139441,0.00048691,0.00337684,-0.00798993,-0.04579553,0.00016361,-0.00
 021486,0.00001549,-0.00001891,-0.00006611,-0.00002216,-0.00004726,-0.0
 0014582,0.00004739,0.00007685,-0.00001370,0.00005448,-0.00041626,-0.00
 006643,-0.00022123,0.00003996,0.00005414,-0.00002912,0.00020155,0.0000
 8793,0.00024194,0.00037616,0.00038096,0.00029293,0.00031238,0.00027812
 ,-0.00012715,-0.00004704,-0.00006470,-0.00011078,-0.00007359,-0.000070
 69,-0.00011817,0.00019433,0.00014445,-0.00001305,-0.00051078,-0.000625
 59,-0.00068913,0.00027292,-0.00011169,0.00023483,-0.00474072,0.0105885
 5,-0.00067121,0.01033370,-0.02870218,0.00069759,0.00016902,0.00747290,
 0.04901067,-0.06241423,-0.08027799,0.03101751,-0.00023405,-0.00116177,
 -0.00040590,-0.00002588,-0.00035829,0.00042870,-0.00023441,-0.00085145
 ,0.00040728,-0.01263929,-0.04073098,0.00846147,-0.00014437,0.00005691,
 -0.00030285,-0.00474209,0.00168421,0.00223907,0.00003466,-0.00001318,0
 .00017381,-0.00039617,0.00000740,0.00059091,0.00016368,0.00009753,0.00
 001073,0.00011327,0.00019600,-0.00014209,-0.00024330,0.00005514,-0.000
 28246,0.00121528,0.00049863,0.00069644,0.00012165,0.00000204,0.0000208
 2,-0.00006215,-0.00036105,-0.00050585,0.00003702,0.00017143,-0.0000732
 9,-0.00042631,-0.00082636,0.00002127,-0.00002950,0.00004516,-0.0000189
 9,0.00008452,0.00008883,-0.00006960,0.00054187,0.00010620,-0.00009661,
 -0.00015356,0.00121800,-0.00104418,-0.00001738,0.00002970,-0.00002183,
 0.00007355,0.00003179,-0.00004784,-0.00007267,0.00001970,0.00003760,-0
 .00000127,-0.00005410,-0.00000257,0.00010846,0.00006940,0.00000614,-0.
 00004799,-0.00003245,-0.00000213,-0.00007822,0.00000616,-0.00000584,0.
 07946885,-0.12557444,-0.49812932,0.09471574,0.00078457,0.00064681,-0.0
 0044535,0.00025012,-0.00041601,0.00028011,-0.00009239,-0.00001529,0.00
 030993,0.00400455,-0.00040737,-0.00176685,-0.00024543,-0.00021182,-0.0
 0008546,0.00000220,0.00078869,0.00075909,0.00013095,-0.00013031,0.0000
 3520,-0.00003915,0.00063942,-0.00073214,0.00001370,0.00010010,-0.00005
 518,0.00007221,0.00018407,-0.00009289,0.00003093,0.00003492,-0.0000747
 6,0.00119564,0.00095920,-0.00052452,0.00007647,0.00005804,0.00006230,-
 0.00031911,-0.00039428,-0.00045927,-0.00027366,0.00087961,0.00003468,-
 0.00048346,-0.00017980,-0.00001224,-0.00001974,0.00002052,0.00001472,0
 .00001893,0.00005910,-0.00002296,-0.00032085,-0.00020081,0.00004032,0.
 00014618,-0.00029176,0.00078858,0.00018592,-0.00009123,-0.00020986,0.0
 0005602,-0.00001768,0.00000045,0.00001969,-0.00002874,-0.00001273,0.00
 000960,-0.00001773,0.00005952,0.00008699,0.00000112,0.00003218,-0.0000
 2161,0.00000938,-0.00000121,0.00002180,-0.00002789,-0.00002248,0.12028
 337,0.49617906,0.03424968,0.07632569,-0.02276063,-0.00053284,-0.001100
 77,0.00082799,-0.00026921,0.00005554,0.00000678,0.00034791,0.00067602,
 -0.00040911,0.00497016,0.01615436,-0.00361974,-0.00098280,0.00035994,-
 0.00028896,0.00325403,-0.00029505,-0.00004195,0.00039249,-0.00009858,0
 .00001937,-0.00053097,-0.00032643,0.00062379,0.00009516,-0.00002801,0.
 00018410,0.00000050,0.00000078,-0.00005014,0.00015273,-0.00001005,0.00
 003735,-0.00029920,0.00052527,-0.00025351,0.00002155,-0.00000906,-0.00
 009322,-0.00005017,-0.00077401,-0.00053294,-0.00008579,-0.00024255,0.0
 0002853,-0.00001699,0.00040700,-0.00018638,0.00001408,0.00008032,0.000
 02593,0.00003077,0.00013977,-0.00006003,0.00028627,-0.00009423,-0.0002
 4129,-0.00020652,0.00096675,-0.00035344,0.00040338,-0.00016046,-0.0002
 7352,-0.00005554,-0.00001086,-0.00010588,0.00001595,-0.00001732,0.0000
 1634,-0.00006563,0.00008745,-0.00018371,0.00001598,0.00003426,-0.00002
 467,-0.00004210,-0.00001747,-0.00005513,-0.00002316,-0.00001337,0.0000
 1526,-0.04108972,-0.09261495,0.02774880\\-0.00000915,-0.00001578,0.000
 01723,0.00002004,0.00001276,-0.00001408,-0.00002401,-0.00000758,0.0000
 1654,0.00002642,-0.00000202,0.00000698,-0.00000078,0.00001535,0.000008
 23,0.00000458,0.00001162,-0.00000671,-0.00002981,-0.00002030,-0.000004
 13,-0.00000471,0.00001168,0.00000039,-0.00000487,-0.00000437,0.0000096
 5,0.00001081,0.00000192,0.00000712,0.00000535,-0.00000261,-0.00001744,
 -0.00000548,0.00000196,-0.00000641,-0.00000374,-0.00000428,-0.00000190
 ,0.00000396,0.00000296,0.00000841,0.00000495,0.00000107,0.00000017,0.0
 0000642,0.00000079,-0.00000931,0.00000316,-0.00000593,-0.00001214,0.00
 000606,0.00000193,-0.00000614,0.00000762,0.00000435,-0.00000065,-0.000
 00045,0.00000552,0.00000625,-0.00000373,0.00000432,0.00000047,0.000002
 15,-0.00000177,0.00000231,-0.00000328,-0.00000571,0.00000063,-0.000003
 63,-0.00000659,0.00000041,-0.00000537,-0.00001091,-0.00000417,-0.00000
 058,-0.00000264,-0.00000227,-0.00000048,-0.00000161,0.00000499,-0.0000
 0023,-0.00000484,0.00000494,-0.00000118,0.00002070,-0.00000936\\\@


 IT MATTERS NOT HOW DEEP YOU PLOW,
 BUT HOW LONG YOU STAY IN THE FURROW.
 Job cpu time:       0 days  7 hours 39 minutes 13.8 seconds.
 Elapsed time:       0 days  0 hours 28 minutes 49.3 seconds.
 File lengths (MBytes):  RWF=    334 Int=      0 D2E=      0 Chk=     13 Scr=      1
 Normal termination of Gaussian 16 at Thu Sep 18 12:15:34 2025.
