 Entering Gaussian System, Link 0=g16
 Input=BTAL0010.gjf
 Output=BTAL0010.log
 Initial command:
 /usr/local/g16/l1.exe "/dados_01/scratch/Gau-2346616.inp" -scrdir="/dados_01/scratch/"
 Entering Link 1 = /usr/local/g16/l1.exe PID=   2346617.
  
 Copyright (c) 1988-2017, Gaussian, Inc.  All Rights Reserved.
  
 This is part of the Gaussian(R) 16 program.  It is based on
 the Gaussian(R) 09 system (copyright 2009, Gaussian, Inc.),
 the Gaussian(R) 03 system (copyright 2003, Gaussian, Inc.),
 the Gaussian(R) 98 system (copyright 1998, Gaussian, Inc.),
 the Gaussian(R) 94 system (copyright 1995, Gaussian, Inc.),
 the Gaussian 92(TM) system (copyright 1992, Gaussian, Inc.),
 the Gaussian 90(TM) system (copyright 1990, Gaussian, Inc.),
 the Gaussian 88(TM) system (copyright 1988, Gaussian, Inc.),
 the Gaussian 86(TM) system (copyright 1986, Carnegie Mellon
 University), and the Gaussian 82(TM) system (copyright 1983,
 Carnegie Mellon University). Gaussian is a federally registered
 trademark of Gaussian, Inc.
  
 This software contains proprietary and confidential information,
 including trade secrets, belonging to Gaussian, Inc.
  
 This software is provided under written license and may be
 used, copied, transmitted, or stored only in accord with that
 written license.
  
 The following legend is applicable only to US Government
 contracts under FAR:
  
                    RESTRICTED RIGHTS LEGEND
  
 Use, reproduction and disclosure by the US Government is
 subject to restrictions as set forth in subparagraphs (a)
 and (c) of the Commercial Computer Software - Restricted
 Rights clause in FAR 52.227-19.
  
 Gaussian, Inc.
 340 Quinnipiac St., Bldg. 40, Wallingford CT 06492
  
  
 ---------------------------------------------------------------
 Warning -- This program may not be used in any manner that
 competes with the business of Gaussian, Inc. or will provide
 assistance to any competitor of Gaussian, Inc.  The licensee
 of this program is prohibited from giving any competitor of
 Gaussian, Inc. access to this program.  By using this program,
 the user acknowledges that Gaussian, Inc. is engaged in the
 business of creating and licensing software in the field of
 computational chemistry and represents and warrants to the
 licensee that it is not a competitor of Gaussian, Inc. and that
 it will not use this program in any manner prohibited above.
 ---------------------------------------------------------------
  

 Cite this work as:
 Gaussian 16, Revision B.01,
 M. J. Frisch, G. W. Trucks, H. B. Schlegel, G. E. Scuseria, 
 M. A. Robb, J. R. Cheeseman, G. Scalmani, V. Barone, 
 G. A. Petersson, H. Nakatsuji, X. Li, M. Caricato, A. V. Marenich, 
 J. Bloino, B. G. Janesko, R. Gomperts, B. Mennucci, H. P. Hratchian, 
 J. V. Ortiz, A. F. Izmaylov, J. L. Sonnenberg, D. Williams-Young, 
 F. Ding, F. Lipparini, F. Egidi, J. Goings, B. Peng, A. Petrone, 
 T. Henderson, D. Ranasinghe, V. G. Zakrzewski, J. Gao, N. Rega, 
 G. Zheng, W. Liang, M. Hada, M. Ehara, K. Toyota, R. Fukuda, 
 J. Hasegawa, M. Ishida, T. Nakajima, Y. Honda, O. Kitao, H. Nakai, 
 T. Vreven, K. Throssell, J. A. Montgomery, Jr., J. E. Peralta, 
 F. Ogliaro, M. J. Bearpark, J. J. Heyd, E. N. Brothers, K. N. Kudin, 
 V. N. Staroverov, T. A. Keith, R. Kobayashi, J. Normand, 
 K. Raghavachari, A. P. Rendell, J. C. Burant, S. S. Iyengar, 
 J. Tomasi, M. Cossi, J. M. Millam, M. Klene, C. Adamo, R. Cammi, 
 J. W. Ochterski, R. L. Martin, K. Morokuma, O. Farkas, 
 J. B. Foresman, and D. J. Fox, Gaussian, Inc., Wallingford CT, 2016.
 
 ******************************************
 Gaussian 16:  ES64L-G16RevB.01 20-Dec-2017
                30-Sep-2025 
 ******************************************
 %nprocs=16
 Will use up to   16 processors via shared memory.
 %mem=40GB
 %chk=BTAL0010.chk
 ----------------------------------------------------------------------
 # opt freq=noraman M08HX/6-311++G** scf=xqc Empiricaldispersion=pfd In
 t(Grid=ultraFine)
 ----------------------------------------------------------------------
 1/18=20,19=15,26=4,38=1/1,3;
 2/9=110,12=2,17=6,18=5,40=1/2;
 3/5=4,6=6,7=1111,11=2,25=1,30=1,71=1,74=-74,75=-5,124=11/1,2,3;
 4//1;
 5/5=2,8=3,13=1,38=5/2,8;
 6/7=2,8=2,9=2,10=2,28=1/1;
 7//1,2,3,16;
 1/18=20,19=15,26=4/3(2);
 2/9=110/2;
 99//99;
 2/9=110/2;
 3/5=4,6=6,7=1111,11=2,25=1,30=1,71=1,74=-74,75=-5,124=11/1,2,3;
 4/5=5,16=3,69=1/1;
 5/5=2,8=3,13=1,38=5/2,8;
 7//1,2,3,16;
 1/18=20,19=15,26=4/3(-5);
 2/9=110/2;
 6/7=2,8=2,9=2,10=2,19=2,28=1/1;
 99/9=1/99;
 --------
 BTAL0010
 --------
 Symbolic Z-matrix:
 Charge =  0 Multiplicity = 1
 O                    -2.4187    0.3489   -0.0069 
 C                    -0.0245    0.3421    0.0194 
 C                     1.236    -0.5181    0.0058 
 C                    -1.2861   -0.509    -0.0059 
 C                     2.4934    0.3361   -0.0125 
 H                    -0.0362    0.9861    0.9077 
 H                    -0.0261    1.0212   -0.8425 
 H                     1.2331   -1.1695   -0.8759 
 H                     1.2529   -1.1673    0.8889 
 H                    -1.3272   -1.1426   -0.8975 
 H                    -1.3449   -1.1505    0.8787 
 H                     2.5228    0.9724   -0.9027 
 H                     2.5432    0.9795    0.8718 
 H                     3.3838   -0.3002   -0.0202 
 H                    -2.3753    0.892    -0.8123 
 

 GradGradGradGradGradGradGradGradGradGradGradGradGradGradGradGradGradGrad
 Berny optimization.
 Initialization pass.
                           ----------------------------
                           !    Initial Parameters    !
                           ! (Angstroms and Degrees)  !
 --------------------------                            --------------------------
 ! Name  Definition              Value          Derivative Info.                !
 --------------------------------------------------------------------------------
 ! R1    R(1,4)                  1.4208         estimate D2E/DX2                !
 ! R2    R(1,15)                 0.9724         estimate D2E/DX2                !
 ! R3    R(2,3)                  1.5261         estimate D2E/DX2                !
 ! R4    R(2,4)                  1.5221         estimate D2E/DX2                !
 ! R5    R(2,6)                  1.0972         estimate D2E/DX2                !
 ! R6    R(2,7)                  1.0973         estimate D2E/DX2                !
 ! R7    R(3,5)                  1.5202         estimate D2E/DX2                !
 ! R8    R(3,8)                  1.0962         estimate D2E/DX2                !
 ! R9    R(3,9)                  1.0962         estimate D2E/DX2                !
 ! R10   R(4,10)                 1.0946         estimate D2E/DX2                !
 ! R11   R(4,11)                 1.0943         estimate D2E/DX2                !
 ! R12   R(5,12)                 1.0946         estimate D2E/DX2                !
 ! R13   R(5,13)                 1.0947         estimate D2E/DX2                !
 ! R14   R(5,14)                 1.0944         estimate D2E/DX2                !
 ! A1    A(4,1,15)             107.5925         estimate D2E/DX2                !
 ! A2    A(3,2,4)              111.6717         estimate D2E/DX2                !
 ! A3    A(3,2,6)              110.2945         estimate D2E/DX2                !
 ! A4    A(3,2,7)              110.0625         estimate D2E/DX2                !
 ! A5    A(4,2,6)              109.4397         estimate D2E/DX2                !
 ! A6    A(4,2,7)              109.3783         estimate D2E/DX2                !
 ! A7    A(6,2,7)              105.8218         estimate D2E/DX2                !
 ! A8    A(2,3,5)              111.5036         estimate D2E/DX2                !
 ! A9    A(2,3,8)              109.8719         estimate D2E/DX2                !
 ! A10   A(2,3,9)              109.8388         estimate D2E/DX2                !
 ! A11   A(5,3,8)              109.05           estimate D2E/DX2                !
 ! A12   A(5,3,9)              109.2519         estimate D2E/DX2                !
 ! A13   A(8,3,9)              107.2223         estimate D2E/DX2                !
 ! A14   A(1,4,2)              108.8511         estimate D2E/DX2                !
 ! A15   A(1,4,10)             108.6029         estimate D2E/DX2                !
 ! A16   A(1,4,11)             108.1614         estimate D2E/DX2                !
 ! A17   A(2,4,10)             111.6137         estimate D2E/DX2                !
 ! A18   A(2,4,11)             111.0328         estimate D2E/DX2                !
 ! A19   A(10,4,11)            108.4886         estimate D2E/DX2                !
 ! A20   A(3,5,12)             111.0162         estimate D2E/DX2                !
 ! A21   A(3,5,13)             110.9862         estimate D2E/DX2                !
 ! A22   A(3,5,14)             110.2629         estimate D2E/DX2                !
 ! A23   A(12,5,13)            108.3042         estimate D2E/DX2                !
 ! A24   A(12,5,14)            108.0831         estimate D2E/DX2                !
 ! A25   A(13,5,14)            108.0821         estimate D2E/DX2                !
 ! D1    D(15,1,4,2)            61.3004         estimate D2E/DX2                !
 ! D2    D(15,1,4,10)          -60.4085         estimate D2E/DX2                !
 ! D3    D(15,1,4,11)         -177.9606         estimate D2E/DX2                !
 ! D4    D(4,2,3,5)            178.232          estimate D2E/DX2                !
 ! D5    D(4,2,3,8)             57.2061         estimate D2E/DX2                !
 ! D6    D(4,2,3,9)            -60.5101         estimate D2E/DX2                !
 ! D7    D(6,2,3,5)            -59.8448         estimate D2E/DX2                !
 ! D8    D(6,2,3,8)            179.1293         estimate D2E/DX2                !
 ! D9    D(6,2,3,9)             61.4132         estimate D2E/DX2                !
 ! D10   D(7,2,3,5)             56.5482         estimate D2E/DX2                !
 ! D11   D(7,2,3,8)            -64.4777         estimate D2E/DX2                !
 ! D12   D(7,2,3,9)            177.8062         estimate D2E/DX2                !
 ! D13   D(3,2,4,1)           -179.3545         estimate D2E/DX2                !
 ! D14   D(3,2,4,10)           -59.4962         estimate D2E/DX2                !
 ! D15   D(3,2,4,11)            61.6883         estimate D2E/DX2                !
 ! D16   D(6,2,4,1)             58.2311         estimate D2E/DX2                !
 ! D17   D(6,2,4,10)           178.0894         estimate D2E/DX2                !
 ! D18   D(6,2,4,11)           -60.7261         estimate D2E/DX2                !
 ! D19   D(7,2,4,1)            -57.2764         estimate D2E/DX2                !
 ! D20   D(7,2,4,10)            62.5819         estimate D2E/DX2                !
 ! D21   D(7,2,4,11)          -176.2336         estimate D2E/DX2                !
 ! D22   D(2,3,5,12)           -60.3476         estimate D2E/DX2                !
 ! D23   D(2,3,5,13)            60.1642         estimate D2E/DX2                !
 ! D24   D(2,3,5,14)           179.898          estimate D2E/DX2                !
 ! D25   D(8,3,5,12)            61.1566         estimate D2E/DX2                !
 ! D26   D(8,3,5,13)          -178.3317         estimate D2E/DX2                !
 ! D27   D(8,3,5,14)           -58.5978         estimate D2E/DX2                !
 ! D28   D(9,3,5,12)           178.0535         estimate D2E/DX2                !
 ! D29   D(9,3,5,13)           -61.4348         estimate D2E/DX2                !
 ! D30   D(9,3,5,14)            58.2991         estimate D2E/DX2                !
 --------------------------------------------------------------------------------
 Trust Radius=3.00D-01 FncErr=1.00D-07 GrdErr=1.00D-06 EigMax=2.50D+02 EigMin=1.00D-04
 Number of steps in this run=     79 maximum allowed number of steps=    100.
 GradGradGradGradGradGradGradGradGradGradGradGradGradGradGradGradGradGrad

                          Input orientation:                          
 ---------------------------------------------------------------------
 Center     Atomic      Atomic             Coordinates (Angstroms)
 Number     Number       Type             X           Y           Z
 ---------------------------------------------------------------------
      1          8           0       -2.418700    0.348900   -0.006900
      2          6           0       -0.024500    0.342100    0.019400
      3          6           0        1.236000   -0.518100    0.005800
      4          6           0       -1.286100   -0.509000   -0.005900
      5          6           0        2.493400    0.336100   -0.012500
      6          1           0       -0.036200    0.986100    0.907700
      7          1           0       -0.026100    1.021200   -0.842500
      8          1           0        1.233100   -1.169500   -0.875900
      9          1           0        1.252900   -1.167300    0.888900
     10          1           0       -1.327200   -1.142600   -0.897500
     11          1           0       -1.344900   -1.150500    0.878700
     12          1           0        2.522800    0.972400   -0.902700
     13          1           0        2.543200    0.979500    0.871800
     14          1           0        3.383800   -0.300200   -0.020200
     15          1           0       -2.375300    0.892000   -0.812300
 ---------------------------------------------------------------------
                    Distance matrix (angstroms):
                    1          2          3          4          5
     1  O    0.000000
     2  C    2.394354   0.000000
     3  C    3.756153   1.526103   0.000000
     4  C    1.420836   1.522053   2.522144   0.000000
     5  C    4.912120   2.518109   1.520213   3.872836   0.000000
     6  H    2.630366   1.097246   2.166687   2.152264   2.769141
     7  H    2.621974   1.097293   2.163782   2.151514   2.739734
     8  H    4.049240   2.160568   1.096232   2.745820   2.144912
     9  H    4.072096   2.160109   1.096181   2.771380   2.147458
    10  H    2.051612   2.177629   2.788538   1.094572   4.191272
    11  H    2.045858   2.170186   2.796950   1.094302   4.211504
    12  H    5.060596   2.781418   2.168598   4.184079   1.094622
    13  H    5.078407   2.779559   2.168302   4.201134   1.094728
    14  H    5.838708   3.468519   2.158982   4.674587   1.094417
    15  H    0.972374   2.553503   3.962216   1.949215   4.965173
                    6          7          8          9         10
     6  H    0.000000
     7  H    1.750581   0.000000
     8  H    3.072290   2.527027   0.000000
     9  H    2.509833   3.069710   1.764912   0.000000
    10  H    3.075190   2.525454   2.560532   3.138272   0.000000
    11  H    2.505713   3.068883   3.118504   2.597874   1.776306
    12  H    3.134680   2.550078   2.500356   3.066071   4.392693
    13  H    2.579658   3.088991   3.064151   2.504779   4.755389
    14  H    3.769876   3.748292   2.472532   2.473673   4.865472
    15  H    2.904934   2.352944   4.156246   4.505400   2.290277
                   11         12         13         14         15
    11  H    0.000000
    12  H    4.758066   0.000000
    13  H    4.433314   1.774631   0.000000
    14  H    4.887907   1.771902   1.771978   0.000000
    15  H    2.844822   4.899594   5.199566   5.934307   0.000000
 Stoichiometry    C4H10O
 Framework group  C1[X(C4H10O)]
 Deg. of freedom    39
 Full point group                 C1      NOp   1
 Largest Abelian subgroup         C1      NOp   1
 Largest concise Abelian subgroup C1      NOp   1
                         Standard orientation:                         
 ---------------------------------------------------------------------
 Center     Atomic      Atomic             Coordinates (Angstroms)
 Number     Number       Type             X           Y           Z
 ---------------------------------------------------------------------
      1          8           0       -2.441305   -0.333208   -0.073718
      2          6           0       -0.046986   -0.323295   -0.065278
      3          6           0        1.211846    0.533705    0.034121
      4          6           0       -1.310149    0.522595    0.009124
      5          6           0        2.470196   -0.318718    0.002874
      6          1           0       -0.045089   -0.895181   -1.001704
      7          1           0       -0.059737   -1.068304    0.740234
      8          1           0        1.195432    1.113482    0.964343
      9          1           0        1.240243    1.250587   -0.794665
     10          1           0       -1.364872    1.083830    0.947266
     11          1           0       -1.357412    1.231886   -0.822843
     12          1           0        2.487974   -1.023281    0.840414
     13          1           0        2.533530   -0.890295   -0.928641
     14          1           0        3.359401    0.315382    0.073449
     15          1           0       -2.408473   -0.938162    0.686850
 ---------------------------------------------------------------------
 Rotational constants (GHZ):          17.9265074           2.0217143           1.9117687
 Standard basis: 6-311++G(d,p) (5D, 7F)
 There are   185 symmetry adapted cartesian basis functions of A   symmetry.
 There are   180 symmetry adapted basis functions of A   symmetry.
   180 basis functions,   270 primitive gaussians,   185 cartesian basis functions
    21 alpha electrons       21 beta electrons
       nuclear repulsion energy       185.8151698601 Hartrees.
 NAtoms=   15 NActive=   15 NUniq=   15 SFac= 1.00D+00 NAtFMM=   60 NAOKFM=F Big=F
 Integral buffers will be    131072 words long.
 Raffenetti 2 integral format.
 Two-electron integral symmetry is turned on.
 R6APFD:  NTU= -4 IXU= 1 FactS= 1.050
 Nuclear repulsion after empirical dispersion term =      185.8083278990 Hartrees.
 One-electron integrals computed using PRISM.
 NBasis=   180 RedAO= T EigKep=  1.95D-05  NBF=   180
 NBsUse=   180 1.00D-06 EigRej= -1.00D+00 NBFU=   180
 ExpMin= 3.60D-02 ExpMax= 8.59D+03 ExpMxC= 1.30D+03 IAcc=3 IRadAn=         5 AccDes= 0.00D+00
 Harris functional with IExCor= 1009 and IRadAn=       5 diagonalized for initial guess.
 HarFok:  IExCor= 1009 AccDes= 0.00D+00 IRadAn=         5 IDoV= 1 UseB2=F ITyADJ=14
 ICtDFT=  3500011 ScaDFX=  1.000000  1.000000  1.000000  1.000000
 FoFCou: FMM=F IPFlag=           0 FMFlag=      100000 FMFlg1=           0
         NFxFlg=           0 DoJE=T BraDBF=F KetDBF=T FulRan=T
         wScrn=  0.000000 ICntrl=       500 IOpCl=  0 I1Cent=   200000004 NGrid=           0
         NMat0=    1 NMatS0=      1 NMatT0=    0 NMatD0=    1 NMtDS0=    0 NMtDT0=    0
 Petite list used in FoFCou.
 Requested convergence on RMS density matrix=1.00D-08 within  32 cycles.
 Requested convergence on MAX density matrix=1.00D-06.
 Requested convergence on             energy=1.00D-06.
 No special actions if energy rises.
 SCF Done:  E(RM08HX) =  -233.670572484     A.U. after   12 cycles
            NFock= 12  Conv=0.53D-08     -V/T= 2.0048
 QCSCF skips out because SCF is already converged.

 **********************************************************************

            Population analysis using the SCF Density.

 **********************************************************************

 Orbital symmetries:
       Occupied  (A) (A) (A) (A) (A) (A) (A) (A) (A) (A) (A) (A)
                 (A) (A) (A) (A) (A) (A) (A) (A) (A)
       Virtual   (A) (A) (A) (A) (A) (A) (A) (A) (A) (A) (A) (A)
                 (A) (A) (A) (A) (A) (A) (A) (A) (A) (A) (A) (A)
                 (A) (A) (A) (A) (A) (A) (A) (A) (A) (A) (A) (A)
                 (A) (A) (A) (A) (A) (A) (A) (A) (A) (A) (A) (A)
                 (A) (A) (A) (A) (A) (A) (A) (A) (A) (A) (A) (A)
                 (A) (A) (A) (A) (A) (A) (A) (A) (A) (A) (A) (A)
                 (A) (A) (A) (A) (A) (A) (A) (A) (A) (A) (A) (A)
                 (A) (A) (A) (A) (A) (A) (A) (A) (A) (A) (A) (A)
                 (A) (A) (A) (A) (A) (A) (A) (A) (A) (A) (A) (A)
                 (A) (A) (A) (A) (A) (A) (A) (A) (A) (A) (A) (A)
                 (A) (A) (A) (A) (A) (A) (A) (A) (A) (A) (A) (A)
                 (A) (A) (A) (A) (A) (A) (A) (A) (A) (A) (A) (A)
                 (A) (A) (A) (A) (A) (A) (A) (A) (A) (A) (A) (A)
                 (A) (A) (A)
 The electronic state is 1-A.
 Alpha  occ. eigenvalues --  -19.60391 -10.57200 -10.52756 -10.52516 -10.51704
 Alpha  occ. eigenvalues --   -1.13808  -0.90648  -0.82007  -0.72490  -0.67623
 Alpha  occ. eigenvalues --   -0.58791  -0.54785  -0.52093  -0.50957  -0.46416
 Alpha  occ. eigenvalues --   -0.45463  -0.43417  -0.40783  -0.39794  -0.38712
 Alpha  occ. eigenvalues --   -0.34447
 Alpha virt. eigenvalues --   -0.02971  -0.01725  -0.01156  -0.00601   0.01240
 Alpha virt. eigenvalues --    0.01785   0.02436   0.02899   0.03816   0.04999
 Alpha virt. eigenvalues --    0.05818   0.06448   0.08103   0.08907   0.10352
 Alpha virt. eigenvalues --    0.11652   0.11980   0.12099   0.12431   0.13060
 Alpha virt. eigenvalues --    0.13418   0.14188   0.14804   0.15261   0.16740
 Alpha virt. eigenvalues --    0.17300   0.18189   0.20736   0.21215   0.22128
 Alpha virt. eigenvalues --    0.23190   0.23450   0.23773   0.24764   0.27522
 Alpha virt. eigenvalues --    0.28207   0.29007   0.32539   0.32707   0.33239
 Alpha virt. eigenvalues --    0.33601   0.34073   0.35900   0.40089   0.44346
 Alpha virt. eigenvalues --    0.44780   0.45992   0.49660   0.50617   0.52759
 Alpha virt. eigenvalues --    0.56456   0.57571   0.66245   0.67271   0.68005
 Alpha virt. eigenvalues --    0.68262   0.68746   0.69481   0.69997   0.71032
 Alpha virt. eigenvalues --    0.71747   0.73093   0.73937   0.75995   0.77133
 Alpha virt. eigenvalues --    0.79425   0.88895   0.96410   0.97026   1.01754
 Alpha virt. eigenvalues --    1.01795   1.05083   1.12812   1.17819   1.19407
 Alpha virt. eigenvalues --    1.25594   1.28516   1.29865   1.31450   1.40445
 Alpha virt. eigenvalues --    1.44822   1.49148   1.49813   1.53604   1.56921
 Alpha virt. eigenvalues --    1.58212   1.58897   1.59776   1.60901   1.62297
 Alpha virt. eigenvalues --    1.63275   1.65173   1.70611   1.72493   1.74905
 Alpha virt. eigenvalues --    1.75676   1.76960   1.78273   1.82890   1.83997
 Alpha virt. eigenvalues --    1.88931   1.92924   1.99941   2.06208   2.08120
 Alpha virt. eigenvalues --    2.09686   2.13089   2.17077   2.20024   2.22182
 Alpha virt. eigenvalues --    2.27972   2.29576   2.38129   2.40232   2.42807
 Alpha virt. eigenvalues --    2.44752   2.50465   2.53207   2.54487   2.56165
 Alpha virt. eigenvalues --    2.58515   2.59203   2.60968   2.63101   2.65876
 Alpha virt. eigenvalues --    2.69248   2.71291   2.72421   2.74279   2.77858
 Alpha virt. eigenvalues --    2.81384   2.83381   2.88929   2.91633   3.03569
 Alpha virt. eigenvalues --    3.08723   3.19447   3.23815   3.29707   3.37668
 Alpha virt. eigenvalues --    3.49678   3.79186   3.81855   3.84247   3.84439
 Alpha virt. eigenvalues --    3.90117   3.94342   4.07451   4.16283   4.29370
 Alpha virt. eigenvalues --    4.40977   5.22689   5.50741   5.72851  23.90547
 Alpha virt. eigenvalues --   23.94323  23.96823  24.03604  49.94099
          Condensed to atoms (all electrons):
               1          2          3          4          5          6
     1  O    7.965772  -0.114833   0.045839   0.214325   0.005932   0.026319
     2  C   -0.114833   6.553914  -0.709449  -0.572748   0.252659   0.512459
     3  C    0.045839  -0.709449   6.593075  -0.062269  -0.371773  -0.057493
     4  C    0.214325  -0.572748  -0.062269   6.674908  -0.171760  -0.100559
     5  C    0.005932   0.252659  -0.371773  -0.171760   5.935756   0.002004
     6  H    0.026319   0.512459  -0.057493  -0.100559   0.002004   0.529959
     7  H   -0.036045   0.391407  -0.070712   0.028109   0.013845  -0.107102
     8  H    0.000836  -0.050865   0.473519  -0.002858  -0.064246   0.012631
     9  H   -0.003488  -0.085139   0.445523   0.048294  -0.046157  -0.025108
    10  H   -0.028130   0.108377   0.012456   0.174011   0.008000   0.031998
    11  H   -0.097332  -0.057193  -0.015865   0.447779  -0.008641  -0.037603
    12  H   -0.000132  -0.039150  -0.007170   0.006508   0.395535  -0.000915
    13  H    0.000178  -0.037062  -0.003072   0.002496   0.397939   0.005418
    14  H    0.000653   0.007925  -0.024094  -0.015207   0.385514   0.000580
    15  H    0.240121   0.020419   0.007786  -0.049172  -0.000353  -0.011640
               7          8          9         10         11         12
     1  O   -0.036045   0.000836  -0.003488  -0.028130  -0.097332  -0.000132
     2  C    0.391407  -0.050865  -0.085139   0.108377  -0.057193  -0.039150
     3  C   -0.070712   0.473519   0.445523   0.012456  -0.015865  -0.007170
     4  C    0.028109  -0.002858   0.048294   0.174011   0.447779   0.006508
     5  C    0.013845  -0.064246  -0.046157   0.008000  -0.008641   0.395535
     6  H   -0.107102   0.012631  -0.025108   0.031998  -0.037603  -0.000915
     7  H    0.650672  -0.029169   0.020609  -0.066663   0.031706   0.007947
     8  H   -0.029169   0.556598  -0.078489   0.014864  -0.005083  -0.022714
     9  H    0.020609  -0.078489   0.555902  -0.014758   0.008914   0.013981
    10  H   -0.066663   0.014864  -0.014758   0.701319  -0.119640  -0.000417
    11  H    0.031706  -0.005083   0.008914  -0.119640   0.589543   0.000385
    12  H    0.007947  -0.022714   0.013981  -0.000417   0.000385   0.561442
    13  H   -0.001978   0.014029  -0.022242   0.000338   0.000397  -0.066887
    14  H   -0.003558  -0.003937  -0.010526   0.002491  -0.000130  -0.032076
    15  H    0.018948  -0.000769  -0.000778  -0.033322   0.029531   0.000161
              13         14         15
     1  O    0.000178   0.000653   0.240121
     2  C   -0.037062   0.007925   0.020419
     3  C   -0.003072  -0.024094   0.007786
     4  C    0.002496  -0.015207  -0.049172
     5  C    0.397939   0.385514  -0.000353
     6  H    0.005418   0.000580  -0.011640
     7  H   -0.001978  -0.003558   0.018948
     8  H    0.014029  -0.003937  -0.000769
     9  H   -0.022242  -0.010526  -0.000778
    10  H    0.000338   0.002491  -0.033322
    11  H    0.000397  -0.000130   0.029531
    12  H   -0.066887  -0.032076   0.000161
    13  H    0.555034  -0.030398  -0.000275
    14  H   -0.030398   0.526179   0.000413
    15  H   -0.000275   0.000413   0.524003
 Mulliken charges:
               1
     1  O   -0.220015
     2  C   -0.180721
     3  C   -0.256299
     4  C   -0.621856
     5  C   -0.734255
     6  H    0.219052
     7  H    0.151982
     8  H    0.185652
     9  H    0.193464
    10  H    0.209075
    11  H    0.233233
    12  H    0.183504
    13  H    0.186086
    14  H    0.196171
    15  H    0.254928
 Sum of Mulliken charges =  -0.00000
 Mulliken charges with hydrogens summed into heavy atoms:
               1
     1  O    0.034914
     2  C    0.190313
     3  C    0.122817
     4  C   -0.179548
     5  C   -0.168494
 Electronic spatial extent (au):  <R**2>=            658.2240
 Charge=             -0.0000 electrons
 Dipole moment (field-independent basis, Debye):
    X=              1.5273    Y=             -0.0010    Z=              1.2187  Tot=              1.9539
 Quadrupole moment (field-independent basis, Debye-Ang):
   XX=            -40.4515   YY=            -32.7599   ZZ=            -32.4272
   XY=              0.7987   XZ=             -3.4968   YZ=             -1.7587
 Traceless Quadrupole moment (field-independent basis, Debye-Ang):
   XX=             -5.2386   YY=              2.4529   ZZ=              2.7857
   XY=              0.7987   XZ=             -3.4968   YZ=             -1.7587
 Octapole moment (field-independent basis, Debye-Ang**2):
  XXX=              9.7968  YYY=             -2.2868  ZZZ=              0.6884  XYY=             -6.6794
  XXY=             -1.2426  XXZ=              8.8354  XZZ=             -5.2739  YZZ=             -1.0247
  YYZ=              1.2325  XYZ=              4.1198
 Hexadecapole moment (field-independent basis, Debye-Ang**3):
 XXXX=           -769.9717 YYYY=           -114.1224 ZZZZ=            -65.5091 XXXY=             18.2147
 XXXZ=            -22.6482 YYYX=              7.5739 YYYZ=             -3.6818 ZZZX=             -3.3927
 ZZZY=             -1.3560 XXYY=           -127.4812 XXZZ=           -123.2417 YYZZ=            -26.3566
 XXYZ=            -10.0170 YYXZ=             -3.5507 ZZXY=              1.3456
 N-N= 1.858083278990D+02 E-N=-9.156730077384D+02  KE= 2.325460125242D+02
 R6APFD:  NTU= -4 IXU= 1 FactS= 1.050
 Calling FoFJK, ICntrl=      2127 FMM=F ISym2X=0 I1Cent= 0 IOpClX= 0 NMat=1 NMatS=1 NMatT=0.
 ***** Axes restored to original set *****
 -------------------------------------------------------------------
 Center     Atomic                   Forces (Hartrees/Bohr)
 Number     Number              X              Y              Z
 -------------------------------------------------------------------
      1        8          -0.006939307    0.003499689   -0.006963636
      2        6           0.004976016   -0.010813356    0.001796624
      3        6           0.000170955    0.005634060   -0.000957935
      4        6          -0.003322283    0.017271636   -0.003189561
      5        6           0.003788530   -0.002816781    0.000486551
      6        1          -0.001141090   -0.000055306    0.002063057
      7        1           0.000645604    0.000937592   -0.003974394
      8        1          -0.001530604   -0.002895048   -0.001357410
      9        1          -0.001611277   -0.002546473    0.001366083
     10        1           0.004549195   -0.005896009   -0.002627225
     11        1          -0.002282403    0.000254001    0.001368625
     12        1           0.000356371    0.001716733   -0.001074350
     13        1           0.000434692    0.001718575    0.000914530
     14        1           0.003056819    0.001463791   -0.000034976
     15        1          -0.001151219   -0.007473104    0.012184017
 -------------------------------------------------------------------
 Cartesian Forces:  Max     0.017271636 RMS     0.004641688

 GradGradGradGradGradGradGradGradGradGradGradGradGradGradGradGradGradGrad
 Berny optimization.
 FormGI is forming the generalized inverse of G from B-inverse, IUseBI=4.
 Internal  Forces:  Max     0.016325135 RMS     0.003647143
 Search for a local minimum.
 Step number   1 out of a maximum of   79
 All quantities printed in internal units (Hartrees-Bohrs-Radians)
 Mixed Optimization -- RFO/linear search
 Second derivative matrix not updated -- first step.
 ITU=  0
     Eigenvalues ---    0.00421   0.00474   0.00499   0.01416   0.03652
     Eigenvalues ---    0.03733   0.04888   0.04941   0.05264   0.05609
     Eigenvalues ---    0.05692   0.05703   0.08177   0.08252   0.11443
     Eigenvalues ---    0.12073   0.12131   0.13715   0.16000   0.16000
     Eigenvalues ---    0.16000   0.16000   0.21854   0.21906   0.21994
     Eigenvalues ---    0.29786   0.30170   0.30346   0.33983   0.33988
     Eigenvalues ---    0.34102   0.34108   0.34272   0.34284   0.34290
     Eigenvalues ---    0.34307   0.34320   0.42335   0.52895
 RFO step:  Lambda=-4.45093253D-03 EMin= 4.20659718D-03
 Linear search not attempted -- first point.
 Iteration  1 RMS(Cart)=  0.04812975 RMS(Int)=  0.00126211
 Iteration  2 RMS(Cart)=  0.00156535 RMS(Int)=  0.00053138
 Iteration  3 RMS(Cart)=  0.00000124 RMS(Int)=  0.00053138
 Iteration  4 RMS(Cart)=  0.00000000 RMS(Int)=  0.00053138
 Variable       Old X    -DE/DX   Delta X   Delta X   Delta X     New X
                                 (Linear)    (Quad)   (Total)
    R1        2.68499   0.00405   0.00000   0.00946   0.00946   2.69445
    R2        1.83752  -0.01431   0.00000  -0.02684  -0.02684   1.81068
    R3        2.88392   0.00258   0.00000   0.00853   0.00853   2.89244
    R4        2.87626   0.00328   0.00000   0.01073   0.01073   2.88699
    R5        2.07350   0.00165   0.00000   0.00479   0.00479   2.07829
    R6        2.07358   0.00370   0.00000   0.01075   0.01075   2.08433
    R7        2.87279   0.00748   0.00000   0.02430   0.02430   2.89708
    R8        2.07158   0.00282   0.00000   0.00815   0.00815   2.07973
    R9        2.07148   0.00258   0.00000   0.00748   0.00748   2.07896
   R10        2.06844   0.00539   0.00000   0.01551   0.01551   2.08395
   R11        2.06793   0.00108   0.00000   0.00310   0.00310   2.07103
   R12        2.06854   0.00188   0.00000   0.00541   0.00541   2.07394
   R13        2.06874   0.00177   0.00000   0.00510   0.00510   2.07384
   R14        2.06815   0.00164   0.00000   0.00471   0.00471   2.07286
    A1        1.87784   0.00140   0.00000   0.00849   0.00849   1.88634
    A2        1.94904   0.00540   0.00000   0.02333   0.02338   1.97242
    A3        1.92500  -0.00095   0.00000  -0.00176  -0.00167   1.92333
    A4        1.92095  -0.00237   0.00000  -0.01220  -0.01220   1.90875
    A5        1.91008  -0.00276   0.00000  -0.01680  -0.01681   1.89327
    A6        1.90901  -0.00122   0.00000  -0.00376  -0.00373   1.90529
    A7        1.84694   0.00165   0.00000   0.01024   0.01019   1.85713
    A8        1.94610   0.00237   0.00000   0.01469   0.01466   1.96076
    A9        1.91763  -0.00133   0.00000  -0.00854  -0.00877   1.90885
   A10        1.91705  -0.00156   0.00000  -0.01362  -0.01375   1.90330
   A11        1.90328   0.00049   0.00000   0.01312   0.01314   1.91642
   A12        1.90681   0.00030   0.00000   0.00831   0.00840   1.91521
   A13        1.87138  -0.00036   0.00000  -0.01487  -0.01506   1.85632
   A14        1.89981   0.01633   0.00000   0.08188   0.08123   1.98104
   A15        1.89548  -0.00035   0.00000   0.04342   0.04252   1.93800
   A16        1.88777  -0.00861   0.00000  -0.05533  -0.05435   1.83342
   A17        1.94803  -0.00662   0.00000  -0.02654  -0.02914   1.91888
   A18        1.93789  -0.00211   0.00000  -0.02116  -0.02084   1.91705
   A19        1.89348   0.00119   0.00000  -0.02236  -0.02296   1.87052
   A20        1.93760  -0.00006   0.00000  -0.00245  -0.00252   1.93508
   A21        1.93707   0.00008   0.00000  -0.00146  -0.00153   1.93554
   A22        1.92445   0.00428   0.00000   0.03002   0.02992   1.95437
   A23        1.89026  -0.00093   0.00000  -0.01310  -0.01314   1.87713
   A24        1.88641  -0.00176   0.00000  -0.00699  -0.00707   1.87934
   A25        1.88639  -0.00180   0.00000  -0.00700  -0.00710   1.87929
    D1        1.06989  -0.00024   0.00000   0.00999   0.01215   1.08205
    D2       -1.05433  -0.00187   0.00000  -0.03380  -0.03586  -1.09019
    D3       -3.10600   0.00165   0.00000  -0.00046  -0.00057  -3.10657
    D4        3.11073   0.00051   0.00000   0.01425   0.01421   3.12495
    D5        0.99843  -0.00077   0.00000  -0.00619  -0.00613   0.99230
    D6       -1.05610   0.00140   0.00000   0.02519   0.02506  -1.03104
    D7       -1.04449   0.00002   0.00000   0.00754   0.00756  -1.03693
    D8        3.12640  -0.00126   0.00000  -0.01289  -0.01278   3.11361
    D9        1.07186   0.00091   0.00000   0.01849   0.01841   1.09027
   D10        0.98695   0.00006   0.00000   0.01174   0.01177   0.99872
   D11       -1.12535  -0.00122   0.00000  -0.00869  -0.00858  -1.13393
   D12        3.10330   0.00095   0.00000   0.02268   0.02261   3.12591
   D13       -3.13033  -0.00246   0.00000  -0.05385  -0.05395   3.09891
   D14       -1.03840   0.00365   0.00000   0.03705   0.03666  -1.00174
   D15        1.07666  -0.00086   0.00000  -0.02452  -0.02416   1.05250
   D16        1.01632  -0.00296   0.00000  -0.05559  -0.05559   0.96073
   D17        3.10825   0.00316   0.00000   0.03532   0.03502  -3.13992
   D18       -1.05987  -0.00136   0.00000  -0.02626  -0.02581  -1.08568
   D19       -0.99966  -0.00272   0.00000  -0.05638  -0.05643  -1.05610
   D20        1.09226   0.00340   0.00000   0.03453   0.03418   1.12644
   D21       -3.07586  -0.00111   0.00000  -0.02705  -0.02665  -3.10251
   D22       -1.05326   0.00043   0.00000   0.00551   0.00549  -1.04777
   D23        1.05006  -0.00073   0.00000  -0.01369  -0.01373   1.03633
   D24        3.13981  -0.00013   0.00000  -0.00379  -0.00381   3.13600
   D25        1.06738   0.00063   0.00000   0.01313   0.01320   1.08058
   D26       -3.11248  -0.00053   0.00000  -0.00607  -0.00603  -3.11850
   D27       -1.02273   0.00007   0.00000   0.00383   0.00389  -1.01883
   D28        3.10762   0.00064   0.00000   0.00741   0.00739   3.11501
   D29       -1.07224  -0.00052   0.00000  -0.01178  -0.01183  -1.08407
   D30        1.01751   0.00008   0.00000  -0.00188  -0.00191   1.01560
         Item               Value     Threshold  Converged?
 Maximum Force            0.016325     0.000450     NO 
 RMS     Force            0.003647     0.000300     NO 
 Maximum Displacement     0.244262     0.001800     NO 
 RMS     Displacement     0.047416     0.001200     NO 
 Predicted change in Energy=-2.318466D-03
 GradGradGradGradGradGradGradGradGradGradGradGradGradGradGradGradGradGrad

                          Input orientation:                          
 ---------------------------------------------------------------------
 Center     Atomic      Atomic             Coordinates (Angstroms)
 Number     Number       Type             X           Y           Z
 ---------------------------------------------------------------------
      1          8           0       -2.486023    0.316262    0.024766
      2          6           0       -0.015643    0.347259   -0.004111
      3          6           0        1.247982   -0.516467   -0.000597
      4          6           0       -1.302042   -0.476507   -0.027549
      5          6           0        2.529295    0.325283   -0.000606
      6          1           0       -0.033958    0.997000    0.883033
      7          1           0        0.001535    1.016894   -0.880386
      8          1           0        1.238371   -1.180914   -0.877878
      9          1           0        1.233324   -1.170665    0.883774
     10          1           0       -1.308139   -1.139525   -0.908735
     11          1           0       -1.349418   -1.117564    0.860081
     12          1           0        2.576062    0.966232   -0.890249
     13          1           0        2.568539    0.978527    0.880349
     14          1           0        3.430873   -0.299456    0.007604
     15          1           0       -2.504558    0.874744   -0.753596
 ---------------------------------------------------------------------
                    Distance matrix (angstroms):
                    1          2          3          4          5
     1  O    0.000000
     2  C    2.470742   0.000000
     3  C    3.825816   1.530615   0.000000
     4  C    1.425843   1.527731   2.550479   0.000000
     5  C    5.015390   2.545036   1.533071   3.914427   0.000000
     6  H    2.685638   1.099783   2.171348   2.146724   2.793257
     7  H    2.738271   1.102980   2.163066   2.157983   2.764401
     8  H    4.114294   2.161327   1.100547   2.770009   2.169036
     9  H    4.096630   2.156930   1.100137   2.782165   2.167839
    10  H    2.092403   2.167814   2.783284   1.102778   4.206692
    11  H    2.011337   2.161363   2.801530   1.095941   4.226938
    12  H    5.185018   2.808079   2.180293   4.226753   1.097483
    13  H    5.169062   2.803349   2.180583   4.233533   1.097429
    14  H    5.948870   3.506687   2.193667   4.736356   1.096909
    15  H    0.958172   2.652294   4.072349   1.949120   5.119431
                    6          7          8          9         10
     6  H    0.000000
     7  H    1.763888   0.000000
     8  H    3.076189   2.521930   0.000000
     9  H    2.510931   3.068383   1.761689   0.000000
    10  H    3.065732   2.523132   2.547034   3.110159   0.000000
    11  H    2.490451   3.067607   3.117879   2.583396   1.769434
    12  H    3.155579   2.575045   2.529784   3.084872   4.418323
    13  H    2.602563   3.113065   3.086081   2.530185   4.766088
    14  H    3.801608   3.779109   2.523512   2.521091   4.899350
    15  H    2.966035   2.513321   4.272083   4.564694   2.347928
                   11         12         13         14         15
    11  H    0.000000
    12  H    4.776532   0.000000
    13  H    4.443466   1.770658   0.000000
    14  H    4.924145   1.771669   1.771594   0.000000
    15  H    2.812044   5.083281   5.330746   6.098156   0.000000
 Stoichiometry    C4H10O
 Framework group  C1[X(C4H10O)]
 Deg. of freedom    39
 Full point group                 C1      NOp   1
 Largest Abelian subgroup         C1      NOp   1
 Largest concise Abelian subgroup C1      NOp   1
                         Standard orientation:                         
 ---------------------------------------------------------------------
 Center     Atomic      Atomic             Coordinates (Angstroms)
 Number     Number       Type             X           Y           Z
 ---------------------------------------------------------------------
      1          8           0       -2.501834   -0.304939   -0.089353
      2          6           0       -0.031890   -0.333331   -0.033327
      3          6           0        1.229700    0.531422    0.024783
      4          6           0       -1.320366    0.485800    0.019720
      5          6           0        2.512861   -0.306947   -0.005888
      6          1           0       -0.038433   -0.934006   -0.954560
      7          1           0       -0.023319   -1.049499    0.805478
      8          1           0        1.208401    1.147270    0.936639
      9          1           0        1.223779    1.232619   -0.822914
     10          1           0       -1.338194    1.100015    0.935439
     11          1           0       -1.358935    1.173998   -0.832326
     12          1           0        2.550798   -0.995148    0.848167
     13          1           0        2.563808   -0.911359   -0.920459
     14          1           0        3.413034    0.318822    0.030338
     15          1           0       -2.528096   -0.904864    0.657301
 ---------------------------------------------------------------------
 Rotational constants (GHZ):          18.5464011           1.9480130           1.8514232
 Standard basis: 6-311++G(d,p) (5D, 7F)
 There are   185 symmetry adapted cartesian basis functions of A   symmetry.
 There are   180 symmetry adapted basis functions of A   symmetry.
   180 basis functions,   270 primitive gaussians,   185 cartesian basis functions
    21 alpha electrons       21 beta electrons
       nuclear repulsion energy       184.2919557257 Hartrees.
 NAtoms=   15 NActive=   15 NUniq=   15 SFac= 1.00D+00 NAtFMM=   60 NAOKFM=F Big=F
 Integral buffers will be    131072 words long.
 Raffenetti 2 integral format.
 Two-electron integral symmetry is turned on.
 R6APFD:  NTU= -4 IXU= 1 FactS= 1.050
 Nuclear repulsion after empirical dispersion term =      184.2849179041 Hartrees.
 One-electron integrals computed using PRISM.
 NBasis=   180 RedAO= T EigKep=  2.08D-05  NBF=   180
 NBsUse=   180 1.00D-06 EigRej= -1.00D+00 NBFU=   180
 Initial guess from the checkpoint file:  "BTAL0010.chk"
 B after Tr=    -0.000000    0.000000   -0.000000
         Rot=    0.999956    0.009393   -0.000388    0.000533 Ang=   1.08 deg.
 ExpMin= 3.60D-02 ExpMax= 8.59D+03 ExpMxC= 1.30D+03 IAcc=3 IRadAn=         5 AccDes= 0.00D+00
 Harris functional with IExCor= 1009 and IRadAn=       5 diagonalized for initial guess.
 HarFok:  IExCor= 1009 AccDes= 0.00D+00 IRadAn=         5 IDoV= 1 UseB2=F ITyADJ=14
 ICtDFT=  3500011 ScaDFX=  1.000000  1.000000  1.000000  1.000000
 FoFCou: FMM=F IPFlag=           0 FMFlag=      100000 FMFlg1=           0
         NFxFlg=           0 DoJE=T BraDBF=F KetDBF=T FulRan=T
         wScrn=  0.000000 ICntrl=       500 IOpCl=  0 I1Cent=   200000004 NGrid=           0
         NMat0=    1 NMatS0=      1 NMatT0=    0 NMatD0=    1 NMtDS0=    0 NMtDT0=    0
 Petite list used in FoFCou.
 Requested convergence on RMS density matrix=1.00D-08 within  32 cycles.
 Requested convergence on MAX density matrix=1.00D-06.
 Requested convergence on             energy=1.00D-06.
 No special actions if energy rises.
 SCF Done:  E(RM08HX) =  -233.672402809     A.U. after   11 cycles
            NFock= 11  Conv=0.35D-08     -V/T= 2.0052
 QCSCF skips out because SCF is already converged.
 R6APFD:  NTU= -4 IXU= 1 FactS= 1.050
 Calling FoFJK, ICntrl=      2127 FMM=F ISym2X=0 I1Cent= 0 IOpClX= 0 NMat=1 NMatS=1 NMatT=0.
 ***** Axes restored to original set *****
 -------------------------------------------------------------------
 Center     Atomic                   Forces (Hartrees/Bohr)
 Number     Number              X              Y              Z
 -------------------------------------------------------------------
      1        8           0.005789548   -0.002307804   -0.001720316
      2        6          -0.000926909    0.002213979   -0.000340023
      3        6          -0.000365959    0.000286944    0.000151669
      4        6          -0.002067804    0.001223113    0.002466570
      5        6          -0.001721281   -0.000873550   -0.000012251
      6        1           0.000393948    0.000466834    0.000166060
      7        1           0.000316765    0.000265933   -0.000286102
      8        1           0.000087328   -0.000338348    0.000027928
      9        1           0.000057822   -0.000564874   -0.000012359
     10        1          -0.000472320   -0.000331844   -0.000848133
     11        1           0.000576432   -0.001258498    0.000465415
     12        1          -0.000173744    0.000254259   -0.000123268
     13        1          -0.000262051    0.000179277    0.000071834
     14        1          -0.000705697   -0.000087376   -0.000028020
     15        1          -0.000526078    0.000871954    0.000020997
 -------------------------------------------------------------------
 Cartesian Forces:  Max     0.005789548 RMS     0.001243169

 GradGradGradGradGradGradGradGradGradGradGradGradGradGradGradGradGradGrad
 Berny optimization.
 Using GEDIIS/GDIIS optimizer.
 FormGI is forming the generalized inverse of G from B-inverse, IUseBI=4.
 Internal  Forces:  Max     0.005231678 RMS     0.001122232
 Search for a local minimum.
 Step number   2 out of a maximum of   79
 All quantities printed in internal units (Hartrees-Bohrs-Radians)
 Mixed Optimization -- RFO/linear search
 Update second derivatives using D2CorX and points    1    2
 DE= -1.83D-03 DEPred=-2.32D-03 R= 7.89D-01
 TightC=F SS=  1.41D+00  RLast= 1.94D-01 DXNew= 5.0454D-01 5.8306D-01
 Trust test= 7.89D-01 RLast= 1.94D-01 DXMaxT set to 5.05D-01
 ITU=  1  0
 Use linear search instead of GDIIS.
     Eigenvalues ---    0.00421   0.00475   0.00499   0.01413   0.03559
     Eigenvalues ---    0.03626   0.04856   0.04886   0.05097   0.05501
     Eigenvalues ---    0.05618   0.05824   0.08319   0.08457   0.11805
     Eigenvalues ---    0.12198   0.12265   0.13905   0.15840   0.16000
     Eigenvalues ---    0.16000   0.16115   0.21379   0.21899   0.24811
     Eigenvalues ---    0.29857   0.30204   0.31770   0.33539   0.33990
     Eigenvalues ---    0.34044   0.34106   0.34181   0.34274   0.34285
     Eigenvalues ---    0.34310   0.34433   0.44083   0.52730
 RFO step:  Lambda=-1.67164011D-04 EMin= 4.20681604D-03
 Quartic linear search produced a step of -0.14856.
 Iteration  1 RMS(Cart)=  0.01072817 RMS(Int)=  0.00008295
 Iteration  2 RMS(Cart)=  0.00004731 RMS(Int)=  0.00007424
 Iteration  3 RMS(Cart)=  0.00000000 RMS(Int)=  0.00007424
 Variable       Old X    -DE/DX   Delta X   Delta X   Delta X     New X
                                 (Linear)    (Quad)   (Total)
    R1        2.69445  -0.00523  -0.00141  -0.00875  -0.01016   2.68429
    R2        1.81068   0.00050   0.00399  -0.00416  -0.00018   1.81050
    R3        2.89244  -0.00190  -0.00127  -0.00384  -0.00511   2.88734
    R4        2.88699  -0.00181  -0.00159  -0.00311  -0.00471   2.88229
    R5        2.07829   0.00040  -0.00071   0.00190   0.00119   2.07948
    R6        2.08433   0.00039  -0.00160   0.00298   0.00139   2.08572
    R7        2.89708  -0.00268  -0.00361  -0.00300  -0.00661   2.89048
    R8        2.07973   0.00018  -0.00121   0.00197   0.00075   2.08049
    R9        2.07896   0.00033  -0.00111   0.00220   0.00109   2.08005
   R10        2.08395   0.00088  -0.00230   0.00507   0.00276   2.08671
   R11        2.07103   0.00109  -0.00046   0.00327   0.00281   2.07384
   R12        2.07394   0.00024  -0.00080   0.00160   0.00080   2.07474
   R13        2.07384   0.00016  -0.00076   0.00134   0.00058   2.07442
   R14        2.07286  -0.00053  -0.00070  -0.00044  -0.00114   2.07172
    A1        1.88634   0.00146  -0.00126   0.00934   0.00808   1.89441
    A2        1.97242  -0.00357  -0.00347  -0.01055  -0.01403   1.95839
    A3        1.92333   0.00083   0.00025   0.00126   0.00151   1.92484
    A4        1.90875   0.00089   0.00181  -0.00076   0.00106   1.90982
    A5        1.89327   0.00139   0.00250   0.00331   0.00579   1.89906
    A6        1.90529   0.00126   0.00055   0.00449   0.00501   1.91029
    A7        1.85713  -0.00063  -0.00151   0.00312   0.00159   1.85872
    A8        1.96076  -0.00212  -0.00218  -0.00557  -0.00774   1.95303
    A9        1.90885   0.00071   0.00130   0.00092   0.00226   1.91111
   A10        1.90330   0.00077   0.00204   0.00111   0.00318   1.90648
   A11        1.91642   0.00062  -0.00195   0.00411   0.00215   1.91857
   A12        1.91521   0.00064  -0.00125   0.00413   0.00288   1.91808
   A13        1.85632  -0.00053   0.00224  -0.00467  -0.00241   1.85391
   A14        1.98104  -0.00285  -0.01207   0.00365  -0.00834   1.97271
   A15        1.93800   0.00040  -0.00632   0.00343  -0.00277   1.93523
   A16        1.83342   0.00161   0.00807   0.00115   0.00909   1.84251
   A17        1.91888   0.00086   0.00433  -0.00451   0.00018   1.91906
   A18        1.91705   0.00056   0.00310   0.00086   0.00392   1.92097
   A19        1.87052  -0.00043   0.00341  -0.00480  -0.00130   1.86923
   A20        1.93508  -0.00000   0.00037  -0.00060  -0.00022   1.93486
   A21        1.93554  -0.00016   0.00023  -0.00130  -0.00106   1.93448
   A22        1.95437  -0.00058  -0.00444   0.00283  -0.00160   1.95276
   A23        1.87713   0.00002   0.00195  -0.00296  -0.00100   1.87613
   A24        1.87934   0.00035   0.00105   0.00083   0.00189   1.88123
   A25        1.87929   0.00042   0.00105   0.00108   0.00215   1.88144
    D1        1.08205  -0.00050  -0.00181  -0.01572  -0.01783   1.06422
    D2       -1.09019   0.00022   0.00533  -0.01522  -0.00960  -1.09979
    D3       -3.10657  -0.00035   0.00009  -0.01187  -0.01178  -3.11835
    D4        3.12495  -0.00003  -0.00211   0.00795   0.00585   3.13080
    D5        0.99230   0.00011   0.00091   0.00583   0.00673   0.99903
    D6       -1.03104  -0.00008  -0.00372   0.01028   0.00658  -1.02446
    D7       -1.03693  -0.00011  -0.00112   0.00582   0.00470  -1.03222
    D8        3.11361   0.00003   0.00190   0.00370   0.00559   3.11920
    D9        1.09027  -0.00016  -0.00273   0.00815   0.00543   1.09570
   D10        0.99872   0.00014  -0.00175   0.00990   0.00814   1.00686
   D11       -1.13393   0.00027   0.00127   0.00777   0.00902  -1.12491
   D12        3.12591   0.00008  -0.00336   0.01222   0.00887   3.13478
   D13        3.09891   0.00049   0.00801  -0.01010  -0.00208   3.09683
   D14       -1.00174  -0.00045  -0.00545  -0.00638  -0.01177  -1.01351
   D15        1.05250  -0.00013   0.00359  -0.01442  -0.01089   1.04161
   D16        0.96073   0.00082   0.00826  -0.00705   0.00122   0.96195
   D17       -3.13992  -0.00011  -0.00520  -0.00332  -0.00846   3.13480
   D18       -1.08568   0.00020   0.00383  -0.01137  -0.00758  -1.09326
   D19       -1.05610   0.00013   0.00838  -0.01497  -0.00659  -1.06269
   D20        1.12644  -0.00081  -0.00508  -0.01124  -0.01628   1.11016
   D21       -3.10251  -0.00049   0.00396  -0.01929  -0.01540  -3.11790
   D22       -1.04777   0.00008  -0.00082   0.00291   0.00210  -1.04567
   D23        1.03633  -0.00000   0.00204  -0.00204   0.00001   1.03634
   D24        3.13600   0.00003   0.00057   0.00036   0.00092   3.13693
   D25        1.08058  -0.00002  -0.00196   0.00321   0.00124   1.08182
   D26       -3.11850  -0.00010   0.00090  -0.00174  -0.00085  -3.11936
   D27       -1.01883  -0.00007  -0.00058   0.00065   0.00006  -1.01877
   D28        3.11501   0.00008  -0.00110   0.00234   0.00125   3.11626
   D29       -1.08407  -0.00000   0.00176  -0.00261  -0.00084  -1.08491
   D30        1.01560   0.00003   0.00028  -0.00022   0.00007   1.01567
         Item               Value     Threshold  Converged?
 Maximum Force            0.005232     0.000450     NO 
 RMS     Force            0.001122     0.000300     NO 
 Maximum Displacement     0.031434     0.001800     NO 
 RMS     Displacement     0.010744     0.001200     NO 
 Predicted change in Energy=-1.414943D-04
 GradGradGradGradGradGradGradGradGradGradGradGradGradGradGradGradGradGrad

                          Input orientation:                          
 ---------------------------------------------------------------------
 Center     Atomic      Atomic             Coordinates (Angstroms)
 Number     Number       Type             X           Y           Z
 ---------------------------------------------------------------------
      1          8           0       -2.471364    0.311899    0.026544
      2          6           0       -0.014494    0.353073   -0.007970
      3          6           0        1.241236   -0.517337   -0.001036
      4          6           0       -1.292624   -0.479057   -0.025294
      5          6           0        2.518606    0.324043    0.001014
      6          1           0       -0.029563    1.008078    0.876136
      7          1           0        0.003887    1.016893   -0.889553
      8          1           0        1.231805   -1.182993   -0.877904
      9          1           0        1.223082   -1.172969    0.882925
     10          1           0       -1.300389   -1.139436   -0.910270
     11          1           0       -1.332784   -1.125883    0.860341
     12          1           0        2.565292    0.966037   -0.888399
     13          1           0        2.554147    0.977810    0.882120
     14          1           0        3.419429   -0.300705    0.010737
     15          1           0       -2.490065    0.881644   -0.743491
 ---------------------------------------------------------------------
                    Distance matrix (angstroms):
                    1          2          3          4          5
     1  O    0.000000
     2  C    2.457457   0.000000
     3  C    3.804181   1.527914   0.000000
     4  C    1.420467   1.525240   2.534266   0.000000
     5  C    4.990050   2.533282   1.529574   3.895014   0.000000
     6  H    2.677473   1.100411   2.170542   2.149295   2.779732
     7  H    2.731870   1.103713   2.162027   2.160035   2.756259
     8  H    4.094654   2.160912   1.100947   2.755941   2.167835
     9  H    4.072733   2.157335   1.100714   2.763178   2.167301
    10  H    2.086906   2.166853   2.770122   1.104239   4.190099
    11  H    2.014646   2.163137   2.781704   1.097427   4.204037
    12  H    5.160709   2.793953   2.177369   4.209128   1.097904
    13  H    5.141129   2.789351   2.176962   4.212305   1.097735
    14  H    5.922582   3.495655   2.188970   4.715565   1.096306
    15  H    0.958078   2.636064   4.053517   1.949661   5.094310
                    6          7          8          9         10
     6  H    0.000000
     7  H    1.766028   0.000000
     8  H    3.077092   2.519408   0.000000
     9  H    2.515180   3.069790   1.760879   0.000000
    10  H    3.068887   2.520182   2.532775   3.095897   0.000000
    11  H    2.500485   3.072508   3.098688   2.556399   1.770959
    12  H    3.138252   2.561910   2.529155   3.084553   4.401929
    13  H    2.583895   3.105509   3.084695   2.529345   4.748983
    14  H    3.789113   3.769949   2.520677   2.519027   4.881435
    15  H    2.948432   2.501884   4.258299   4.544681   2.351150
                   11         12         13         14         15
    11  H    0.000000
    12  H    4.757017   0.000000
    13  H    4.419755   1.770594   0.000000
    14  H    4.897578   1.772747   1.772744   0.000000
    15  H    2.818109   5.058137   5.300561   6.073626   0.000000
 Stoichiometry    C4H10O
 Framework group  C1[X(C4H10O)]
 Deg. of freedom    39
 Full point group                 C1      NOp   1
 Largest Abelian subgroup         C1      NOp   1
 Largest concise Abelian subgroup C1      NOp   1
                         Standard orientation:                         
 ---------------------------------------------------------------------
 Center     Atomic      Atomic             Coordinates (Angstroms)
 Number     Number       Type             X           Y           Z
 ---------------------------------------------------------------------
      1          8           0       -2.488642   -0.302325   -0.090460
      2          6           0       -0.032219   -0.339937   -0.029908
      3          6           0        1.221037    0.532286    0.025727
      4          6           0       -1.312817    0.487150    0.018578
      5          6           0        2.500726   -0.304883   -0.008030
      6          1           0       -0.035346   -0.945132   -0.948948
      7          1           0       -0.022014   -1.051405    0.813830
      8          1           0        1.199718    1.148461    0.937843
      9          1           0        1.211108    1.235710   -0.820836
     10          1           0       -1.332547    1.097613    0.938518
     11          1           0       -1.344705    1.181825   -0.830396
     12          1           0        2.539083   -0.994928    0.845058
     13          1           0        2.548168   -0.908895   -0.923421
     14          1           0        3.399827    0.321428    0.027159
     15          1           0       -2.514511   -0.913779    0.646675
 ---------------------------------------------------------------------
 Rotational constants (GHZ):          18.4832227           1.9684100           1.8690745
 Standard basis: 6-311++G(d,p) (5D, 7F)
 There are   185 symmetry adapted cartesian basis functions of A   symmetry.
 There are   180 symmetry adapted basis functions of A   symmetry.
   180 basis functions,   270 primitive gaussians,   185 cartesian basis functions
    21 alpha electrons       21 beta electrons
       nuclear repulsion energy       184.7769733444 Hartrees.
 NAtoms=   15 NActive=   15 NUniq=   15 SFac= 1.00D+00 NAtFMM=   60 NAOKFM=F Big=F
 Integral buffers will be    131072 words long.
 Raffenetti 2 integral format.
 Two-electron integral symmetry is turned on.
 R6APFD:  NTU= -4 IXU= 1 FactS= 1.050
 Nuclear repulsion after empirical dispersion term =      184.7699229654 Hartrees.
 One-electron integrals computed using PRISM.
 NBasis=   180 RedAO= T EigKep=  2.04D-05  NBF=   180
 NBsUse=   180 1.00D-06 EigRej= -1.00D+00 NBFU=   180
 Initial guess from the checkpoint file:  "BTAL0010.chk"
 B after Tr=     0.000000   -0.000000    0.000000
         Rot=    1.000000   -0.000426    0.000017   -0.000077 Ang=  -0.05 deg.
 ExpMin= 3.60D-02 ExpMax= 8.59D+03 ExpMxC= 1.30D+03 IAcc=3 IRadAn=         5 AccDes= 0.00D+00
 Harris functional with IExCor= 1009 and IRadAn=       5 diagonalized for initial guess.
 HarFok:  IExCor= 1009 AccDes= 0.00D+00 IRadAn=         5 IDoV= 1 UseB2=F ITyADJ=14
 ICtDFT=  3500011 ScaDFX=  1.000000  1.000000  1.000000  1.000000
 FoFCou: FMM=F IPFlag=           0 FMFlag=      100000 FMFlg1=           0
         NFxFlg=           0 DoJE=T BraDBF=F KetDBF=T FulRan=T
         wScrn=  0.000000 ICntrl=       500 IOpCl=  0 I1Cent=   200000004 NGrid=           0
         NMat0=    1 NMatS0=      1 NMatT0=    0 NMatD0=    1 NMtDS0=    0 NMtDT0=    0
 Petite list used in FoFCou.
 Requested convergence on RMS density matrix=1.00D-08 within  32 cycles.
 Requested convergence on MAX density matrix=1.00D-06.
 Requested convergence on             energy=1.00D-06.
 No special actions if energy rises.
 SCF Done:  E(RM08HX) =  -233.672563815     A.U. after    9 cycles
            NFock=  9  Conv=0.58D-08     -V/T= 2.0051
 QCSCF skips out because SCF is already converged.
 R6APFD:  NTU= -4 IXU= 1 FactS= 1.050
 Calling FoFJK, ICntrl=      2127 FMM=F ISym2X=0 I1Cent= 0 IOpClX= 0 NMat=1 NMatS=1 NMatT=0.
 ***** Axes restored to original set *****
 -------------------------------------------------------------------
 Center     Atomic                   Forces (Hartrees/Bohr)
 Number     Number              X              Y              Z
 -------------------------------------------------------------------
      1        8           0.001416907   -0.001460572   -0.000214950
      2        6          -0.000403970    0.000402395   -0.000097143
      3        6           0.000401086    0.000197873    0.000055298
      4        6          -0.001674588    0.001248264    0.000500400
      5        6          -0.000101288   -0.000503277    0.000008276
      6        1           0.000125131    0.000028838   -0.000116835
      7        1           0.000016999   -0.000129236    0.000118982
      8        1           0.000006308   -0.000023781    0.000078168
      9        1           0.000001590   -0.000080426   -0.000088100
     10        1          -0.000010008   -0.000115696   -0.000063616
     11        1           0.000292912   -0.000164148   -0.000019454
     12        1          -0.000040318    0.000021684    0.000026566
     13        1          -0.000051818    0.000013788   -0.000031801
     14        1          -0.000016024    0.000125946   -0.000019552
     15        1           0.000037084    0.000438349   -0.000136239
 -------------------------------------------------------------------
 Cartesian Forces:  Max     0.001674588 RMS     0.000472565

 GradGradGradGradGradGradGradGradGradGradGradGradGradGradGradGradGradGrad
 Berny optimization.
 Using GEDIIS/GDIIS optimizer.
 FormGI is forming the generalized inverse of G from B-inverse, IUseBI=4.
 Internal  Forces:  Max     0.001788416 RMS     0.000247215
 Search for a local minimum.
 Step number   3 out of a maximum of   79
 All quantities printed in internal units (Hartrees-Bohrs-Radians)
 Mixed Optimization -- En-DIIS/RFO-DIIS
 Update second derivatives using D2CorX and points    1    2    3
 DE= -1.61D-04 DEPred=-1.41D-04 R= 1.14D+00
 TightC=F SS=  1.41D+00  RLast= 5.25D-02 DXNew= 8.4853D-01 1.5750D-01
 Trust test= 1.14D+00 RLast= 5.25D-02 DXMaxT set to 5.05D-01
 ITU=  1  1  0
 Use linear search instead of GDIIS.
     Eigenvalues ---    0.00418   0.00472   0.00499   0.01342   0.03630
     Eigenvalues ---    0.03658   0.04804   0.04907   0.05065   0.05510
     Eigenvalues ---    0.05602   0.05789   0.08244   0.08308   0.11745
     Eigenvalues ---    0.12150   0.12177   0.13894   0.15626   0.16000
     Eigenvalues ---    0.16002   0.16178   0.20937   0.21882   0.25434
     Eigenvalues ---    0.29924   0.30234   0.32649   0.33773   0.33986
     Eigenvalues ---    0.34104   0.34122   0.34151   0.34272   0.34284
     Eigenvalues ---    0.34309   0.34871   0.39064   0.52558
 RFO step:  Lambda=-1.76926615D-05 EMin= 4.18153007D-03
 Quartic linear search produced a step of  0.15557.
 Iteration  1 RMS(Cart)=  0.00341570 RMS(Int)=  0.00001638
 Iteration  2 RMS(Cart)=  0.00001866 RMS(Int)=  0.00000190
 Iteration  3 RMS(Cart)=  0.00000000 RMS(Int)=  0.00000190
 Variable       Old X    -DE/DX   Delta X   Delta X   Delta X     New X
                                 (Linear)    (Quad)   (Total)
    R1        2.68429  -0.00179  -0.00158  -0.00388  -0.00546   2.67884
    R2        1.81050   0.00037  -0.00003   0.00050   0.00048   1.81098
    R3        2.88734   0.00031  -0.00079   0.00181   0.00102   2.88835
    R4        2.88229  -0.00003  -0.00073   0.00049  -0.00024   2.88204
    R5        2.07948  -0.00008   0.00018  -0.00032  -0.00014   2.07934
    R6        2.08572  -0.00017   0.00022  -0.00059  -0.00038   2.08534
    R7        2.89048  -0.00036  -0.00103  -0.00047  -0.00150   2.88898
    R8        2.08049  -0.00005   0.00012  -0.00013  -0.00002   2.08047
    R9        2.08005  -0.00002   0.00017  -0.00009   0.00008   2.08013
   R10        2.08671   0.00012   0.00043   0.00035   0.00078   2.08749
   R11        2.07384   0.00007   0.00044   0.00000   0.00044   2.07428
   R12        2.07474  -0.00001   0.00012  -0.00005   0.00007   2.07481
   R13        2.07442  -0.00002   0.00009  -0.00005   0.00004   2.07446
   R14        2.07172  -0.00008  -0.00018  -0.00012  -0.00030   2.07142
    A1        1.89441   0.00017   0.00126   0.00059   0.00185   1.89626
    A2        1.95839  -0.00037  -0.00218  -0.00046  -0.00264   1.95575
    A3        1.92484   0.00004   0.00024  -0.00021   0.00003   1.92488
    A4        1.90982   0.00010   0.00017  -0.00028  -0.00011   1.90971
    A5        1.89906   0.00022   0.00090   0.00123   0.00213   1.90118
    A6        1.91029   0.00010   0.00078  -0.00022   0.00055   1.91085
    A7        1.85872  -0.00007   0.00025  -0.00004   0.00020   1.85892
    A8        1.95303   0.00010  -0.00120   0.00180   0.00060   1.95362
    A9        1.91111  -0.00003   0.00035  -0.00051  -0.00016   1.91095
   A10        1.90648  -0.00000   0.00049  -0.00009   0.00041   1.90688
   A11        1.91857  -0.00002   0.00033  -0.00016   0.00017   1.91875
   A12        1.91808  -0.00002   0.00045  -0.00002   0.00043   1.91851
   A13        1.85391  -0.00003  -0.00037  -0.00118  -0.00156   1.85235
   A14        1.97271   0.00014  -0.00130   0.00292   0.00162   1.97433
   A15        1.93523  -0.00008  -0.00043  -0.00023  -0.00067   1.93456
   A16        1.84251   0.00020   0.00141   0.00196   0.00337   1.84588
   A17        1.91906  -0.00008   0.00003  -0.00193  -0.00191   1.91715
   A18        1.92097  -0.00016   0.00061  -0.00137  -0.00076   1.92021
   A19        1.86923  -0.00002  -0.00020  -0.00144  -0.00165   1.86758
   A20        1.93486  -0.00005  -0.00003  -0.00057  -0.00060   1.93426
   A21        1.93448  -0.00008  -0.00017  -0.00063  -0.00080   1.93368
   A22        1.95276   0.00017  -0.00025   0.00211   0.00186   1.95463
   A23        1.87613   0.00000  -0.00016  -0.00071  -0.00086   1.87526
   A24        1.88123  -0.00003   0.00029  -0.00022   0.00008   1.88130
   A25        1.88144  -0.00002   0.00033  -0.00007   0.00027   1.88170
    D1        1.06422  -0.00018  -0.00277  -0.01151  -0.01428   1.04994
    D2       -1.09979  -0.00011  -0.00149  -0.01096  -0.01246  -1.11225
    D3       -3.11835  -0.00016  -0.00183  -0.01024  -0.01207  -3.13041
    D4        3.13080  -0.00003   0.00091   0.00186   0.00277   3.13357
    D5        0.99903  -0.00005   0.00105   0.00121   0.00226   1.00129
    D6       -1.02446   0.00001   0.00102   0.00297   0.00399  -1.02047
    D7       -1.03222   0.00003   0.00073   0.00297   0.00370  -1.02852
    D8        3.11920   0.00000   0.00087   0.00232   0.00319   3.12239
    D9        1.09570   0.00006   0.00084   0.00408   0.00493   1.10063
   D10        1.00686   0.00002   0.00127   0.00264   0.00390   1.01076
   D11       -1.12491  -0.00000   0.00140   0.00199   0.00339  -1.12152
   D12        3.13478   0.00006   0.00138   0.00374   0.00512   3.13990
   D13        3.09683   0.00009  -0.00032  -0.00048  -0.00081   3.09602
   D14       -1.01351   0.00002  -0.00183  -0.00012  -0.00196  -1.01547
   D15        1.04161  -0.00014  -0.00169  -0.00388  -0.00558   1.03604
   D16        0.96195   0.00013   0.00019  -0.00078  -0.00059   0.96137
   D17        3.13480   0.00007  -0.00132  -0.00042  -0.00173   3.13306
   D18       -1.09326  -0.00010  -0.00118  -0.00418  -0.00535  -1.09862
   D19       -1.06269   0.00004  -0.00103  -0.00129  -0.00232  -1.06501
   D20        1.11016  -0.00002  -0.00253  -0.00093  -0.00347   1.10669
   D21       -3.11790  -0.00019  -0.00240  -0.00469  -0.00709  -3.12499
   D22       -1.04567   0.00005   0.00033   0.00185   0.00217  -1.04350
   D23        1.03634  -0.00002   0.00000   0.00018   0.00018   1.03652
   D24        3.13693   0.00002   0.00014   0.00109   0.00123   3.13816
   D25        1.08182   0.00007   0.00019   0.00230   0.00250   1.08431
   D26       -3.11936  -0.00001  -0.00013   0.00064   0.00050  -3.11885
   D27       -1.01877   0.00003   0.00001   0.00154   0.00155  -1.01722
   D28        3.11626   0.00000   0.00019   0.00076   0.00096   3.11722
   D29       -1.08491  -0.00007  -0.00013  -0.00090  -0.00103  -1.08595
   D30        1.01567  -0.00003   0.00001   0.00000   0.00002   1.01569
         Item               Value     Threshold  Converged?
 Maximum Force            0.001788     0.000450     NO 
 RMS     Force            0.000247     0.000300     YES
 Maximum Displacement     0.010948     0.001800     NO 
 RMS     Displacement     0.003421     0.001200     NO 
 Predicted change in Energy=-1.204542D-05
 GradGradGradGradGradGradGradGradGradGradGradGradGradGradGradGradGradGrad

                          Input orientation:                          
 ---------------------------------------------------------------------
 Center     Atomic      Atomic             Coordinates (Angstroms)
 Number     Number       Type             X           Y           Z
 ---------------------------------------------------------------------
      1          8           0       -2.471051    0.306614    0.026362
      2          6           0       -0.015513    0.355424   -0.009988
      3          6           0        1.239865   -0.516420   -0.001311
      4          6           0       -1.292104   -0.478879   -0.024768
      5          6           0        2.517827    0.322613    0.002114
      6          1           0       -0.029227    1.013305    0.871911
      7          1           0        0.002700    1.016028   -0.893738
      8          1           0        1.230499   -1.182564   -0.877797
      9          1           0        1.219816   -1.172920    0.882019
     10          1           0       -1.298090   -1.139538   -0.910064
     11          1           0       -1.327384   -1.127497    0.860052
     12          1           0        2.564921    0.965726   -0.886515
     13          1           0        2.552582    0.976091    0.883492
     14          1           0        3.418745   -0.301720    0.011829
     15          1           0       -2.487387    0.884838   -0.737698
 ---------------------------------------------------------------------
                    Distance matrix (angstroms):
                    1          2          3          4          5
     1  O    0.000000
     2  C    2.456292   0.000000
     3  C    3.801191   1.528451   0.000000
     4  C    1.417579   1.525112   2.532356   0.000000
     5  C    4.988963   2.533581   1.528782   3.893416   0.000000
     6  H    2.678968   1.100337   2.170983   2.150699   2.778684
     7  H    2.733001   1.103513   2.162268   2.160178   2.758485
     8  H    4.091042   2.161260   1.100937   2.754333   2.167260
     9  H    4.067391   2.158136   1.100757   2.759293   2.166953
    10  H    2.084248   2.165653   2.766826   1.104651   4.187025
    11  H    2.014867   2.162645   2.775991   1.097660   4.198157
    12  H    5.160309   2.792742   2.176263   4.207866   1.097942
    13  H    5.140015   2.789022   2.175705   4.209927   1.097756
    14  H    5.921147   3.496633   2.189472   4.714321   1.096148
    15  H    0.958330   2.630590   4.049469   1.948511   5.090735
                    6          7          8          9         10
     6  H    0.000000
     7  H    1.765939   0.000000
     8  H    3.077373   2.518243   0.000000
     9  H    2.517894   3.070208   1.759875   0.000000
    10  H    3.069231   2.517694   2.529160   3.090716   0.000000
    11  H    2.503675   3.072393   3.092881   2.547699   1.770399
    12  H    3.134315   2.562725   2.529014   3.083964   4.399494
    13  H    2.582103   3.108382   3.083802   2.528738   4.745567
    14  H    3.789135   3.771721   2.521060   2.520221   4.878561
    15  H    2.941071   2.498418   4.256342   4.538855   2.354195
                   11         12         13         14         15
    11  H    0.000000
    12  H    4.752065   0.000000
    13  H    4.413589   1.770080   0.000000
    14  H    4.891537   1.772698   1.772805   0.000000
    15  H    2.819203   5.055146   5.295080   6.070594   0.000000
 Stoichiometry    C4H10O
 Framework group  C1[X(C4H10O)]
 Deg. of freedom    39
 Full point group                 C1      NOp   1
 Largest Abelian subgroup         C1      NOp   1
 Largest concise Abelian subgroup C1      NOp   1
                         Standard orientation:                         
 ---------------------------------------------------------------------
 Center     Atomic      Atomic             Coordinates (Angstroms)
 Number     Number       Type             X           Y           Z
 ---------------------------------------------------------------------
      1          8           0       -2.487906   -0.299005   -0.090593
      2          6           0       -0.032796   -0.343033   -0.028397
      3          6           0        1.219636    0.531376    0.026264
      4          6           0       -1.312294    0.485636    0.018065
      5          6           0        2.500390   -0.302645   -0.009109
      6          1           0       -0.034146   -0.950641   -0.945758
      7          1           0       -0.022497   -1.051934    0.817235
      8          1           0        1.197942    1.147473    0.938413
      9          1           0        1.207510    1.236152   -0.819200
     10          1           0       -1.330690    1.095774    0.938743
     11          1           0       -1.339605    1.182584   -0.829504
     12          1           0        2.539453   -0.994278    0.842709
     13          1           0        2.547484   -0.905754   -0.925139
     14          1           0        3.399239    0.323724    0.026561
     15          1           0       -2.511058   -0.919063    0.639742
 ---------------------------------------------------------------------
 Rotational constants (GHZ):          18.5188434           1.9699844           1.8706767
 Standard basis: 6-311++G(d,p) (5D, 7F)
 There are   185 symmetry adapted cartesian basis functions of A   symmetry.
 There are   180 symmetry adapted basis functions of A   symmetry.
   180 basis functions,   270 primitive gaussians,   185 cartesian basis functions
    21 alpha electrons       21 beta electrons
       nuclear repulsion energy       184.8530938705 Hartrees.
 NAtoms=   15 NActive=   15 NUniq=   15 SFac= 1.00D+00 NAtFMM=   60 NAOKFM=F Big=F
 Integral buffers will be    131072 words long.
 Raffenetti 2 integral format.
 Two-electron integral symmetry is turned on.
 R6APFD:  NTU= -4 IXU= 1 FactS= 1.050
 Nuclear repulsion after empirical dispersion term =      184.8460404927 Hartrees.
 One-electron integrals computed using PRISM.
 NBasis=   180 RedAO= T EigKep=  2.04D-05  NBF=   180
 NBsUse=   180 1.00D-06 EigRej= -1.00D+00 NBFU=   180
 Initial guess from the checkpoint file:  "BTAL0010.chk"
 B after Tr=    -0.000000    0.000000   -0.000000
         Rot=    1.000000   -0.000310    0.000001   -0.000032 Ang=  -0.04 deg.
 Requested convergence on RMS density matrix=1.00D-08 within  32 cycles.
 Requested convergence on MAX density matrix=1.00D-06.
 Requested convergence on             energy=1.00D-06.
 No special actions if energy rises.
 SCF Done:  E(RM08HX) =  -233.672578522     A.U. after    9 cycles
            NFock=  9  Conv=0.44D-08     -V/T= 2.0051
 QCSCF skips out because SCF is already converged.
 R6APFD:  NTU= -4 IXU= 1 FactS= 1.050
 Calling FoFJK, ICntrl=      2127 FMM=F ISym2X=0 I1Cent= 0 IOpClX= 0 NMat=1 NMatS=1 NMatT=0.
 ***** Axes restored to original set *****
 -------------------------------------------------------------------
 Center     Atomic                   Forces (Hartrees/Bohr)
 Number     Number              X              Y              Z
 -------------------------------------------------------------------
      1        8           0.000054462   -0.000393164   -0.000005619
      2        6           0.000048963   -0.000009302   -0.000014104
      3        6           0.000151040   -0.000038701   -0.000001569
      4        6          -0.000485920    0.000233454   -0.000073505
      5        6          -0.000022892    0.000008177    0.000008822
      6        1           0.000042431   -0.000016372   -0.000024740
      7        1           0.000013190   -0.000042597    0.000026988
      8        1          -0.000035131    0.000030689    0.000002449
      9        1          -0.000039076    0.000041012   -0.000007692
     10        1           0.000052406   -0.000061335    0.000077426
     11        1           0.000082476    0.000069587    0.000001170
     12        1           0.000023690    0.000003336    0.000005367
     13        1           0.000037665    0.000005952   -0.000007699
     14        1          -0.000010015    0.000002199   -0.000008315
     15        1           0.000086711    0.000167065    0.000021020
 -------------------------------------------------------------------
 Cartesian Forces:  Max     0.000485920 RMS     0.000110997

 GradGradGradGradGradGradGradGradGradGradGradGradGradGradGradGradGradGrad
 Berny optimization.
 Using GEDIIS/GDIIS optimizer.
 FormGI is forming the generalized inverse of G from B-inverse, IUseBI=4.
 Internal  Forces:  Max     0.000241536 RMS     0.000057528
 Search for a local minimum.
 Step number   4 out of a maximum of   79
 All quantities printed in internal units (Hartrees-Bohrs-Radians)
 Mixed Optimization -- En-DIIS/RFO-DIIS
 Swapping is turned off.
 Update second derivatives using D2CorX and points    1    2    3    4
 DE= -1.47D-05 DEPred=-1.20D-05 R= 1.22D+00
 TightC=F SS=  1.41D+00  RLast= 2.94D-02 DXNew= 8.4853D-01 8.8303D-02
 Trust test= 1.22D+00 RLast= 2.94D-02 DXMaxT set to 5.05D-01
 ITU=  1  1  1  0
     Eigenvalues ---    0.00413   0.00478   0.00498   0.00998   0.03644
     Eigenvalues ---    0.03653   0.04868   0.04935   0.05194   0.05498
     Eigenvalues ---    0.05589   0.05717   0.08189   0.08320   0.11631
     Eigenvalues ---    0.12156   0.12163   0.13965   0.15796   0.16000
     Eigenvalues ---    0.16103   0.16194   0.20845   0.21928   0.25338
     Eigenvalues ---    0.30071   0.30295   0.32218   0.33987   0.34021
     Eigenvalues ---    0.34106   0.34133   0.34249   0.34276   0.34295
     Eigenvalues ---    0.34303   0.35680   0.39640   0.52777
 En-DIIS/RFO-DIIS/Sim-DIIS IScMMF=       -3 using points:     4    3
 RFO step:  Lambda=-4.78319341D-06.
 DidBck=F Rises=F RFO-DIIS coefs:    1.63195   -0.63195
 Iteration  1 RMS(Cart)=  0.00206224 RMS(Int)=  0.00000937
 Iteration  2 RMS(Cart)=  0.00000984 RMS(Int)=  0.00000094
 Iteration  3 RMS(Cart)=  0.00000000 RMS(Int)=  0.00000094
 Variable       Old X    -DE/DX   Delta X   Delta X   Delta X     New X
                                 (Linear)    (Quad)   (Total)
    R1        2.67884  -0.00024  -0.00345   0.00158  -0.00187   2.67697
    R2        1.81098   0.00008   0.00030  -0.00014   0.00016   1.81114
    R3        2.88835   0.00006   0.00064  -0.00046   0.00018   2.88854
    R4        2.88204   0.00016  -0.00015   0.00065   0.00049   2.88254
    R5        2.07934  -0.00003  -0.00009   0.00003  -0.00006   2.07928
    R6        2.08534  -0.00005  -0.00024   0.00012  -0.00012   2.08521
    R7        2.88898   0.00003  -0.00095   0.00068  -0.00026   2.88871
    R8        2.08047  -0.00002  -0.00001  -0.00000  -0.00001   2.08046
    R9        2.08013  -0.00003   0.00005  -0.00008  -0.00002   2.08011
   R10        2.08749  -0.00002   0.00049  -0.00029   0.00020   2.08769
   R11        2.07428  -0.00005   0.00028  -0.00025   0.00003   2.07430
   R12        2.07481  -0.00000   0.00005   0.00000   0.00005   2.07486
   R13        2.07446   0.00000   0.00003   0.00003   0.00005   2.07451
   R14        2.07142  -0.00001  -0.00019   0.00008  -0.00011   2.07131
    A1        1.89626  -0.00001   0.00117  -0.00062   0.00055   1.89681
[...]
 ! D27   D(8,3,5,14)           -58.1626         -DE/DX =    0.0                 !
 ! D28   D(9,3,5,12)           178.735          -DE/DX =    0.0                 !
 ! D29   D(9,3,5,13)           -62.0561         -DE/DX =    0.0                 !
 ! D30   D(9,3,5,14)            58.3454         -DE/DX =    0.0                 !
 --------------------------------------------------------------------------------
 GradGradGradGradGradGradGradGradGradGradGradGradGradGradGradGradGradGrad


 ----------------------------------------------------------------------

 Electric dipole moment (input orientation):
 (Debye = 10**-18 statcoulomb cm , SI units = C m)
                  (au)            (Debye)         (10**-30 SI)
   Tot        0.762423D+00      0.193789D+01      0.646409D+01
   x          0.600938D+00      0.152743D+01      0.509496D+01
   y          0.421645D-01      0.107172D+00      0.357486D+00
   z         -0.467317D+00     -0.118780D+01     -0.396207D+01

 Dipole polarizability, Alpha (input orientation).
 (esu units = cm**3 , SI units = C**2 m**2 J**-1)
 Alpha(0;0):
               (au)            (10**-24 esu)      (10**-40 SI)
   iso        0.547943D+02      0.811967D+01      0.903435D+01
   aniso      0.114749D+02      0.170040D+01      0.189196D+01
   xx         0.620578D+02      0.919602D+01      0.102319D+02
   yx        -0.237351D+00     -0.351718D-01     -0.391339D-01
   yy         0.530942D+02      0.786775D+01      0.875406D+01
   zx         0.491213D+00      0.727903D-01      0.809901D-01
   zy        -0.541044D+00     -0.801745D-01     -0.892061D-01
   zz         0.492308D+02      0.729525D+01      0.811706D+01

 ----------------------------------------------------------------------

 Dipole orientation:
     8         -2.85525107         -0.69793345         -3.67845936
     6         -0.05590581         -0.66932861          0.02627522
     6          1.46230404          1.03685059          1.79501222
     6         -1.51422650          0.84300308         -1.94769355
     6          2.91268747         -0.48112605          3.77945999
     1          1.20677147         -2.00648330         -0.94384787
     1         -1.38780738         -1.81783819          1.14667621
     1          0.18004693          2.38295968          2.72863543
     1          2.78610119          2.18261822          0.67195024
     1         -2.79821423          2.18909227         -1.00046023
     1         -0.19826173          1.96462848         -3.09334605
     1          1.61396739         -1.60340265          4.94504366
     1          4.23584470         -1.79967437          2.87724678
     1          4.00299762          0.74225868          5.04647953
     1         -4.01545518         -1.73522814         -2.75188037

 Electric dipole moment (dipole orientation):
 (Debye = 10**-18 statcoulomb cm , SI units = C m)
                  (au)            (Debye)         (10**-30 SI)
   Tot        0.762423D+00      0.193789D+01      0.646409D+01
   x          0.000000D+00      0.000000D+00      0.000000D+00
   y          0.000000D+00      0.000000D+00      0.000000D+00
   z          0.762423D+00      0.193789D+01      0.646409D+01

 Dipole polarizability, Alpha (dipole orientation).
 (esu units = cm**3 , SI units = C**2 m**2 J**-1)
 Alpha(0;0):
               (au)            (10**-24 esu)      (10**-40 SI)
   iso        0.547943D+02      0.811967D+01      0.903435D+01
   aniso      0.114749D+02      0.170040D+01      0.189196D+01
   xx         0.545895D+02      0.808932D+01      0.900059D+01
   yx         0.881765D+00      0.130664D+00      0.145383D+00
   yy         0.530406D+02      0.785980D+01      0.874521D+01
   zx         0.629479D+01      0.932792D+00      0.103787D+01
   zy        -0.112549D+00     -0.166781D-01     -0.185569D-01
   zz         0.567528D+02      0.840989D+01      0.935726D+01

 ----------------------------------------------------------------------
 1\1\GINC-PITOMBA\Freq\RM08HX\6-311++G(d,p)\C4H10O1\VALTER\30-Sep-2025\
 0\\#N Geom=AllCheck Guess=TCheck SCRF=Check GenChk RM08HX/6-311++G(d,p
 ) Freq\\BTAL0010\\0,1\O,-2.4732179107,0.3018122476,0.0226296764\C,-0.0
 168021089,0.3550902908,-0.0122523538\C,1.2392864001,-0.5160183237,-0.0
 026397097\C,-1.2929782756,-0.4805968113,-0.0245088346\C,2.5171701421,0
 .323070475,0.0030724984\H,-0.0297395353,1.0148917778,0.8681969828\H,0.
 0007452645,1.0135393999,-0.8975740518\H,1.2307575755,-1.1813374561,-0.
 8796789448\H,1.21795311,-1.1729811815,0.8802450174\H,-1.2963937475,-1.
 145482385,-0.9066837789\H,-1.3266275208,-1.1253574856,0.8631428525\H,2
 .5647339107,0.968511766,-0.8838321703\H,2.5525011315,0.9741670428,0.88
 61764969\H,3.4178710865,-0.301602218,0.011072464\H,-2.4790595221,0.893
 3928613,-0.7314661444\\Version=ES64L-G16RevB.01\State=1-A\HF=-233.6725
 831\RMSD=1.549e-09\RMSF=2.066e-05\ZeroPoint=0.1371612\Thermal=0.143922
 2\Dipole=0.600938,0.0421645,-0.4673166\DipoleDeriv=-1.0217564,0.168801
 1,-0.0748134,0.2504561,-0.6037499,-0.1026353,-0.1203615,-0.0831183,-0.
 347279,-0.1449675,0.0079642,-0.0160292,-0.0829842,0.0363781,-0.0167217
 ,0.00758,-0.0306903,0.1423079,0.0769816,-0.0045127,-0.000326,-0.025870
 8,0.0957285,0.0029663,-0.0049274,0.0048504,0.1363565,0.7894465,-0.1897
 365,-0.0040745,-0.2047766,0.4588598,0.0542938,0.0458501,0.0378908,0.32
 3476,0.0032904,-0.0199512,-0.0028325,-0.0000938,0.0643024,0.0004431,-0
 .0001165,-0.0010061,0.0929137,0.0263321,-0.0031435,-0.0063891,-0.00183
 17,-0.0346559,-0.0775815,0.0002717,-0.1073005,-0.0625882,0.0073197,0.0
 03095,-0.0037624,0.0060182,-0.0466975,0.0917314,-0.0190595,0.1308424,-
 0.0905805,0.0093365,-0.0218269,-0.0209695,0.0009059,-0.0459175,-0.0909
 279,-0.0058427,-0.1256816,-0.07484,0.004875,-0.0227511,0.0213774,0.001
 3152,-0.043047,0.0905182,0.0066433,0.123207,-0.0717306,-0.0341244,0.03
 43961,0.0098161,0.0185811,-0.0775135,-0.0905819,0.0152243,-0.1500947,-
 0.1067253,0.0121481,0.0102607,-0.0061385,0.0032321,-0.0262587,0.07063,
 0.000476,0.1152432,-0.0657444,0.0416658,0.0025236,-0.0311847,-0.047336
 3,-0.0175909,0.0878614,0.0212933,0.112232,-0.0744359,0.0431775,0.00393
 05,0.0318254,-0.0460858,-0.0171769,-0.0875407,-0.0201867,-0.1103634,-0
 .0703353,-0.1368177,0.0587379,-0.0020816,0.1058001,-0.009154,0.0009734
 ,-0.0016517,0.0005318,0.0789893,0.3230928,-0.0277872,0.1055827,0.02267
 06,0.2664933,0.0665715,0.0748072,0.0834574,0.1902157\Polar=62.0577937,
 -0.237351,53.0942325,0.491213,-0.5410442,49.2307623\Quadrupole=-3.6313
 045,1.6099977,2.0213068,-0.8081682,2.5986191,-1.1912456\PG=C01 [X(C4H1
 0O1)]\NImag=0\\0.28040551,-0.12908240,0.34497937,-0.03112024,-0.265480
 19,0.41432022,-0.04266359,-0.00809946,0.00094920,0.47105602,0.03200332
 ,0.01052434,0.00059185,0.00173010,0.54181979,0.00042346,0.00218087,0.0
 0251270,-0.00285618,0.00647124,0.58425870,-0.00475993,-0.00145282,-0.0
 0021161,-0.15336637,0.05864497,-0.00075167,0.46479774,-0.00899223,-0.0
 0045032,0.00013027,0.05506741,-0.12348084,-0.00052596,0.00667106,0.533
 91772,0.00036092,0.00004290,0.00089045,-0.00113179,-0.00008249,-0.0790
 3400,-0.00119865,0.00038062,0.58358544,-0.18649153,0.09380067,-0.00036
 536,-0.14621048,-0.06908169,-0.00007028,-0.02718340,-0.00841621,-0.000
 39408,0.46214507,0.06470852,-0.12677214,0.01725297,-0.05791987,-0.1321
 4900,-0.00098685,0.01701355,0.01484862,0.00016118,-0.00113222,0.550677
 36,0.03026659,-0.00320129,-0.08717366,-0.00277571,0.00026017,-0.083644
 73,-0.00024924,-0.00022016,-0.00124322,-0.00252025,-0.02423189,0.61157
 645,-0.00189720,-0.00045849,-0.00000601,-0.03234968,-0.01590587,-0.000
 36717,-0.16317470,-0.05758154,-0.00044269,-0.00123198,0.00417604,0.000
 02589,0.51319694,0.00309571,0.00037812,0.00002735,0.01714698,0.0135850
 6,0.00019284,-0.06126582,-0.11921142,-0.00024167,0.00153334,-0.0045354
 1,-0.00000084,-0.04590496,0.53759147,-0.00011384,-0.00000268,0.0006717
 3,-0.00023416,-0.00009789,-0.00030231,-0.00032305,-0.00026364,-0.07822
 903,-0.00009890,0.00004501,-0.00102696,-0.00011214,0.00034467,0.561336
 29,0.00309693,0.00175071,0.00127003,-0.04542334,0.00177122,0.00247661,
 -0.00183358,0.01671923,0.02346055,-0.00164587,-0.01893521,-0.02471608,
 0.00180007,0.00055372,0.00096244,0.05246797,0.00082957,0.00185133,0.00
 143041,0.00036194,-0.13435472,-0.11924888,0.00098602,-0.01198924,-0.01
 537869,0.00021395,-0.01337160,-0.01692487,-0.00100339,0.00052884,0.000
 39050,-0.00134763,0.14884200,-0.00068179,0.00139408,0.00037963,0.00175
 006,-0.12032297,-0.21605713,-0.00012375,0.00088835,0.00102483,0.000799
 87,-0.00043177,-0.00012309,-0.00006868,0.00023672,0.00018586,-0.002134
 80,0.13303115,0.23052069,0.00303924,0.00022020,-0.00036403,-0.04649539
 ,-0.00338942,0.00348567,-0.00151652,0.01703066,-0.02383663,-0.00251097
 ,-0.01821504,0.02522299,0.00171418,0.00069505,-0.00097807,-0.00087796,
 -0.00012760,-0.00000185,0.05497660,0.00062975,0.00156022,-0.00169359,-
 0.00375599,-0.13008078,0.11429508,0.00096693,-0.01253679,0.01616657,0.
 00038980,-0.01328700,0.01711670,-0.00104184,0.00050784,-0.00041571,0.0
 0021406,0.01097125,-0.01501864,0.00315573,0.14459323,0.00120475,-0.001
 73997,0.00095576,0.00287264,0.11524502,-0.21104826,0.00016552,0.000091
 62,-0.00046431,-0.00132579,-0.00026369,0.00020526,0.00022459,-0.000204
 25,0.00019428,0.00028072,0.01563411,-0.02030720,-0.00373513,-0.1291705
 2,0.22586215,0.00005318,-0.00077233,-0.00059319,-0.00144793,0.01671516
 ,0.02360958,-0.04571246,-0.00026862,-0.00086465,0.00102762,0.00141941,
 0.00148509,-0.00143774,-0.01782582,-0.02408510,-0.00449357,0.00289657,
 -0.00045509,0.00099517,-0.00047275,-0.00047495,0.05546230,0.00002212,0
 .00039100,0.00049802,0.00139652,-0.01263897,-0.01636129,-0.00083315,-0
 .13575459,-0.11833071,-0.00109405,-0.00005182,-0.00022617,-0.00099745,
 -0.01103892,-0.01464009,0.00320968,-0.00153672,0.00041411,-0.00053507,
 0.00002080,0.00009992,0.00069386,0.14919694,0.00017454,0.00040641,0.00
 026385,0.00064531,0.00072741,0.00061085,-0.00103597,-0.11926457,-0.212
 44529,-0.00046777,-0.00042755,-0.00019958,-0.00006113,0.00106797,0.000
 96420,-0.00029300,0.00029253,0.00155299,0.00051309,-0.00006713,0.00071
 882,0.00104401,0.13254269,0.22704421,0.00000510,-0.00050544,0.00045516
 ,-0.00144259,0.01653572,-0.02362922,-0.04615132,-0.00206838,0.00348829
 ,0.00108998,0.00134637,-0.00140089,-0.00183549,-0.01752540,0.02418984,
 0.00099378,-0.00047539,0.00048333,-0.00453419,0.00305244,0.00003347,-0
 .00090968,0.00012390,-0.00009630,0.05610589,0.00007328,0.00034840,-0.0
 0046438,0.00117513,-0.01246830,0.01643505,-0.00245934,-0.13369063,0.11
 756625,-0.00092725,-0.00006314,0.00014680,-0.00112733,-0.01093411,0.01
 467693,-0.00054976,0.00000456,-0.00010959,0.00329080,-0.00159025,-0.00
 010502,0.00034969,0.01158543,-0.01557513,0.00244852,0.14692809,-0.0003
 0342,-0.00037106,0.00027701,-0.00061215,-0.00030899,0.00010853,0.00363
 479,0.11864784,-0.21491257,0.00047878,0.00033479,-0.00012443,0.0000754
 8,-0.00124122,0.00121798,-0.00046254,0.00002302,0.00065723,0.00014787,
 -0.00026866,0.00157895,0.00039826,0.01518494,-0.02069905,-0.00374257,-
 0.13167685,0.22967745,-0.00850236,0.02341440,0.02294689,-0.00134459,-0
 .01663286,-0.02321663,0.00179717,-0.00084344,-0.00065631,-0.04775450,-
 0.00735764,-0.01087653,-0.00012285,-0.00001837,0.00008494,-0.00457862,
 -0.00309008,0.00024361,0.00093582,0.00034414,0.00068835,-0.00063153,0.
 00052413,0.00060756,0.00001454,0.00010025,0.00000394,0.05801651,0.0094
 3518,-0.01092886,-0.01130964,-0.00311577,-0.01091535,-0.01763147,0.000
 66649,-0.00025254,-0.00013455,-0.00813408,-0.12915504,-0.10750225,-0.0
 0020112,0.00030030,0.00037338,-0.00303837,-0.00144360,0.00007113,0.000
 84092,0.00018506,0.00009843,-0.00053107,0.00062832,0.00021850,-0.00012
 141,0.00000456,0.00009360,0.00400114,0.14047291,0.00230006,0.00146232,
 0.00880299,0.00089167,0.00037962,0.00003376,-0.00001894,-0.00017002,-0
 .00006423,-0.00809630,-0.11006679,-0.21340192,-0.00025509,0.00036638,0
 .00030938,0.00012651,0.00017271,0.00162377,-0.00049587,-0.00020016,0.0
 0087871,-0.00066541,0.00018720,0.00024760,0.00004106,-0.00010409,-0.00
 005520,0.00737534,0.12272084,0.22110710,-0.00678598,0.02611887,-0.0277
 3040,-0.00206734,-0.01621632,0.02334784,0.00168245,-0.00081236,0.00073
 566,-0.04670012,-0.01310803,0.01653049,-0.00014201,0.00001003,-0.00010
 283,0.00098046,0.00044782,-0.00051154,-0.00449738,-0.00303891,-0.00042
 147,-0.00000241,0.00009040,-0.00002491,-0.00061637,0.00052733,-0.00064
 635,0.00125440,0.00003405,-0.00188462,0.06165398,0.00696332,-0.0169003
 8,0.01855827,-0.00286205,-0.01103118,0.01662276,0.00080443,0.00010422,
 -0.00000281,-0.00761386,-0.13028910,0.11399402,-0.00008925,0.00015463,
 -0.00032921,0.00060020,0.00005789,0.00002614,-0.00292719,-0.00131519,-
 0.00007723,-0.00012033,-0.00000213,-0.00011809,-0.00046915,0.00057720,
 -0.00011305,0.00014928,0.01162558,-0.01518178,0.00193961,0.14860791,-0
 .00262825,0.00064131,0.00352092,-0.00006242,-0.00101116,0.00133589,0.0
 0002488,0.00006910,0.00007728,0.00866050,0.12142067,-0.22704746,0.0002
 0136,-0.00032427,0.00029851,0.00043636,0.00003910,0.00080509,-0.000353
 92,-0.00048294,0.00163829,-0.00002700,0.00011047,-0.00007393,0.0006251
 6,-0.00014119,0.00019827,0.00180694,0.01412866,-0.02032206,-0.00890968
 ,-0.13281792,0.23758745,0.00007105,0.00014001,-0.00012491,0.00197531,-
 0.00076482,0.00122775,-0.00218503,-0.01674444,0.02409633,-0.00011287,-
 0.00022883,-0.00007469,-0.04625750,-0.00364671,0.00611522,-0.00003495,
 0.00010062,-0.00002801,-0.00050743,0.00050853,-0.00065675,0.00103167,0
 .00057764,-0.00036690,-0.00460634,-0.00310055,-0.00018044,0.00004567,0
 .00000842,0.00002770,0.00010685,0.00021606,-0.00017394,0.05056003,-0.0
 0016902,0.00007378,-0.00008452,0.00106826,0.00039412,-0.00037049,-0.00
 100308,-0.01196407,0.01573291,0.00017913,0.00004704,-0.00019104,-0.004
 07033,-0.13423625,0.12308577,-0.00007289,0.00001440,-0.00010318,-0.000
 53209,0.00056288,-0.00010167,0.00044468,-0.00011914,-0.00013061,-0.003
 48449,-0.00122142,-0.00061297,-0.00001551,-0.00005946,-0.00000676,0.00
 018425,0.00007752,-0.00006316,0.00860285,0.14514564,0.00019072,-0.0000
 5267,-0.00001104,-0.00017783,-0.00024117,0.00013462,-0.00014478,-0.000
 84554,0.00112750,0.00002427,-0.00026933,0.00030955,0.00677848,0.123421
 51,-0.22001060,-0.00000430,0.00011573,-0.00010117,0.00070272,-0.000073
 37,0.00008663,0.00053111,0.00006720,0.00063952,-0.00036394,-0.00031780
 ,0.00151930,-0.00001202,-0.00002133,-0.00002319,-0.00017316,-0.0000583
 0,-0.00002719,-0.00755058,-0.13605679,0.23572356,0.00005306,0.00018010
 ,0.00014148,0.00199797,-0.00074170,-0.00115929,-0.00188291,-0.01697586
 ,-0.02399574,-0.00011832,-0.00027242,0.00002032,-0.04605157,-0.0021342
 9,-0.00368718,-0.00050148,0.00051647,0.00063107,-0.00001388,0.00009409
 ,0.00003430,-0.00462384,-0.00310698,0.00011288,0.00103290,0.00057230,0
 .00035403,0.00008963,0.00024994,0.00019732,0.00004583,-0.00000979,-0.0
 0002540,-0.00137927,0.00051513,0.00032555,0.05030524,-0.00018516,0.000
 07813,0.00006584,0.00107186,0.00042417,0.00040691,-0.00087632,-0.01203
 501,-0.01564401,0.00017216,0.00002174,0.00017039,-0.00257430,-0.136139
 23,-0.12407121,-0.00053499,0.00054099,0.00005394,-0.00007845,0.0000085
 6,0.00009461,-0.00348225,-0.00121069,0.00056837,0.00044171,-0.00011867
 ,0.00012915,0.00017076,0.00009796,0.00008211,-0.00001715,-0.00005890,-
 0.00000116,0.00032480,0.01196469,0.01580930,0.00697437,0.14720917,-0.0
 0017716,0.00003601,-0.00000029,0.00020544,0.00022049,0.00012203,0.0001
 0633,0.00070771,0.00096789,-0.00004554,0.00026114,0.00029497,-0.004355
 29,-0.12444370,-0.21916856,-0.00067049,0.00005934,0.00005810,-0.000003
 69,-0.00011659,-0.00011178,0.00032356,0.00031929,0.00150917,-0.0005287
 9,-0.00004464,0.00063114,0.00017251,0.00006936,-0.00001454,0.00001810,
 0.00001162,-0.00002360,-0.00009444,-0.01594836,-0.01980491,0.00493592,
 0.13707122,0.23467099,-0.00132577,-0.00007992,-0.00004291,-0.00392503,
 -0.00556349,-0.00004974,-0.02003541,0.01708708,-0.00017377,0.00006479,
 0.00179786,0.00001662,-0.22230403,0.12553050,-0.00171173,0.00029689,-0
 .00011309,0.00010636,0.00026916,-0.00009670,-0.00011989,0.00057822,0.0
 0000206,-0.00064091,0.00050220,0.00000092,0.00064613,-0.00002224,-0.00
 011535,-0.00011790,-0.00001326,-0.00005918,0.00010022,0.00139041,-0.00
 164290,-0.00013403,0.00107962,-0.00143200,0.00010390,0.24329814,-0.000
 60783,-0.00011595,0.00001056,-0.00286047,-0.00243416,-0.00003488,-0.01
 715933,0.01286211,-0.00019548,-0.00057488,0.00104550,-0.00001950,0.126
 87928,-0.13707162,0.00100591,-0.00014803,-0.00000433,0.00024301,-0.000
 14628,-0.00000797,-0.00024773,0.00079639,0.00070592,-0.00016492,0.0007
 7002,0.00070226,0.00017306,0.00007673,0.00001553,-0.00004368,0.0000614
 6,0.00003388,0.00004530,0.01400366,-0.01068192,-0.00153066,0.01417603,
 -0.01076298,0.00182971,-0.13527086,0.14576232,-0.00001649,-0.00002613,
 -0.00002834,-0.00001402,-0.00002868,0.00021921,-0.00007722,0.00005889,
 -0.00138229,-0.00000056,0.00002274,0.00066262,-0.00174034,0.00099278,-
 0.04646728,-0.00032088,0.00028929,0.00019835,0.00030588,-0.00030124,0.
 00022080,-0.00030678,0.00025977,-0.00007582,0.00030439,-0.00026132,-0.
 00005910,0.00006354,0.00005595,-0.00003233,-0.00006298,-0.00005601,-0.
 00003195,-0.02221344,0.01481078,0.00044548,0.02214382,-0.01474145,0.00
 088483,0.00191734,-0.00109558,0.04544230,-0.03429772,-0.00517409,0.034
 79590,0.00170703,0.00089568,-0.00247071,-0.00047575,0.00012765,0.00055
 255,-0.00436742,0.02670751,-0.03095461,0.00009356,-0.00024397,0.000094
 57,-0.00024672,-0.00019576,-0.00000880,-0.00097644,-0.00094926,0.00122
 963,0.00011100,-0.00007363,-0.00011050,0.00035159,-0.00037397,0.000208
 20,0.00080295,0.00002103,0.00057447,-0.00489911,0.00347792,0.00032520,
 -0.00009760,-0.00000399,0.00000778,-0.00003297,0.00002497,0.00000964,0
 .00014630,0.00000411,0.00001772,0.04218131,0.02127587,-0.20501703,0.24
 046680,-0.00040458,0.00280581,-0.00144491,-0.00070357,-0.00036721,-0.0
 0004002,0.00068520,-0.01696600,0.02082994,-0.00009945,0.00012071,-0.00
 010174,-0.00019195,-0.00011105,-0.00037249,0.00071780,0.00040814,0.000
 64638,0.00015743,-0.00017543,-0.00007587,-0.00006902,-0.00006399,0.000
 00641,-0.00082292,-0.00057538,0.00040208,0.00377896,-0.00164195,-0.001
 61281,0.00000275,0.00000217,0.00005321,-0.00003739,-0.00001994,-0.0000
 3261,-0.00004493,-0.00004861,0.00002023,-0.02424419,0.22164978,0.00012
 015,0.26471008,-0.34538193,0.00054993,-0.00180245,0.00075015,0.0002033
 6,0.00031550,0.00010155,0.00342142,-0.00282063,0.00093620,0.00010273,-
 0.00019425,0.00002653,-0.00041114,0.00007455,-0.00041795,-0.00060903,0
 .00023018,-0.00040811,0.00008054,-0.00012534,-0.00005753,0.00014098,-0
 .00002501,-0.00001553,0.00076788,-0.00123060,0.00091014,-0.00016414,-0
 .00045840,0.00206450,-0.00000290,0.00004009,-0.00000806,-0.00002906,0.
 00000598,-0.00001545,0.00010031,0.00002490,0.00000351,-0.00427104,-0.2
 5874459,0.34151199\\0.00005594,-0.00004623,0.00001324,0.00001362,0.000
 01565,0.00000070,0.00001219,-0.00001047,0.00000141,-0.00010111,0.00003
 962,-0.00001541,-0.00000716,0.00000204,0.00000372,0.00000364,-0.000004
 58,0.00000085,0.00000277,-0.00000495,0.00001157,-0.00000330,0.00000845
 ,-0.00000271,-0.00000569,0.00000336,-0.00000413,0.00000958,-0.00000229
 ,-0.00000549,0.00000583,0.00000079,-0.00001032,0.00000582,0.00000075,0
 .00000926,0.00000449,-0.00000513,0.00000469,0.00000226,-0.00000279,0.0
 0000307,0.00000112,0.00000578,-0.00001046\\\@


 THE UNDERLYING PHYSICAL LAWS NECESSARY FOR THE 
 MATHEMATICAL THEORY OF A LARGE PART OF PHYSICS AND THE
 WHOLE OF CHEMISTRY ARE THUS COMPLETELY KNOWN, AND THE
 DIFFICULTY IS ONLY THAT THE EXACT APPLICATION OF THESE
 LAWS LEADS TO EQUATIONS MUCH TOO COMPLICATED 
 TO BE SOLUBLE.

                                        -- P. A. M. DIRAC, 1929
 Job cpu time:       0 days  0 hours 52 minutes 22.0 seconds.
 Elapsed time:       0 days  0 hours  3 minutes 17.8 seconds.
 File lengths (MBytes):  RWF=     48 Int=      0 D2E=      0 Chk=      4 Scr=      1
 Normal termination of Gaussian 16 at Tue Sep 30 21:38:50 2025.
