 Entering Gaussian System, Link 0=g16
 Input=BUHY0011.gjf
 Output=BUHY0011.log
 Initial command:
 /usr/local/g16/l1.exe "/dados_01/scratch/Gau-1924471.inp" -scrdir="/dados_01/scratch/"
 Entering Link 1 = /usr/local/g16/l1.exe PID=   1924474.
  
 Copyright (c) 1988-2017, Gaussian, Inc.  All Rights Reserved.
  
 This is part of the Gaussian(R) 16 program.  It is based on
 the Gaussian(R) 09 system (copyright 2009, Gaussian, Inc.),
 the Gaussian(R) 03 system (copyright 2003, Gaussian, Inc.),
 the Gaussian(R) 98 system (copyright 1998, Gaussian, Inc.),
 the Gaussian(R) 94 system (copyright 1995, Gaussian, Inc.),
 the Gaussian 92(TM) system (copyright 1992, Gaussian, Inc.),
 the Gaussian 90(TM) system (copyright 1990, Gaussian, Inc.),
 the Gaussian 88(TM) system (copyright 1988, Gaussian, Inc.),
 the Gaussian 86(TM) system (copyright 1986, Carnegie Mellon
 University), and the Gaussian 82(TM) system (copyright 1983,
 Carnegie Mellon University). Gaussian is a federally registered
 trademark of Gaussian, Inc.
  
 This software contains proprietary and confidential information,
 including trade secrets, belonging to Gaussian, Inc.
  
 This software is provided under written license and may be
 used, copied, transmitted, or stored only in accord with that
 written license.
  
 The following legend is applicable only to US Government
 contracts under FAR:
  
                    RESTRICTED RIGHTS LEGEND
  
 Use, reproduction and disclosure by the US Government is
 subject to restrictions as set forth in subparagraphs (a)
 and (c) of the Commercial Computer Software - Restricted
 Rights clause in FAR 52.227-19.
  
 Gaussian, Inc.
 340 Quinnipiac St., Bldg. 40, Wallingford CT 06492
  
  
 ---------------------------------------------------------------
 Warning -- This program may not be used in any manner that
 competes with the business of Gaussian, Inc. or will provide
 assistance to any competitor of Gaussian, Inc.  The licensee
 of this program is prohibited from giving any competitor of
 Gaussian, Inc. access to this program.  By using this program,
 the user acknowledges that Gaussian, Inc. is engaged in the
 business of creating and licensing software in the field of
 computational chemistry and represents and warrants to the
 licensee that it is not a competitor of Gaussian, Inc. and that
 it will not use this program in any manner prohibited above.
 ---------------------------------------------------------------
  

 Cite this work as:
 Gaussian 16, Revision B.01,
 M. J. Frisch, G. W. Trucks, H. B. Schlegel, G. E. Scuseria, 
 M. A. Robb, J. R. Cheeseman, G. Scalmani, V. Barone, 
 G. A. Petersson, H. Nakatsuji, X. Li, M. Caricato, A. V. Marenich, 
 J. Bloino, B. G. Janesko, R. Gomperts, B. Mennucci, H. P. Hratchian, 
 J. V. Ortiz, A. F. Izmaylov, J. L. Sonnenberg, D. Williams-Young, 
 F. Ding, F. Lipparini, F. Egidi, J. Goings, B. Peng, A. Petrone, 
 T. Henderson, D. Ranasinghe, V. G. Zakrzewski, J. Gao, N. Rega, 
 G. Zheng, W. Liang, M. Hada, M. Ehara, K. Toyota, R. Fukuda, 
 J. Hasegawa, M. Ishida, T. Nakajima, Y. Honda, O. Kitao, H. Nakai, 
 T. Vreven, K. Throssell, J. A. Montgomery, Jr., J. E. Peralta, 
 F. Ogliaro, M. J. Bearpark, J. J. Heyd, E. N. Brothers, K. N. Kudin, 
 V. N. Staroverov, T. A. Keith, R. Kobayashi, J. Normand, 
 K. Raghavachari, A. P. Rendell, J. C. Burant, S. S. Iyengar, 
 J. Tomasi, M. Cossi, J. M. Millam, M. Klene, C. Adamo, R. Cammi, 
 J. W. Ochterski, R. L. Martin, K. Morokuma, O. Farkas, 
 J. B. Foresman, and D. J. Fox, Gaussian, Inc., Wallingford CT, 2016.
 
 ******************************************
 Gaussian 16:  ES64L-G16RevB.01 20-Dec-2017
                18-Sep-2025 
 ******************************************
 %nprocs=16
 Will use up to   16 processors via shared memory.
 %mem=40GB
 %chk=BUHY0011.chk
 ----------------------------------------------------------------------
 # opt freq=noraman M08HX/6-311++G** scf=xqc Empiricaldispersion=pfd In
 t(Grid=ultraFine)
 ----------------------------------------------------------------------
 1/18=20,19=15,26=4,38=1/1,3;
 2/9=110,12=2,17=6,18=5,40=1/2;
 3/5=4,6=6,7=1111,11=2,25=1,30=1,71=1,74=-74,75=-5,124=11/1,2,3;
 4//1;
 5/5=2,8=3,13=1,38=5/2,8;
 6/7=2,8=2,9=2,10=2,28=1/1;
 7//1,2,3,16;
 1/18=20,19=15,26=4/3(2);
 2/9=110/2;
 99//99;
 2/9=110/2;
 3/5=4,6=6,7=1111,11=2,25=1,30=1,71=1,74=-74,75=-5,124=11/1,2,3;
 4/5=5,16=3,69=1/1;
 5/5=2,8=3,13=1,38=5/2,8;
 7//1,2,3,16;
 1/18=20,19=15,26=4/3(-5);
 2/9=110/2;
 6/7=2,8=2,9=2,10=2,19=2,28=1/1;
 99/9=1/99;
 --------
 BUHY0011
 --------
 Symbolic Z-matrix:
 Charge =  0 Multiplicity = 1
 O                     0.0079   -1.9528   -0.0005 
 C                    -2.5157   -0.6433    0.0011 
 C                     2.5068   -0.5969   -0.0025 
 C                    -1.1805    0.1195    0.0002 
 C                     1.1968    0.1198   -0.0018 
 C                    -0.0047   -0.5887   -0.0004 
 C                    -1.2319    1.4923   -0.0006 
 C                     1.1838    1.5146   -0.0026 
 C                    -3.6879    0.3616    0.0011 
 C                    -2.6068   -1.5297    1.2621 
 C                    -2.7079   -1.5687   -1.2217 
 C                     2.507    -1.9923    0.7039 
 C                     3.0017   -0.8662   -1.4567 
 C                     3.6063    0.2376    0.7231 
 C                    -0.0305    2.2009   -0.002 
 C                    -0.0443    3.6922   -0.0027 
 H                    -2.1329    2.0904   -0.0043 
 H                     2.093     2.1046   -0.0334 
 H                    -3.7145    0.9835   -0.9019 
 H                    -3.7037    0.9949    0.8966 
 H                    -4.6437   -0.1797    0.0141 
 H                    -1.9229   -2.3824    1.2564 
 H                    -3.6157   -1.9476    1.3668 
 H                    -2.4027   -0.9472    2.1687 
 H                    -2.0011   -2.4024   -1.2484 
 H                    -2.5837   -1.0072   -2.1552 
 H                    -3.7124   -2.0084   -1.2299 
 H                     3.5334   -2.3099    0.9302 
 H                     1.9732   -1.9611    1.6607 
 H                     2.1098   -2.8008    0.0833 
 H                     3.1163    0.0724   -2.0117 
 H                     3.9714   -1.3768   -1.4592 
 H                     2.29     -1.4879   -2.0116 
 H                     4.5299   -0.3429    0.84 
 H                     3.8984    1.1317    0.1617 
 H                     3.2837    0.5402    1.7263 
 H                    -0.8758    4.0777    0.5971 
 H                    -0.1445    4.0662   -1.0265 
 H                     0.8759    4.1009    0.4287 
 H                     0.3642   -2.2241   -0.865 
 

 GradGradGradGradGradGradGradGradGradGradGradGradGradGradGradGradGradGrad
 Berny optimization.
 Initialization pass.
                           ----------------------------
                           !    Initial Parameters    !
                           ! (Angstroms and Degrees)  !
 --------------------------                            --------------------------
 ! Name  Definition              Value          Derivative Info.                !
 --------------------------------------------------------------------------------
 ! R1    R(1,6)                  1.3642         estimate D2E/DX2                !
 ! R2    R(1,40)                 0.9736         estimate D2E/DX2                !
 ! R3    R(2,4)                  1.5377         estimate D2E/DX2                !
 ! R4    R(2,9)                  1.544          estimate D2E/DX2                !
 ! R5    R(2,10)                 1.5441         estimate D2E/DX2                !
 ! R6    R(2,11)                 1.5455         estimate D2E/DX2                !
 ! R7    R(3,5)                  1.4932         estimate D2E/DX2                !
 ! R8    R(3,12)                 1.564          estimate D2E/DX2                !
 ! R9    R(3,13)                 1.5595         estimate D2E/DX2                !
 ! R10   R(3,14)                 1.5594         estimate D2E/DX2                !
 ! R11   R(4,6)                  1.3726         estimate D2E/DX2                !
 ! R12   R(4,7)                  1.3738         estimate D2E/DX2                !
 ! R13   R(5,6)                  1.3948         estimate D2E/DX2                !
 ! R14   R(5,8)                  1.3949         estimate D2E/DX2                !
 ! R15   R(7,15)                 1.3948         estimate D2E/DX2                !
 ! R16   R(7,17)                 1.0815         estimate D2E/DX2                !
 ! R17   R(8,15)                 1.3948         estimate D2E/DX2                !
 ! R18   R(8,18)                 1.0843         estimate D2E/DX2                !
 ! R19   R(9,19)                 1.0968         estimate D2E/DX2                !
 ! R20   R(9,20)                 1.0969         estimate D2E/DX2                !
 ! R21   R(9,21)                 1.0985         estimate D2E/DX2                !
 ! R22   R(10,22)                1.0931         estimate D2E/DX2                !
 ! R23   R(10,23)                1.097          estimate D2E/DX2                !
 ! R24   R(10,24)                1.0968         estimate D2E/DX2                !
 ! R25   R(11,25)                1.0933         estimate D2E/DX2                !
 ! R26   R(11,26)                1.0964         estimate D2E/DX2                !
 ! R27   R(11,27)                1.0966         estimate D2E/DX2                !
 ! R28   R(12,28)                1.098          estimate D2E/DX2                !
 ! R29   R(12,29)                1.0961         estimate D2E/DX2                !
 ! R30   R(12,30)                1.0939         estimate D2E/DX2                !
 ! R31   R(13,31)                1.0964         estimate D2E/DX2                !
 ! R32   R(13,32)                1.0959         estimate D2E/DX2                !
 ! R33   R(13,33)                1.0959         estimate D2E/DX2                !
 ! R34   R(14,34)                1.0971         estimate D2E/DX2                !
 ! R35   R(14,35)                1.0954         estimate D2E/DX2                !
 ! R36   R(14,36)                1.0964         estimate D2E/DX2                !
 ! R37   R(15,16)                1.4914         estimate D2E/DX2                !
 ! R38   R(16,37)                1.0953         estimate D2E/DX2                !
 ! R39   R(16,38)                1.0946         estimate D2E/DX2                !
 ! R40   R(16,39)                1.0954         estimate D2E/DX2                !
 ! A1    A(6,1,40)             106.3848         estimate D2E/DX2                !
 ! A2    A(4,2,9)              109.6549         estimate D2E/DX2                !
 ! A3    A(4,2,10)             109.6624         estimate D2E/DX2                !
 ! A4    A(4,2,11)             113.8625         estimate D2E/DX2                !
 ! A5    A(9,2,10)             109.1984         estimate D2E/DX2                !
 ! A6    A(9,2,11)             107.1753         estimate D2E/DX2                !
 ! A7    A(10,2,11)            107.1625         estimate D2E/DX2                !
 ! A8    A(5,3,12)             115.3483         estimate D2E/DX2                !
 ! A9    A(5,3,13)             111.2055         estimate D2E/DX2                !
 ! A10   A(5,3,14)             111.1915         estimate D2E/DX2                !
 ! A11   A(12,3,13)            105.4887         estimate D2E/DX2                !
 ! A12   A(12,3,14)            105.4975         estimate D2E/DX2                !
 ! A13   A(13,3,14)            107.6099         estimate D2E/DX2                !
 ! A14   A(2,4,6)              119.1996         estimate D2E/DX2                !
 ! A15   A(2,4,7)              117.5951         estimate D2E/DX2                !
 ! A16   A(6,4,7)              123.2053         estimate D2E/DX2                !
 ! A17   A(3,5,6)              120.79           estimate D2E/DX2                !
 ! A18   A(3,5,8)              119.217          estimate D2E/DX2                !
 ! A19   A(6,5,8)              119.993          estimate D2E/DX2                !
 ! A20   A(1,6,4)              121.5903         estimate D2E/DX2                !
 ! A21   A(1,6,5)              119.9977         estimate D2E/DX2                !
 ! A22   A(4,6,5)              118.4119         estimate D2E/DX2                !
 ! A23   A(4,7,15)             118.3884         estimate D2E/DX2                !
 ! A24   A(4,7,17)             125.7211         estimate D2E/DX2                !
 ! A25   A(15,7,17)            115.8901         estimate D2E/DX2                !
 ! A26   A(5,8,15)             120.0083         estimate D2E/DX2                !
 ! A27   A(5,8,18)             122.4328         estimate D2E/DX2                !
 ! A28   A(15,8,18)            117.534          estimate D2E/DX2                !
 ! A29   A(2,9,19)             112.7971         estimate D2E/DX2                !
 ! A30   A(2,9,20)             112.7493         estimate D2E/DX2                !
 ! A31   A(2,9,21)             109.8686         estimate D2E/DX2                !
 ! A32   A(19,9,20)            110.1469         estimate D2E/DX2                !
 ! A33   A(19,9,21)            105.5484         estimate D2E/DX2                !
 ! A34   A(20,9,21)            105.2063         estimate D2E/DX2                !
 ! A35   A(2,10,22)            113.9945         estimate D2E/DX2                !
 ! A36   A(2,10,23)            110.5416         estimate D2E/DX2                !
 ! A37   A(2,10,24)            111.0513         estimate D2E/DX2                !
 ! A38   A(22,10,23)           106.1844         estimate D2E/DX2                !
 ! A39   A(22,10,24)           107.5891         estimate D2E/DX2                !
 ! A40   A(23,10,24)           107.1318         estimate D2E/DX2                !
 ! A41   A(2,11,25)            113.2982         estimate D2E/DX2                !
 ! A42   A(2,11,26)            110.6652         estimate D2E/DX2                !
 ! A43   A(2,11,27)            111.0964         estimate D2E/DX2                !
 ! A44   A(25,11,26)           107.247          estimate D2E/DX2                !
 ! A45   A(25,11,27)           106.6339         estimate D2E/DX2                !
 ! A46   A(26,11,27)           107.6232         estimate D2E/DX2                !
 ! A47   A(3,12,28)            110.5656         estimate D2E/DX2                !
 ! A48   A(3,12,29)            111.6421         estimate D2E/DX2                !
 ! A49   A(3,12,30)            113.7745         estimate D2E/DX2                !
 ! A50   A(28,12,29)           106.4737         estimate D2E/DX2                !
 ! A51   A(28,12,30)           104.0385         estimate D2E/DX2                !
 ! A52   A(29,12,30)           109.8432         estimate D2E/DX2                !
 ! A53   A(3,13,31)            110.9375         estimate D2E/DX2                !
 ! A54   A(3,13,32)            111.3073         estimate D2E/DX2                !
 ! A55   A(3,13,33)            111.3476         estimate D2E/DX2                !
 ! A56   A(31,13,32)           107.7708         estimate D2E/DX2                !
 ! A57   A(31,13,33)           107.2906         estimate D2E/DX2                !
 ! A58   A(32,13,33)           108.0091         estimate D2E/DX2                !
 ! A59   A(3,14,34)            111.0994         estimate D2E/DX2                !
 ! A60   A(3,14,35)            112.7268         estimate D2E/DX2                !
 ! A61   A(3,14,36)            111.4687         estimate D2E/DX2                !
 ! A62   A(34,14,35)           105.1887         estimate D2E/DX2                !
 ! A63   A(34,14,36)           107.232          estimate D2E/DX2                !
 ! A64   A(35,14,36)           108.7919         estimate D2E/DX2                !
 ! A65   A(7,15,8)             119.9931         estimate D2E/DX2                !
 ! A66   A(7,15,16)            120.0024         estimate D2E/DX2                !
 ! A67   A(8,15,16)            120.0045         estimate D2E/DX2                !
 ! A68   A(15,16,37)           111.0203         estimate D2E/DX2                !
 ! A69   A(15,16,38)           110.0572         estimate D2E/DX2                !
 ! A70   A(15,16,39)           111.4156         estimate D2E/DX2                !
 ! A71   A(37,16,38)           108.8106         estimate D2E/DX2                !
 ! A72   A(37,16,39)           106.9022         estimate D2E/DX2                !
 ! A73   A(38,16,39)           108.5288         estimate D2E/DX2                !
 ! D1    D(40,1,6,4)           112.2831         estimate D2E/DX2                !
 ! D2    D(40,1,6,5)           -67.6749         estimate D2E/DX2                !
 ! D3    D(9,2,4,6)           -179.9781         estimate D2E/DX2                !
 ! D4    D(9,2,4,7)             -0.0081         estimate D2E/DX2                !
 ! D5    D(10,2,4,6)            60.126          estimate D2E/DX2                !
 ! D6    D(10,2,4,7)          -119.9041         estimate D2E/DX2                !
 ! D7    D(11,2,4,6)           -59.9206         estimate D2E/DX2                !
 ! D8    D(11,2,4,7)           120.0494         estimate D2E/DX2                !
 ! D9    D(4,2,9,19)            63.2302         estimate D2E/DX2                !
 ! D10   D(4,2,9,20)           -62.3169         estimate D2E/DX2                !
 ! D11   D(4,2,9,21)          -179.3146         estimate D2E/DX2                !
 ! D12   D(10,2,9,19)         -176.5908         estimate D2E/DX2                !
 ! D13   D(10,2,9,20)           57.8622         estimate D2E/DX2                !
 ! D14   D(10,2,9,21)          -59.1356         estimate D2E/DX2                !
 ! D15   D(11,2,9,19)          -60.8267         estimate D2E/DX2                !
 ! D16   D(11,2,9,20)          173.6263         estimate D2E/DX2                !
 ! D17   D(11,2,9,21)           56.6285         estimate D2E/DX2                !
 ! D18   D(4,2,10,22)          -70.0797         estimate D2E/DX2                !
 ! D19   D(4,2,10,23)          170.4087         estimate D2E/DX2                !
 ! D20   D(4,2,10,24)           51.6389         estimate D2E/DX2                !
 ! D21   D(9,2,10,22)          169.7459         estimate D2E/DX2                !
 ! D22   D(9,2,10,23)           50.2343         estimate D2E/DX2                !
 ! D23   D(9,2,10,24)          -68.5355         estimate D2E/DX2                !
 ! D24   D(11,2,10,22)          53.9736         estimate D2E/DX2                !
 ! D25   D(11,2,10,23)         -65.538          estimate D2E/DX2                !
 ! D26   D(11,2,10,24)         175.6922         estimate D2E/DX2                !
 ! D27   D(4,2,11,25)           65.892          estimate D2E/DX2                !
 ! D28   D(4,2,11,26)          -54.6012         estimate D2E/DX2                !
 ! D29   D(4,2,11,27)         -174.0951         estimate D2E/DX2                !
 ! D30   D(9,2,11,25)         -172.6627         estimate D2E/DX2                !
 ! D31   D(9,2,11,26)           66.8441         estimate D2E/DX2                !
 ! D32   D(9,2,11,27)          -52.6498         estimate D2E/DX2                !
 ! D33   D(10,2,11,25)         -55.5537         estimate D2E/DX2                !
 ! D34   D(10,2,11,26)        -176.0469         estimate D2E/DX2                !
 ! D35   D(10,2,11,27)          64.4591         estimate D2E/DX2                !
 ! D36   D(12,3,5,6)           -29.9489         estimate D2E/DX2                !
 ! D37   D(12,3,5,8)           150.0528         estimate D2E/DX2                !
 ! D38   D(13,3,5,6)            90.1014         estimate D2E/DX2                !
 ! D39   D(13,3,5,8)           -89.8969         estimate D2E/DX2                !
 ! D40   D(14,3,5,6)          -150.0            estimate D2E/DX2                !
 ! D41   D(14,3,5,8)            30.0018         estimate D2E/DX2                !
 ! D42   D(5,3,12,28)         -162.8338         estimate D2E/DX2                !
 ! D43   D(5,3,12,29)          -44.4929         estimate D2E/DX2                !
 ! D44   D(5,3,12,30)           80.5258         estimate D2E/DX2                !
 ! D45   D(13,3,12,28)          74.0315         estimate D2E/DX2                !
 ! D46   D(13,3,12,29)        -167.6276         estimate D2E/DX2                !
 ! D47   D(13,3,12,30)         -42.6089         estimate D2E/DX2                !
 ! D48   D(14,3,12,28)         -39.7105         estimate D2E/DX2                !
 ! D49   D(14,3,12,29)          78.6305         estimate D2E/DX2                !
 ! D50   D(14,3,12,30)        -156.3508         estimate D2E/DX2                !
 ! D51   D(5,3,13,31)           59.0196         estimate D2E/DX2                !
 ! D52   D(5,3,13,32)          179.0193         estimate D2E/DX2                !
 ! D53   D(5,3,13,33)          -60.4009         estimate D2E/DX2                !
 ! D54   D(12,3,13,31)        -175.2455         estimate D2E/DX2                !
 ! D55   D(12,3,13,32)         -55.2459         estimate D2E/DX2                !
 ! D56   D(12,3,13,33)          65.334          estimate D2E/DX2                !
 ! D57   D(14,3,13,31)         -62.9828         estimate D2E/DX2                !
 ! D58   D(14,3,13,32)          57.0169         estimate D2E/DX2                !
 ! D59   D(14,3,13,33)         177.5967         estimate D2E/DX2                !
 ! D60   D(5,3,14,34)          172.4399         estimate D2E/DX2                !
 ! D61   D(5,3,14,35)          -69.7796         estimate D2E/DX2                !
 ! D62   D(5,3,14,36)           52.9051         estimate D2E/DX2                !
 ! D63   D(12,3,14,34)          46.7078         estimate D2E/DX2                !
 ! D64   D(12,3,14,35)         164.4883         estimate D2E/DX2                !
 ! D65   D(12,3,14,36)         -72.827          estimate D2E/DX2                !
 ! D66   D(13,3,14,34)         -65.549          estimate D2E/DX2                !
 ! D67   D(13,3,14,35)          52.2315         estimate D2E/DX2                !
 ! D68   D(13,3,14,36)         174.9162         estimate D2E/DX2                !
 ! D69   D(2,4,6,1)              0.0139         estimate D2E/DX2                !
 ! D70   D(2,4,6,5)            179.9726         estimate D2E/DX2                !
 ! D71   D(7,4,6,1)           -179.9542         estimate D2E/DX2                !
 ! D72   D(7,4,6,5)              0.0044         estimate D2E/DX2                !
 ! D73   D(2,4,7,15)          -179.9731         estimate D2E/DX2                !
 ! D74   D(2,4,7,17)            -0.2379         estimate D2E/DX2                !
 ! D75   D(6,4,7,15)            -0.0044         estimate D2E/DX2                !
 ! D76   D(6,4,7,17)           179.7308         estimate D2E/DX2                !
 ! D77   D(3,5,6,1)             -0.0411         estimate D2E/DX2                !
 ! D78   D(3,5,6,4)            179.9996         estimate D2E/DX2                !
 ! D79   D(8,5,6,1)            179.9572         estimate D2E/DX2                !
 ! D80   D(8,5,6,4)             -0.0021         estimate D2E/DX2                !
 ! D81   D(3,5,8,15)           179.9983         estimate D2E/DX2                !
 ! D82   D(3,5,8,18)             1.8586         estimate D2E/DX2                !
 ! D83   D(6,5,8,15)             0.0            estimate D2E/DX2                !
 ! D84   D(6,5,8,18)          -178.1397         estimate D2E/DX2                !
 ! D85   D(4,7,15,8)             0.0021         estimate D2E/DX2                !
 ! D86   D(4,7,15,16)         -179.991          estimate D2E/DX2                !
 ! D87   D(17,7,15,8)         -179.7589         estimate D2E/DX2                !
 ! D88   D(17,7,15,16)           0.248          estimate D2E/DX2                !
 ! D89   D(5,8,15,7)             0.0            estimate D2E/DX2                !
 ! D90   D(5,8,15,16)          179.9931         estimate D2E/DX2                !
 ! D91   D(18,8,15,7)          178.2293         estimate D2E/DX2                !
 ! D92   D(18,8,15,16)          -1.7776         estimate D2E/DX2                !
 ! D93   D(7,15,16,37)          35.8803         estimate D2E/DX2                !
 ! D94   D(7,15,16,38)         -84.6523         estimate D2E/DX2                !
 ! D95   D(7,15,16,39)         154.9111         estimate D2E/DX2                !
 ! D96   D(8,15,16,37)        -144.1128         estimate D2E/DX2                !
 ! D97   D(8,15,16,38)          95.3546         estimate D2E/DX2                !
 ! D98   D(8,15,16,39)         -25.082          estimate D2E/DX2                !
 --------------------------------------------------------------------------------
 Trust Radius=3.00D-01 FncErr=1.00D-07 GrdErr=1.00D-06 EigMax=2.50D+02 EigMin=1.00D-04
 Number of steps in this run=    221 maximum allowed number of steps=    240.
 GradGradGradGradGradGradGradGradGradGradGradGradGradGradGradGradGradGrad

                          Input orientation:                          
 ---------------------------------------------------------------------
 Center     Atomic      Atomic             Coordinates (Angstroms)
 Number     Number       Type             X           Y           Z
 ---------------------------------------------------------------------
      1          8           0        0.007900   -1.952800   -0.000500
      2          6           0       -2.515700   -0.643300    0.001100
      3          6           0        2.506800   -0.596900   -0.002500
      4          6           0       -1.180500    0.119500    0.000200
      5          6           0        1.196800    0.119800   -0.001800
      6          6           0       -0.004700   -0.588700   -0.000400
      7          6           0       -1.231900    1.492300   -0.000600
      8          6           0        1.183800    1.514600   -0.002600
      9          6           0       -3.687900    0.361600    0.001100
     10          6           0       -2.606800   -1.529700    1.262100
     11          6           0       -2.707900   -1.568700   -1.221700
     12          6           0        2.507000   -1.992300    0.703900
     13          6           0        3.001700   -0.866200   -1.456700
     14          6           0        3.606300    0.237600    0.723100
     15          6           0       -0.030500    2.200900   -0.002000
     16          6           0       -0.044300    3.692200   -0.002700
     17          1           0       -2.132900    2.090400   -0.004300
     18          1           0        2.093000    2.104600   -0.033400
     19          1           0       -3.714500    0.983500   -0.901900
     20          1           0       -3.703700    0.994900    0.896600
     21          1           0       -4.643700   -0.179700    0.014100
     22          1           0       -1.922900   -2.382400    1.256400
     23          1           0       -3.615700   -1.947600    1.366800
     24          1           0       -2.402700   -0.947200    2.168700
     25          1           0       -2.001100   -2.402400   -1.248400
     26          1           0       -2.583700   -1.007200   -2.155200
     27          1           0       -3.712400   -2.008400   -1.229900
     28          1           0        3.533400   -2.309900    0.930200
     29          1           0        1.973200   -1.961100    1.660700
     30          1           0        2.109800   -2.800800    0.083300
     31          1           0        3.116300    0.072400   -2.011700
     32          1           0        3.971400   -1.376800   -1.459200
     33          1           0        2.290000   -1.487900   -2.011600
     34          1           0        4.529900   -0.342900    0.840000
     35          1           0        3.898400    1.131700    0.161700
     36          1           0        3.283700    0.540200    1.726300
     37          1           0       -0.875800    4.077700    0.597100
     38          1           0       -0.144500    4.066200   -1.026500
     39          1           0        0.875900    4.100900    0.428700
     40          1           0        0.364200   -2.224100   -0.865000
 ---------------------------------------------------------------------
                    Distance matrix (angstroms):
                    1          2          3          4          5
     1  O    0.000000
     2  C    2.843123   0.000000
     3  C    2.843056   5.022716   0.000000
     4  C    2.388875   1.537733   3.756250   0.000000
     5  C    2.389384   3.790117   1.493238   2.377301   0.000000
     6  C    1.364158   2.511594   2.511514   1.372608   1.394839
     7  C    3.661396   2.491773   4.282831   1.373762   2.789685
     8  C    3.661367   4.282855   2.491739   2.745219   1.394861
     9  C    4.360664   1.543981   6.268416   2.519061   4.890682
    10  C    2.934251   1.544061   5.349601   2.519243   4.334243
    11  C    3.002404   1.545492   5.442788   2.583798   4.425593
    12  C    2.596775   5.247975   1.564015   4.307267   2.583719
    13  C    3.502007   5.711092   1.559534   4.537065   2.519245
    14  C    4.274334   6.227050   1.559418   4.842519   2.518938
    15  C    4.153878   3.776996   3.776980   2.377968   2.416039
    16  C    5.645242   4.990430   4.990440   3.749019   3.781848
    17  H    4.574987   2.760377   5.361754   2.188957   3.869131
    18  H    4.561932   5.365842   2.733183   3.828518   2.177982
    19  H    4.826038   2.213370   6.481602   2.825144   5.067250
    20  H    4.823868   2.212908   6.473988   2.817161   5.058441
    21  H    4.978100   2.177953   7.162680   3.476128   5.848196
    22  H    2.343575   2.225232   4.939138   2.896325   4.192446
    23  H    3.872985   2.185483   6.417506   3.474291   5.413628
    24  H    3.395240   2.191715   5.379592   2.708138   4.336584
    25  H    2.407379   2.218219   5.013308   2.931274   4.259351
    26  H    3.500469   2.187848   5.542170   2.807877   4.494379
    27  H    3.918565   2.193388   6.494405   3.528686   5.489782
    28  H    3.663724   6.342901   2.204134   5.384026   3.497394
    29  H    2.573336   4.963979   2.216304   4.126982   2.774319
    30  H    2.268063   5.104587   2.241014   4.400129   3.061162
    31  H    4.220013   6.023538   2.203710   4.744729   2.779645
    32  H    4.262501   6.689766   2.208002   5.559751   3.473072
    33  H    3.077115   5.278169   2.208476   4.321509   2.796262
    34  H    4.873059   7.101723   2.206186   5.790315   3.468757
    35  H    4.967539   6.657109   2.225212   5.181299   2.889518
    36  H    4.464051   6.165227   2.210276   4.804736   2.741937
    37  H    6.124131   5.033123   5.801154   4.014533   4.507696
    38  H    6.107722   5.371959   5.460995   4.207594   4.292222
    39  H    6.130654   5.847497   4.991502   4.501549   4.017146
    40  H    0.973609   3.397482   2.825318   2.937198   2.632908
                    6          7          8          9         10
     6  C    0.000000
     7  C    2.415902   0.000000
     8  C    2.415866   2.415804   0.000000
     9  C    3.803818   2.703779   5.006284   0.000000
    10  C    3.041433   3.552076   5.023532   2.517124   0.000000
    11  C    3.123982   3.611008   5.112560   2.486302   2.486163
    12  C    2.962224   5.159276   3.814230   6.664200   5.164933
    13  C    3.352053   5.060249   3.329771   6.955819   6.267964
    14  C    3.774327   5.050366   2.832998   7.330894   6.482012
    15  C    2.789720   1.394804   1.394823   4.093850   4.706660
    16  C    4.281084   2.499992   2.500034   4.936470   5.952677
    17  H    3.421524   1.081452   3.366311   2.325253   3.864385
    18  H    3.413986   3.380968   1.084294   6.038050   6.080672
    19  H    4.128817   2.689707   5.008408   1.096757   3.496580
    20  H    4.122499   2.676223   4.996629   1.096922   2.776758
    21  H    4.657018   3.799497   6.068829   1.098512   2.743896
    22  H    2.911425   4.131686   5.140357   3.495789   1.093091
    23  H    4.093307   4.402862   6.074314   2.683795   1.097033
    24  H    3.253294   3.468111   4.861891   2.839575   1.096762
    25  H    2.971973   4.161413   5.199855   3.470769   2.726002
    26  H    3.386672   3.566113   5.018687   2.782535   3.457091
    27  H    4.156231   4.463066   6.155532   2.670742   2.767954
    28  H    4.043105   6.166944   4.584489   7.755470   6.198462
    29  H    2.924863   4.995854   3.933219   6.340131   4.617509
    30  H    3.061291   5.441021   4.414468   6.604609   5.025095
    31  H    3.771342   4.996747   3.138627   7.101559   6.785158
    32  H    4.307966   6.118299   4.272305   7.988704   7.120503
    33  H    3.181059   5.032841   3.778196   6.573196   5.890459
    34  H    4.618364   6.105154   3.918758   8.290495   7.247010
    35  H    4.268518   5.145518   2.746390   7.626978   7.114180
    36  H    3.881943   4.927405   2.889313   7.184109   6.260827
    37  H    4.784466   2.677377   3.342316   4.698140   5.906058
    38  H    4.768702   2.976554   3.053427   5.228356   6.527994
    39  H    4.790817   3.381111   2.640032   5.915528   6.672886
    40  H    1.886307   4.135983   3.923437   4.884208   3.719353
                   11         12         13         14         15
    11  C    0.000000
    12  C    5.575173   0.000000
    13  C    5.757453   2.486166   0.000000
    14  C    6.849386   2.486219   2.517031   0.000000
    15  C    4.781843   4.951780   4.551647   4.196026   0.000000
    16  C    6.021445   6.270722   5.671970   5.078181   1.491364
    17  H    3.898936   6.220825   6.100415   6.074570   2.105303
    18  H    6.160668   4.183252   3.417188   2.519535   2.125914
    19  H    2.762108   7.081034   6.988314   7.535987   3.982931
    20  H    3.471435   6.894439   7.346026   7.351170   3.969171
    21  H    2.683998   7.409039   7.815797   8.290918   5.191255
    22  H    2.723841   4.481233   5.823355   6.141731   5.115798
    23  H    2.769115   6.158644   7.275408   7.572763   5.651312
    24  H    3.460379   5.229056   6.508274   6.292980   4.499978
    25  H    1.093314   4.929769   5.237491   6.503795   5.160150
    26  H    1.096417   5.921157   5.630673   6.939037   4.631091
    27  H    1.096551   6.513124   6.814338   7.900765   5.725586
    28  H    6.643333   1.097988   2.839765   2.556944   5.823890
    29  H    5.511343   1.096076   3.460463   2.894891   4.909341
    30  H    5.141141   1.093885   2.628643   3.446844   5.441063
    31  H    6.102345   3.465359   1.096416   2.783257   4.297878
    32  H    6.686276   2.683712   1.095918   2.738981   5.562245
    33  H    5.060581   2.770460   1.095875   3.491215   4.799006
    34  H    7.624890   2.613650   2.807858   1.097125   5.289341
    35  H    7.269742   3.462564   2.723030   1.095403   4.075076
    36  H    7.002673   2.839387   3.491271   1.096379   4.090094
    37  H    6.208579   6.949794   6.610238   5.903513   2.143789
    38  H    6.193644   6.835946   5.866193   5.638065   2.131183
    39  H    6.907373   6.313740   5.722398   4.739920   2.148735
    40  H    3.161421   2.665853   3.024964   4.369581   4.525614
                   16         17         18         19         20
    16  C    0.000000
    17  H    2.632112   0.000000
    18  H    2.662605   4.226024   0.000000
    19  H    4.649299   2.128937   5.978145   0.000000
    20  H    4.634153   2.116401   5.974786   1.798569   0.000000
    21  H    6.012185   3.384939   7.113607   1.748000   1.744159
    22  H    6.481916   4.651817   6.158263   4.381481   3.834952
    23  H    6.814527   4.514870   7.139338   3.707844   2.981130
    24  H    5.639243   3.744561   5.862938   3.857072   2.661314
    25  H    6.521118   4.663733   6.208939   3.810528   4.363659
    26  H    5.759008   3.797989   6.004736   2.610049   3.817890
    27  H    6.888963   4.560381   7.214641   3.009826   3.679931
    28  H    7.049500   7.234838   4.742477   8.169157   7.956032
    29  H    6.228724   6.003910   4.406160   6.898371   6.445850
    30  H    6.841534   6.475493   4.906817   7.015270   6.990392
    31  H    5.208496   5.971271   3.015071   6.980085   7.471386
    32  H    6.628876   7.169427   4.204930   8.059445   8.371494
    33  H    6.026448   6.032871   4.105867   6.587357   7.109597
    34  H    6.157555   7.143297   3.562522   8.530163   8.341767
    35  H    4.704048   6.109275   2.060113   7.688267   7.638764
    36  H    4.898993   5.893866   2.638495   7.488575   7.051164
    37  H    1.095337   2.427209   3.620004   4.458620   4.194088
    38  H    1.094570   2.983691   3.136962   4.718418   5.079282
    39  H    1.095404   3.644513   2.383292   5.706177   5.553279
    40  H    5.992749   5.058777   4.734760   5.189013   5.478413
                   21         22         23         24         25
    21  H    0.000000
    22  H    3.714559   0.000000
    23  H    2.451949   1.751231   0.000000
    24  H    3.202099   1.767003   1.764997   0.000000
    25  H    3.676634   2.506100   3.106935   3.735701   0.000000
    26  H    3.103904   3.737224   3.788649   4.328103   1.763035
    27  H    2.399792   3.086077   2.599211   3.793671   1.756168
    28  H    8.499527   5.466523   7.171577   6.215152   5.948575
    29  H    7.047556   3.939613   5.596639   4.520460   4.944964
    30  H    7.244634   4.220651   5.929306   5.305411   4.339544
    31  H    8.024028   6.488456   7.798364   6.998192   5.735420
    32  H    8.821769   6.567228   8.116414   7.346793   6.063584
    33  H    7.341052   5.406337   6.819252   6.307828   4.453350
    34  H    9.212149   6.780234   8.318857   7.084601   7.159394
    35  H    8.643438   6.887293   8.209510   6.932080   7.020139
    36  H    8.142085   5.989247   7.343031   5.894338   6.740686
    37  H    5.715104   6.577537   6.663612   5.481877   6.831096
    38  H    6.273222   7.068153   7.344583   6.359477   6.733423
    39  H    6.997243   7.109961   7.592026   6.265791   7.306347
    40  H    5.480096   3.123495   4.571322   4.299947   2.402796
                   26         27         28         29         30
    26  H    0.000000
    27  H    1.769900   0.000000
    28  H    6.973925   7.566938   0.000000
    29  H    6.019664   6.378390   1.757702   0.000000
    30  H    5.500620   6.020831   1.727675   1.792190   0.000000
    31  H    5.803114   7.181371   3.808425   4.350669   3.695585
    32  H    6.602299   7.713124   2.602259   3.750731   2.805822
    33  H    4.899454   6.075424   3.297865   3.716190   2.478868
    34  H    7.746988   8.659901   2.206861   3.135097   3.531395
    35  H    7.208366   8.349913   3.545198   3.939392   4.320856
    36  H    7.203254   8.011236   2.969713   2.824573   3.903815
    37  H    6.028954   6.958796   7.768747   6.761298   7.516087
    38  H    5.741345   7.047840   7.616448   6.930660   7.312265
    39  H    6.688651   7.818376   6.957885   6.282494   7.019635
    40  H    3.440287   4.098579   3.643341   3.006195   2.068568
                   31         32         33         34         35
    31  H    0.000000
    32  H    1.771054   0.000000
    33  H    1.765590   1.773301   0.000000
    34  H    3.209818   2.582091   3.802604   0.000000
    35  H    2.541154   2.987510   3.764636   1.741645   0.000000
    36  H    3.770876   3.780903   4.367210   1.765901   1.782050
    37  H    6.227771   7.581246   6.914008   6.987295   5.626853
    38  H    5.249178   6.837698   6.143715   6.691338   5.134993
    39  H    5.215722   6.568979   6.260146   5.767863   4.245344
    40  H    3.763361   3.752717   2.359107   4.878421   4.980570
                   36         37         38         39         40
    36  H    0.000000
    37  H    5.575880   0.000000
    38  H    5.635880   1.780733   0.000000
    39  H    4.489972   1.759929   1.777647   0.000000
    40  H    4.783270   6.586958   6.312902   6.476197   0.000000
 Stoichiometry    C15H24O
 Framework group  C1[X(C15H24O)]
 Deg. of freedom   114
 Full point group                 C1      NOp   1
 Largest Abelian subgroup         C1      NOp   1
 Largest concise Abelian subgroup C1      NOp   1
                         Standard orientation:                         
 ---------------------------------------------------------------------
 Center     Atomic      Atomic             Coordinates (Angstroms)
 Number     Number       Type             X           Y           Z
 ---------------------------------------------------------------------
      1          8           0       -0.009882   -1.894315   -0.018888
      2          6           0        2.518484   -0.594063   -0.011016
      3          6           0       -2.503814   -0.529337   -0.008504
      4          6           0        1.186078    0.173588   -0.005379
      5          6           0       -1.191205    0.182560   -0.004039
      6          6           0        0.007700   -0.530300   -0.009849
      7          6           0        1.242491    1.546154    0.004628
      8          6           0       -1.173112    1.577267    0.006104
      9          6           0        3.694346    0.406525   -0.003960
     10          6           0        2.606728   -1.472327   -1.277898
     11          6           0        2.706933   -1.528325    1.205613
     12          6           0       -2.508896   -1.919966   -0.724232
     13          6           0       -3.000135   -0.806557    1.443723
     14          6           0       -3.600039    0.314014   -0.728805
     15          6           0        0.043686    2.259114    0.010438
     16          6           0        0.062932    3.750316    0.021129
     17          1           0        2.145668    2.140920    0.012584
     18          1           0       -2.080161    2.170366    0.040602
     19          1           0        3.722943    1.022264    0.903192
     20          1           0        3.712730    1.045744   -0.895195
     21          1           0        4.648166   -0.138165   -0.020318
     22          1           0        1.919717   -2.322541   -1.278099
     23          1           0        3.614127   -1.893200   -1.385113
     24          1           0        2.405031   -0.883028   -2.180634
     25          1           0        1.997085   -2.359597    1.226533
     26          1           0        2.584501   -0.972638    2.142818
     27          1           0        3.709818   -1.971738    1.211148
     28          1           0       -3.536380   -2.232291   -0.952940
     29          1           0       -1.974696   -1.884311   -1.680653
     30          1           0       -2.114839   -2.734049   -0.108950
     31          1           0       -3.111474    0.128718    2.004964
     32          1           0       -3.971694   -1.313616    1.442533
     33          1           0       -2.290878   -1.434555    1.994645
     34          1           0       -4.525718   -0.262311   -0.849847
     35          1           0       -3.889042    1.205397   -0.161512
     36          1           0       -3.276033    0.622144   -1.729866
     37          1           0        0.896016    4.136782   -0.575845
     38          1           0        0.164187    4.117084    1.047438
     39          1           0       -0.855639    4.165254   -0.407781
     40          1           0       -0.367432   -2.170093    0.843677
 ---------------------------------------------------------------------
 Rotational constants (GHZ):           0.7328358           0.4171767           0.3014883
 Standard basis: 6-311++G(d,p) (5D, 7F)
 There are   536 symmetry adapted cartesian basis functions of A   symmetry.
 There are   520 symmetry adapted basis functions of A   symmetry.
   520 basis functions,   792 primitive gaussians,   536 cartesian basis functions
    61 alpha electrons       61 beta electrons
       nuclear repulsion energy      1189.5848899640 Hartrees.
 NAtoms=   40 NActive=   40 NUniq=   40 SFac= 1.00D+00 NAtFMM=   60 NAOKFM=F Big=F
 Integral buffers will be    131072 words long.
 Raffenetti 2 integral format.
 Two-electron integral symmetry is turned on.
 R6APFD:  NTU= -4 IXU= 1 FactS= 1.050
 Nuclear repulsion after empirical dispersion term =     1189.5466138601 Hartrees.
 One-electron integrals computed using PRISM.
 NBasis=   520 RedAO= T EigKep=  1.09D-06  NBF=   520
 NBsUse=   515 1.00D-06 EigRej=  6.35D-07 NBFU=   515
 ExpMin= 3.60D-02 ExpMax= 8.59D+03 ExpMxC= 1.30D+03 IAcc=3 IRadAn=         5 AccDes= 0.00D+00
 Harris functional with IExCor= 1009 and IRadAn=       5 diagonalized for initial guess.
 HarFok:  IExCor= 1009 AccDes= 0.00D+00 IRadAn=         5 IDoV= 1 UseB2=F ITyADJ=14
 ICtDFT=  3500011 ScaDFX=  1.000000  1.000000  1.000000  1.000000
 FoFCou: FMM=F IPFlag=           0 FMFlag=      100000 FMFlg1=           0
         NFxFlg=           0 DoJE=T BraDBF=F KetDBF=T FulRan=T
         wScrn=  0.000000 ICntrl=       500 IOpCl=  0 I1Cent=   200000004 NGrid=           0
         NMat0=    1 NMatS0=      1 NMatT0=    0 NMatD0=    1 NMtDS0=    0 NMtDT0=    0
 Petite list used in FoFCou.
 Requested convergence on RMS density matrix=1.00D-08 within  32 cycles.
 Requested convergence on MAX density matrix=1.00D-06.
 Requested convergence on             energy=1.00D-06.
 No special actions if energy rises.
 SCF Done:  E(RM08HX) =  -661.317771465     A.U. after   14 cycles
            NFock= 14  Conv=0.67D-08     -V/T= 2.0051
 QCSCF skips out because SCF is already converged.

 **********************************************************************

            Population analysis using the SCF Density.

 **********************************************************************

 Orbital symmetries:
       Occupied  (A) (A) (A) (A) (A) (A) (A) (A) (A) (A) (A) (A)
                 (A) (A) (A) (A) (A) (A) (A) (A) (A) (A) (A) (A)
                 (A) (A) (A) (A) (A) (A) (A) (A) (A) (A) (A) (A)
                 (A) (A) (A) (A) (A) (A) (A) (A) (A) (A) (A) (A)
                 (A) (A) (A) (A) (A) (A) (A) (A) (A) (A) (A) (A)
                 (A)
       Virtual   (A) (A) (A) (A) (A) (A) (A) (A) (A) (A) (A) (A)
                 (A) (A) (A) (A) (A) (A) (A) (A) (A) (A) (A) (A)
                 (A) (A) (A) (A) (A) (A) (A) (A) (A) (A) (A) (A)
                 (A) (A) (A) (A) (A) (A) (A) (A) (A) (A) (A) (A)
                 (A) (A) (A) (A) (A) (A) (A) (A) (A) (A) (A) (A)
                 (A) (A) (A) (A) (A) (A) (A) (A) (A) (A) (A) (A)
                 (A) (A) (A) (A) (A) (A) (A) (A) (A) (A) (A) (A)
                 (A) (A) (A) (A) (A) (A) (A) (A) (A) (A) (A) (A)
                 (A) (A) (A) (A) (A) (A) (A) (A) (A) (A) (A) (A)
                 (A) (A) (A) (A) (A) (A) (A) (A) (A) (A) (A) (A)
                 (A) (A) (A) (A) (A) (A) (A) (A) (A) (A) (A) (A)
                 (A) (A) (A) (A) (A) (A) (A) (A) (A) (A) (A) (A)
                 (A) (A) (A) (A) (A) (A) (A) (A) (A) (A) (A) (A)
                 (A) (A) (A) (A) (A) (A) (A) (A) (A) (A) (A) (A)
                 (A) (A) (A) (A) (A) (A) (A) (A) (A) (A) (A) (A)
                 (A) (A) (A) (A) (A) (A) (A) (A) (A) (A) (A) (A)
                 (A) (A) (A) (A) (A) (A) (A) (A) (A) (A) (A) (A)
                 (A) (A) (A) (A) (A) (A) (A) (A) (A) (A) (A) (A)
                 (A) (A) (A) (A) (A) (A) (A) (A) (A) (A) (A) (A)
                 (A) (A) (A) (A) (A) (A) (A) (A) (A) (A) (A) (A)
                 (A) (A) (A) (A) (A) (A) (A) (A) (A) (A) (A) (A)
                 (A) (A) (A) (A) (A) (A) (A) (A) (A) (A) (A) (A)
                 (A) (A) (A) (A) (A) (A) (A) (A) (A) (A) (A) (A)
                 (A) (A) (A) (A) (A) (A) (A) (A) (A) (A) (A) (A)
                 (A) (A) (A) (A) (A) (A) (A) (A) (A) (A) (A) (A)
                 (A) (A) (A) (A) (A) (A) (A) (A) (A) (A) (A) (A)
                 (A) (A) (A) (A) (A) (A) (A) (A) (A) (A) (A) (A)
                 (A) (A) (A) (A) (A) (A) (A) (A) (A) (A) (A) (A)
                 (A) (A) (A) (A) (A) (A) (A) (A) (A) (A) (A) (A)
                 (A) (A) (A) (A) (A) (A) (A) (A) (A) (A) (A) (A)
                 (A) (A) (A) (A) (A) (A) (A) (A) (A) (A) (A) (A)
                 (A) (A) (A) (A) (A) (A) (A) (A) (A) (A) (A) (A)
                 (A) (A) (A) (A) (A) (A) (A) (A) (A) (A) (A) (A)
                 (A) (A) (A) (A) (A) (A) (A) (A) (A) (A) (A) (A)
                 (A) (A) (A) (A) (A) (A) (A) (A) (A) (A) (A) (A)
                 (A) (A) (A) (A) (A) (A) (A) (A) (A) (A) (A) (A)
                 (A) (A) (A) (A) (A) (A) (A) (A) (A) (A) (A) (A)
                 (A) (A) (A) (A) (A) (A) (A) (A) (A) (A)
 The electronic state is 1-A.
 Alpha  occ. eigenvalues --  -19.62738 -10.57949 -10.55306 -10.54548 -10.53574
 Alpha  occ. eigenvalues --  -10.53349 -10.53172 -10.52400 -10.52337 -10.52075
 Alpha  occ. eigenvalues --  -10.51945 -10.51669 -10.51203 -10.51118 -10.50966
 Alpha  occ. eigenvalues --  -10.50255  -1.18012  -0.98003  -0.93760  -0.91289
 Alpha  occ. eigenvalues --   -0.86406  -0.83236  -0.78659  -0.78256  -0.77709
 Alpha  occ. eigenvalues --   -0.77141  -0.76733  -0.71551  -0.68898  -0.64676
 Alpha  occ. eigenvalues --   -0.61111  -0.60675  -0.56928  -0.55038  -0.53255
 Alpha  occ. eigenvalues --   -0.52634  -0.50985  -0.50631  -0.50212  -0.49814
 Alpha  occ. eigenvalues --   -0.49263  -0.48720  -0.46632  -0.45484  -0.45165
 Alpha  occ. eigenvalues --   -0.44852  -0.44445  -0.43763  -0.43208  -0.42193
 Alpha  occ. eigenvalues --   -0.41903  -0.41823  -0.40484  -0.39544  -0.39050
 Alpha  occ. eigenvalues --   -0.38353  -0.37959  -0.37726  -0.34763  -0.29641
 Alpha  occ. eigenvalues --   -0.28066
 Alpha virt. eigenvalues --   -0.03498  -0.02306  -0.02043  -0.01330  -0.00575
 Alpha virt. eigenvalues --   -0.00332   0.00278   0.00309   0.00439   0.00677
 Alpha virt. eigenvalues --    0.01391   0.01782   0.02101   0.02481   0.02726
 Alpha virt. eigenvalues --    0.03311   0.03494   0.03982   0.04062   0.04411
 Alpha virt. eigenvalues --    0.04585   0.05482   0.05593   0.06246   0.06792
 Alpha virt. eigenvalues --    0.07116   0.07355   0.07735   0.08039   0.08982
 Alpha virt. eigenvalues --    0.09228   0.09679   0.09976   0.10821   0.11120
 Alpha virt. eigenvalues --    0.11433   0.11644   0.11756   0.12350   0.12469
 Alpha virt. eigenvalues --    0.12773   0.13073   0.13179   0.13301   0.13703
 Alpha virt. eigenvalues --    0.13805   0.13961   0.14192   0.14668   0.14905
 Alpha virt. eigenvalues --    0.15177   0.15308   0.15363   0.15684   0.15863
 Alpha virt. eigenvalues --    0.16207   0.16499   0.16761   0.17073   0.17151
 Alpha virt. eigenvalues --    0.17433   0.17769   0.18081   0.18636   0.19088
 Alpha virt. eigenvalues --    0.19440   0.19841   0.19970   0.20185   0.20830
 Alpha virt. eigenvalues --    0.21143   0.21698   0.21971   0.22078   0.22544
 Alpha virt. eigenvalues --    0.22651   0.23768   0.24238   0.24355   0.24483
 Alpha virt. eigenvalues --    0.25043   0.25568   0.25922   0.26340   0.26919
 Alpha virt. eigenvalues --    0.27409   0.27462   0.28078   0.28782   0.29239
 Alpha virt. eigenvalues --    0.29376   0.29805   0.30470   0.30664   0.30949
 Alpha virt. eigenvalues --    0.31619   0.31950   0.32079   0.32373   0.32882
 Alpha virt. eigenvalues --    0.33222   0.33854   0.34194   0.34532   0.34862
 Alpha virt. eigenvalues --    0.35070   0.35412   0.35798   0.36259   0.36611
 Alpha virt. eigenvalues --    0.36844   0.37797   0.38654   0.39186   0.39741
 Alpha virt. eigenvalues --    0.40372   0.41854   0.42727   0.43434   0.44305
 Alpha virt. eigenvalues --    0.45165   0.46113   0.46624   0.47659   0.47889
 Alpha virt. eigenvalues --    0.48542   0.49406   0.50586   0.51879   0.52201
 Alpha virt. eigenvalues --    0.54512   0.55315   0.56288   0.56684   0.57294
 Alpha virt. eigenvalues --    0.58011   0.58322   0.59313   0.60473   0.61205
 Alpha virt. eigenvalues --    0.61415   0.61670   0.62876   0.63192   0.63644
 Alpha virt. eigenvalues --    0.64196   0.65145   0.65711   0.66144   0.66868
 Alpha virt. eigenvalues --    0.67643   0.68126   0.68509   0.69496   0.70037
 Alpha virt. eigenvalues --    0.70267   0.70625   0.71083   0.71569   0.72002
 Alpha virt. eigenvalues --    0.72319   0.73127   0.73464   0.73557   0.73964
 Alpha virt. eigenvalues --    0.74226   0.75157   0.75911   0.76039   0.77129
 Alpha virt. eigenvalues --    0.78054   0.78407   0.78914   0.79772   0.80134
 Alpha virt. eigenvalues --    0.80731   0.80899   0.81460   0.81871   0.82428
 Alpha virt. eigenvalues --    0.82988   0.83142   0.84028   0.84453   0.85249
 Alpha virt. eigenvalues --    0.85730   0.87252   0.87471   0.91287   0.91786
 Alpha virt. eigenvalues --    0.94144   0.95147   0.96335   0.97265   0.98326
 Alpha virt. eigenvalues --    0.98613   1.00458   1.01390   1.01935   1.02594
 Alpha virt. eigenvalues --    1.04210   1.05509   1.06991   1.07259   1.08806
 Alpha virt. eigenvalues --    1.11708   1.12277   1.13251   1.16200   1.17926
 Alpha virt. eigenvalues --    1.18857   1.19330   1.19987   1.21492   1.21956
 Alpha virt. eigenvalues --    1.25046   1.26180   1.27764   1.29358   1.31553
 Alpha virt. eigenvalues --    1.32057   1.33370   1.35962   1.37324   1.40268
 Alpha virt. eigenvalues --    1.43585   1.44749   1.45555   1.46327   1.47747
 Alpha virt. eigenvalues --    1.48436   1.49538   1.50342   1.51038   1.51228
 Alpha virt. eigenvalues --    1.51551   1.52031   1.53633   1.54123   1.54700
 Alpha virt. eigenvalues --    1.55717   1.56120   1.56483   1.57231   1.58114
 Alpha virt. eigenvalues --    1.58878   1.59222   1.60321   1.60843   1.62147
 Alpha virt. eigenvalues --    1.62862   1.63265   1.63929   1.64124   1.65139
 Alpha virt. eigenvalues --    1.65789   1.66574   1.67630   1.68399   1.69388
 Alpha virt. eigenvalues --    1.69792   1.70705   1.70813   1.71428   1.72611
 Alpha virt. eigenvalues --    1.73027   1.74033   1.74753   1.75103   1.75740
 Alpha virt. eigenvalues --    1.76629   1.77886   1.80114   1.81134   1.81572
 Alpha virt. eigenvalues --    1.81792   1.82155   1.83334   1.84421   1.85257
 Alpha virt. eigenvalues --    1.86146   1.87251   1.87346   1.88192   1.88339
 Alpha virt. eigenvalues --    1.89349   1.90550   1.92750   1.94744   1.96511
 Alpha virt. eigenvalues --    1.97279   1.99044   2.00658   2.01281   2.02419
 Alpha virt. eigenvalues --    2.03048   2.04133   2.04403   2.07451   2.07848
 Alpha virt. eigenvalues --    2.09243   2.10823   2.11027   2.12905   2.13869
 Alpha virt. eigenvalues --    2.15468   2.15928   2.17067   2.18382   2.19167
 Alpha virt. eigenvalues --    2.21302   2.21576   2.23785   2.25864   2.26482
 Alpha virt. eigenvalues --    2.27611   2.28028   2.28633   2.30493   2.31651
 Alpha virt. eigenvalues --    2.32129   2.35189   2.36981   2.38988   2.40049
 Alpha virt. eigenvalues --    2.40569   2.44344   2.46075   2.47367   2.49442
 Alpha virt. eigenvalues --    2.50452   2.51043   2.52970   2.53367   2.54146
 Alpha virt. eigenvalues --    2.54654   2.54989   2.56224   2.56594   2.57923
 Alpha virt. eigenvalues --    2.58443   2.58924   2.59058   2.59864   2.60313
 Alpha virt. eigenvalues --    2.61122   2.61370   2.61987   2.62479   2.62720
 Alpha virt. eigenvalues --    2.63498   2.64790   2.66316   2.66782   2.67174
 Alpha virt. eigenvalues --    2.68128   2.69091   2.69569   2.70617   2.71148
 Alpha virt. eigenvalues --    2.73034   2.73593   2.76066   2.77144   2.78177
 Alpha virt. eigenvalues --    2.78821   2.80228   2.80844   2.81921   2.83492
 Alpha virt. eigenvalues --    2.84806   2.85528   2.86516   2.87753   2.90772
 Alpha virt. eigenvalues --    2.91923   2.93175   2.93985   2.96575   2.98182
 Alpha virt. eigenvalues --    2.99544   3.00275   3.02322   3.03214   3.05657
 Alpha virt. eigenvalues --    3.08078   3.11551   3.13008   3.13787   3.20125
 Alpha virt. eigenvalues --    3.22975   3.23388   3.25382   3.26734   3.28027
 Alpha virt. eigenvalues --    3.32085   3.34615   3.35051   3.37943   3.38723
 Alpha virt. eigenvalues --    3.44752   3.48671   3.53859   3.56279   3.60426
 Alpha virt. eigenvalues --    3.69853   3.77821   3.78634   3.80036   3.81246
 Alpha virt. eigenvalues --    3.81504   3.82073   3.82190   3.82802   3.83923
 Alpha virt. eigenvalues --    3.85964   3.86543   3.86818   3.87059   3.87258
 Alpha virt. eigenvalues --    3.88642   3.88743   3.90533   3.96640   4.04688
 Alpha virt. eigenvalues --    4.24205   4.28438   4.31040   4.34527   4.35499
 Alpha virt. eigenvalues --    4.39727   4.43375   4.50467   4.56795   4.99444
 Alpha virt. eigenvalues --    5.41110   5.60770   5.89248  23.66313  23.87999
 Alpha virt. eigenvalues --   23.88998  24.01900  24.03724  24.04638  24.04801
 Alpha virt. eigenvalues --   24.05169  24.05948  24.07098  24.07288  24.08449
 Alpha virt. eigenvalues --   24.17126  24.19813  24.29412  50.02990
          Condensed to atoms (all electrons):
               1          2          3          4          5          6
     1  O    8.066894   0.257220  -0.023748  -0.559259   0.062318   0.609694
     2  C    0.257220  10.566931   0.562956  -1.293010   0.829997   0.389009
     3  C   -0.023748   0.562956  22.618633  -4.147424  -4.841825  -5.737323
     4  C   -0.559259  -1.293010  -4.147424  15.493842  -1.300328  -0.448147
     5  C    0.062318   0.829997  -4.841825  -1.300328  20.731763   1.960776
     6  C    0.609694   0.389009  -5.737323  -0.448147   1.960776   9.759196
     7  C    0.011370  -2.031561  -2.183587   2.560003  -1.180452   0.393305
     8  C    0.010428  -0.347505   1.273817  -1.004122  -2.149286  -0.957225
     9  C    0.015421   0.416200  -0.111394  -0.090440  -0.132155  -0.213219
    10  C   -0.071120  -0.360037  -0.110199   0.135768  -0.213955   0.052653
    11  C   -0.072030  -0.334673  -0.131462   0.385685  -0.342294  -0.057331
    12  C   -0.122325  -0.124475  -0.988478   0.181707   0.269387   0.471811
    13  C   -0.017320   0.037288   1.244872  -0.374333  -0.463473  -0.501333
    14  C    0.037048  -0.027821  -2.257692   0.331182   0.903556   0.539173
    15  C   -0.192895  -2.615630   0.332801  -2.891765  -6.103079  -0.092956
    16  C   -0.023021  -0.277256  -0.718693  -1.235100  -1.915626   0.631482
    17  H    0.003170  -0.063792   0.006366   0.023311   0.161115  -0.009976
    18  H   -0.002413   0.010297   0.186696   0.052981  -0.145707  -0.093477
    19  H   -0.000601   0.041457   0.000040  -0.001967  -0.008632   0.004176
    20  H   -0.001461  -0.000277  -0.004073   0.003052  -0.031669  -0.001044
    21  H    0.001231  -0.039342  -0.003049   0.026793  -0.005137   0.009255
    22  H   -0.017352  -0.044433  -0.036089   0.031336  -0.045100  -0.052165
    23  H   -0.000820  -0.051950  -0.002673   0.037351  -0.003643   0.015219
    24  H    0.005777   0.082425   0.010031  -0.049097   0.035099   0.011205
    25  H    0.023480   0.041009  -0.000666  -0.143739   0.021335   0.090230
    26  H    0.001540   0.082900   0.011917  -0.065273   0.027932  -0.002729
    27  H   -0.000002  -0.073780   0.002924   0.031255   0.008566   0.013994
    28  H    0.016375  -0.006456  -0.258031   0.017525   0.097765   0.059522
    29  H   -0.040228   0.008059   0.241394  -0.068154  -0.050335  -0.025053
    30  H   -0.020300   0.000768   0.161190   0.003576  -0.019321  -0.082086
    31  H   -0.001516  -0.003606   0.048471  -0.010486  -0.027403  -0.017519
    32  H   -0.002273   0.000975  -0.019082   0.001237   0.050540   0.011812
    33  H    0.010837   0.021413   0.145902  -0.037190  -0.118629  -0.046582
    34  H    0.000349   0.001488  -0.044266  -0.002656   0.024389   0.000015
    35  H   -0.000013  -0.000877   0.064510   0.008356  -0.146519   0.020568
    36  H    0.000950  -0.002786  -0.016253  -0.015194   0.129904   0.019308
    37  H   -0.000309   0.010620   0.003704   0.045495  -0.049642   0.002861
    38  H   -0.000007  -0.003270  -0.014397  -0.027812  -0.035887   0.013826
    39  H   -0.000042  -0.006294   0.015116  -0.064999   0.030943   0.002174
    40  H    0.179949  -0.092890  -0.076437   0.150280  -0.060846  -0.053102
               7          8          9         10         11         12
     1  O    0.011370   0.010428   0.015421  -0.071120  -0.072030  -0.122325
     2  C   -2.031561  -0.347505   0.416200  -0.360037  -0.334673  -0.124475
     3  C   -2.183587   1.273817  -0.111394  -0.110199  -0.131462  -0.988478
     4  C    2.560003  -1.004122  -0.090440   0.135768   0.385685   0.181707
     5  C   -1.180452  -2.149286  -0.132155  -0.213955  -0.342294   0.269387
     6  C    0.393305  -0.957225  -0.213219   0.052653  -0.057331   0.471811
     7  C    8.875750   0.101391   0.063969   0.118310   0.114495   0.112383
     8  C    0.101391   9.644444   0.005045   0.030526   0.030688  -0.423466
     9  C    0.063969   0.005045   6.863488  -0.438378  -0.338075   0.001466
    10  C    0.118310   0.030526  -0.438378   6.951298  -0.343027   0.008417
    11  C    0.114495   0.030688  -0.338075  -0.343027   6.850497   0.008367
    12  C    0.112383  -0.423466   0.001466   0.008417   0.008367   6.994816
    13  C   -0.061680   0.242165  -0.000744  -0.006905  -0.032688  -0.446342
    14  C    0.157662  -0.354662   0.001340   0.001144   0.014877  -0.290168
    15  C   -0.962253  -0.126165  -0.510962   0.062296   0.026803  -0.086648
    16  C    0.125606  -0.007234  -0.094065   0.016088   0.013512   0.024202
    17  H    0.369360   0.029395   0.028854  -0.004663  -0.008120  -0.001340
    18  H   -0.000395   0.398400  -0.004017   0.003973  -0.000234  -0.001970
    19  H   -0.008507  -0.003339   0.329130   0.041485  -0.022295   0.000034
    20  H    0.002814  -0.004701   0.376755  -0.027160   0.027944   0.000205
    21  H    0.027409   0.000145   0.415723  -0.033460  -0.023735   0.000225
    22  H    0.017299   0.002376   0.034488   0.366867   0.022253   0.005743
    23  H    0.010354  -0.000066  -0.059380   0.437317  -0.039161  -0.000421
    24  H   -0.027780  -0.004181  -0.004482   0.345469   0.026638  -0.000489
    25  H   -0.029263  -0.000616   0.011510  -0.004691   0.413362  -0.002161
    26  H   -0.022948  -0.005062   0.016020   0.021971   0.297667  -0.001901
    27  H    0.013717  -0.001568  -0.042064  -0.037015   0.440662  -0.000442
    28  H    0.001685   0.006539   0.000011   0.000150   0.001977   0.463602
    29  H   -0.016513  -0.005799  -0.001441   0.004013  -0.005849   0.364837
    30  H   -0.001177   0.011392  -0.000364  -0.000266   0.002234   0.255180
    31  H   -0.002777   0.012330   0.000200  -0.000415  -0.000137   0.037824
    32  H   -0.002218   0.002423   0.000104  -0.000086  -0.000223  -0.024590
    33  H   -0.016640   0.016186  -0.000448  -0.002222  -0.000760  -0.032976
    34  H   -0.000246   0.015600  -0.000139  -0.000520  -0.000428  -0.058158
    35  H    0.005721   0.047427   0.000510   0.000186   0.000087   0.067214
    36  H   -0.006301  -0.092341  -0.000439  -0.000119   0.000082  -0.018352
    37  H    0.101342  -0.015963  -0.005622   0.000498  -0.000160  -0.000299
    38  H   -0.036275  -0.046014   0.003148  -0.001041   0.001538   0.000276
    39  H   -0.042325   0.131449   0.000034  -0.000138  -0.000527   0.000369
    40  H    0.002275   0.031176  -0.007025   0.033557   0.012789   0.037378
              13         14         15         16         17         18
     1  O   -0.017320   0.037048  -0.192895  -0.023021   0.003170  -0.002413
     2  C    0.037288  -0.027821  -2.615630  -0.277256  -0.063792   0.010297
     3  C    1.244872  -2.257692   0.332801  -0.718693   0.006366   0.186696
     4  C   -0.374333   0.331182  -2.891765  -1.235100   0.023311   0.052981
     5  C   -0.463473   0.903556  -6.103079  -1.915626   0.161115  -0.145707
     6  C   -0.501333   0.539173  -0.092956   0.631482  -0.009976  -0.093477
     7  C   -0.061680   0.157662  -0.962253   0.125606   0.369360  -0.000395
     8  C    0.242165  -0.354662  -0.126165  -0.007234   0.029395   0.398400
     9  C   -0.000744   0.001340  -0.510962  -0.094065   0.028854  -0.004017
    10  C   -0.006905   0.001144   0.062296   0.016088  -0.004663   0.003973
    11  C   -0.032688   0.014877   0.026803   0.013512  -0.008120  -0.000234
    12  C   -0.446342  -0.290168  -0.086648   0.024202  -0.001340  -0.001970
    13  C    7.083724  -0.778859  -0.117458  -0.092792   0.006332   0.009893
    14  C   -0.778859   7.593421  -0.217308   0.074713   0.000617  -0.027824
    15  C   -0.117458  -0.217308  21.359679  -1.594778  -0.012383   0.122070
    16  C   -0.092792   0.074713  -1.594778  10.444260  -0.215527  -0.196339
    17  H    0.006332   0.000617  -0.012383  -0.215527   0.522049   0.002385
    18  H    0.009893  -0.027824   0.122070  -0.196339   0.002385   0.553900
    19  H    0.000234  -0.000487  -0.008977   0.015549  -0.025906  -0.000066
    20  H   -0.001198   0.000537   0.002968   0.019296  -0.016635  -0.000390
    21  H   -0.000038  -0.000082  -0.021629  -0.005776   0.008184  -0.000049
    22  H   -0.006025   0.005285   0.047518   0.007100   0.000928  -0.000710
    23  H   -0.000770   0.000621   0.005103   0.001749  -0.001510  -0.000014
    24  H    0.000728  -0.000287  -0.061094  -0.007466   0.002382   0.000194
    25  H    0.009023   0.001501  -0.034598  -0.003030   0.003074  -0.000119
    26  H    0.000916  -0.000812  -0.006110  -0.001358   0.000042   0.000029
    27  H    0.000238  -0.000164   0.004860   0.000509  -0.002098   0.000002
    28  H   -0.035941  -0.044203   0.023496   0.003756  -0.000333  -0.000759
    29  H    0.064753  -0.085406  -0.045601  -0.007964   0.000299   0.002574
    30  H   -0.028757   0.086977   0.000423   0.001684  -0.000118  -0.000423
    31  H    0.405581  -0.059926  -0.019476   0.001145  -0.000267  -0.006665
    32  H    0.371795  -0.035645   0.004901  -0.000115   0.000050  -0.000573
    33  H    0.345009   0.069851  -0.001922  -0.002081  -0.000045   0.003035
    34  H    0.000556   0.449022  -0.024361  -0.006294   0.000239   0.004706
    35  H   -0.036262   0.263575   0.030332   0.017556  -0.000729  -0.000288
    36  H    0.029464   0.403530  -0.055589   0.001295  -0.000148  -0.009358
    37  H    0.000399  -0.002161  -0.183921   0.447826  -0.016456   0.002465
    38  H   -0.002948   0.005110   0.060432   0.420985  -0.001878  -0.003661
    39  H    0.000131  -0.004217  -0.229946   0.518643   0.003271  -0.016228
    40  H   -0.088382  -0.017762   0.128392   0.012742  -0.002920   0.001187
              19         20         21         22         23         24
     1  O   -0.000601  -0.001461   0.001231  -0.017352  -0.000820   0.005777
     2  C    0.041457  -0.000277  -0.039342  -0.044433  -0.051950   0.082425
     3  C    0.000040  -0.004073  -0.003049  -0.036089  -0.002673   0.010031
     4  C   -0.001967   0.003052   0.026793   0.031336   0.037351  -0.049097
     5  C   -0.008632  -0.031669  -0.005137  -0.045100  -0.003643   0.035099
     6  C    0.004176  -0.001044   0.009255  -0.052165   0.015219   0.011205
     7  C   -0.008507   0.002814   0.027409   0.017299   0.010354  -0.027780
     8  C   -0.003339  -0.004701   0.000145   0.002376  -0.000066  -0.004181
     9  C    0.329130   0.376755   0.415723   0.034488  -0.059380  -0.004482
    10  C    0.041485  -0.027160  -0.033460   0.366867   0.437317   0.345469
    11  C   -0.022295   0.027944  -0.023735   0.022253  -0.039161   0.026638
    12  C    0.000034   0.000205   0.000225   0.005743  -0.000421  -0.000489
    13  C    0.000234  -0.001198  -0.000038  -0.006025  -0.000770   0.000728
    14  C   -0.000487   0.000537  -0.000082   0.005285   0.000621  -0.000287
    15  C   -0.008977   0.002968  -0.021629   0.047518   0.005103  -0.061094
    16  C    0.015549   0.019296  -0.005776   0.007100   0.001749  -0.007466
    17  H   -0.025906  -0.016635   0.008184   0.000928  -0.001510   0.002382
    18  H   -0.000066  -0.000390  -0.000049  -0.000710  -0.000014   0.000194
    19  H    0.526724  -0.044278  -0.033799  -0.003809   0.000313  -0.000721
    20  H   -0.044278   0.526758  -0.031751   0.001073   0.007149   0.000352
    21  H   -0.033799  -0.031751   0.455158   0.002340  -0.004484   0.000761
    22  H   -0.003809   0.001073   0.002340   0.491890  -0.049640  -0.031049
    23  H    0.000313   0.007149  -0.004484  -0.049640   0.518645  -0.027290
    24  H   -0.000721   0.000352   0.000761  -0.031049  -0.027290   0.477634
    25  H   -0.002976  -0.004711   0.004463  -0.012618   0.004572   0.004403
    26  H    0.004946  -0.000153  -0.001768   0.000832   0.002429  -0.004034
    27  H    0.005875   0.000003  -0.003695   0.009069  -0.018853   0.000287
    28  H    0.000014   0.000008   0.000024   0.000755  -0.000021  -0.000347
    29  H    0.000139  -0.000216  -0.000058  -0.007070  -0.000435   0.001103
    30  H   -0.000057   0.000124  -0.000042   0.002052   0.000370  -0.000220
    31  H    0.000132  -0.000033   0.000001  -0.000096   0.000004  -0.000084
    32  H   -0.000045   0.000019   0.000005   0.000157   0.000058   0.000014
    33  H   -0.000087  -0.000011  -0.000048   0.000085  -0.000083   0.000262
    34  H    0.000012  -0.000032  -0.000017  -0.000280  -0.000016   0.000110
    35  H    0.000001   0.000030   0.000019   0.000131   0.000018   0.000059
    36  H   -0.000012   0.000047   0.000014   0.000102  -0.000091  -0.000084
    37  H    0.002904  -0.002261  -0.000160  -0.000213   0.000028   0.000013
    38  H   -0.000899   0.001122   0.000038   0.000158  -0.000044   0.000059
    39  H   -0.000177  -0.000199  -0.000019   0.000071   0.000037  -0.000130
    40  H    0.000778   0.000876  -0.000121  -0.002149   0.001360  -0.002751
              25         26         27         28         29         30
     1  O    0.023480   0.001540  -0.000002   0.016375  -0.040228  -0.020300
     2  C    0.041009   0.082900  -0.073780  -0.006456   0.008059   0.000768
     3  C   -0.000666   0.011917   0.002924  -0.258031   0.241394   0.161190
     4  C   -0.143739  -0.065273   0.031255   0.017525  -0.068154   0.003576
     5  C    0.021335   0.027932   0.008566   0.097765  -0.050335  -0.019321
     6  C    0.090230  -0.002729   0.013994   0.059522  -0.025053  -0.082086
     7  C   -0.029263  -0.022948   0.013717   0.001685  -0.016513  -0.001177
     8  C   -0.000616  -0.005062  -0.001568   0.006539  -0.005799   0.011392
     9  C    0.011510   0.016020  -0.042064   0.000011  -0.001441  -0.000364
    10  C   -0.004691   0.021971  -0.037015   0.000150   0.004013  -0.000266
    11  C    0.413362   0.297667   0.440662   0.001977  -0.005849   0.002234
    12  C   -0.002161  -0.001901  -0.000442   0.463602   0.364837   0.255180
    13  C    0.009023   0.000916   0.000238  -0.035941   0.064753  -0.028757
    14  C    0.001501  -0.000812  -0.000164  -0.044203  -0.085406   0.086977
    15  C   -0.034598  -0.006110   0.004860   0.023496  -0.045601   0.000423
    16  C   -0.003030  -0.001358   0.000509   0.003756  -0.007964   0.001684
    17  H    0.003074   0.000042  -0.002098  -0.000333   0.000299  -0.000118
    18  H   -0.000119   0.000029   0.000002  -0.000759   0.002574  -0.000423
    19  H   -0.002976   0.004946   0.005875   0.000014   0.000139  -0.000057
    20  H   -0.004711  -0.000153   0.000003   0.000008  -0.000216   0.000124
    21  H    0.004463  -0.001768  -0.003695   0.000024  -0.000058  -0.000042
    22  H   -0.012618   0.000832   0.009069   0.000755  -0.007070   0.002052
    23  H    0.004572   0.002429  -0.018853  -0.000021  -0.000435   0.000370
    24  H    0.004403  -0.004034   0.000287  -0.000347   0.001103  -0.000220
    25  H    0.531201  -0.032833  -0.044037  -0.000142   0.000347   0.000638
    26  H   -0.032833   0.471753  -0.024917  -0.000052   0.000307  -0.000170
    27  H   -0.044037  -0.024917   0.501070   0.000004   0.000089  -0.000016
    28  H   -0.000142  -0.000052   0.000004   0.532655  -0.043390  -0.057508
    29  H    0.000347   0.000307   0.000089  -0.043390   0.477116  -0.024764
    30  H    0.000638  -0.000170  -0.000016  -0.057508  -0.024764   0.554460
    31  H    0.000006   0.000070   0.000004   0.005128  -0.002112  -0.003948
    32  H   -0.000386   0.000085  -0.000076  -0.010959  -0.001851   0.005002
    33  H    0.004312  -0.001067   0.000353  -0.004687   0.002041   0.010270
    34  H    0.000204  -0.000022   0.000021  -0.007261   0.007166   0.004352
    35  H   -0.000051  -0.000045  -0.000032   0.010733  -0.004230  -0.006770
    36  H   -0.000181   0.000035   0.000030  -0.000007   0.005598  -0.000262
    37  H    0.000016   0.000031   0.000042   0.000075  -0.000002  -0.000023
    38  H   -0.000085  -0.000290   0.000097  -0.000040  -0.000067   0.000023
    39  H    0.000051   0.000037  -0.000041   0.000036  -0.000032   0.000037
    40  H   -0.028729   0.005098  -0.002023   0.004847  -0.005821  -0.004783
              31         32         33         34         35         36
     1  O   -0.001516  -0.002273   0.010837   0.000349  -0.000013   0.000950
     2  C   -0.003606   0.000975   0.021413   0.001488  -0.000877  -0.002786
     3  C    0.048471  -0.019082   0.145902  -0.044266   0.064510  -0.016253
     4  C   -0.010486   0.001237  -0.037190  -0.002656   0.008356  -0.015194
     5  C   -0.027403   0.050540  -0.118629   0.024389  -0.146519   0.129904
     6  C   -0.017519   0.011812  -0.046582   0.000015   0.020568   0.019308
     7  C   -0.002777  -0.002218  -0.016640  -0.000246   0.005721  -0.006301
     8  C    0.012330   0.002423   0.016186   0.015600   0.047427  -0.092341
     9  C    0.000200   0.000104  -0.000448  -0.000139   0.000510  -0.000439
    10  C   -0.000415  -0.000086  -0.002222  -0.000520   0.000186  -0.000119
    11  C   -0.000137  -0.000223  -0.000760  -0.000428   0.000087   0.000082
    12  C    0.037824  -0.024590  -0.032976  -0.058158   0.067214  -0.018352
    13  C    0.405581   0.371795   0.345009   0.000556  -0.036262   0.029464
    14  C   -0.059926  -0.035645   0.069851   0.449022   0.263575   0.403530
    15  C   -0.019476   0.004901  -0.001922  -0.024361   0.030332  -0.055589
    16  C    0.001145  -0.000115  -0.002081  -0.006294   0.017556   0.001295
    17  H   -0.000267   0.000050  -0.000045   0.000239  -0.000729  -0.000148
    18  H   -0.006665  -0.000573   0.003035   0.004706  -0.000288  -0.009358
    19  H    0.000132  -0.000045  -0.000087   0.000012   0.000001  -0.000012
    20  H   -0.000033   0.000019  -0.000011  -0.000032   0.000030   0.000047
    21  H    0.000001   0.000005  -0.000048  -0.000017   0.000019   0.000014
    22  H   -0.000096   0.000157   0.000085  -0.000280   0.000131   0.000102
    23  H    0.000004   0.000058  -0.000083  -0.000016   0.000018  -0.000091
    24  H   -0.000084   0.000014   0.000262   0.000110   0.000059  -0.000084
    25  H    0.000006  -0.000386   0.004312   0.000204  -0.000051  -0.000181
    26  H    0.000070   0.000085  -0.001067  -0.000022  -0.000045   0.000035
    27  H    0.000004  -0.000076   0.000353   0.000021  -0.000032   0.000030
    28  H    0.005128  -0.010959  -0.004687  -0.007261   0.010733  -0.000007
    29  H   -0.002112  -0.001851   0.002041   0.007166  -0.004230   0.005598
    30  H   -0.003948   0.005002   0.010270   0.004352  -0.006770  -0.000262
    31  H    0.474536  -0.030923  -0.039946  -0.002032   0.006377   0.001375
    32  H   -0.030923   0.510387  -0.051356  -0.013603   0.009736  -0.001875
    33  H   -0.039946  -0.051356   0.583272   0.007728  -0.005263  -0.002898
    34  H   -0.002032  -0.013603   0.007728   0.500731  -0.055392  -0.019112
    35  H    0.006377   0.009736  -0.005263  -0.055392   0.539365  -0.026410
    36  H    0.001375  -0.001875  -0.002898  -0.019112  -0.026410   0.438614
    37  H    0.000163  -0.000013  -0.000133  -0.000022   0.000473  -0.000293
    38  H   -0.000498   0.000009   0.000152   0.000094   0.000099   0.000087
    39  H    0.000550  -0.000067   0.000166  -0.000044  -0.000605  -0.000032
    40  H    0.002169   0.007390  -0.044607  -0.004039   0.002030   0.000386
              37         38         39         40
     1  O   -0.000309  -0.000007  -0.000042   0.179949
     2  C    0.010620  -0.003270  -0.006294  -0.092890
     3  C    0.003704  -0.014397   0.015116  -0.076437
     4  C    0.045495  -0.027812  -0.064999   0.150280
     5  C   -0.049642  -0.035887   0.030943  -0.060846
     6  C    0.002861   0.013826   0.002174  -0.053102
     7  C    0.101342  -0.036275  -0.042325   0.002275
     8  C   -0.015963  -0.046014   0.131449   0.031176
     9  C   -0.005622   0.003148   0.000034  -0.007025
    10  C    0.000498  -0.001041  -0.000138   0.033557
    11  C   -0.000160   0.001538  -0.000527   0.012789
    12  C   -0.000299   0.000276   0.000369   0.037378
    13  C    0.000399  -0.002948   0.000131  -0.088382
    14  C   -0.002161   0.005110  -0.004217  -0.017762
    15  C   -0.183921   0.060432  -0.229946   0.128392
    16  C    0.447826   0.420985   0.518643   0.012742
    17  H   -0.016456  -0.001878   0.003271  -0.002920
    18  H    0.002465  -0.003661  -0.016228   0.001187
    19  H    0.002904  -0.000899  -0.000177   0.000778
    20  H   -0.002261   0.001122  -0.000199   0.000876
    21  H   -0.000160   0.000038  -0.000019  -0.000121
    22  H   -0.000213   0.000158   0.000071  -0.002149
    23  H    0.000028  -0.000044   0.000037   0.001360
    24  H    0.000013   0.000059  -0.000130  -0.002751
    25  H    0.000016  -0.000085   0.000051  -0.028729
    26  H    0.000031  -0.000290   0.000037   0.005098
    27  H    0.000042   0.000097  -0.000041  -0.002023
    28  H    0.000075  -0.000040   0.000036   0.004847
    29  H   -0.000002  -0.000067  -0.000032  -0.005821
    30  H   -0.000023   0.000023   0.000037  -0.004783
    31  H    0.000163  -0.000498   0.000550   0.002169
    32  H   -0.000013   0.000009  -0.000067   0.007390
    33  H   -0.000133   0.000152   0.000166  -0.044607
    34  H   -0.000022   0.000094  -0.000044  -0.004039
    35  H    0.000473   0.000099  -0.000605   0.002030
    36  H   -0.000293   0.000087  -0.000032   0.000386
    37  H    0.517336  -0.030110  -0.039415   0.000173
    38  H   -0.030110   0.470953  -0.020924   0.000126
    39  H   -0.039415  -0.020924   0.500169  -0.000106
    40  H    0.000173   0.000126  -0.000106   0.527233
 Mulliken charges:
               1
     1  O   -0.144997
     2  C    0.440711
     3  C    0.795502
     4  C    0.309761
     5  C    0.045559
     6  C   -0.689996
     7  C   -0.553323
     8  C   -0.494026
     9  C   -0.528564
    10  C   -0.976569
    11  C   -0.938950
    12  C   -0.680437
    13  C   -0.758849
    14  C   -0.735255
    15  C    0.005429
    16  C   -0.395180
    17  H    0.213423
    18  H    0.156889
    19  H    0.193697
    20  H    0.201121
    21  H    0.256473
    22  H    0.258889
    23  H    0.218670
    24  H    0.216581
    25  H    0.180896
    26  H    0.224986
    27  H    0.217153
    28  H    0.223454
    29  H    0.262553
    30  H    0.150623
    31  H    0.233802
    32  H    0.219260
    33  H    0.188805
    34  H    0.222158
    35  H    0.188375
    36  H    0.237319
    37  H    0.210717
    38  H    0.247815
    39  H    0.223225
    40  H    0.352302
 Sum of Mulliken charges =  -0.00000
 Mulliken charges with hydrogens summed into heavy atoms:
               1
     1  O    0.207305
     2  C    0.440711
     3  C    0.795502
     4  C    0.309761
     5  C    0.045559
     6  C   -0.689996
     7  C   -0.339900
     8  C   -0.337137
     9  C    0.122727
    10  C   -0.282429
    11  C   -0.315915
    12  C   -0.043807
    13  C   -0.116982
    14  C   -0.087404
    15  C    0.005429
    16  C    0.286577
 Electronic spatial extent (au):  <R**2>=           4041.1349
 Charge=             -0.0000 electrons
 Dipole moment (field-independent basis, Debye):
    X=             -0.6770    Y=              0.4542    Z=              1.1420  Tot=              1.4031
 Quadrupole moment (field-independent basis, Debye-Ang):
   XX=            -98.8276   YY=            -99.0504   ZZ=           -104.1084
   XY=              1.4568   XZ=             -0.5695   YZ=             -2.9265
 Traceless Quadrupole moment (field-independent basis, Debye-Ang):
   XX=              1.8346   YY=              1.6117   ZZ=             -3.4463
   XY=              1.4568   XZ=             -0.5695   YZ=             -2.9265
 Octapole moment (field-independent basis, Debye-Ang**2):
  XXX=             -5.0030  YYY=              2.9933  ZZZ=              0.0435  XYY=             -2.5047
  XXY=             -0.8182  XXZ=             -0.1443  XZZ=             -1.2211  YZZ=             -6.0241
  YYZ=              8.1115  XYZ=              0.7179
[...]
 6,0.00000231,-0.00000171,0.00000582,0.00000189,-0.00000304,-0.00000133
 ,-0.00000036,0.00000462,0.00000221,-0.00001209,-0.00000321,-0.00000044
 ,0.00000171,-0.00000544,0.00000763,0.00000662,0.00001065,0.00001017,-0
 .00000081,0.00000347,-0.00000254,0.00000312,-0.00000818,0.00000145,0.0
 0000152,0.00004276,-0.00008732,-0.00006895,-0.00060691,-0.00050460,0.0
 0100158,0.00011770,0.00038165,0.00036685,-0.00000594,0.00020772,-0.000
 13698,-0.00013891,0.00026408,0.00039876,-0.00006687,-0.00027668,-0.001
 45693,-0.00073180,-0.00826456,-0.01442503,-0.00031442,0.01108530,0.018
 80711,-0.00101817,0.11731755,-0.00009874,0.00036797,0.00015313,-0.0000
 4279,0.00001574,-0.00000828,0.00027713,-0.00032911,-0.00323375,-0.0000
 1518,-0.00001542,0.00001244,0.00031294,-0.00033163,-0.00001433,-0.0000
 9938,-0.00014058,-0.00003904,0.00006981,-0.00005807,-0.00009564,-0.000
 24608,-0.00120597,0.00032192,0.00000533,0.00001040,0.00000114,0.000030
 54,-0.00000372,0.00001321,0.00003230,-0.00000112,-0.00001345,0.0003662
 7,0.00090177,0.00067105,-0.00164389,-0.00068920,0.00058561,0.00547178,
 -0.11123597,-0.24850836,0.00028342,0.00049547,0.00016496,-0.00004944,-
 0.00000148,0.00000066,0.00005616,0.00002936,-0.00001101,0.00048645,0.0
 0036621,0.00008440,-0.00000476,-0.00000088,-0.00000677,-0.00000601,0.0
 0000186,0.00001006,0.00000626,0.00000671,0.00000149,0.00000014,0.00000
 554,-0.00000538,0.00000358,0.00001217,-0.00000714,-0.00000444,-0.00000
 080,0.00000765,0.00000160,0.00001090,-0.00000064,0.00000161,-0.0000070
 5,-0.00000250,0.00000024,0.00001136,0.00001278,-0.00017606,-0.00002195
 ,-0.00006895,0.00028153,-0.00003063,0.00030347,-0.00014002,0.00002435,
 0.00026010,0.00015334,0.00005228,0.00049080,0.00012779,0.00022397,0.00
 009148,0.00012920,-0.00044382,-0.00001525,-0.00014041,0.00101517,-0.00
 005173,0.00082168,-0.01229457,-0.01784606,-0.00644681,0.12320994,0.266
 88772,0.00000823,0.00002829,0.00015155,-0.00007155,0.00002363,0.000066
 69,0.00004378,0.00000416,0.00002723,-0.00005124,0.00081847,-0.00047700
 ,-0.00015093,-0.00021328,-0.00015915,0.00052899,-0.00016323,-0.0002219
 1,0.00026123,-0.00185043,-0.00047938,0.00008217,0.00081264,0.00061254,
 0.00001545,0.00002457,0.00001318,0.00003490,0.00000864,0.00003301,0.00
 005405,0.00001961,-0.00001891,-0.00001757,0.00001637,0.00002621,-0.000
 02343,0.00001592,-0.00001557,-0.00002131,0.00000536,0.00001557,0.00008
 720,0.00063022,-0.00183351,-0.19234918,0.05576408,0.11893264,-0.000017
 08,0.00006080,0.00056362,0.00044292,-0.00016285,0.00016507,-0.00000324
 ,0.00000557,-0.00001223,-0.00000022,0.00000007,0.00000963,0.00001221,0
 .00001198,-0.00000181,-0.00000917,-0.00000388,0.00000100,0.00001372,0.
 00001476,-0.00001117,-0.00000345,-0.00000472,-0.00000723,-0.00000461,-
 0.00000264,-0.00000172,-0.00000385,-0.00000468,-0.00000744,0.00001261,
 0.00001834,0.00001741,-0.00000969,0.00000909,-0.00000832,-0.00000095,-
 0.00000749,-0.00000122,0.00000483,0.00000682,-0.00000240,0.00000202,-0
 .00000567,-0.00000986,-0.00001081,0.00000971,0.00001083,0.00000601,0.0
 0000526,0.00000197,-0.00001238,0.00003063,0.00000011,0.00002028,-0.000
 00721,-0.00003863,0.00001272,-0.00001691,0.00002744,0.20537178,-0.0001
 0436,-0.00064540,-0.00008401,0.00004626,0.00005062,0.00003215,-0.00019
 639,-0.00024833,0.00008761,0.00025051,-0.00027829,0.00040244,0.0009291
 9,-0.00064182,0.00098586,0.00011184,0.00055674,-0.00017212,0.00165937,
 0.00172202,0.00098656,-0.00163429,-0.00464934,-0.00116675,-0.00000026,
 -0.00004316,-0.00005459,-0.00001618,-0.00001133,-0.00002059,-0.0000185
 5,0.00000135,-0.00000166,0.00008797,-0.00004478,-0.00003847,0.00003067
 ,-0.00002706,0.00003112,0.00000638,-0.00002897,-0.00001711,0.02579049,
 -0.01117087,-0.01944363,0.05464097,-0.06668937,-0.04707849,-0.00104566
 ,0.00003903,-0.00051296,-0.00001215,0.00001337,-0.00041741,-0.00000662
 ,0.00000075,-0.00001396,-0.00002261,-0.00001074,0.00004066,-0.00000961
 ,0.00002851,0.00001563,0.00001910,0.00002492,-0.00001235,-0.00001396,-
 0.00000641,0.00000542,0.00000282,0.00000440,0.00001182,0.00001661,0.00
 002275,0.00002177,0.00000560,0.00000004,0.00000253,-0.00001351,-0.0000
 0451,-0.00000118,0.00002858,-0.00002914,0.00003246,0.00000102,0.000014
 82,0.00000314,-0.00001130,0.00000949,-0.00001099,-0.00000640,0.0000066
 9,-0.00000136,0.00001968,-0.00001107,-0.00001584,-0.00000747,0.0000092
 7,0.00000471,0.00002552,-0.00001298,0.00000217,-0.00000210,-0.00000480
 ,0.00000778,-0.00001207,0.00000245,-0.00000262,-0.06201604,0.07620121,
 -0.00000376,-0.00043849,-0.00003115,0.00008773,-0.00001599,-0.00004105
 ,-0.00002463,0.00001138,-0.00001479,0.00015520,-0.00046219,-0.00001812
 ,0.00009293,0.00056775,0.00010113,-0.00049495,0.00034152,-0.00001991,0
 .00062955,0.00053855,0.00089465,-0.00044771,-0.00021421,0.00010429,-0.
 00001857,-0.00002018,0.00001093,-0.00002848,0.00001666,0.00000691,-0.0
 0004294,0.00000215,0.00000544,-0.00000987,-0.00000291,0.00000484,0.000
 00108,-0.00000113,-0.00000635,0.00000768,0.00000143,-0.00000475,-0.000
 14697,0.00076108,-0.00071817,0.11954924,-0.04808534,-0.14219512,-0.000
 48001,-0.00043345,-0.00022146,0.00009997,0.00004276,0.00003159,-0.0000
 0601,-0.00001139,-0.00005113,-0.00000415,-0.00002211,0.00003433,-0.000
 01005,0.00002036,-0.00000051,0.00001246,0.00002123,-0.00001420,-0.0000
 1450,-0.00001101,-0.00000037,0.00001009,-0.00000042,-0.00000061,0.0000
 1138,0.00001857,0.00001592,0.00001110,0.00000228,-0.00000068,-0.000014
 70,-0.00001419,-0.00000681,0.00000827,0.00000113,-0.00000315,-0.000002
 20,0.00000453,-0.00000093,-0.00000441,0.00000668,-0.00000293,-0.000003
 68,0.00000495,0.00000408,0.00000866,-0.00000150,0.00000187,-0.00000466
 ,0.00000528,0.00000643,0.00000812,-0.00000602,0.00000056,-0.00000949,-
 0.00000214,-0.00000040,-0.00000736,-0.00000729,0.00000095,-0.13096709,
 0.05107653,0.15085624,-0.00011082,-0.00000867,-0.00008840,-0.00000940,
 0.00000802,0.00000937,0.00000470,0.00000397,-0.00004668,-0.00071148,0.
 00129918,-0.00011432,-0.00067570,-0.00103732,0.00042841,0.00143447,-0.
 00006064,0.00011054,-0.00028639,-0.00190734,-0.00049340,-0.00048004,0.
 00183924,0.00049327,0.00000827,-0.00001983,0.00003385,0.00000414,0.000
 00627,0.00001807,0.00001632,0.00000172,-0.00000384,-0.00001036,0.00000
 512,-0.00000519,0.00001439,0.00001090,-0.00000780,0.00000088,0.0000228
 7,-0.00004897,0.00020576,0.00070750,0.00011105,-0.04995391,0.01442691,
 -0.03249103,-0.00021859,-0.00001024,0.00011444,0.00002728,0.00008892,-
 0.00045359,-0.00000578,-0.00000638,-0.00003253,0.00000507,0.00000095,0
 .00001120,0.00000320,0.00001416,-0.00000773,-0.00000374,0.00000666,-0.
 00000534,0.00000391,0.00000564,-0.00000399,0.00000210,-0.00000265,-0.0
 0000038,-0.00000049,0.00000681,-0.00000041,0.00000470,-0.00000180,-0.0
 0000823,0.00000356,0.00000571,0.00000653,0.00000022,0.00000065,-0.0000
 0164,0.00000032,-0.00000169,0.00000325,-0.00000486,-0.00000419,0.00000
 249,-0.00000054,-0.00000096,0.00000976,0.,-0.00000297,0.00000015,-0.00
 000396,-0.00000488,0.00000355,-0.00000272,0.00000060,0.00001365,-0.000
 00579,0.00000444,0.00001276,0.00001051,-0.00001020,0.00001231,0.003921
 33,-0.01092298,0.02221398,0.04979903,0.00000736,-0.00132301,-0.0000894
 9,0.00013303,0.00004537,-0.00000081,-0.00015748,-0.00001377,-0.0000937
 1,0.00047721,-0.00056387,-0.00130355,-0.00033136,-0.00089543,-0.001522
 51,0.00027443,0.00093046,0.00038203,0.00132390,0.00065497,-0.00051524,
 -0.00152142,-0.00059912,-0.00019621,-0.00003654,-0.00006476,0.00005011
 ,-0.00003397,-0.00001693,-0.00001851,-0.00003166,-0.00003912,0.0000323
 2,0.00002099,-0.00002295,-0.00001789,0.00005368,-0.00005462,0.00002414
 ,0.00003362,-0.00005469,0.00004471,0.00505056,-0.01778556,0.02784743,0
 .01495095,-0.09098628,0.10162679,-0.00040417,-0.00001861,0.00072440,0.
 00014341,-0.00007714,0.00072972,-0.00000088,0.00000616,-0.00002111,0.0
 0000181,-0.00000323,-0.00001021,-0.00002777,0.00000449,-0.00001270,0.0
 0003395,0.00003489,-0.00001940,-0.00003166,-0.00001201,0.00000462,0.00
 001223,0.00000585,-0.00000502,0.00003738,0.00002650,0.00002902,0.00000
 135,0.00001859,-0.00001257,-0.00003390,-0.00001095,-0.00001956,0.00003
 055,-0.00001122,0.00000624,-0.00000738,0.00000994,-0.00000514,-0.00001
 172,0.00003605,-0.00001342,0.00000591,0.00002061,-0.00000159,0.0000405
 7,-0.00001758,-0.00002937,-0.00001612,0.00002825,0.00002684,0.00003202
 ,-0.00000664,-0.00000918,-0.00000832,0.00000489,-0.00000626,-0.0000024
 6,-0.00000269,-0.00001654,-0.00202489,0.00349314,-0.00855637,-0.017071
 69,0.10307422,-0.00000103,0.00009121,-0.00005033,-0.00005822,0.0000236
 9,0.00001023,0.00003222,-0.00000101,0.00001319,-0.00008370,0.00049406,
 0.00003780,0.00007435,0.00020954,-0.00019853,0.00016355,-0.00029888,0.
 00003856,-0.00041290,-0.00033519,0.00045722,0.00035881,-0.00029286,-0.
 00003486,0.00002098,0.00000948,-0.00001590,0.00002915,-0.00000479,-0.0
 0000153,0.00003170,0.00000195,-0.00001379,-0.00001569,-0.00000146,-0.0
 0000262,-0.00001731,0.00000779,-0.00001048,-0.00001630,0.00000318,-0.0
 0000830,0.00102666,-0.00136298,0.00705767,-0.03264955,0.09825191,-0.25
 310746,-0.00002415,0.00023362,-0.00029158,0.00013888,0.00005290,-0.000
 07905,0.00000038,0.00000777,0.00001290,-0.00001098,-0.00000069,-0.0000
 0475,0.00000845,0.00000370,0.00000563,-0.00000299,-0.00000663,0.000005
 64,0.00001105,0.00001342,-0.00000276,-0.00000416,-0.00000252,0.0000076
 1,-0.00000566,-0.00000525,-0.00000383,-0.00000769,-0.00000255,0.000003
 81,0.00000969,0.00001085,0.00000853,-0.00000882,0.00000897,-0.00000150
 ,0.00000358,-0.00000342,0.00000654,0.00000271,-0.00000238,0.00000246,0
 .00000372,-0.00000257,0.00000145,-0.00000670,0.00000609,0.00000474,0.0
 0000282,-0.00000147,0.00000019,-0.00000720,0.00001089,0.00000340,0.000
 00512,0.00000227,-0.00000353,0.00001281,-0.00000462,0.00000731,-0.0037
 7883,0.00761526,-0.01694789,0.03553170,-0.10894551,0.27313843,0.000076
 27,-0.00017148,-0.00015263,0.00005497,0.00000219,0.00000724,-0.0000887
 2,-0.00002373,-0.00005452,0.00005706,0.00023399,-0.00002070,0.00020107
 ,-0.00042918,0.00041492,0.00016710,0.00020727,0.00017536,0.00038439,-0
 .00019529,-0.00053087,0.00042067,0.00184906,0.00041858,-0.00002418,-0.
 00000452,-0.00000324,-0.00002025,-0.00001495,-0.00002732,-0.00001847,-
 0.00001372,0.00001592,0.00004301,-0.00001480,-0.00002727,0.00005687,-0
 .00002385,0.00002050,0.00001418,-0.00004167,-0.00001698,0.00085173,0.0
 0072772,0.00171336,-0.24643006,-0.07660236,-0.08703649,0.00042113,0.00
 021889,0.00004755,0.00020559,-0.00000170,-0.00039261,0.00001781,0.0000
 0407,0.00003751,0.00001886,0.00001575,-0.00003235,-0.00001533,-0.00003
 300,-0.00000431,0.00000808,-0.00000447,0.00000095,-0.00001414,-0.00001
 195,0.00000862,0.00000053,0.00000966,-0.00000126,0.00000885,-0.0000036
 4,-0.00000052,0.00000184,0.00000711,0.00000830,-0.00001464,-0.00000990
 ,-0.00001015,0.00001626,-0.00001786,0.00001338,-0.00000500,0.00000523,
 0.00000475,-0.00000388,0.00001370,-0.00000389,-0.00000778,0.00000591,0
 .00000496,0.00001655,-0.00001957,-0.00001800,-0.00000255,0.00001258,0.
 00000615,0.00001417,-0.00000513,0.00000347,-0.00000146,-0.00001032,0.0
 0000084,0.00000195,-0.00000907,0.00000061,-0.01816967,-0.00754085,-0.0
 1011572,-0.00299853,-0.00075626,-0.00036432,0.26478728,0.00015662,-0.0
 0035734,-0.00002134,0.00024031,-0.00028631,0.00003309,-0.00003924,0.00
 002652,0.00003618,-0.00161166,-0.00016562,0.00049129,-0.00015504,-0.00
 035124,0.00014590,0.00027549,0.00045135,-0.00007699,0.00171139,-0.0060
 9751,-0.00114612,-0.00211021,0.00194880,0.00067044,0.00000199,-0.00003
 015,-0.00000504,-0.00008156,-0.00003545,-0.00004615,-0.00005429,-0.000
 03194,0.00003755,0.00002036,-0.00000922,-0.00000436,0.00001561,0.00000
 370,-0.00000690,-0.00001025,-0.00003818,-0.00004082,-0.02969648,-0.011
 12282,-0.01192495,-0.07351854,-0.07428733,-0.03365045,0.00007805,-0.00
 000882,-0.00018394,0.00140705,-0.00030687,-0.00036074,0.00000358,-0.00
 000205,0.00000475,0.00001011,0.00000194,-0.00000335,-0.00002396,-0.000
 01344,-0.00000120,0.00000984,0.00000173,-0.00000521,-0.00002334,-0.000
 02842,0.00002897,0.00000229,0.00001136,0.00000633,0.00000725,0.0000004
 7,0.00000128,0.00000675,0.00000787,-0.00000471,-0.00001744,-0.00001564
 ,-0.00002563,0.00001005,-0.00000743,0.00000557,-0.00000235,0.00000121,
 0.00000621,0.00000195,0.00002759,-0.00000896,-0.00000251,-0.00000040,-
 0.00000097,0.00000903,-0.00000425,-0.00000062,0.00000150,0.00002626,0.
 00001787,0.00000379,0.00003962,0.00001395,0.00001511,-0.00000175,-0.00
 003181,0.00002394,-0.00002015,0.00004751,0.00816561,0.00230043,0.00483
 762,0.01259410,0.00412618,0.00422872,0.08264013,0.08426268,0.00001433,
 -0.00027976,-0.00001977,0.00002592,0.00000856,-0.00010564,-0.00005688,
 -0.00000494,-0.00006743,-0.00027368,0.00060071,0.00039750,-0.00013989,
 -0.00038630,-0.00016420,0.00057665,0.00019899,0.00002111,0.00027679,-0
 .00060125,0.00077621,-0.00049642,0.00060935,0.00040965,-0.00000284,0.0
 0000168,-0.00001804,0.00002403,0.00000625,0.00000748,-0.00002157,-0.00
 000932,-0.00000113,0.00001537,0.00001438,0.00001472,0.00003005,-0.0000
 1122,0.00000983,0.00000833,-0.00002034,0.00004554,-0.00084121,0.000824
 40,-0.00188823,-0.08734105,-0.03516611,-0.08354297,-0.00011205,0.00005
 861,-0.00019953,0.00041856,-0.00039528,0.00012301,0.00000999,-0.000000
 93,0.00000240,0.00000257,-0.00000864,0.00000752,-0.00000598,-0.0000042
 8,0.00000416,0.00000586,0.00000187,-0.00000078,-0.00000552,0.00000477,
 -0.00000711,0.00000249,0.00000133,0.00000216,0.00000471,0.00000097,0.0
 0000643,0.00000130,0.00000372,0.00000472,-0.00000536,-0.00000411,-0.00
 000515,0.00001006,-0.00000599,-0.00000226,-0.00000652,0.00000049,-0.00
 000328,-0.00000094,0.00001851,-0.00000979,-0.00000693,0.00000234,-0.00
 000587,0.00001023,-0.00001022,-0.00000792,-0.00000135,0.00001615,0.000
 00827,0.00000745,0.00001792,-0.00000902,0.00001348,-0.00001695,-0.0000
 4598,-0.00000394,-0.00000889,0.00001752,0.01733680,0.00768902,0.008226
 63,-0.02533415,-0.01010745,-0.01002632,0.09590350,0.03695269,0.0860439
 5,-0.48196601,0.19108124,0.00998656,0.00003698,-0.00044678,-0.00004888
 ,0.00030837,-0.00330439,-0.00046704,0.00234713,-0.00326929,-0.00032989
 ,0.00137476,-0.00403885,-0.00038366,0.00340031,0.00435502,0.00063544,0
 .00002892,0.00066284,0.00005072,-0.00058858,-0.00015612,-0.00002693,-0
 .00002559,0.00006520,0.00000942,0.00006690,-0.00009323,0.00016722,0.00
 008220,-0.00005188,-0.00016567,-0.00388306,-0.00018908,-0.00106169,-0.
 00408491,-0.00055962,0.00068490,-0.00032453,0.00050593,0.00008905,-0.0
 0053705,-0.00035233,-0.00017104,0.00001765,0.00004947,0.00015434,0.000
 10814,-0.00015351,-0.00001404,0.00004021,-0.00037583,-0.00004287,-0.00
 001090,-0.00002955,0.00000861,-0.00001133,-0.00002566,-0.00001489,0.00
 003938,0.00002078,0.00000291,-0.00059666,0.00020930,0.00012494,0.00002
 538,0.00006023,0.00001774,-0.00004646,-0.00002171,0.00000793,-0.000569
 76,0.00022560,-0.00010746,-0.00004128,-0.00002242,-0.00001266,0.000027
 27,0.00005963,-0.00000190,-0.00011422,0.00012726,0.00001379,0.00089156
 ,0.00043773,0.00031287,-0.00084796,0.00064567,-0.00420167,0.00096126,0
 .00052710,-0.00013811,-0.00005681,0.00017360,0.00001233,-0.00122916,-0
 .00019954,0.00448184,-0.00008708,0.00006653,0.00000105,0.00023707,0.00
 016355,-0.00009857,0.00024286,0.00015763,0.00015456,-0.00000610,-0.000
 05924,-0.00004551,0.00001293,-0.00015528,0.00000788,-0.00003156,-0.000
 06505,-0.00004222,0.48480974,0.14228525,-0.10799508,-0.00886850,0.0000
 5332,-0.00040966,-0.00001209,-0.00348688,-0.00192058,-0.00069210,-0.00
 262352,-0.00700182,-0.00097706,0.00037224,0.00130996,0.00016554,0.0456
 6050,-0.02348184,-0.00121290,0.00212482,0.00030155,-0.00006115,0.00108
 899,-0.00056277,0.00002248,-0.00002325,-0.00004078,0.00000638,-0.00039
 545,-0.00009633,0.00022916,-0.00033607,-0.00001182,-0.00017699,0.00080
 691,0.00068447,-0.00130549,0.00020074,-0.00027173,0.00109048,0.0001340
 7,-0.00041821,0.00011998,-0.00067061,0.00022413,0.00002952,-0.00010986
 ,-0.00000961,-0.00003775,-0.00008441,-0.00046016,-0.00004431,0.0000110
 4,0.00033189,0.00003795,-0.00000570,0.00001483,-0.00000868,-0.00001227
 ,0.00001838,0.00001368,-0.00001412,0.00000261,-0.00000039,0.00013497,0
 .00046116,-0.00037490,-0.00022186,0.00009283,0.00005167,-0.00008181,0.
 00005566,0.00005698,0.00022758,0.00032419,0.00043665,-0.00005365,0.000
 04899,-0.00004021,-0.00021221,0.00008829,-0.00003226,0.00050586,0.0000
 8578,0.00027181,-0.00010017,-0.00043715,0.00030832,0.00014000,0.001340
 44,0.00114092,0.00011723,-0.00021910,-0.00031291,0.00075217,0.00032576
 ,-0.00019630,-0.00047975,0.00186479,0.00026659,0.00021131,0.00010950,0
 .00000187,0.00003396,0.00003761,0.00002738,0.00008214,0.00012240,0.000
 02247,-0.00002666,0.00005639,0.00002390,0.00001408,0.00005961,-0.00001
 251,0.00000602,-0.00001539,0.00000927,-0.18602494,0.13539081,0.0045888
 5,-0.00774783,0.00092021,0.00000644,-0.00002258,-0.00027911,-0.0004840
 5,-0.00067511,0.00327995,-0.00024452,-0.00102826,0.00123981,0.00009676
 ,0.00007451,-0.00013508,0.00515569,-0.00214630,-0.00312022,0.00021411,
 -0.00008168,0.00134551,0.00012080,-0.00000157,-0.00059553,-0.00000085,
 0.00000833,-0.00009976,0.00020405,0.00021965,-0.00030889,-0.00026758,-
 0.00015770,-0.00041589,-0.00252697,-0.00316866,0.00073091,0.00238151,0
 .00291546,0.00187608,0.00004432,0.00012692,-0.00145750,-0.00009879,-0.
 00001222,0.00010170,-0.00006704,0.00001553,-0.00001812,-0.00000131,-0.
 00005664,-0.00010520,0.00000461,0.00003352,0.00002262,-0.00002933,0.00
 002726,-0.00000625,0.00002701,-0.00002378,-0.00000838,-0.00000069,0.00
 000067,0.00000200,0.00049499,-0.00018033,0.00009452,0.00001986,-0.0000
 5130,-0.00003963,0.00011226,-0.00007302,-0.00003657,-0.00048115,0.0002
 4313,0.00020907,-0.00012605,0.00009133,-0.00003460,-0.00006638,0.00008
 355,-0.00003573,0.00110206,0.00084707,0.00016535,0.00092983,0.00067539
 ,-0.00016700,-0.00286802,0.00251469,-0.00465823,-0.00086838,-0.0006529
 4,-0.00044835,-0.00096994,-0.00080005,-0.00012846,0.00304166,-0.001100
 24,-0.00479031,0.00001886,-0.00000150,0.00014508,0.00023127,0.00040350
 ,-0.00008114,-0.00019931,-0.00034907,-0.00017158,0.00004089,0.00001143
 ,-0.00000634,0.00000726,0.00002098,-0.00001830,0.00000667,-0.00001566,
 0.00000162,-0.00954940,0.01003350,0.00703172\\-0.00000791,-0.00000650,
 0.00000950,0.00000195,0.00000183,0.00000175,-0.00000703,-0.00000210,-0
 .00000471,-0.00000066,0.00000078,-0.00000111,-0.00000034,0.,-0.0000012
 3,0.00001090,0.00000709,0.00000031,-0.00001321,-0.00001517,-0.00000308
 ,-0.00001096,0.00001684,0.00000494,0.00000772,0.00000371,-0.00000273,0
 .00000334,0.00000761,-0.00000434,-0.00000097,-0.00000560,-0.00000633,0
 .00000194,0.00000185,-0.00001180,-0.00000596,0.00000014,-0.00001279,0.
 00000207,-0.00000583,-0.00000420,0.00001386,0.00000013,0.00000160,-0.0
 0000278,-0.00000318,0.00000289,0.00000056,0.00000425,-0.00000059,0.000
 00382,-0.00000509,0.00000021,0.00000283,-0.00000117,0.,-0.00000497,-0.
 00000192,-0.00000070,-0.00000185,-0.00000252,0.00000340,0.00000309,-0.
 00000262,-0.00000100,-0.00000039,-0.00000450,0.00000224,-0.00000040,-0
 .00000103,0.,-0.00000159,0.00000084,0.00000020,0.00000042,-0.00000050,
 0.00000022,-0.00000021,0.00000130,0.00000194,0.00000067,0.00000065,0.0
 0000407,-0.00000064,0.00000186,0.00000444,-0.00000110,0.00000153,0.000
 00456,0.00000393,0.00000262,0.00000630,0.00000113,-0.00000159,-0.00000
 020,0.00000524,0.00000055,0.00000572,0.00000030,0.00000149,0.00000157,
 -0.00000222,0.00000229,0.00000225,-0.00000151,0.00000232,0.00000083,-0
 .00000088,-0.00000005,-0.00000146,-0.00000116,-0.00000059,-0.00000222,
 -0.00000117,0.00000054,-0.00000087,0.00000418,-0.00000029,0.00000041\\
 \@


 TO BEHOLD HARMS OF OUR OWN HANDS DOING,
 WHERE NONE BESIDE US WROUGHT,
 CAUSES SHARP RUING...

                                         SOPHOCLES
 Job cpu time:       0 days 16 hours 31 minutes  6.1 seconds.
 Elapsed time:       0 days  1 hours  2 minutes 12.1 seconds.
 File lengths (MBytes):  RWF=    875 Int=      0 D2E=      0 Chk=     24 Scr=      1
 Normal termination of Gaussian 16 at Thu Sep 18 15:22:03 2025.
