 Entering Gaussian System, Link 0=g16
 Input=CALE0093.gjf
 Output=CALE0093.log
 Initial command:
 /usr/local/g16/l1.exe "/dados_01/scratch/Gau-1938272.inp" -scrdir="/dados_01/scratch/"
 Entering Link 1 = /usr/local/g16/l1.exe PID=   1938273.
  
 Copyright (c) 1988-2017, Gaussian, Inc.  All Rights Reserved.
  
 This is part of the Gaussian(R) 16 program.  It is based on
 the Gaussian(R) 09 system (copyright 2009, Gaussian, Inc.),
 the Gaussian(R) 03 system (copyright 2003, Gaussian, Inc.),
 the Gaussian(R) 98 system (copyright 1998, Gaussian, Inc.),
 the Gaussian(R) 94 system (copyright 1995, Gaussian, Inc.),
 the Gaussian 92(TM) system (copyright 1992, Gaussian, Inc.),
 the Gaussian 90(TM) system (copyright 1990, Gaussian, Inc.),
 the Gaussian 88(TM) system (copyright 1988, Gaussian, Inc.),
 the Gaussian 86(TM) system (copyright 1986, Carnegie Mellon
 University), and the Gaussian 82(TM) system (copyright 1983,
 Carnegie Mellon University). Gaussian is a federally registered
 trademark of Gaussian, Inc.
  
 This software contains proprietary and confidential information,
 including trade secrets, belonging to Gaussian, Inc.
  
 This software is provided under written license and may be
 used, copied, transmitted, or stored only in accord with that
 written license.
  
 The following legend is applicable only to US Government
 contracts under FAR:
  
                    RESTRICTED RIGHTS LEGEND
  
 Use, reproduction and disclosure by the US Government is
 subject to restrictions as set forth in subparagraphs (a)
 and (c) of the Commercial Computer Software - Restricted
 Rights clause in FAR 52.227-19.
  
 Gaussian, Inc.
 340 Quinnipiac St., Bldg. 40, Wallingford CT 06492
  
  
 ---------------------------------------------------------------
 Warning -- This program may not be used in any manner that
 competes with the business of Gaussian, Inc. or will provide
 assistance to any competitor of Gaussian, Inc.  The licensee
 of this program is prohibited from giving any competitor of
 Gaussian, Inc. access to this program.  By using this program,
 the user acknowledges that Gaussian, Inc. is engaged in the
 business of creating and licensing software in the field of
 computational chemistry and represents and warrants to the
 licensee that it is not a competitor of Gaussian, Inc. and that
 it will not use this program in any manner prohibited above.
 ---------------------------------------------------------------
  

 Cite this work as:
 Gaussian 16, Revision B.01,
 M. J. Frisch, G. W. Trucks, H. B. Schlegel, G. E. Scuseria, 
 M. A. Robb, J. R. Cheeseman, G. Scalmani, V. Barone, 
 G. A. Petersson, H. Nakatsuji, X. Li, M. Caricato, A. V. Marenich, 
 J. Bloino, B. G. Janesko, R. Gomperts, B. Mennucci, H. P. Hratchian, 
 J. V. Ortiz, A. F. Izmaylov, J. L. Sonnenberg, D. Williams-Young, 
 F. Ding, F. Lipparini, F. Egidi, J. Goings, B. Peng, A. Petrone, 
 T. Henderson, D. Ranasinghe, V. G. Zakrzewski, J. Gao, N. Rega, 
 G. Zheng, W. Liang, M. Hada, M. Ehara, K. Toyota, R. Fukuda, 
 J. Hasegawa, M. Ishida, T. Nakajima, Y. Honda, O. Kitao, H. Nakai, 
 T. Vreven, K. Throssell, J. A. Montgomery, Jr., J. E. Peralta, 
 F. Ogliaro, M. J. Bearpark, J. J. Heyd, E. N. Brothers, K. N. Kudin, 
 V. N. Staroverov, T. A. Keith, R. Kobayashi, J. Normand, 
 K. Raghavachari, A. P. Rendell, J. C. Burant, S. S. Iyengar, 
 J. Tomasi, M. Cossi, J. M. Millam, M. Klene, C. Adamo, R. Cammi, 
 J. W. Ochterski, R. L. Martin, K. Morokuma, O. Farkas, 
 J. B. Foresman, and D. J. Fox, Gaussian, Inc., Wallingford CT, 2016.
 
 ******************************************
 Gaussian 16:  ES64L-G16RevB.01 20-Dec-2017
                18-Sep-2025 
 ******************************************
 %nprocs=16
 Will use up to   16 processors via shared memory.
 %mem=40GB
 %chk=CALE0093.chk
 ----------------------------------------------------------------------
 # opt freq=noraman M08HX/6-311++G** scf=xqc Empiricaldispersion=pfd In
 t(Grid=ultraFine)
 ----------------------------------------------------------------------
 1/18=20,19=15,26=4,38=1/1,3;
 2/9=110,12=2,17=6,18=5,40=1/2;
 3/5=4,6=6,7=1111,11=2,25=1,30=1,71=1,74=-74,75=-5,124=11/1,2,3;
 4//1;
 5/5=2,8=3,13=1,38=5/2,8;
 6/7=2,8=2,9=2,10=2,28=1/1;
 7//1,2,3,16;
 1/18=20,19=15,26=4/3(2);
 2/9=110/2;
 99//99;
 2/9=110/2;
 3/5=4,6=6,7=1111,11=2,25=1,30=1,71=1,74=-74,75=-5,124=11/1,2,3;
 4/5=5,16=3,69=1/1;
 5/5=2,8=3,13=1,38=5/2,8;
 7//1,2,3,16;
 1/18=20,19=15,26=4/3(-5);
 2/9=110/2;
 6/7=2,8=2,9=2,10=2,19=2,28=1/1;
 99/9=1/99;
 --------
 CALE0093
 --------
 Symbolic Z-matrix:
 Charge =  0 Multiplicity = 1
 O                     4.3579    0.4145   -0.1669 
 C                    -0.4363   -0.2819    0.0928 
 C                    -0.8263    1.0571    0.1133 
 C                    -1.397    -1.2865   -0.0224 
 C                    -2.1772    1.3916    0.0186 
 C                    -2.7479   -0.9521   -0.1173 
 C                     0.9725   -0.6306    0.1911 
 C                    -3.1379    0.387    -0.0968 
 C                     2.0042    0.1995   -0.0732 
 C                     3.388    -0.2986    0.0608 
 H                    -0.115     1.871     0.22 
 H                    -1.1121   -2.3357   -0.0415 
 H                     1.182    -1.6553    0.4922 
 H                    -2.482     2.4339    0.0389 
 H                    -3.4962   -1.7341   -0.2071 
 H                    -4.1899    0.6473   -0.1696 
 H                     1.8888    1.2254   -0.4003 
 H                     3.5005   -1.3484    0.379 
 

 GradGradGradGradGradGradGradGradGradGradGradGradGradGradGradGradGradGrad
 Berny optimization.
 Initialization pass.
                           ----------------------------
                           !    Initial Parameters    !
                           ! (Angstroms and Degrees)  !
 --------------------------                            --------------------------
 ! Name  Definition              Value          Derivative Info.                !
 --------------------------------------------------------------------------------
 ! R1    R(1,10)                 1.2252         estimate D2E/DX2                !
 ! R2    R(2,3)                  1.3948         estimate D2E/DX2                !
 ! R3    R(2,4)                  1.3948         estimate D2E/DX2                !
 ! R4    R(2,7)                  1.4546         estimate D2E/DX2                !
 ! R5    R(3,5)                  1.3949         estimate D2E/DX2                !
 ! R6    R(3,11)                 1.0862         estimate D2E/DX2                !
 ! R7    R(4,6)                  1.3949         estimate D2E/DX2                !
 ! R8    R(4,12)                 1.0874         estimate D2E/DX2                !
 ! R9    R(5,8)                  1.3948         estimate D2E/DX2                !
 ! R10   R(5,14)                 1.0861         estimate D2E/DX2                !
 ! R11   R(6,8)                  1.3949         estimate D2E/DX2                !
 ! R12   R(6,15)                 1.0861         estimate D2E/DX2                !
 ! R13   R(7,9)                  1.3503         estimate D2E/DX2                !
 ! R14   R(7,13)                 1.0884         estimate D2E/DX2                !
 ! R15   R(8,16)                 1.0862         estimate D2E/DX2                !
 ! R16   R(9,10)                 1.4768         estimate D2E/DX2                !
 ! R17   R(9,17)                 1.083          estimate D2E/DX2                !
 ! R18   R(10,18)                1.1027         estimate D2E/DX2                !
 ! A1    A(3,2,4)              120.0044         estimate D2E/DX2                !
 ! A2    A(3,2,7)              119.9957         estimate D2E/DX2                !
 ! A3    A(4,2,7)              119.9999         estimate D2E/DX2                !
 ! A4    A(2,3,5)              119.9999         estimate D2E/DX2                !
 ! A5    A(2,3,11)             122.5266         estimate D2E/DX2                !
 ! A6    A(5,3,11)             117.4637         estimate D2E/DX2                !
 ! A7    A(2,4,6)              120.0002         estimate D2E/DX2                !
 ! A8    A(2,4,12)             121.0616         estimate D2E/DX2                !
 ! A9    A(6,4,12)             118.9382         estimate D2E/DX2                !
 ! A10   A(3,5,8)              119.996          estimate D2E/DX2                !
 ! A11   A(3,5,14)             120.0412         estimate D2E/DX2                !
 ! A12   A(8,5,14)             119.9623         estimate D2E/DX2                !
 ! A13   A(4,6,8)              119.9943         estimate D2E/DX2                !
 ! A14   A(4,6,15)             120.0183         estimate D2E/DX2                !
 ! A15   A(8,6,15)             119.9873         estimate D2E/DX2                !
 ! A16   A(2,7,9)              125.407          estimate D2E/DX2                !
 ! A17   A(2,7,13)             115.519          estimate D2E/DX2                !
 ! A18   A(9,7,13)             119.069          estimate D2E/DX2                !
 ! A19   A(5,8,6)              120.0053         estimate D2E/DX2                !
 ! A20   A(5,8,16)             120.0028         estimate D2E/DX2                !
 ! A21   A(6,8,16)             119.9919         estimate D2E/DX2                !
 ! A22   A(7,9,10)             119.3949         estimate D2E/DX2                !
 ! A23   A(7,9,17)             124.0604         estimate D2E/DX2                !
 ! A24   A(10,9,17)            116.5366         estimate D2E/DX2                !
 ! A25   A(1,10,9)             121.9115         estimate D2E/DX2                !
 ! A26   A(1,10,18)            121.801          estimate D2E/DX2                !
 ! A27   A(9,10,18)            116.2874         estimate D2E/DX2                !
 ! D1    D(4,2,3,5)              0.0006         estimate D2E/DX2                !
 ! D2    D(4,2,3,11)           178.8341         estimate D2E/DX2                !
 ! D3    D(7,2,3,5)            179.979          estimate D2E/DX2                !
 ! D4    D(7,2,3,11)            -1.1875         estimate D2E/DX2                !
 ! D5    D(3,2,4,6)              0.0087         estimate D2E/DX2                !
 ! D6    D(3,2,4,12)           179.9149         estimate D2E/DX2                !
 ! D7    D(7,2,4,6)           -179.9697         estimate D2E/DX2                !
 ! D8    D(7,2,4,12)            -0.0635         estimate D2E/DX2                !
 ! D9    D(3,2,7,9)            -20.0052         estimate D2E/DX2                !
 ! D10   D(3,2,7,13)           160.826          estimate D2E/DX2                !
 ! D11   D(4,2,7,9)            159.9732         estimate D2E/DX2                !
 ! D12   D(4,2,7,13)           -19.1956         estimate D2E/DX2                !
 ! D13   D(2,3,5,8)             -0.01           estimate D2E/DX2                !
 ! D14   D(2,3,5,14)           179.7305         estimate D2E/DX2                !
 ! D15   D(11,3,5,8)          -178.9016         estimate D2E/DX2                !
 ! D16   D(11,3,5,14)            0.8389         estimate D2E/DX2                !
 ! D17   D(2,4,6,8)             -0.0085         estimate D2E/DX2                !
 ! D18   D(2,4,6,15)           179.9946         estimate D2E/DX2                !
 ! D19   D(12,4,6,8)          -179.9167         estimate D2E/DX2                !
 ! D20   D(12,4,6,15)            0.0864         estimate D2E/DX2                !
 ! D21   D(3,5,8,6)              0.0102         estimate D2E/DX2                !
 ! D22   D(3,5,8,16)           179.9421         estimate D2E/DX2                !
 ! D23   D(14,5,8,6)          -179.7305         estimate D2E/DX2                !
 ! D24   D(14,5,8,16)            0.2014         estimate D2E/DX2                !
 ! D25   D(4,6,8,5)             -0.0009         estimate D2E/DX2                !
 ! D26   D(4,6,8,16)          -179.9329         estimate D2E/DX2                !
 ! D27   D(15,6,8,5)           179.9959         estimate D2E/DX2                !
 ! D28   D(15,6,8,16)            0.064          estimate D2E/DX2                !
 ! D29   D(2,7,9,10)          -179.5424         estimate D2E/DX2                !
 ! D30   D(2,7,9,17)            -0.6138         estimate D2E/DX2                !
 ! D31   D(13,7,9,10)           -0.4006         estimate D2E/DX2                !
 ! D32   D(13,7,9,17)          178.528          estimate D2E/DX2                !
 ! D33   D(7,9,10,1)          -179.9803         estimate D2E/DX2                !
 ! D34   D(7,9,10,18)           -0.0749         estimate D2E/DX2                !
 ! D35   D(17,9,10,1)            1.0119         estimate D2E/DX2                !
 ! D36   D(17,9,10,18)        -179.0828         estimate D2E/DX2                !
 --------------------------------------------------------------------------------
 Trust Radius=3.00D-01 FncErr=1.00D-07 GrdErr=1.00D-06 EigMax=2.50D+02 EigMin=1.00D-04
 Number of steps in this run=     91 maximum allowed number of steps=    108.
 GradGradGradGradGradGradGradGradGradGradGradGradGradGradGradGradGradGrad

                          Input orientation:                          
 ---------------------------------------------------------------------
 Center     Atomic      Atomic             Coordinates (Angstroms)
 Number     Number       Type             X           Y           Z
 ---------------------------------------------------------------------
      1          8           0        4.357900    0.414500   -0.166900
      2          6           0       -0.436300   -0.281900    0.092800
      3          6           0       -0.826300    1.057100    0.113300
      4          6           0       -1.397000   -1.286500   -0.022400
      5          6           0       -2.177200    1.391600    0.018600
      6          6           0       -2.747900   -0.952100   -0.117300
      7          6           0        0.972500   -0.630600    0.191100
      8          6           0       -3.137900    0.387000   -0.096800
      9          6           0        2.004200    0.199500   -0.073200
     10          6           0        3.388000   -0.298600    0.060800
     11          1           0       -0.115000    1.871000    0.220000
     12          1           0       -1.112100   -2.335700   -0.041500
     13          1           0        1.182000   -1.655300    0.492200
     14          1           0       -2.482000    2.433900    0.038900
     15          1           0       -3.496200   -1.734100   -0.207100
     16          1           0       -4.189900    0.647300   -0.169600
     17          1           0        1.888800    1.225400   -0.400300
     18          1           0        3.500500   -1.348400    0.379000
 ---------------------------------------------------------------------
                    Distance matrix (angstroms):
                    1          2          3          4          5
     1  O    0.000000
     2  C    4.851471   0.000000
     3  C    5.231384   1.394791   0.000000
     4  C    6.002762   1.394789   2.415900   0.000000
     5  C    6.610345   2.415955   1.394915   2.789733   0.000000
     6  C    7.236190   2.415948   2.789733   1.394905   2.416008
     7  C    3.561086   1.454638   2.467806   2.467857   3.746953
     8  C    7.496178   2.789627   2.415920   2.415962   1.394806
     9  C    2.365356   2.493059   2.963442   3.711999   4.348981
    10  C    1.225180   3.824470   4.427302   4.886624   5.816357
    11  H    4.719949   2.180457   1.086170   3.416444   2.126748
    12  H    6.123743   2.166296   3.408333   1.087361   3.876960
    13  H    3.847704   2.159778   3.396167   2.655573   4.559838
    14  H    7.134743   3.400495   2.154636   3.875869   1.086142
    15  H    8.142787   3.400267   3.875799   2.154321   3.400103
    16  H    8.550970   3.875794   3.400261   3.400227   2.154150
    17  H    2.609308   2.814461   2.768371   4.153183   4.090899
    18  H    2.034934   4.088732   4.957643   4.914312   6.314568
                    6          7          8          9         10
     6  C    0.000000
     7  C    3.746979   0.000000
     8  C    1.394887   4.244265   0.000000
     9  C    4.889845   1.350306   5.145571   0.000000
    10  C    6.173172   2.441688   6.563707   1.476808   0.000000
    11  H    3.875026   2.727910   3.382387   2.714938   4.123532
    12  H    2.143813   2.703151   3.394115   4.017408   4.940763
    13  H    4.038576   1.088376   4.814504   2.106175   2.625486
    14  H    3.400014   4.620378   2.153699   5.013093   6.474870
    15  H    1.086067   4.620125   2.153975   5.831907   7.037375
    16  H    2.154108   5.330432   1.086168   6.211014   7.640182
    17  H    5.130359   2.152695   5.105168   1.082951   2.186959
    18  H    6.280595   2.634640   6.877961   2.199862   1.102718
                   11         12         13         14         15
    11  H    0.000000
    12  H    4.331156   0.000000
    13  H    3.767107   2.451668   0.000000
    14  H    2.439742   4.963081   5.509259   0.000000
    15  H    4.961015   2.464402   4.730833   4.296666   0.000000
    16  H    4.272475   4.288071   5.881943   2.480390   2.480664
    17  H    2.194718   4.670714   3.097508   4.556014   6.147698
    18  H    4.843724   4.735785   2.341462   7.086026   7.031791
                   16         17         18
    16  H    0.000000
    17  H    6.110484   0.000000
    18  H    7.964046   3.135177   0.000000
 Stoichiometry    C9H8O
 Framework group  C1[X(C9H8O)]
 Deg. of freedom    48
 Full point group                 C1      NOp   1
 Largest Abelian subgroup         C1      NOp   1
 Largest concise Abelian subgroup C1      NOp   1
                         Standard orientation:                         
 ---------------------------------------------------------------------
 Center     Atomic      Atomic             Coordinates (Angstroms)
 Number     Number       Type             X           Y           Z
 ---------------------------------------------------------------------
      1          8           0        4.300760    0.430116   -0.169157
      2          6           0       -0.490918   -0.283885    0.089298
      3          6           0       -0.884485    1.053474    0.134218
      4          6           0       -1.449168   -1.288938   -0.041323
      5          6           0       -2.236503    1.385879    0.048518
      6          6           0       -2.801185   -0.956629   -0.127225
      7          6           0        0.919046   -0.630392    0.178215
      8          6           0       -3.194753    0.380830   -0.082303
      9          6           0        1.947876    0.207049   -0.073833
     10          6           0        3.333328   -0.289530    0.048210
     11          1           0       -0.175138    1.867323    0.253564
     12          1           0       -1.161479   -2.336855   -0.079510
     13          1           0        1.132021   -1.659643    0.460782
     14          1           0       -2.544069    2.426822    0.087829
     15          1           0       -3.547578   -1.738981   -0.229028
     16          1           0       -4.247621    0.639482   -0.148098
     17          1           0        1.828937    1.238215   -0.382592
     18          1           0        3.449411   -1.344444    0.347657
 ---------------------------------------------------------------------
 Rotational constants (GHZ):           4.7694860           0.5900859           0.5275251
 Standard basis: 6-311++G(d,p) (5D, 7F)
 There are   286 symmetry adapted cartesian basis functions of A   symmetry.
 There are   276 symmetry adapted basis functions of A   symmetry.
   276 basis functions,   432 primitive gaussians,   286 cartesian basis functions
    35 alpha electrons       35 beta electrons
       nuclear repulsion energy       441.7700518813 Hartrees.
 NAtoms=   18 NActive=   18 NUniq=   18 SFac= 1.00D+00 NAtFMM=   60 NAOKFM=F Big=F
 Integral buffers will be    131072 words long.
 Raffenetti 2 integral format.
 Two-electron integral symmetry is turned on.
 R6APFD:  NTU= -4 IXU= 1 FactS= 1.050
 Nuclear repulsion after empirical dispersion term =      441.7611799021 Hartrees.
 One-electron integrals computed using PRISM.
 NBasis=   276 RedAO= T EigKep=  2.15D-06  NBF=   276
 NBsUse=   275 1.00D-06 EigRej=  8.11D-07 NBFU=   275
 ExpMin= 3.60D-02 ExpMax= 8.59D+03 ExpMxC= 1.30D+03 IAcc=3 IRadAn=         5 AccDes= 0.00D+00
 Harris functional with IExCor= 1009 and IRadAn=       5 diagonalized for initial guess.
 HarFok:  IExCor= 1009 AccDes= 0.00D+00 IRadAn=         5 IDoV= 1 UseB2=F ITyADJ=14
 ICtDFT=  3500011 ScaDFX=  1.000000  1.000000  1.000000  1.000000
 FoFCou: FMM=F IPFlag=           0 FMFlag=      100000 FMFlg1=           0
         NFxFlg=           0 DoJE=T BraDBF=F KetDBF=T FulRan=T
         wScrn=  0.000000 ICntrl=       500 IOpCl=  0 I1Cent=   200000004 NGrid=           0
         NMat0=    1 NMatS0=      1 NMatT0=    0 NMatD0=    1 NMtDS0=    0 NMtDT0=    0
 Petite list used in FoFCou.
 Requested convergence on RMS density matrix=1.00D-08 within  32 cycles.
 Requested convergence on MAX density matrix=1.00D-06.
 Requested convergence on             energy=1.00D-06.
 No special actions if energy rises.
 SCF Done:  E(RM08HX) =  -422.960199594     A.U. after   15 cycles
            NFock= 15  Conv=0.90D-08     -V/T= 2.0048
 QCSCF skips out because SCF is already converged.

 **********************************************************************

            Population analysis using the SCF Density.

 **********************************************************************

 Orbital symmetries:
       Occupied  (A) (A) (A) (A) (A) (A) (A) (A) (A) (A) (A) (A)
                 (A) (A) (A) (A) (A) (A) (A) (A) (A) (A) (A) (A)
                 (A) (A) (A) (A) (A) (A) (A) (A) (A) (A) (A)
       Virtual   (A) (A) (A) (A) (A) (A) (A) (A) (A) (A) (A) (A)
                 (A) (A) (A) (A) (A) (A) (A) (A) (A) (A) (A) (A)
                 (A) (A) (A) (A) (A) (A) (A) (A) (A) (A) (A) (A)
                 (A) (A) (A) (A) (A) (A) (A) (A) (A) (A) (A) (A)
                 (A) (A) (A) (A) (A) (A) (A) (A) (A) (A) (A) (A)
                 (A) (A) (A) (A) (A) (A) (A) (A) (A) (A) (A) (A)
                 (A) (A) (A) (A) (A) (A) (A) (A) (A) (A) (A) (A)
                 (A) (A) (A) (A) (A) (A) (A) (A) (A) (A) (A) (A)
                 (A) (A) (A) (A) (A) (A) (A) (A) (A) (A) (A) (A)
                 (A) (A) (A) (A) (A) (A) (A) (A) (A) (A) (A) (A)
                 (A) (A) (A) (A) (A) (A) (A) (A) (A) (A) (A) (A)
                 (A) (A) (A) (A) (A) (A) (A) (A) (A) (A) (A) (A)
                 (A) (A) (A) (A) (A) (A) (A) (A) (A) (A) (A) (A)
                 (A) (A) (A) (A) (A) (A) (A) (A) (A) (A) (A) (A)
                 (A) (A) (A) (A) (A) (A) (A) (A) (A) (A) (A) (A)
                 (A) (A) (A) (A) (A) (A) (A) (A) (A) (A) (A) (A)
                 (A) (A) (A) (A) (A) (A) (A) (A) (A) (A) (A) (A)
                 (A) (A) (A) (A) (A) (A) (A) (A) (A) (A) (A) (A)
                 (A) (A) (A) (A) (A) (A) (A) (A) (A) (A) (A) (A)
                 (A) (A) (A) (A) (A) (A) (A) (A) (A) (A) (A) (A)
 The electronic state is 1-A.
 Alpha  occ. eigenvalues --  -19.60937 -10.62445 -10.57386 -10.56563 -10.55764
 Alpha  occ. eigenvalues --  -10.55581 -10.55504 -10.55429 -10.55417 -10.55365
 Alpha  occ. eigenvalues --   -1.16457  -0.99799  -0.93151  -0.87153  -0.86251
 Alpha  occ. eigenvalues --   -0.75918  -0.71926  -0.68669  -0.66143  -0.61511
 Alpha  occ. eigenvalues --   -0.57453  -0.55933  -0.53330  -0.52937  -0.50886
 Alpha  occ. eigenvalues --   -0.50018  -0.47929  -0.47111  -0.46274  -0.42899
 Alpha  occ. eigenvalues --   -0.42521  -0.38236  -0.33875  -0.33084  -0.30482
 Alpha virt. eigenvalues --   -0.06218  -0.03187  -0.02327  -0.01484  -0.01154
 Alpha virt. eigenvalues --   -0.00332   0.00561   0.00751   0.01563   0.02143
 Alpha virt. eigenvalues --    0.03009   0.03379   0.03869   0.04166   0.05742
 Alpha virt. eigenvalues --    0.06258   0.06876   0.07376   0.07977   0.09630
 Alpha virt. eigenvalues --    0.10228   0.10334   0.10545   0.10752   0.11206
 Alpha virt. eigenvalues --    0.11292   0.11974   0.12043   0.12192   0.12833
 Alpha virt. eigenvalues --    0.13636   0.14143   0.14378   0.14863   0.15052
 Alpha virt. eigenvalues --    0.16434   0.16528   0.17127   0.17831   0.18466
 Alpha virt. eigenvalues --    0.18937   0.20022   0.20843   0.21447   0.21770
 Alpha virt. eigenvalues --    0.21933   0.23105   0.23963   0.24156   0.25763
 Alpha virt. eigenvalues --    0.27847   0.28039   0.28656   0.28886   0.29905
 Alpha virt. eigenvalues --    0.30788   0.31110   0.31709   0.34127   0.34714
 Alpha virt. eigenvalues --    0.35144   0.36665   0.37322   0.38059   0.39506
 Alpha virt. eigenvalues --    0.41092   0.45094   0.47251   0.49571   0.51685
 Alpha virt. eigenvalues --    0.53932   0.54841   0.55724   0.56457   0.56838
 Alpha virt. eigenvalues --    0.57059   0.57880   0.59190   0.60444   0.60603
 Alpha virt. eigenvalues --    0.62237   0.62875   0.64195   0.65224   0.66951
 Alpha virt. eigenvalues --    0.67792   0.67917   0.69867   0.71364   0.72092
 Alpha virt. eigenvalues --    0.72960   0.73974   0.75139   0.76018   0.77199
 Alpha virt. eigenvalues --    0.78270   0.81933   0.83413   0.84766   0.85596
 Alpha virt. eigenvalues --    0.85667   0.86666   0.88912   0.89657   0.90214
 Alpha virt. eigenvalues --    0.92100   0.92427   0.93234   0.93999   0.96676
 Alpha virt. eigenvalues --    1.01128   1.03931   1.04500   1.06170   1.07785
 Alpha virt. eigenvalues --    1.10233   1.11619   1.13794   1.15860   1.16438
 Alpha virt. eigenvalues --    1.18025   1.21099   1.23500   1.26479   1.29292
 Alpha virt. eigenvalues --    1.30760   1.39453   1.48804   1.49762   1.50787
 Alpha virt. eigenvalues --    1.51963   1.53464   1.55032   1.56890   1.58250
 Alpha virt. eigenvalues --    1.58604   1.58773   1.61167   1.62385   1.65032
 Alpha virt. eigenvalues --    1.66340   1.68125   1.69642   1.71525   1.72425
 Alpha virt. eigenvalues --    1.75878   1.77427   1.79687   1.80423   1.82885
 Alpha virt. eigenvalues --    1.85312   1.86708   1.91116   1.94716   1.95888
 Alpha virt. eigenvalues --    1.96284   1.96501   1.96866   1.98586   2.01956
 Alpha virt. eigenvalues --    2.03472   2.05463   2.08064   2.10144   2.14111
 Alpha virt. eigenvalues --    2.15579   2.19694   2.25627   2.26217   2.29092
 Alpha virt. eigenvalues --    2.33117   2.37119   2.39764   2.43206   2.44028
 Alpha virt. eigenvalues --    2.45582   2.45802   2.47348   2.59194   2.60974
 Alpha virt. eigenvalues --    2.63499   2.66672   2.68476   2.68916   2.70076
 Alpha virt. eigenvalues --    2.70649   2.71529   2.72349   2.73942   2.74754
 Alpha virt. eigenvalues --    2.76149   2.80131   2.83061   2.86800   2.87533
 Alpha virt. eigenvalues --    2.91146   2.94034   2.95237   2.96782   2.99113
 Alpha virt. eigenvalues --    3.01542   3.03413   3.06238   3.15590   3.18452
 Alpha virt. eigenvalues --    3.24865   3.27138   3.34576   3.41691   3.42040
 Alpha virt. eigenvalues --    3.43356   3.51993   3.53070   3.55781   3.57791
 Alpha virt. eigenvalues --    3.63185   3.63950   3.73051   3.88522   4.00306
 Alpha virt. eigenvalues --    4.03370   4.07227   4.19346   4.20696   4.29619
 Alpha virt. eigenvalues --    4.56928   4.90621   5.12843   5.29715   5.83095
 Alpha virt. eigenvalues --   23.64761  23.84880  23.93446  24.00572  24.01329
 Alpha virt. eigenvalues --   24.12122  24.13457  24.22544  24.23382  49.98590
          Condensed to atoms (all electrons):
               1          2          3          4          5          6
     1  O    7.965844   0.080468  -0.002746   0.007790  -0.003946   0.000165
     2  C    0.080468  20.904284  -2.327874   0.609101  -1.053965  -0.470241
     3  C   -0.002746  -2.327874  20.242717  -7.736032  -3.371960   2.278891
     4  C    0.007790   0.609101  -7.736032  19.819496   1.983909  -3.618714
     5  C   -0.003946  -1.053965  -3.371960   1.983909   8.023232  -0.734050
     6  C    0.000165  -0.470241   2.278891  -3.618714  -0.734050   7.990510
     7  C    0.024325 -15.668413  -1.600636  -5.993259   1.721886   1.203028
     8  C    0.000609   0.575535   1.277862  -1.301048  -0.538564   0.359327
     9  C   -0.218580   3.458653  -2.004083   1.894730   0.052951  -1.062536
    10  C    0.426028  -1.361163   0.010935  -0.196187   0.053501   0.115672
    11  H    0.001669  -0.303658   0.959840  -0.255962  -0.128916   0.119915
    12  H    0.000344  -0.006354  -0.065061   0.643733   0.031814  -0.136063
    13  H   -0.001362  -0.001315   0.169240  -0.182393  -0.036714   0.066913
    14  H    0.000003   0.076166  -0.217138   0.133062   0.420481  -0.025565
    15  H   -0.000014   0.010806   0.009397  -0.051976   0.006752   0.406404
    16  H    0.000015   0.036310   0.048318  -0.015767  -0.066647  -0.049544
    17  H   -0.024885   0.213529  -0.218749   0.141073   0.013731  -0.071834
    18  H   -0.029388   0.063193  -0.004809   0.019741  -0.004116   0.007593
               7          8          9         10         11         12
     1  O    0.024325   0.000609  -0.218580   0.426028   0.001669   0.000344
     2  C  -15.668413   0.575535   3.458653  -1.361163  -0.303658  -0.006354
     3  C   -1.600636   1.277862  -2.004083   0.010935   0.959840  -0.065061
     4  C   -5.993259  -1.301048   1.894730  -0.196187  -0.255962   0.643733
     5  C    1.721886  -0.538564   0.052951   0.053501  -0.128916   0.031814
     6  C    1.203028   0.359327  -1.062536   0.115672   0.119915  -0.136063
     7  C   35.085082  -1.499962  -9.911945   2.867671   0.161278  -0.226850
     8  C   -1.499962   7.194987   0.148286  -0.059128   0.024790   0.004963
     9  C   -9.911945   0.148286  15.377038  -2.102758  -0.237391   0.083035
    10  C    2.867671  -0.059128  -2.102758   6.367360   0.019824  -0.016184
    11  H    0.161278   0.024790  -0.237391   0.019824   0.501518  -0.003723
    12  H   -0.226850   0.004963   0.083035  -0.016184  -0.003723   0.431763
    13  H    0.454336   0.006919  -0.186298   0.059881   0.013977  -0.007689
    14  H   -0.018458  -0.090249   0.018775   0.000265  -0.019235   0.002113
    15  H    0.026004  -0.096995  -0.004027   0.001489   0.001484  -0.008325
    16  H   -0.066958   0.435553   0.002851  -0.001489   0.001753   0.001322
    17  H   -0.592620   0.011510   0.964290  -0.162273  -0.034918   0.004352
    18  H    0.184373  -0.000636  -0.397437   0.313622   0.000523   0.002849
              13         14         15         16         17         18
     1  O   -0.001362   0.000003  -0.000014   0.000015  -0.024885  -0.029388
     2  C   -0.001315   0.076166   0.010806   0.036310   0.213529   0.063193
     3  C    0.169240  -0.217138   0.009397   0.048318  -0.218749  -0.004809
     4  C   -0.182393   0.133062  -0.051976  -0.015767   0.141073   0.019741
     5  C   -0.036714   0.420481   0.006752  -0.066647   0.013731  -0.004116
     6  C    0.066913  -0.025565   0.406404  -0.049544  -0.071834   0.007593
     7  C    0.454336  -0.018458   0.026004  -0.066958  -0.592620   0.184373
     8  C    0.006919  -0.090249  -0.096995   0.435553   0.011510  -0.000636
     9  C   -0.186298   0.018775  -0.004027   0.002851   0.964290  -0.397437
    10  C    0.059881   0.000265   0.001489  -0.001489  -0.162273   0.313622
    11  H    0.013977  -0.019235   0.001484   0.001753  -0.034918   0.000523
    12  H   -0.007689   0.002113  -0.008325   0.001322   0.004352   0.002849
    13  H    0.468742  -0.001700   0.001250  -0.000018  -0.011644  -0.012118
    14  H   -0.001700   0.419042   0.000555  -0.007542   0.003803   0.000091
    15  H    0.001250   0.000555   0.419540  -0.008329  -0.000495   0.000000
    16  H   -0.000018  -0.007542  -0.008329   0.410280   0.000131  -0.000006
    17  H   -0.011644   0.003803  -0.000495   0.000131   0.496996  -0.011744
    18  H   -0.012118   0.000091   0.000000  -0.000006  -0.011744   0.685649
 Mulliken charges:
               1
     1  O   -0.226339
     2  C    1.164938
     3  C   -1.448113
     4  C    0.098702
     5  C   -0.369379
     6  C   -0.379871
     7  C   -0.148883
     8  C   -0.453761
     9  C    0.124445
    10  C   -0.337066
    11  H    0.177234
    12  H    0.263961
    13  H    0.199994
    14  H    0.305529
    15  H    0.286478
    16  H    0.279765
    17  H    0.279748
    18  H    0.182618
 Sum of Mulliken charges =  -0.00000
 Mulliken charges with hydrogens summed into heavy atoms:
               1
     1  O   -0.226339
     2  C    1.164938
     3  C   -1.270879
     4  C    0.362663
     5  C   -0.063850
     6  C   -0.093393
     7  C    0.051111
     8  C   -0.173995
     9  C    0.404193
    10  C   -0.154448
 Electronic spatial extent (au):  <R**2>=           1996.8946
 Charge=             -0.0000 electrons
 Dipole moment (field-independent basis, Debye):
    X=             -4.2958    Y=             -1.3690    Z=              0.4426  Tot=              4.5304
 Quadrupole moment (field-independent basis, Debye-Ang):
   XX=            -73.3272   YY=            -51.7960   ZZ=            -63.3473
   XY=             -5.8741   XZ=              2.5282   YZ=             -0.1511
 Traceless Quadrupole moment (field-independent basis, Debye-Ang):
   XX=            -10.5037   YY=             11.0275   ZZ=             -0.5238
   XY=             -5.8741   XZ=              2.5282   YZ=             -0.1511
 Octapole moment (field-independent basis, Debye-Ang**2):
  XXX=           -122.6133  YYY=              0.5222  ZZZ=             -0.7553  XYY=             -2.0451
  XXY=            -23.2868  XXZ=              5.2243  XZZ=             12.3716  YZZ=              0.3274
  YYZ=              0.7164  XYZ=             -1.6747
 Hexadecapole moment (field-independent basis, Debye-Ang**3):
 XXXX=          -2657.6635 YYYY=           -334.8835 ZZZZ=            -80.1718 XXXY=            -98.0124
 XXXZ=             44.4588 YYYX=             -1.4747 YYYZ=              0.7091 ZZZX=             -3.3552
 ZZZY=             -1.0049 XXYY=           -407.9257 XXZZ=           -408.2577 YYZZ=            -81.6650
 XXYZ=              3.4817 YYXZ=              2.5543 ZZXY=              2.3431
 N-N= 4.417611799021D+02 E-N=-1.866531828475D+03  KE= 4.209315691595D+02
 R6APFD:  NTU= -4 IXU= 1 FactS= 1.050
 Calling FoFJK, ICntrl=      2127 FMM=F ISym2X=0 I1Cent= 0 IOpClX= 0 NMat=1 NMatS=1 NMatT=0.
 ***** Axes restored to original set *****
 -------------------------------------------------------------------
 Center     Atomic                   Forces (Hartrees/Bohr)
 Number     Number              X              Y              Z
 -------------------------------------------------------------------
      1        8          -0.022087608   -0.022807525    0.006968578
      2        6           0.004142037    0.002594741    0.000169418
      3        6          -0.016922163    0.007882896   -0.001130248
      4        6          -0.010683417    0.001510687    0.000944764
      5        6           0.003658945   -0.004409557   -0.000289597
      6        6           0.002966166    0.002465234   -0.000266966
      7        6           0.011696153    0.008429112   -0.003769651
      8        6           0.001375658   -0.001865382   -0.000286583
      9        6          -0.000451061   -0.019156931    0.005832219
     10        6           0.017047515    0.033574426   -0.009425241
     11        1           0.004367572   -0.002411940    0.000892848
     12        1           0.003385732   -0.000658092    0.000480787
     13        1           0.003312465   -0.003877969   -0.000036386
     14        1          -0.000159770    0.001591865    0.000207848
     15        1          -0.000965363   -0.001281972   -0.000191289
     16        1          -0.001715839    0.000292622    0.000077431
     17        1          -0.000920592    0.003401354   -0.001574855
     18        1           0.001953569   -0.005273568    0.001396923
 -------------------------------------------------------------------
 Cartesian Forces:  Max     0.033574426 RMS     0.008445299

 GradGradGradGradGradGradGradGradGradGradGradGradGradGradGradGradGradGrad
 Berny optimization.
 FormGI is forming the generalized inverse of G from B-inverse, IUseBI=4.
 Internal  Forces:  Max     0.032052227 RMS     0.004717376
 Search for a local minimum.
 Step number   1 out of a maximum of   91
 All quantities printed in internal units (Hartrees-Bohrs-Radians)
 Mixed Optimization -- RFO/linear search
 Second derivative matrix not updated -- first step.
 ITU=  0
     Eigenvalues ---    0.01073   0.01073   0.01366   0.01914   0.01974
     Eigenvalues ---    0.02079   0.02156   0.02156   0.02157   0.02157
     Eigenvalues ---    0.02157   0.02157   0.02158   0.02158   0.02746
     Eigenvalues ---    0.15997   0.15998   0.15999   0.16000   0.16000
     Eigenvalues ---    0.16000   0.16000   0.16000   0.22000   0.22000
     Eigenvalues ---    0.22000   0.22000   0.22000   0.23486   0.25000
     Eigenvalues ---    0.33383   0.34938   0.35001   0.35119   0.35259
     Eigenvalues ---    0.35259   0.35262   0.35271   0.35640   0.37644
     Eigenvalues ---    0.42133   0.42333   0.46475   0.46481   0.46491
     Eigenvalues ---    0.46494   0.54956   0.93125
 RFO step:  Lambda=-3.91152404D-03 EMin= 1.07273241D-02
 Linear search not attempted -- first point.
 Iteration  1 RMS(Cart)=  0.04285325 RMS(Int)=  0.00052942
 Iteration  2 RMS(Cart)=  0.00083183 RMS(Int)=  0.00006538
 Iteration  3 RMS(Cart)=  0.00000024 RMS(Int)=  0.00006538
 Variable       Old X    -DE/DX   Delta X   Delta X   Delta X     New X
                                 (Linear)    (Quad)   (Total)
    R1        2.31525  -0.03205   0.00000  -0.03427  -0.03427   2.28098
    R2        2.63577   0.00563   0.00000   0.01244   0.01245   2.64822
    R3        2.63577   0.00331   0.00000   0.00741   0.00741   2.64318
    R4        2.74887   0.01154   0.00000   0.03035   0.03035   2.77921
    R5        2.63601  -0.00332   0.00000  -0.00698  -0.00698   2.62903
    R6        2.05256   0.00114   0.00000   0.00320   0.00320   2.05576
    R7        2.63599  -0.00240   0.00000  -0.00522  -0.00522   2.63077
    R8        2.05481   0.00152   0.00000   0.00427   0.00427   2.05908
    R9        2.63580   0.00018   0.00000   0.00005   0.00004   2.63584
   R10        2.05251   0.00157   0.00000   0.00442   0.00442   2.05693
   R11        2.63595  -0.00198   0.00000  -0.00467  -0.00467   2.63128
   R12        2.05237   0.00161   0.00000   0.00450   0.00450   2.05687
   R13        2.55171  -0.01033   0.00000  -0.01866  -0.01866   2.53305
   R14        2.05673   0.00428   0.00000   0.01209   0.01209   2.06882
   R15        2.05256   0.00173   0.00000   0.00484   0.00484   2.05740
   R16        2.79076  -0.00485   0.00000  -0.01371  -0.01371   2.77705
   R17        2.04648   0.00380   0.00000   0.01054   0.01054   2.05702
   R18        2.08384   0.00562   0.00000   0.01663   0.01663   2.10047
    A1        2.09447  -0.00557   0.00000  -0.02088  -0.02090   2.07357
    A2        2.09432   0.00937   0.00000   0.03637   0.03636   2.13068
    A3        2.09439  -0.00380   0.00000  -0.01549  -0.01549   2.07891
    A4        2.09439   0.00163   0.00000   0.00794   0.00791   2.10231
    A5        2.13849  -0.00585   0.00000  -0.03470  -0.03468   2.10381
    A6        2.05013   0.00422   0.00000   0.02670   0.02671   2.07684
    A7        2.09440   0.00299   0.00000   0.01342   0.01337   2.10777
    A8        2.11292  -0.00471   0.00000  -0.02633  -0.02634   2.08658
    A9        2.07586   0.00172   0.00000   0.01290   0.01289   2.08875
   A10        2.09432   0.00106   0.00000   0.00373   0.00369   2.09802
   A11        2.09511  -0.00084   0.00000  -0.00378  -0.00376   2.09135
   A12        2.09374  -0.00022   0.00000   0.00003   0.00004   2.09378
   A13        2.09430   0.00027   0.00000  -0.00038  -0.00042   2.09388
   A14        2.09472  -0.00033   0.00000  -0.00101  -0.00099   2.09372
   A15        2.09417   0.00006   0.00000   0.00139   0.00140   2.09558
   A16        2.18876   0.00526   0.00000   0.02345   0.02343   2.21219
   A17        2.01619  -0.00001   0.00000   0.00422   0.00420   2.02038
   A18        2.07815  -0.00525   0.00000  -0.02781  -0.02782   2.05032
   A19        2.09449  -0.00039   0.00000  -0.00383  -0.00389   2.09060
   A20        2.09444   0.00032   0.00000   0.00268   0.00268   2.09713
   A21        2.09425   0.00007   0.00000   0.00115   0.00115   2.09541
   A22        2.08383   0.00170   0.00000   0.00761   0.00761   2.09144
   A23        2.16526  -0.00138   0.00000  -0.00704  -0.00704   2.15822
   A24        2.03395  -0.00032   0.00000  -0.00054  -0.00054   2.03341
   A25        2.12776   0.00734   0.00000   0.03279   0.03270   2.16046
   A26        2.12583  -0.00512   0.00000  -0.02522  -0.02531   2.10052
   A27        2.02960  -0.00222   0.00000  -0.00753  -0.00762   2.02198
    D1        0.00001  -0.00046   0.00000  -0.01817  -0.01807  -0.01806
    D2        3.12124  -0.00048   0.00000  -0.02107  -0.02093   3.10031
    D3        3.14123  -0.00027   0.00000  -0.00982  -0.00968   3.13154
    D4       -0.02073  -0.00030   0.00000  -0.01271  -0.01255  -0.03327
    D5        0.00015   0.00062   0.00000   0.02438   0.02431   0.02446
    D6        3.14011   0.00030   0.00000   0.01208   0.01206  -3.13102
    D7       -3.14106   0.00043   0.00000   0.01601   0.01617  -3.12490
    D8       -0.00111   0.00011   0.00000   0.00371   0.00392   0.00281
    D9       -0.34916   0.00001   0.00000   0.00461   0.00454  -0.34462
   D10        2.80694   0.00032   0.00000   0.01640   0.01643   2.82337
   D11        2.79206   0.00020   0.00000   0.01297   0.01295   2.80501
   D12       -0.33503   0.00050   0.00000   0.02476   0.02483  -0.31019
   D13       -0.00017   0.00005   0.00000   0.00236   0.00248   0.00230
   D14        3.13689  -0.00005   0.00000  -0.00126  -0.00122   3.13566
   D15       -3.12242   0.00019   0.00000   0.00581   0.00600  -3.11642
   D16        0.01464   0.00009   0.00000   0.00219   0.00230   0.01694
   D17       -0.00015  -0.00038   0.00000  -0.01477  -0.01489  -0.01504
   D18        3.14150  -0.00025   0.00000  -0.00967  -0.00981   3.13169
   D19       -3.14014  -0.00006   0.00000  -0.00269  -0.00259   3.14046
   D20        0.00151   0.00007   0.00000   0.00241   0.00249   0.00400
   D21        0.00018   0.00019   0.00000   0.00725   0.00727   0.00744
   D22        3.14058  -0.00007   0.00000  -0.00261  -0.00266   3.13792
   D23       -3.13689   0.00029   0.00000   0.01088   0.01098  -3.12591
   D24        0.00351   0.00003   0.00000   0.00102   0.00106   0.00458
   D25       -0.00002  -0.00003   0.00000  -0.00104  -0.00112  -0.00114
   D26       -3.14042   0.00023   0.00000   0.00881   0.00879  -3.13163
   D27        3.14152  -0.00016   0.00000  -0.00615  -0.00621   3.13531
   D28        0.00112   0.00010   0.00000   0.00370   0.00371   0.00482
   D29       -3.13361  -0.00034   0.00000  -0.00924  -0.00929   3.14029
   D30       -0.01071  -0.00028   0.00000  -0.00727  -0.00732  -0.01803
   D31       -0.00699  -0.00061   0.00000  -0.02116  -0.02111  -0.02810
   D32        3.11590  -0.00055   0.00000  -0.01918  -0.01913   3.09677
   D33       -3.14125  -0.00017   0.00000  -0.01230  -0.01229   3.12964
   D34       -0.00131   0.00019   0.00000   0.01237   0.01237   0.01107
   D35        0.01766  -0.00021   0.00000  -0.01405  -0.01405   0.00361
   D36       -3.12558   0.00015   0.00000   0.01062   0.01062  -3.11497
         Item               Value     Threshold  Converged?
 Maximum Force            0.032052     0.000450     NO 
 RMS     Force            0.004717     0.000300     NO 
 Maximum Displacement     0.169382     0.001800     NO 
 RMS     Displacement     0.042675     0.001200     NO 
 Predicted change in Energy=-1.989747D-03
 GradGradGradGradGradGradGradGradGradGradGradGradGradGradGradGradGradGrad

                          Input orientation:                          
 ---------------------------------------------------------------------
 Center     Atomic      Atomic             Coordinates (Angstroms)
 Number     Number       Type             X           Y           Z
 ---------------------------------------------------------------------
      1          8           0        4.395301    0.324867   -0.157643
      2          6           0       -0.433868   -0.240336    0.091188
      3          6           0       -0.866506    1.092360    0.115743
      4          6           0       -1.388829   -1.257174   -0.011198
      5          6           0       -2.220652    1.396021    0.017888
      6          6           0       -2.743443   -0.953941   -0.116723
      7          6           0        0.989091   -0.601349    0.179542
      8          6           0       -3.162104    0.373972   -0.103058
      9          6           0        2.036096    0.196025   -0.074881
     10          6           0        3.402941   -0.325475    0.064229
     11          1           0       -0.151324    1.903635    0.233168
     12          1           0       -1.066611   -2.298012   -0.021342
     13          1           0        1.200346   -1.638041    0.460907
     14          1           0       -2.545837    2.434471    0.043627
     15          1           0       -3.474621   -1.755382   -0.205006
     16          1           0       -4.221888    0.612406   -0.176140
     17          1           0        1.941568    1.230132   -0.401353
     18          1           0        3.486440   -1.390079    0.372651
 ---------------------------------------------------------------------
                    Distance matrix (angstroms):
                    1          2          3          4          5
     1  O    0.000000
     2  C    4.868495   0.000000
     3  C    5.324509   1.401377   0.000000
     4  C    5.998372   1.398712   2.410238   0.000000
     5  C    6.704403   2.423971   1.391222   2.780687   0.000000
     6  C    7.252495   2.426231   2.786446   1.392144   2.411173
     7  C    3.545961   1.470696   2.513157   2.474063   3.783922
     8  C    7.557761   2.803280   2.415311   2.411137   1.394828
     9  C    2.364170   2.513704   3.043822   3.721015   4.423629
    10  C    1.207042   3.837848   4.499009   4.882091   5.881368
    11  H    4.828772   2.167164   1.087861   3.403212   2.141527
    12  H    6.060574   2.155704   3.399038   1.089619   3.870301
    13  H    3.800440   2.181955   3.441817   2.659280   4.594021
    14  H    7.257434   3.408411   2.150957   3.869098   1.088479
    15  H    8.140353   3.410172   3.874891   2.153207   3.399038
    16  H    8.622004   3.892008   3.402079   3.398346   2.157926
    17  H    2.626729   2.836823   2.858609   4.174980   4.186568
    18  H    2.012034   4.095112   5.017633   4.892162   6.360747
                    6          7          8          9         10
     6  C    0.000000
     7  C    3.760838   0.000000
     8  C    1.392414   4.273585   0.000000
     9  C    4.916112   1.340431   5.201321   0.000000
    10  C    6.181080   2.432299   6.604318   1.469551   0.000000
    11  H    3.873919   2.752884   3.393776   2.792066   4.198841
    12  H    2.151136   2.673000   3.396655   3.981190   4.886217
    13  H    4.044146   1.094771   4.837067   2.085507   2.594534
    14  H    3.397955   4.661587   2.155680   5.100862   6.557872
    15  H    1.088449   4.626487   2.154578   5.847471   7.029792
    16  H    2.154710   5.362276   1.088730   6.272637   7.686053
    17  H    5.176921   2.144522   5.183575   1.088530   2.184557
    18  H    6.264275   2.626050   6.895020   2.195338   1.111521
                   11         12         13         14         15
    11  H    0.000000
    12  H    4.307710   0.000000
    13  H    3.797676   2.409818   0.000000
    14  H    2.459961   4.958702   5.549177   0.000000
    15  H    4.962329   2.475215   4.723613   4.298758   0.000000
    16  H    4.290023   4.295377   5.905164   2.485430   2.483075
    17  H    2.288322   4.652026   3.085339   4.667467   6.187644
    18  H    4.909311   4.659382   2.301195   7.150092   6.994533
                   16         17         18
    16  H    0.000000
    17  H    6.198426   0.000000
    18  H    7.983071   3.138665   0.000000
 Stoichiometry    C9H8O
 Framework group  C1[X(C9H8O)]
 Deg. of freedom    48
 Full point group                 C1      NOp   1
 Largest Abelian subgroup         C1      NOp   1
 Largest concise Abelian subgroup C1      NOp   1
                         Standard orientation:                         
 ---------------------------------------------------------------------
 Center     Atomic      Atomic             Coordinates (Angstroms)
 Number     Number       Type             X           Y           Z
 ---------------------------------------------------------------------
      1          8           0        4.332285    0.394628   -0.163988
      2          6           0       -0.487295   -0.245699    0.088731
      3          6           0       -0.939568    1.079945    0.133151
      4          6           0       -1.427352   -1.275071   -0.025642
      5          6           0       -2.298323    1.364803    0.042925
      6          6           0       -2.786588   -0.990540   -0.123542
      7          6           0        0.941088   -0.586741    0.168479
      8          6           0       -3.224844    0.330683   -0.090112
      9          6           0        1.975478    0.229600   -0.077245
     10          6           0        3.350268   -0.273442    0.051128
     11          1           0       -0.236177    1.900023    0.260251
     12          1           0       -1.089773   -2.310761   -0.051263
     13          1           0        1.168435   -1.624036    0.434667
     14          1           0       -2.638792    2.397842    0.084114
     15          1           0       -3.506042   -1.801433   -0.221324
     16          1           0       -4.288237    0.554352   -0.157213
     17          1           0        1.864764    1.266681   -0.388860
     18          1           0        3.450358   -1.340923    0.344292
 ---------------------------------------------------------------------
 Rotational constants (GHZ):           4.8421960           0.5811621           0.5211294
 Standard basis: 6-311++G(d,p) (5D, 7F)
 There are   286 symmetry adapted cartesian basis functions of A   symmetry.
 There are   276 symmetry adapted basis functions of A   symmetry.
   276 basis functions,   432 primitive gaussians,   286 cartesian basis functions
    35 alpha electrons       35 beta electrons
       nuclear repulsion energy       440.9291466772 Hartrees.
 NAtoms=   18 NActive=   18 NUniq=   18 SFac= 1.00D+00 NAtFMM=   60 NAOKFM=F Big=F
 Integral buffers will be    131072 words long.
 Raffenetti 2 integral format.
 Two-electron integral symmetry is turned on.
 R6APFD:  NTU= -4 IXU= 1 FactS= 1.050
 Nuclear repulsion after empirical dispersion term =      440.9203069028 Hartrees.
 One-electron integrals computed using PRISM.
 NBasis=   276 RedAO= T EigKep=  2.18D-06  NBF=   276
 NBsUse=   275 1.00D-06 EigRej=  8.20D-07 NBFU=   275
 Initial guess from the checkpoint file:  "CALE0093.chk"
 B after Tr=    -0.000000   -0.000000    0.000000
         Rot=    0.999989    0.003222    0.000249   -0.003411 Ang=   0.54 deg.
 ExpMin= 3.60D-02 ExpMax= 8.59D+03 ExpMxC= 1.30D+03 IAcc=3 IRadAn=         5 AccDes= 0.00D+00
 Harris functional with IExCor= 1009 and IRadAn=       5 diagonalized for initial guess.
 HarFok:  IExCor= 1009 AccDes= 0.00D+00 IRadAn=         5 IDoV= 1 UseB2=F ITyADJ=14
 ICtDFT=  3500011 ScaDFX=  1.000000  1.000000  1.000000  1.000000
 FoFCou: FMM=F IPFlag=           0 FMFlag=      100000 FMFlg1=           0
         NFxFlg=           0 DoJE=T BraDBF=F KetDBF=T FulRan=T
         wScrn=  0.000000 ICntrl=       500 IOpCl=  0 I1Cent=   200000004 NGrid=           0
         NMat0=    1 NMatS0=      1 NMatT0=    0 NMatD0=    1 NMtDS0=    0 NMtDT0=    0
 Petite list used in FoFCou.
 Requested convergence on RMS density matrix=1.00D-08 within  32 cycles.
 Requested convergence on MAX density matrix=1.00D-06.
 Requested convergence on             energy=1.00D-06.
 No special actions if energy rises.
 SCF Done:  E(RM08HX) =  -422.962242041     A.U. after   14 cycles
            NFock= 14  Conv=0.95D-08     -V/T= 2.0048
 QCSCF skips out because SCF is already converged.
 R6APFD:  NTU= -4 IXU= 1 FactS= 1.050
 Calling FoFJK, ICntrl=      2127 FMM=F ISym2X=0 I1Cent= 0 IOpClX= 0 NMat=1 NMatS=1 NMatT=0.
 ***** Axes restored to original set *****
 -------------------------------------------------------------------
 Center     Atomic                   Forces (Hartrees/Bohr)
 Number     Number              X              Y              Z
 -------------------------------------------------------------------
      1        8          -0.004085983   -0.002949265    0.001989879
      2        6           0.002862666    0.000511482    0.000810187
      3        6          -0.003035485    0.001347365   -0.000567275
      4        6          -0.001842313   -0.000619634   -0.000337508
      5        6           0.001573924   -0.000791200    0.000048721
      6        6           0.000544207   -0.000106952    0.000143414
      7        6          -0.001620647    0.001199452   -0.000954824
      8        6          -0.000100276   -0.000316804    0.000072693
      9        6          -0.001664782   -0.001376058    0.001591474
     10        6           0.006396183    0.005395762   -0.004490489
     11        1           0.001806393   -0.000611490   -0.000042521
     12        1           0.000735890   -0.000084697    0.000211043
     13        1          -0.000416097   -0.000461883    0.000069484
     14        1           0.000215835    0.000055063    0.000050414
     15        1           0.000152358   -0.000112302    0.000030898
     16        1           0.000151286    0.000113838   -0.000120755
     17        1          -0.000780969    0.000923850    0.000009703
     18        1          -0.000892189   -0.002116527    0.001485464
 -------------------------------------------------------------------
 Cartesian Forces:  Max     0.006396183 RMS     0.001791605

 GradGradGradGradGradGradGradGradGradGradGradGradGradGradGradGradGradGrad
 Berny optimization.
 Using GEDIIS/GDIIS optimizer.
 FormGI is forming the generalized inverse of G from B-inverse, IUseBI=4.
 Internal  Forces:  Max     0.005311817 RMS     0.000971227
 Search for a local minimum.
 Step number   2 out of a maximum of   91
 All quantities printed in internal units (Hartrees-Bohrs-Radians)
 Mixed Optimization -- En-DIIS/RFO-DIIS
 Update second derivatives using D2CorX and points    1    2
 DE= -2.04D-03 DEPred=-1.99D-03 R= 1.03D+00
 TightC=F SS=  1.41D+00  RLast= 1.31D-01 DXNew= 5.0454D-01 3.9361D-01
 Trust test= 1.03D+00 RLast= 1.31D-01 DXMaxT set to 3.94D-01
 ITU=  1  0
 Use linear search instead of GDIIS.
     Eigenvalues ---    0.01073   0.01095   0.01347   0.01913   0.01970
     Eigenvalues ---    0.02072   0.02155   0.02156   0.02156   0.02157
     Eigenvalues ---    0.02157   0.02157   0.02158   0.02180   0.02774
     Eigenvalues ---    0.14613   0.15998   0.15998   0.15999   0.15999
     Eigenvalues ---    0.16000   0.16000   0.16348   0.21315   0.21999
     Eigenvalues ---    0.22000   0.22000   0.22352   0.23927   0.25621
     Eigenvalues ---    0.32724   0.34908   0.35103   0.35117   0.35221
     Eigenvalues ---    0.35261   0.35268   0.35325   0.35547   0.40107
     Eigenvalues ---    0.42090   0.43197   0.46020   0.46481   0.46491
     Eigenvalues ---    0.46694   0.54673   0.86469
 RFO step:  Lambda=-5.84490260D-04 EMin= 1.07274176D-02
 Quartic linear search produced a step of  0.05559.
 Iteration  1 RMS(Cart)=  0.02670716 RMS(Int)=  0.00122479
 Iteration  2 RMS(Cart)=  0.00112643 RMS(Int)=  0.00063773
 Iteration  3 RMS(Cart)=  0.00000119 RMS(Int)=  0.00063772
 Iteration  4 RMS(Cart)=  0.00000000 RMS(Int)=  0.00063772
 Variable       Old X    -DE/DX   Delta X   Delta X   Delta X     New X
                                 (Linear)    (Quad)   (Total)
    R1        2.28098  -0.00531  -0.00191  -0.00937  -0.01128   2.26970
    R2        2.64822  -0.00069   0.00069  -0.00043   0.00026   2.64848
    R3        2.64318   0.00048   0.00041   0.00183   0.00225   2.64543
    R4        2.77921  -0.00314   0.00169  -0.00582  -0.00413   2.77508
    R5        2.62903  -0.00182  -0.00039  -0.00491  -0.00530   2.62372
    R6        2.05576   0.00073   0.00018   0.00248   0.00266   2.05842
    R7        2.63077  -0.00092  -0.00029  -0.00250  -0.00279   2.62798
    R8        2.05908   0.00030   0.00024   0.00131   0.00155   2.06063
    R9        2.63584   0.00059   0.00000   0.00133   0.00133   2.63717
   R10        2.05693  -0.00001   0.00025   0.00040   0.00064   2.05757
   R11        2.63128   0.00029  -0.00026   0.00029   0.00003   2.63131
   R12        2.05687  -0.00002   0.00025   0.00038   0.00063   2.05750
   R13        2.53305  -0.00098  -0.00104  -0.00370  -0.00474   2.52831
   R14        2.06882   0.00037   0.00067   0.00231   0.00298   2.07180
   R15        2.05740  -0.00011   0.00027   0.00013   0.00040   2.05780
   R16        2.77705   0.00110  -0.00076   0.00198   0.00122   2.77827
   R17        2.05702   0.00094   0.00059   0.00383   0.00441   2.06143
   R18        2.10047   0.00237   0.00092   0.00911   0.01003   2.11050
    A1        2.07357   0.00080  -0.00116   0.00127   0.00011   2.07368
    A2        2.13068  -0.00081   0.00202   0.00021   0.00222   2.13290
    A3        2.07891   0.00001  -0.00086  -0.00143  -0.00230   2.07661
    A4        2.10231  -0.00028   0.00044  -0.00090  -0.00046   2.10184
    A5        2.10381  -0.00166  -0.00193  -0.01436  -0.01629   2.08752
    A6        2.07684   0.00195   0.00148   0.01535   0.01683   2.09367
    A7        2.10777  -0.00044   0.00074  -0.00042   0.00033   2.10809
    A8        2.08658  -0.00050  -0.00146  -0.00639  -0.00786   2.07872
    A9        2.08875   0.00093   0.00072   0.00685   0.00757   2.09632
   A10        2.09802   0.00006   0.00021   0.00045   0.00065   2.09867
   A11        2.09135  -0.00026  -0.00021  -0.00192  -0.00213   2.08923
   A12        2.09378   0.00020   0.00000   0.00148   0.00148   2.09526
   A13        2.09388  -0.00038  -0.00002  -0.00136  -0.00139   2.09249
   A14        2.09372  -0.00001  -0.00006  -0.00073  -0.00079   2.09294
   A15        2.09558   0.00039   0.00008   0.00210   0.00218   2.09775
   A16        2.21219  -0.00119   0.00130  -0.00336  -0.00207   2.21013
   A17        2.02038   0.00007   0.00023  -0.00011   0.00012   2.02050
   A18        2.05032   0.00112  -0.00155   0.00363   0.00208   2.05240
   A19        2.09060   0.00024  -0.00022   0.00099   0.00077   2.09137
   A20        2.09713  -0.00026   0.00015  -0.00132  -0.00117   2.09596
   A21        2.09541   0.00002   0.00006   0.00034   0.00041   2.09581
   A22        2.09144   0.00031   0.00042   0.00223   0.00266   2.09410
   A23        2.15822  -0.00088  -0.00039  -0.00617  -0.00656   2.15166
   A24        2.03341   0.00057  -0.00003   0.00397   0.00394   2.03735
   A25        2.16046   0.00147   0.00182   0.01094   0.00947   2.16993
   A26        2.10052   0.00041  -0.00141   0.00264  -0.00209   2.09842
   A27        2.02198  -0.00185  -0.00042  -0.01053  -0.01425   2.00772
    D1       -0.01806   0.00005  -0.00100   0.00108   0.00008  -0.01798
    D2        3.10031   0.00017  -0.00116   0.00547   0.00428   3.10459
    D3        3.13154  -0.00011  -0.00054  -0.00659  -0.00713   3.12441
    D4       -0.03327   0.00001  -0.00070  -0.00220  -0.00293  -0.03620
    D5        0.02446  -0.00008   0.00135  -0.00219  -0.00085   0.02361
    D6       -3.13102   0.00003   0.00067   0.00163   0.00229  -3.12873
    D7       -3.12490   0.00007   0.00090   0.00526   0.00615  -3.11875
    D8        0.00281   0.00018   0.00022   0.00908   0.00928   0.01209
    D9       -0.34462   0.00066   0.00025   0.04558   0.04582  -0.29880
   D10        2.82337   0.00048   0.00091   0.03807   0.03899   2.86236
   D11        2.80501   0.00050   0.00072   0.03787   0.03859   2.84360
   D12       -0.31019   0.00032   0.00138   0.03037   0.03176  -0.27843
   D13        0.00230  -0.00001   0.00014  -0.00020  -0.00005   0.00225
   D14        3.13566   0.00001  -0.00007   0.00062   0.00057   3.13623
   D15       -3.11642  -0.00008   0.00033  -0.00414  -0.00383  -3.12025
   D16        0.01694  -0.00006   0.00013  -0.00332  -0.00321   0.01372
   D17       -0.01504   0.00008  -0.00083   0.00245   0.00162  -0.01341
   D18        3.13169   0.00005  -0.00055   0.00120   0.00066   3.13235
   D19        3.14046  -0.00001  -0.00014  -0.00127  -0.00143   3.13903
   D20        0.00400  -0.00005   0.00014  -0.00252  -0.00239   0.00161
   D21        0.00744  -0.00000   0.00040   0.00041   0.00081   0.00826
   D22        3.13792   0.00006  -0.00015   0.00249   0.00234   3.14026
   D23       -3.12591  -0.00002   0.00061  -0.00039   0.00021  -3.12569
   D24        0.00458   0.00004   0.00006   0.00168   0.00174   0.00631
   D25       -0.00114  -0.00003  -0.00006  -0.00151  -0.00158  -0.00271
   D26       -3.13163  -0.00009   0.00049  -0.00358  -0.00309  -3.13472
   D27        3.13531   0.00001  -0.00035  -0.00027  -0.00062   3.13469
   D28        0.00482  -0.00005   0.00021  -0.00233  -0.00213   0.00269
   D29        3.14029   0.00013  -0.00052   0.00269   0.00218  -3.14072
   D30       -0.01803   0.00019  -0.00041   0.00560   0.00518  -0.01285
   D31       -0.02810   0.00030  -0.00117   0.01026   0.00909  -0.01900
   D32        3.09677   0.00036  -0.00106   0.01316   0.01210   3.10886
   D33        3.12964   0.00091  -0.00068   0.08304   0.08218  -3.07136
   D34        0.01107  -0.00076   0.00069  -0.06983  -0.06895  -0.05788
   D35        0.00361   0.00087  -0.00078   0.08044   0.07947   0.08308
   D36       -3.11497  -0.00080   0.00059  -0.07243  -0.07166   3.09656
         Item               Value     Threshold  Converged?
 Maximum Force            0.005312     0.000450     NO 
 RMS     Force            0.000971     0.000300     NO 
 Maximum Displacement     0.133168     0.001800     NO 
 RMS     Displacement     0.026674     0.001200     NO 
 Predicted change in Energy=-3.070545D-04
 GradGradGradGradGradGradGradGradGradGradGradGradGradGradGradGradGradGrad

                          Input orientation:                          
 ---------------------------------------------------------------------
 Center     Atomic      Atomic             Coordinates (Angstroms)
 Number     Number       Type             X           Y           Z
 ---------------------------------------------------------------------
      1          8           0        4.392119    0.341375   -0.087173
      2          6           0       -0.433239   -0.242163    0.082104
      3          6           0       -0.863210    1.091650    0.099975
      4          6           0       -1.391592   -1.258861   -0.005111
      5          6           0       -2.214929    1.395937    0.010746
      6          6           0       -2.745197   -0.954736   -0.101151
      7          6           0        0.987328   -0.607575    0.152751
      8          6           0       -3.159898    0.374491   -0.095054
      9          6           0        2.031026    0.197192   -0.077656
     10          6           0        3.400604   -0.325531    0.034135
     11          1           0       -0.131157    1.891715    0.202448
     12          1           0       -1.063048   -2.298626   -0.007136
     13          1           0        1.198416   -1.653623    0.404152
     14          1           0       -2.536284    2.436058    0.030807
     15          1           0       -3.477852   -1.756555   -0.176956
     16          1           0       -4.219507    0.615983   -0.163639
     17          1           0        1.927475    1.244836   -0.363497
     18          1           0        3.475044   -1.387468    0.371854
 ---------------------------------------------------------------------
                    Distance matrix (angstroms):
                    1          2          3          4          5
     1  O    0.000000
     2  C    4.863460   0.000000
     3  C    5.311912   1.401517   0.000000
     4  C    6.001567   1.399901   2.411458   0.000000
     5  C    6.691395   2.421339   1.388415   2.779583   0.000000
     6  C    7.254059   2.426210   2.787476   1.390669   2.412336
     7  C    3.542692   1.468512   2.512894   2.471509   3.780036
     8  C    7.552093   2.801128   2.413945   2.408907   1.395532
     9  C    2.365510   2.508218   3.034503   3.720170   4.412815
    10  C    1.201076   3.835049   4.493645   4.882395   5.873517
    11  H    4.790351   2.158511   1.089269   3.399692   2.150500
    12  H    6.060929   2.152595   3.397849   1.090439   3.870005
    13  H    3.797519   2.181338   3.446643   2.651693   4.594073
    14  H    7.239087   3.405628   2.147416   3.868338   1.088818
    15  H    8.145294   3.410303   3.876251   2.151677   3.401237
    16  H    8.616343   3.890069   3.400072   3.396657   2.158025
    17  H    2.639520   2.825366   2.833054   4.172906   4.162019
    18  H    2.010132   4.082935   5.004038   4.882908   6.344567
                    6          7          8          9         10
     6  C    0.000000
     7  C    3.757223   0.000000
     8  C    1.392429   4.269115   0.000000
     9  C    4.913226   1.337925   5.193980   0.000000
    10  C    6.179406   2.432595   6.599007   1.470197   0.000000
    11  H    3.876552   2.738600   3.400551   2.761323   4.173469
    12  H    2.155111   2.662566   3.398538   3.975849   4.880470
    13  H    4.036813   1.096348   4.832945   2.085880   2.598147
    14  H    3.399786   4.657726   2.157497   5.087692   6.547750
    15  H    1.088781   4.622413   2.156191   5.845916   7.028908
    16  H    2.155146   5.358016   1.088942   6.265138   7.680603
    17  H    5.171151   2.140517   5.168261   1.090864   2.189583
    18  H    6.253190   2.616290   6.880767   2.190524   1.116828
                   11         12         13         14         15
    11  H    0.000000
    12  H    4.297825   0.000000
    13  H    3.791817   2.387343   0.000000
    14  H    2.471924   4.958740   5.550934   0.000000
    15  H    4.965299   2.480718   4.713361   4.302060   0.000000
    16  H    4.298386   4.299148   5.901474   2.486709   2.485793
    17  H    2.230855   4.650413   3.085754   4.636770   6.185524
    18  H    4.877133   4.644149   2.292360   7.132443   6.984281
                   16         17         18
    16  H    0.000000
    17  H    6.182297   0.000000
    18  H    7.969109   3.140818   0.000000
 Stoichiometry    C9H8O
 Framework group  C1[X(C9H8O)]
 Deg. of freedom    48
 Full point group                 C1      NOp   1
 Largest Abelian subgroup         C1      NOp   1
 Largest concise Abelian subgroup C1      NOp   1
                         Standard orientation:                         
 ---------------------------------------------------------------------
 Center     Atomic      Atomic             Coordinates (Angstroms)
 Number     Number       Type             X           Y           Z
 ---------------------------------------------------------------------
      1          8           0        4.329945    0.401326   -0.108374
      2          6           0       -0.486434   -0.247381    0.078505
      3          6           0       -0.933578    1.080342    0.116736
      4          6           0       -1.431971   -1.275234   -0.017417
      5          6           0       -2.289601    1.368134    0.038796
      6          6           0       -2.789914   -0.987537   -0.102161
      7          6           0        0.939122   -0.595139    0.136672
      8          6           0       -3.221796    0.335960   -0.075844
      9          6           0        1.971010    0.226219   -0.088319
     10          6           0        3.347848   -0.280043    0.009125
     11          1           0       -0.211424    1.888440    0.226175
     12          1           0       -1.089974   -2.310500   -0.035281
     13          1           0        1.165142   -1.641639    0.372744
     14          1           0       -2.624317    2.403607    0.074660
     15          1           0       -3.512504   -1.797756   -0.184954
     16          1           0       -4.284810    0.564503   -0.135541
     17          1           0        1.852307    1.276182   -0.359376
     18          1           0        3.437913   -1.345377    0.332013
 ---------------------------------------------------------------------
 Rotational constants (GHZ):           4.8534522           0.5825822           0.5216980
 Standard basis: 6-311++G(d,p) (5D, 7F)
 There are   286 symmetry adapted cartesian basis functions of A   symmetry.
 There are   276 symmetry adapted basis functions of A   symmetry.
   276 basis functions,   432 primitive gaussians,   286 cartesian basis functions
    35 alpha electrons       35 beta electrons
       nuclear repulsion energy       441.2865428920 Hartrees.
 NAtoms=   18 NActive=   18 NUniq=   18 SFac= 1.00D+00 NAtFMM=   60 NAOKFM=F Big=F
 Integral buffers will be    131072 words long.
 Raffenetti 2 integral format.
 Two-electron integral symmetry is turned on.
 R6APFD:  NTU= -4 IXU= 1 FactS= 1.050
 Nuclear repulsion after empirical dispersion term =      441.2777133354 Hartrees.
 One-electron integrals computed using PRISM.
 NBasis=   276 RedAO= T EigKep=  2.07D-06  NBF=   276
 NBsUse=   275 1.00D-06 EigRej=  8.03D-07 NBFU=   275
 Initial guess from the checkpoint file:  "CALE0093.chk"
 B after Tr=    -0.000000    0.000000   -0.000000
         Rot=    1.000000   -0.000553   -0.000039    0.000514 Ang=  -0.09 deg.
 ExpMin= 3.60D-02 ExpMax= 8.59D+03 ExpMxC= 1.30D+03 IAcc=3 IRadAn=         5 AccDes= 0.00D+00
 Harris functional with IExCor= 1009 and IRadAn=       5 diagonalized for initial guess.
 HarFok:  IExCor= 1009 AccDes= 0.00D+00 IRadAn=         5 IDoV= 1 UseB2=F ITyADJ=14
 ICtDFT=  3500011 ScaDFX=  1.000000  1.000000  1.000000  1.000000
 FoFCou: FMM=F IPFlag=           0 FMFlag=      100000 FMFlg1=           0
         NFxFlg=           0 DoJE=T BraDBF=F KetDBF=T FulRan=T
         wScrn=  0.000000 ICntrl=       500 IOpCl=  0 I1Cent=   200000004 NGrid=           0
         NMat0=    1 NMatS0=      1 NMatT0=    0 NMatD0=    1 NMtDS0=    0 NMtDT0=    0
 Petite list used in FoFCou.
 Requested convergence on RMS density matrix=1.00D-08 within  32 cycles.
 Requested convergence on MAX density matrix=1.00D-06.
 Requested convergence on             energy=1.00D-06.
 No special actions if energy rises.
 SCF Done:  E(RM08HX) =  -422.961795185     A.U. after   14 cycles
            NFock= 14  Conv=0.75D-08     -V/T= 2.0047
 QCSCF skips out because SCF is already converged.
 R6APFD:  NTU= -4 IXU= 1 FactS= 1.050
 Calling FoFJK, ICntrl=      2127 FMM=F ISym2X=0 I1Cent= 0 IOpClX= 0 NMat=1 NMatS=1 NMatT=0.
 ***** Axes restored to original set *****
 -------------------------------------------------------------------
 Center     Atomic                   Forces (Hartrees/Bohr)
 Number     Number              X              Y              Z
 -------------------------------------------------------------------
      1        8           0.002964359    0.001327326   -0.005568756
      2        6           0.000320115   -0.000475102    0.000742072
      3        6           0.000953987   -0.000079792   -0.000269771
      4        6           0.001074761   -0.000485655    0.000144584
      5        6           0.000010217    0.000590311    0.000074009
      6        6          -0.000509430   -0.000170150    0.000008523
      7        6          -0.002090147   -0.001228167    0.000324966
      8        6          -0.000212990   -0.000068530    0.000053284
      9        6           0.000077562    0.001400813   -0.005003857
     10        6          -0.001048239    0.000918086    0.015011545
     11        1          -0.000517744    0.000030208   -0.000106221
     12        1          -0.000234535    0.000148248   -0.000005889
     13        1          -0.000520182    0.000370462   -0.000698846
     14        1          -0.000064041   -0.000237520   -0.000028847
     15        1           0.000125016    0.000230876    0.000027987
     16        1           0.000300018    0.000040316   -0.000035614
     17        1           0.000031375   -0.000584428    0.000166009
     18        1          -0.000660102   -0.001727303   -0.004835175
 -------------------------------------------------------------------
 Cartesian Forces:  Max     0.015011545 RMS     0.002488713

 GradGradGradGradGradGradGradGradGradGradGradGradGradGradGradGradGradGrad
 Berny optimization.
 Using GEDIIS/GDIIS optimizer.
 FormGI is forming the generalized inverse of G from B-inverse, IUseBI=4.
 Internal  Forces:  Max     0.005057457 RMS     0.001222965
 Search for a local minimum.
 Step number   3 out of a maximum of   91
 All quantities printed in internal units (Hartrees-Bohrs-Radians)
 Mixed Optimization -- RFO/linear search
 Update second derivatives using D2CorX and points    1    3    2
 DE=  4.47D-04 DEPred=-3.07D-04 R=-1.46D+00
 Trust test=-1.46D+00 RLast= 1.76D-01 DXMaxT set to 1.97D-01
 ITU= -1  1  0
 Use linear search instead of GDIIS.
     Eigenvalues ---    0.01047   0.01104   0.01900   0.01959   0.02062
     Eigenvalues ---    0.02148   0.02156   0.02156   0.02157   0.02157
     Eigenvalues ---    0.02157   0.02158   0.02175   0.02718   0.06637
     Eigenvalues ---    0.12933   0.15999   0.15999   0.15999   0.16000
     Eigenvalues ---    0.16000   0.16011   0.16234   0.21096   0.21999
     Eigenvalues ---    0.22000   0.22016   0.22366   0.23790   0.25570
     Eigenvalues ---    0.31851   0.34855   0.35093   0.35139   0.35237
     Eigenvalues ---    0.35261   0.35268   0.35313   0.35553   0.38654
     Eigenvalues ---    0.42026   0.42716   0.45712   0.46482   0.46491
     Eigenvalues ---    0.46595   0.54959   0.86031
 RFO step:  Lambda=-3.88116866D-04 EMin= 1.04679988D-02
 Quartic linear search produced a step of -0.71363.
 Iteration  1 RMS(Cart)=  0.02455280 RMS(Int)=  0.00114777
 Iteration  2 RMS(Cart)=  0.00107643 RMS(Int)=  0.00011929
 Iteration  3 RMS(Cart)=  0.00000150 RMS(Int)=  0.00011928
 Iteration  4 RMS(Cart)=  0.00000000 RMS(Int)=  0.00011928
 Variable       Old X    -DE/DX   Delta X   Delta X   Delta X     New X
                                 (Linear)    (Quad)   (Total)
    R1        2.26970   0.00375   0.00805  -0.01040  -0.00235   2.26735
    R2        2.64848   0.00002  -0.00019  -0.00106  -0.00125   2.64724
    R3        2.64543  -0.00020  -0.00160   0.00211   0.00051   2.64594
    R4        2.77508  -0.00136   0.00295  -0.01018  -0.00723   2.76785
    R5        2.62372   0.00003   0.00378  -0.00646  -0.00268   2.62104
    R6        2.05842  -0.00034  -0.00190   0.00301   0.00111   2.05953
    R7        2.62798   0.00039   0.00199  -0.00298  -0.00099   2.62699
    R8        2.06063  -0.00021  -0.00111   0.00146   0.00036   2.06099
    R9        2.63717   0.00005  -0.00095   0.00185   0.00090   2.63807
   R10        2.05757  -0.00021  -0.00046   0.00020  -0.00026   2.05731
   R11        2.63131   0.00009  -0.00002   0.00063   0.00061   2.63192
   R12        2.05750  -0.00025  -0.00045   0.00014  -0.00031   2.05719
   R13        2.52831   0.00192   0.00338  -0.00336   0.00002   2.52833
   R14        2.07180  -0.00062  -0.00213   0.00220   0.00007   2.07187
   R15        2.05780  -0.00028  -0.00029  -0.00023  -0.00052   2.05728
   R16        2.77827   0.00133  -0.00087   0.00435   0.00347   2.78174
   R17        2.06143  -0.00061  -0.00315   0.00436   0.00121   2.06264
   R18        2.11050   0.00013  -0.00716   0.01197   0.00481   2.11531
    A1        2.07368   0.00041  -0.00008   0.00302   0.00295   2.07662
    A2        2.13290  -0.00020  -0.00158  -0.00138  -0.00297   2.12994
    A3        2.07661  -0.00020   0.00164  -0.00163   0.00001   2.07662
    A4        2.10184  -0.00011   0.00033  -0.00169  -0.00136   2.10048
    A5        2.08752   0.00047   0.01163  -0.01755  -0.00592   2.08160
    A6        2.09367  -0.00036  -0.01201   0.01934   0.00733   2.10099
    A7        2.10809  -0.00031  -0.00023  -0.00146  -0.00170   2.10640
    A8        2.07872   0.00034   0.00561  -0.00724  -0.00163   2.07709
    A9        2.09632  -0.00002  -0.00540   0.00876   0.00336   2.09967
   A10        2.09867  -0.00011  -0.00047   0.00032  -0.00014   2.09853
   A11        2.08923   0.00020   0.00152  -0.00216  -0.00064   2.08858
   A12        2.09526  -0.00008  -0.00106   0.00185   0.00079   2.09605
   A13        2.09249  -0.00003   0.00099  -0.00185  -0.00086   2.09163
   A14        2.09294   0.00007   0.00056  -0.00086  -0.00029   2.09264
   A15        2.09775  -0.00005  -0.00155   0.00272   0.00116   2.09891
   A16        2.21013   0.00028   0.00147  -0.00516  -0.00369   2.20644
   A17        2.02050  -0.00055  -0.00008  -0.00124  -0.00133   2.01917
   A18        2.05240   0.00027  -0.00148   0.00660   0.00511   2.05751
   A19        2.09137   0.00016  -0.00055   0.00174   0.00119   2.09256
   A20        2.09596  -0.00018   0.00083  -0.00220  -0.00137   2.09459
   A21        2.09581   0.00002  -0.00029   0.00050   0.00021   2.09602
   A22        2.09410  -0.00038  -0.00190   0.00228   0.00038   2.09448
   A23        2.15166   0.00016   0.00468  -0.00797  -0.00330   2.14836
   A24        2.03735   0.00022  -0.00281   0.00580   0.00298   2.04033
   A25        2.16993   0.00023  -0.00675   0.01292   0.00555   2.17547
   A26        2.09842   0.00092   0.00149   0.00579   0.00667   2.10509
   A27        2.00772  -0.00007   0.01017  -0.01476  -0.00521   2.00251
    D1       -0.01798   0.00005  -0.00006   0.00298   0.00292  -0.01506
    D2        3.10459   0.00005  -0.00306   0.00914   0.00609   3.11069
    D3        3.12441   0.00001   0.00509  -0.00851  -0.00341   3.12100
    D4       -0.03620   0.00001   0.00209  -0.00235  -0.00024  -0.03644
    D5        0.02361  -0.00006   0.00060  -0.00493  -0.00433   0.01928
    D6       -3.12873  -0.00002  -0.00163   0.00131  -0.00033  -3.12905
    D7       -3.11875  -0.00003  -0.00439   0.00617   0.00180  -3.11695
    D8        0.01209   0.00001  -0.00663   0.01242   0.00581   0.01790
    D9       -0.29880   0.00040  -0.03270   0.06982   0.03711  -0.26168
   D10        2.86236   0.00028  -0.02782   0.05753   0.02971   2.89207
   D11        2.84360   0.00036  -0.02754   0.05832   0.03078   2.87437
   D12       -0.27843   0.00025  -0.02266   0.04603   0.02337  -0.25506
   D13        0.00225  -0.00002   0.00004  -0.00060  -0.00056   0.00170
   D14        3.13623   0.00000  -0.00040   0.00097   0.00056   3.13679
   D15       -3.12025  -0.00003   0.00274  -0.00637  -0.00362  -3.12387
   D16        0.01372  -0.00001   0.00229  -0.00481  -0.00250   0.01122
   D17       -0.01341   0.00004  -0.00116   0.00452   0.00336  -0.01005
   D18        3.13235   0.00002  -0.00047   0.00241   0.00194   3.13429
   D19        3.13903  -0.00000   0.00102  -0.00169  -0.00066   3.13837
   D20        0.00161  -0.00002   0.00171  -0.00380  -0.00209  -0.00048
   D21        0.00826  -0.00001  -0.00058   0.00008  -0.00050   0.00776
   D22        3.14026   0.00003  -0.00167   0.00392   0.00224  -3.14068
   D23       -3.12569  -0.00003  -0.00015  -0.00147  -0.00162  -3.12731
   D24        0.00631   0.00001  -0.00124   0.00237   0.00113   0.00744
   D25       -0.00271   0.00000   0.00113  -0.00200  -0.00088  -0.00359
   D26       -3.13472  -0.00004   0.00221  -0.00582  -0.00362  -3.13834
   D27        3.13469   0.00002   0.00044   0.00011   0.00055   3.13524
   D28        0.00269  -0.00002   0.00152  -0.00371  -0.00219   0.00050
   D29       -3.14072  -0.00059  -0.00155  -0.00300  -0.00455   3.13791
   D30       -0.01285  -0.00021  -0.00370   0.00643   0.00273  -0.01013
   D31       -0.01900  -0.00049  -0.00649   0.00941   0.00293  -0.01607
   D32        3.10886  -0.00010  -0.00863   0.01884   0.01021   3.11907
   D33       -3.07136  -0.00468  -0.05865  -0.00590  -0.06454  -3.13590
   D34       -0.05788   0.00506   0.04921   0.02979   0.07899   0.02111
[...]
 115559,0.0002232,-0.0015378,-0.0005015,-0.1391481,0.9654375,-0.018171,
 0.0218853,0.0488363,0.169083,-0.006894,0.020176,-0.0080501,-0.099209,-
 0.0021061,-0.0215456,0.0032384,0.0355115,0.0059314,-0.0028233,0.001649
 3,-0.0039932,-0.126167,-1.3680145,-0.0387908,-0.0226882,0.1311253,-0.0
 105213,-0.0024218,-0.0274418,-0.005891,-0.1826273,2.3296507,0.2641178,
 0.03503,-0.1566609,0.7915063,-0.0204707,0.046932,-0.0119985,0.1997771,
 0.0165232,-0.0764109,-0.0003212,-0.0654841,0.0159861,0.0016517,-0.0006
 14,0.0014443,0.1286474,0.0548461,0.0661565,-0.0035232,0.0515305,-0.048
 7501,0.0060607,-0.0031575,0.0063883,0.1371604,0.0325304,0.0210623,-0.0
 026948,0.066689,-0.0702947,0.0072904,-0.0038304,0.0063092,0.1346314,0.
 0435185,0.0346424,-0.0029201,0.0568633,-0.0584094,0.0064807,-0.0035782
 ,0.0060065,0.1401584,-0.0109184,-0.0688025,-0.0013017,-0.081903,-0.007
 4792,0.0022914,-0.0009492,0.0025675,0.1411829,-0.0654964,0.0307213,-0.
 0051489,0.0316728,0.0688101,0.0026339,-0.0051788,0.0026144,0.1426842,0
 .0376593,0.0368521,-0.0035222,0.0683834,-0.0340521,0.0070488,-0.004519
 5,0.0064605,0.160169,0.0122695,-0.0249177,-0.0005048,0.0946897,-0.2355
 167,0.0109145,-0.003877,0.0084929,0.0728727\Polar=184.7842083,5.696728
 ,105.844329,2.4012749,-1.1978366,58.1070649\Quadrupole=-7.7645872,8.29
 96952,-0.535108,-3.7554098,-0.0310704,-0.316915\PG=C01 [X(C9H8O1)]\NIm
 ag=0\\0.64159556,0.37015654,0.32472074,0.00157431,-0.00135878,0.024008
 97,-0.00469313,-0.00158001,0.00001776,0.67120600,-0.00176152,0.0013436
 9,-0.00016983,0.00226681,0.68632592,0.00001991,-0.00016732,-0.00323036
 ,0.01042782,-0.01403127,0.16393434,-0.00015033,-0.00038820,0.00000550,
 -0.13655396,0.01509793,-0.00176094,0.72290354,-0.00183626,-0.00072388,
 -0.00001061,0.07682048,-0.30240390,0.00780109,0.03640311,0.69348603,0.
 00004385,0.00002316,0.00020383,-0.00341339,0.00649313,-0.07074518,0.01
 113004,-0.01400297,0.14049729,0.00009231,0.00075779,-0.00002152,-0.210
 55346,-0.06305081,-0.00124864,0.06383235,-0.05269741,0.00259842,0.6901
 7093,0.00206690,0.00039981,0.00002927,-0.13194108,-0.23880447,0.001833
 32,-0.00232164,-0.05015168,0.00148353,-0.02754031,0.72477854,-0.000053
 92,0.00000497,-0.00005014,0.00058946,0.00326539,-0.06937772,0.00125186
 ,0.00042753,0.00695625,0.01216316,-0.01628830,0.14007085,-0.00062067,-
 0.00020378,-0.00000919,-0.00467770,0.09269288,-0.00273137,-0.34448744,
 0.00898361,-0.00606170,-0.07362778,-0.02040320,-0.00088334,0.68260133,
 -0.00056479,-0.00008779,-0.00000505,0.03574752,0.01482526,0.00051575,0
 .08571860,-0.14190750,0.00389220,-0.02152022,-0.00982839,-0.00031984,-
 0.02669582,0.73694210,-0.00000145,-0.00000102,0.00013447,-0.00118438,0
 .00171305,0.00663862,-0.00812847,0.00229270,-0.06318645,-0.00085049,-0
 .00029598,-0.00498997,0.01202945,-0.01657062,0.13788344,-0.00061953,-0
 .00032196,-0.00000782,-0.04710559,-0.06251728,0.00056007,-0.04368814,0
 .03945616,-0.00187378,-0.33523129,0.07963839,-0.00777542,0.06970750,-0
 .00052134,0.00132953,0.70415160,0.00072873,0.00046660,0.00000629,-0.00
 654466,0.05949046,-0.00155297,0.03884302,-0.03619664,0.00165866,0.0039
 0066,-0.13997590,0.00213658,-0.05673394,-0.05219699,0.00038861,0.03960
 272,0.71436442,-0.00003692,-0.00001394,0.00022811,-0.00093725,-0.00270
 320,0.00691960,-0.00185681,0.00166863,-0.00461810,-0.00574357,0.003702
 76,-0.06369648,0.00283880,0.00155875,0.00631467,0.01072130,-0.01466670
 ,0.13695987,0.00538654,0.00921571,-0.00021097,-0.23862971,0.03270730,-
 0.00434914,-0.01929839,0.02169436,-0.00110479,-0.04152724,-0.00365524,
 -0.00085608,0.00994036,0.00232485,0.00001091,0.00249118,-0.00615932,0.
 00005335,0.73478109,0.01331005,0.00372165,0.00022854,0.05435037,-0.118
 16988,0.00245314,0.03349864,-0.00144093,0.00087160,-0.02610776,0.00987
 499,-0.00064946,0.00199466,-0.00630550,0.00036992,-0.00429136,-0.00346
 113,0.00020814,0.11581154,0.71546461,-0.00032733,0.00014612,0.00241495
 ,-0.00496730,0.00200804,-0.07016564,-0.00140418,0.00061507,0.00509221,
 -0.00026467,-0.00018542,0.00562442,0.00002019,0.00038607,0.00614433,0.
 00000670,0.00016987,0.00751913,0.00852106,-0.01421005,0.14365458,-0.00
 073050,-0.00013333,-0.00000997,-0.00175774,-0.01703541,0.00058514,-0.0
 4756102,-0.00992551,-0.00086841,0.00205603,0.03849281,-0.00113142,-0.2
 2527508,-0.13984281,0.00038116,-0.15122819,0.09923172,-0.00448153,-0.0
 0177600,-0.00129493,0.00001274,0.74056251,0.00006655,-0.00010812,0.000
 00413,-0.01580519,-0.07595128,0.00150192,-0.06699556,0.06240839,-0.002
 88406,0.09661914,0.01186829,0.00187088,-0.06188738,-0.24157383,0.00346
 761,0.02132469,-0.32710669,0.00750948,-0.00192111,-0.00202463,0.000001
 11,-0.02063761,0.67181105,-0.00001635,0.00000081,-0.00001914,0.0005547
 7,0.00146464,-0.00800882,0.00066243,-0.00168941,0.00692129,-0.00268685
 ,0.00066580,0.00673725,-0.00170243,0.00185267,-0.06376431,-0.00239443,
 0.00912688,-0.06370247,0.00002239,0.00001461,-0.00047130,0.01307095,-0
 .01472934,0.13836281,-0.07698296,-0.01708339,-0.00147086,-0.04308398,-
 0.01687873,-0.00057200,0.00095526,-0.00659358,0.00022611,0.00227592,0.
 00826224,-0.00021327,-0.00182102,-0.00221202,0.00000925,-0.00294585,0.
 00181566,-0.00009867,-0.34324576,-0.19916253,0.00000344,-0.00085174,-0
 .00062305,-0.00000009,0.69066730,-0.03353845,0.02371117,-0.00073856,-0
 .00182049,0.01771193,-0.00027797,0.00475615,-0.00197574,0.00012882,0.0
 0412176,-0.00116569,0.00015412,-0.00273216,-0.00073733,-0.00001575,0.0
 0076982,0.00086233,-0.00001971,-0.19723065,-0.28888114,0.00288023,0.00
 108742,0.00125859,-0.00001425,0.12324915,0.76434478,-0.00099027,-0.000
 41239,0.02135363,-0.00101786,-0.00056966,0.00945793,-0.00009811,-0.000
 10033,-0.00072720,-0.00010324,0.00024012,0.00154583,0.00002778,-0.0000
 1350,0.00042955,-0.00006797,-0.00000278,-0.00053106,-0.00003435,0.0028
 5095,-0.05403030,-0.00004731,-0.00004629,-0.00007634,0.00800018,-0.016
 57342,0.11282276,-0.56429088,-0.31295398,-0.00091004,0.00886860,-0.001
 55925,-0.00004319,0.00029574,0.00267115,-0.00006536,-0.00168813,-0.002
 76852,0.00003741,0.00102861,0.00149197,-0.00001131,0.00088283,-0.00188
 070,0.00008568,-0.05293985,-0.01047157,-0.00078771,0.00141703,-0.00008
 788,0.00003011,-0.17274616,0.07424793,-0.00413649,0.83892981,-0.320497
 80,-0.32633588,0.00125959,-0.00393843,-0.00491550,0.00045740,0.0006476
 2,-0.00149430,0.00004314,-0.00124901,0.00170967,-0.00006881,-0.0002059
 9,-0.00009051,-0.00001090,-0.00008438,-0.00009376,-0.00002458,-0.02459
 321,0.01130388,-0.00077282,-0.00040401,0.00020530,-0.00001187,0.083785
 63,-0.14955296,0.00386946,0.20974495,0.73527252,-0.00069297,0.00141133
 ,-0.06314368,0.00001579,0.00050572,0.01342712,-0.00001341,0.00008721,-
 0.00031689,0.00000860,-0.00009992,0.00029583,0.00003603,0.00002749,-0.
 00025274,0.00003702,-0.00005365,-0.00094068,-0.00036598,-0.00049956,0.
 00148551,0.00003640,-0.00000939,0.00009986,-0.00442022,0.00367996,-0.0
 7438642,0.00694846,-0.01180812,0.18715236,0.00024490,0.00008145,0.0000
 0482,0.01071427,0.00655610,-0.00002935,-0.18175689,-0.13767971,0.00067
 615,0.00035555,0.00256214,-0.00020356,-0.01471271,-0.02472567,0.000263
 94,-0.00038880,0.00105163,-0.00000906,-0.00054993,-0.00089928,0.000093
 69,-0.00508041,0.00261960,-0.00034043,-0.00060091,0.00111015,-0.000040
 04,-0.00029226,-0.00006961,-0.00000135,0.18773378,-0.00010918,-0.00011
 117,-0.00000181,-0.02187528,-0.01637293,0.00008257,-0.13874256,-0.2133
 5645,0.00176673,0.00346887,-0.00447956,0.00037392,0.00661633,0.0086317
 5,0.00002515,0.00092017,-0.00010631,-0.00001324,-0.00164856,0.00070010
 ,-0.00015469,0.00202711,0.00102432,0.00022562,0.00022277,-0.00053552,0
 .00001801,0.00044350,0.00061930,-0.00001187,0.15080016,0.22259470,0.00
 001033,0.00000164,-0.00010166,0.00071503,0.00068134,0.00373720,0.00070
 603,0.00177914,-0.03826152,-0.00022484,0.00035890,0.00683941,-0.000571
 17,-0.00062690,0.00441288,-0.00000654,-0.00000991,-0.00131640,0.000123
 31,-0.00013609,-0.00382259,-0.00032489,0.00023789,0.00793558,-0.000017
 01,0.00002619,-0.00006182,-0.00001507,-0.00002071,-0.00017617,-0.00061
 426,-0.00212697,0.02468718,0.00020098,0.00010150,0.00000330,0.00908653
 ,-0.01930463,0.00062504,-0.00250112,-0.00347565,-0.00009520,-0.0826702
 3,0.07880222,-0.00304860,-0.00119239,-0.00057675,0.00001832,-0.0033447
 9,0.03008307,-0.00095587,0.00108457,-0.00219023,0.00018127,-0.00580822
 ,0.00057026,-0.00029168,0.00009428,0.00028703,-0.00001285,-0.00021295,
 -0.00001510,-0.00000894,0.00034469,-0.00110905,0.00003035,0.08551301,0
 .00002131,0.00006334,-0.00000425,0.00986373,-0.01772729,0.00078624,-0.
 00432660,-0.00160623,0.00012866,0.07811908,-0.30858093,0.00889203,-0.0
 0065522,0.00060621,-0.00006496,-0.00084366,-0.00222626,0.00014442,0.00
 227263,0.00025673,-0.00008411,0.00115087,0.00187168,0.00017462,-0.0005
 0471,0.00051046,-0.00001556,-0.00004647,-0.00014690,0.00001015,0.00058
 283,-0.00099124,0.00004712,-0.08478952,0.32703294,0.00000560,-0.000002
 68,-0.00010729,-0.00015691,0.00017878,0.00388302,-0.00007062,0.0001442
 2,0.00652135,-0.00303401,0.00890145,-0.03793461,0.00001961,-0.00006399
 ,-0.00130554,-0.00012626,0.00079004,0.00385687,0.00005975,-0.00017960,
 -0.00462019,-0.00030797,0.00016264,0.00747228,0.00001051,0.00000285,0.
 00031942,-0.00000751,0.00001086,0.00025359,-0.00001502,0.00001291,0.00
 033353,0.00351934,-0.00984762,0.02587632,0.00088795,0.00198520,-0.0000
 7374,-0.00409218,0.02925816,-0.00101711,-0.00568518,-0.00065457,-0.000
 15034,0.00107923,0.00239037,-0.00001023,0.00043875,0.00158260,-0.00002
 620,-0.00015170,-0.00031232,0.00000501,-0.06561620,0.04823748,-0.00188
 551,0.00003703,-0.00028768,0.00000417,0.00835598,-0.02507580,0.0007641
 8,-0.00125931,-0.00507609,0.00029756,0.00013959,0.00006146,0.00000138,
 -0.00096688,-0.00136324,0.00000844,0.07148462,-0.00060156,0.00039887,0
 .00002464,-0.00033535,-0.00721334,0.00032986,0.00111909,0.00109377,0.0
 0006249,-0.00190967,0.00084077,-0.00010366,-0.00028486,-0.00047775,-0.
 00000006,0.00030220,0.00015571,-0.00000083,0.04888589,-0.30841235,0.00
 868615,-0.00002849,0.00022989,-0.00000139,0.00280351,-0.01944438,0.000
 81235,0.00369286,-0.00006593,-0.00017608,-0.00015565,0.00007422,-0.000
 00602,0.00034466,0.00050644,0.00000485,-0.05023289,0.33211126,0.000004
 27,0.00007774,0.00166426,-0.00014715,0.00092193,0.00463909,-0.00019821
 ,0.00002016,0.00228259,0.00010356,-0.00001114,-0.00137346,0.00002799,0
 .00004272,-0.00019851,-0.00001225,-0.00001178,0.00000290,-0.00192272,0
 .00866383,-0.04225834,-0.00000337,-0.00001071,0.00017901,-0.00003073,0
 .00026405,0.00660830,0.00003789,-0.00035365,-0.00872569,0.00000790,-0.
 00000119,-0.00003782,-0.00003804,-0.00003453,0.00031778,0.00236081,-0.
 00984550,0.02683708,-0.00019597,-0.00008410,-0.00000122,-0.00563078,0.
 00053368,-0.00030583,-0.00396609,0.03025191,-0.00096243,-0.00134751,-0
 .00066430,0.00001641,-0.08311349,0.07918016,-0.00303744,-0.00242167,-0
 .00365962,-0.00010313,0.00035076,0.00153333,-0.00003547,0.01071077,-0.
 02111173,0.00071218,-0.00014282,0.00005704,-0.00000562,0.00022060,-0.0
 0005772,0.00000618,0.00057313,-0.00027019,0.00010979,0.00007198,0.0000
 7043,0.00001909,-0.00043723,0.00014970,-0.00000771,0.08444035,0.000180
 17,0.00005383,0.00000179,0.00100477,0.00191189,0.00019566,-0.00081265,
 -0.00231961,0.00013920,-0.00078044,0.00071720,-0.00006978,0.07950320,-
 0.31346116,0.00898138,-0.00413017,-0.00166823,0.00015285,-0.00029539,-
 0.00024415,0.00000242,0.00996234,-0.01624482,0.00073501,0.00023845,-0.
 00005635,0.00000727,-0.00027121,0.00006209,-0.00000762,0.00036653,0.00
 064591,-0.00012585,0.00006723,-0.00006776,-0.00002191,0.00009185,-0.00
 001504,-0.00000494,-0.08523557,0.33107897,-0.00000873,-0.00000335,-0.0
 0001092,-0.00032236,0.00018962,0.00850313,-0.00013104,0.00078112,0.003
 46986,0.00001826,-0.00006775,-0.00129629,-0.00304803,0.00897250,-0.039
 03495,-0.00008954,0.00016233,0.00726411,0.00001619,0.00003933,0.000034
 02,-0.00011664,0.00009317,0.00355199,-0.00001014,0.00000402,0.00004915
 ,0.00001240,-0.00000359,-0.00001945,0.00009285,-0.00013833,-0.00435337
 ,0.00001922,-0.00002204,-0.00093981,-0.00000572,-0.00000407,-0.0002662
 9,0.00348065,-0.00989971,0.02675111,-0.00029711,-0.00003495,-0.0000054
 8,-0.00464858,0.00285195,-0.00033951,-0.00039278,0.00118565,-0.0000137
 5,-0.01468204,-0.02476904,0.00029168,0.00071461,0.00252667,-0.00021137
 ,-0.18552877,-0.13898207,0.00067200,-0.00039271,-0.00143582,0.00002729
 ,0.01021285,0.00873177,-0.00009935,-0.00065575,0.00037261,-0.00002075,
 0.00032726,-0.00023684,0.00001522,0.00000042,-0.00010657,0.00002475,0.
 00053961,0.00040211,0.00008466,-0.00000959,0.00004262,-0.00000145,0.00
 034573,0.00050413,-0.00000695,0.19390779,-0.00006239,-0.00002156,0.,0.
 00209804,0.00122889,0.00022371,0.00123587,-0.00025229,-0.00000077,0.00
 651328,0.00870534,-0.00001081,0.00302730,-0.00473510,0.00039372,-0.139
 19846,-0.21151352,0.00174645,0.00038296,0.00032431,0.00000353,-0.02232
 144,-0.01565591,0.00005545,-0.00001374,-0.00007070,-0.00000223,0.00013
 855,-0.00000845,0.00000121,-0.00009182,0.00001159,-0.00003052,-0.00034
 722,0.00057534,-0.00013133,-0.00000011,-0.00000143,0.00000017,-0.00110
 207,-0.00091928,0.00000254,0.14933296,0.22174975,-0.00000479,0.0000005
 9,0.00002115,-0.00031871,0.00023802,0.00795032,-0.00001575,-0.00000098
 ,-0.00124850,-0.00054573,-0.00066173,0.00326436,-0.00022507,0.00038403
 ,0.00760685,0.00067717,0.00175165,-0.03836526,-0.00002147,-0.00003467,
 0.00015023,0.00073406,0.00070085,0.00371079,-0.00001048,0.00000528,-0.
 00014606,0.00000403,-0.00000627,-0.00005900,0.00002437,-0.00003067,-0.
 00105485,0.00010466,-0.00011582,-0.00404787,-0.00000026,0.00000116,0.0
 0000084,0.00003624,0.00003621,0.00003456,-0.00052228,-0.00213617,0.026
 20210,-0.00007989,-0.00003009,-0.00000009,0.00079177,-0.00057050,0.000
 04717,-0.00099880,-0.00391007,-0.00006533,0.00155357,0.00178117,-0.000
 17417,-0.01497067,0.00793718,-0.00060094,-0.00466012,-0.00118031,-0.00
 014733,-0.00007627,0.00008748,0.00002245,-0.32486625,0.05938159,-0.007
 52413,-0.00005992,-0.00005956,0.00000045,0.00010775,0.00003303,0.00000
 118,-0.00083778,0.00038583,-0.00002536,-0.00034136,-0.00010942,-0.0000
 0405,-0.00000546,0.00001935,-0.00000067,0.00054787,-0.00039034,0.00010
 055,0.00055208,0.00040879,0.00008448,0.34332192,0.00001888,0.00000743,
 -0.00000063,-0.00046720,-0.00147215,0.00000990,-0.00353681,-0.00299194
 ,0.00019822,0.00139440,-0.00551480,0.00038240,-0.02308299,0.00960043,-
 0.00063406,0.02985409,-0.00071125,0.00074464,0.00004409,0.00006768,-0.
 00003499,0.05935425,-0.07192493,0.00212307,-0.00001733,0.00001773,-0.0
 0000021,0.00000387,0.00002899,-0.00000072,-0.00117542,0.00025069,-0.00
 003431,0.00148749,-0.00024057,0.00003745,-0.00009787,0.00004230,-0.000
 00336,0.00042739,0.00055923,-0.00010762,-0.00041425,0.00056187,-0.0001
 3252,-0.06382708,0.07167155,-0.00000149,-0.00000170,-0.00003083,0.0000
 4216,0.00000666,-0.00074802,-0.00007374,0.00019071,0.00716337,-0.00016
 374,0.00039122,0.00765067,0.00022790,0.00000780,0.00378725,-0.00098019
 ,0.00010252,0.00395781,0.00002640,-0.00003475,-0.00128051,-0.00752196,
 0.00212271,-0.03884254,-0.00000098,-0.00000225,0.00002094,0.00000187,0
 .00000031,0.00000431,0.00001589,-0.00000187,-0.00011430,-0.00004694,0.
 00000427,-0.00000805,0.00000262,-0.00000018,-0.00000161,0.00007883,-0.
 00012417,-0.00379078,0.00010674,-0.00011511,-0.00405034,0.00829122,-0.
 00255218,0.02606943,0.00285801,-0.00434908,0.00022865,0.00044674,0.001
 32441,0.00008775,-0.00095381,-0.00104268,0.00001330,0.00004810,0.00006
 161,-0.00000125,0.00008941,0.00033125,0.00000069,0.00007687,0.00026296
 ,-0.00000533,0.00898250,-0.02555345,0.00082087,-0.00003247,0.00001174,
 0.00000007,-0.05771347,0.02301769,-0.00107020,0.00153902,0.03132587,-0
 .00096250,0.00409714,-0.00086000,0.00007558,0.00013544,0.00018887,-0.0
 0000480,-0.00357113,-0.00251762,-0.00020050,-0.00002420,-0.00000318,-0
 .00000127,0.00000823,0.00000011,-0.00000020,0.00003299,0.00004995,-0.0
 0000404,0.04851917,0.00042318,0.00244111,-0.00012722,0.00140220,-0.000
 45602,-0.00013221,0.00011151,-0.00021168,0.00000370,-0.00017454,-0.000
 09425,-0.00000198,-0.00000054,0.00053413,-0.00002943,0.00001567,-0.000
 05183,0.00000124,0.00341709,-0.01301689,0.00060323,0.00016168,-0.00003
 250,0.00000331,0.02381498,-0.33287804,0.00910986,-0.00350789,-0.010359
 98,0.00034699,-0.00085625,0.00128726,-0.00001519,0.00003559,0.00011599
 ,0.00000168,-0.00181982,-0.00065011,0.00027795,-0.00001325,-0.00001523
 ,0.00000141,-0.00001160,0.00001134,0.00000009,0.00003331,0.00003673,0.
 00000511,-0.02446403,0.35379534,0.00008883,-0.00022354,-0.00219629,0.0
 0009731,-0.00013415,-0.00588151,-0.00001184,-0.00001333,-0.00014069,-0
 .00000141,0.00000133,-0.00003444,0.00000489,-0.00002474,-0.00047226,0.
 00000537,0.00000218,0.00000207,-0.00004099,0.00002373,0.00537033,-0.00
 000311,0.00000519,-0.00004949,-0.00108535,0.00909983,-0.03856702,0.000
 05350,0.00104730,0.00393372,0.00007385,-0.00002003,0.00120147,-0.00000
 184,0.00000344,0.00013030,-0.00021998,0.00026018,0.01010907,-0.0000009
 9,0.00000168,0.00005266,0.00000002,0.00000014,0.00001924,-0.00000415,0
 .00000462,0.00017847,0.00122445,-0.01015768,0.02405959,-0.00260527,-0.
 04513532,0.00088654,0.00031291,-0.00061110,0.00004417,0.00000707,0.000
 34900,-0.00001339,-0.00013628,0.00000548,0.00000129,-0.00002163,-0.000
 18137,0.00000879,0.00000447,-0.00006721,-0.00000070,0.00103505,0.00258
 340,-0.00003756,-0.00002860,0.00003185,-0.00000133,-0.00149841,0.02738
 035,-0.00114753,-0.06018770,0.03089110,-0.00093707,0.00001621,-0.00022
 481,0.00000257,-0.00003315,-0.00003301,0.00000015,-0.00062831,-0.00129
 381,0.00002038,0.00001858,0.00000027,0.00000031,-0.00000127,-0.0000006
 3,-0.00000028,-0.00001144,-0.00001547,-0.00000054,-0.00453852,0.001432
 72,-0.00017857,0.06829630,-0.02800037,-0.02993986,0.00086250,0.0007537
 7,0.00064873,-0.00002882,-0.00030751,0.00004457,-0.00000544,0.00013518
 ,-0.00029892,0.00000481,0.00006789,0.00026198,-0.00000939,0.00002468,-
 0.00003101,0.00000485,-0.00125294,0.00024265,-0.00005976,0.00015534,-0
 .00005479,0.00000378,-0.00110329,-0.01311914,0.00082834,0.04111269,-0.
 25613759,0.00659686,-0.00007718,0.00011334,0.00000025,0.00002910,0.000
 04806,-0.00000059,0.00131327,0.00082710,0.00000826,-0.00000509,-0.0000
 1750,0.00000042,0.00004068,0.00000981,0.00000095,0.00000964,0.00001100
 ,0.00000093,0.00221560,-0.00045535,0.00012385,-0.01511145,0.29784692,0
 .00038710,0.00051837,0.01886095,0.00000519,-0.00005821,-0.00093311,0.0
 0000726,0.00001007,0.00013650,-0.00000330,0.00000255,-0.00023175,-0.00
 000035,-0.00001534,-0.00014733,-0.00000297,0.00000217,0.00014531,0.000
 07311,0.00002040,-0.00084082,-0.00000387,0.00000222,-0.00003646,-0.000
 31969,0.00139658,0.01591869,-0.00123468,0.00639325,-0.05863155,-0.0000
 0038,-0.00000424,0.00015325,-0.00000155,-0.00000206,-0.00000109,-0.000
 05510,-0.00004389,0.00022080,0.00000048,0.00000051,0.00000126,-0.00000
 148,0.,0.00001143,-0.00000127,0.00000029,0.00003473,-0.00020128,0.0001
 0914,0.00228477,0.00135277,-0.00833181,0.02305443\\-0.00000923,0.00000
 212,0.00000010,-0.00001123,0.00002654,-0.00000553,0.00002852,-0.000012
 37,0.00000920,-0.00001532,-0.00001060,-0.00000009,-0.00002934,-0.00001
 612,-0.00000317,0.00001538,-0.00001110,0.00000100,0.00001242,-0.000011
 47,0.00000755,0.00000521,0.00001934,-0.00000092,-0.00003868,0.00000508
 ,-0.00000689,0.00001741,0.00000280,-0.00000194,-0.00000487,0.00000145,
 -0.00000184,0.00000443,0.00000059,-0.00000085,0.00000630,0.00000446,-0
 .00000059,0.00000012,-0.00000074,0.00000051,0.00000106,-0.00000421,-0.
 00000046,-0.00000085,-0.00000516,0.00000093,0.00001507,0.00000522,0.00
 000112,0.00000361,0.00000417,0.00000188\\\@


 The mind is not a vessel to be filled but a fire to be kindled.
                                  -- Plutarch
 Job cpu time:       0 days  2 hours  0 minutes 28.6 seconds.
 Elapsed time:       0 days  0 hours  7 minutes 34.3 seconds.
 File lengths (MBytes):  RWF=    130 Int=      0 D2E=      0 Chk=      7 Scr=      1
 Normal termination of Gaussian 16 at Thu Sep 18 15:43:52 2025.
