 Entering Gaussian System, Link 0=g16
 Input=CCUN0025.gjf
 Output=CCUN0025.log
 Initial command:
 /usr/local/g16/l1.exe "/dados_01/scratch/Gau-2348318.inp" -scrdir="/dados_01/scratch/"
 Entering Link 1 = /usr/local/g16/l1.exe PID=   2348319.
  
 Copyright (c) 1988-2017, Gaussian, Inc.  All Rights Reserved.
  
 This is part of the Gaussian(R) 16 program.  It is based on
 the Gaussian(R) 09 system (copyright 2009, Gaussian, Inc.),
 the Gaussian(R) 03 system (copyright 2003, Gaussian, Inc.),
 the Gaussian(R) 98 system (copyright 1998, Gaussian, Inc.),
 the Gaussian(R) 94 system (copyright 1995, Gaussian, Inc.),
 the Gaussian 92(TM) system (copyright 1992, Gaussian, Inc.),
 the Gaussian 90(TM) system (copyright 1990, Gaussian, Inc.),
 the Gaussian 88(TM) system (copyright 1988, Gaussian, Inc.),
 the Gaussian 86(TM) system (copyright 1986, Carnegie Mellon
 University), and the Gaussian 82(TM) system (copyright 1983,
 Carnegie Mellon University). Gaussian is a federally registered
 trademark of Gaussian, Inc.
  
 This software contains proprietary and confidential information,
 including trade secrets, belonging to Gaussian, Inc.
  
 This software is provided under written license and may be
 used, copied, transmitted, or stored only in accord with that
 written license.
  
 The following legend is applicable only to US Government
 contracts under FAR:
  
                    RESTRICTED RIGHTS LEGEND
  
 Use, reproduction and disclosure by the US Government is
 subject to restrictions as set forth in subparagraphs (a)
 and (c) of the Commercial Computer Software - Restricted
 Rights clause in FAR 52.227-19.
  
 Gaussian, Inc.
 340 Quinnipiac St., Bldg. 40, Wallingford CT 06492
  
  
 ---------------------------------------------------------------
 Warning -- This program may not be used in any manner that
 competes with the business of Gaussian, Inc. or will provide
 assistance to any competitor of Gaussian, Inc.  The licensee
 of this program is prohibited from giving any competitor of
 Gaussian, Inc. access to this program.  By using this program,
 the user acknowledges that Gaussian, Inc. is engaged in the
 business of creating and licensing software in the field of
 computational chemistry and represents and warrants to the
 licensee that it is not a competitor of Gaussian, Inc. and that
 it will not use this program in any manner prohibited above.
 ---------------------------------------------------------------
  

 Cite this work as:
 Gaussian 16, Revision B.01,
 M. J. Frisch, G. W. Trucks, H. B. Schlegel, G. E. Scuseria, 
 M. A. Robb, J. R. Cheeseman, G. Scalmani, V. Barone, 
 G. A. Petersson, H. Nakatsuji, X. Li, M. Caricato, A. V. Marenich, 
 J. Bloino, B. G. Janesko, R. Gomperts, B. Mennucci, H. P. Hratchian, 
 J. V. Ortiz, A. F. Izmaylov, J. L. Sonnenberg, D. Williams-Young, 
 F. Ding, F. Lipparini, F. Egidi, J. Goings, B. Peng, A. Petrone, 
 T. Henderson, D. Ranasinghe, V. G. Zakrzewski, J. Gao, N. Rega, 
 G. Zheng, W. Liang, M. Hada, M. Ehara, K. Toyota, R. Fukuda, 
 J. Hasegawa, M. Ishida, T. Nakajima, Y. Honda, O. Kitao, H. Nakai, 
 T. Vreven, K. Throssell, J. A. Montgomery, Jr., J. E. Peralta, 
 F. Ogliaro, M. J. Bearpark, J. J. Heyd, E. N. Brothers, K. N. Kudin, 
 V. N. Staroverov, T. A. Keith, R. Kobayashi, J. Normand, 
 K. Raghavachari, A. P. Rendell, J. C. Burant, S. S. Iyengar, 
 J. Tomasi, M. Cossi, J. M. Millam, M. Klene, C. Adamo, R. Cammi, 
 J. W. Ochterski, R. L. Martin, K. Morokuma, O. Farkas, 
 J. B. Foresman, and D. J. Fox, Gaussian, Inc., Wallingford CT, 2016.
 
 ******************************************
 Gaussian 16:  ES64L-G16RevB.01 20-Dec-2017
                30-Sep-2025 
 ******************************************
 %nprocs=16
 Will use up to   16 processors via shared memory.
 %mem=40GB
 %chk=CCUN0025.chk
 ----------------------------------------------------------------------
 # opt freq=noraman M08HX/6-311++G** scf=xqc Empiricaldispersion=pfd In
 t(Grid=ultraFine)
 ----------------------------------------------------------------------
 1/18=20,19=15,26=4,38=1/1,3;
 2/9=110,12=2,17=6,18=5,40=1/2;
 3/5=4,6=6,7=1111,11=2,25=1,30=1,71=1,74=-74,75=-5,124=11/1,2,3;
 4//1;
 5/5=2,8=3,13=1,38=5/2,8;
 6/7=2,8=2,9=2,10=2,28=1/1;
 7//1,2,3,16;
 1/18=20,19=15,26=4/3(2);
 2/9=110/2;
 99//99;
 2/9=110/2;
 3/5=4,6=6,7=1111,11=2,25=1,30=1,71=1,74=-74,75=-5,124=11/1,2,3;
 4/5=5,16=3,69=1/1;
 5/5=2,8=3,13=1,38=5/2,8;
 7//1,2,3,16;
 1/18=20,19=15,26=4/3(-5);
 2/9=110/2;
 6/7=2,8=2,9=2,10=2,19=2,28=1/1;
 99/9=1/99;
 --------
 CCUN0025
 --------
 Symbolic Z-matrix:
 Charge =  0 Multiplicity = 1
 O                     7.4029   -1.3263    0.7759 
 O                    -7.3871   -1.1972   -1.0249 
 O                     6.3135   -3.3404   -0.7995 
 O                    -7.4431   -1.9508    1.6498 
 O                     2.0774    3.9183    0.0082 
 O                    -0.7337    2.0147   -1.5497 
 C                     4.2152    0.1624   -0.1618 
 C                    -4.1499    0.0187    0.1151 
 C                     0.0325    2.7881    0.6005 
 C                     5.4636    0.009     0.419 
 C                    -5.2198   -0.2584   -0.7203 
 C                     6.1754   -1.1716    0.2058 
 C                    -6.3336   -0.9225   -0.2061 
 C                     3.6591   -0.8321   -0.9499 
 C                    -4.1632   -0.35      1.4506 
 C                     3.4633    1.4098    0.0623 
 C                    -2.9736    0.7211   -0.4274 
 C                     5.6288   -2.1824   -0.5851 
 C                    -6.3619   -1.3004    1.1364 
 C                     1.475     2.8559    0.1393 
 C                    -0.9161    2.0663   -0.3361 
 C                     4.3707   -2.0125   -1.1631 
 C                    -5.2767   -1.014     1.9646 
 C                     2.1398    1.5414   -0.1041 
 C                    -2.0693    1.3763    0.3142 
 C                     7.8896   -0.246     1.5698 
 C                    -7.2788   -0.7771   -2.3836 
 H                    -0.3396    3.8125    0.7159 
 H                     0.0292    2.3169    1.5899 
 H                     5.8387    0.8262    1.0258 
 H                    -5.1448    0.0602   -1.7545 
 H                     2.6936   -0.7339   -1.4362 
 H                    -3.3333   -0.1676    2.1258 
 H                     4.0582    2.2679    0.3672 
 H                    -2.8704    0.6886   -1.5096 
 H                     3.9419   -2.7946   -1.7839 
 H                    -5.2841   -1.3074    3.0111 
 H                     1.4908    0.7093   -0.3479 
 H                    -2.1353    1.4686    1.3916 
 H                     7.1616   -3.2862   -0.3257 
 H                    -7.2855   -2.1323    2.5922 
 H                     7.2578   -0.0732    2.4478 
 H                     8.0337    0.6611    0.9731 
 H                     8.8763   -0.54      1.9427 
 H                    -6.4576   -1.286    -2.8996 
 H                    -7.2124    0.3132   -2.4653 
 H                    -8.2037   -1.0768   -2.8876 
 

 GradGradGradGradGradGradGradGradGradGradGradGradGradGradGradGradGradGrad
 Berny optimization.
 Initialization pass.
                           ----------------------------
                           !    Initial Parameters    !
                           ! (Angstroms and Degrees)  !
 --------------------------                            --------------------------
 ! Name  Definition              Value          Derivative Info.                !
 --------------------------------------------------------------------------------
 ! R1    R(1,12)                 1.3622         estimate D2E/DX2                !
 ! R2    R(1,26)                 1.4263         estimate D2E/DX2                !
 ! R3    R(2,13)                 1.3623         estimate D2E/DX2                !
 ! R4    R(2,27)                 1.4263         estimate D2E/DX2                !
 ! R5    R(3,18)                 1.3623         estimate D2E/DX2                !
 ! R6    R(3,40)                 0.973          estimate D2E/DX2                !
 ! R7    R(4,19)                 1.3622         estimate D2E/DX2                !
 ! R8    R(4,41)                 0.9726         estimate D2E/DX2                !
 ! R9    R(5,20)                 1.2283         estimate D2E/DX2                !
 ! R10   R(6,21)                 1.2283         estimate D2E/DX2                !
 ! R11   R(7,10)                 1.3854         estimate D2E/DX2                !
 ! R12   R(7,14)                 1.3854         estimate D2E/DX2                !
 ! R13   R(7,16)                 1.4736         estimate D2E/DX2                !
 ! R14   R(8,11)                 1.3854         estimate D2E/DX2                !
 ! R15   R(8,15)                 1.3855         estimate D2E/DX2                !
 ! R16   R(8,17)                 1.4736         estimate D2E/DX2                !
 ! R17   R(9,20)                 1.516          estimate D2E/DX2                !
 ! R18   R(9,21)                 1.5159         estimate D2E/DX2                !
 ! R19   R(9,28)                 1.096          estimate D2E/DX2                !
 ! R20   R(9,29)                 1.0959         estimate D2E/DX2                !
 ! R21   R(10,12)                1.395          estimate D2E/DX2                !
 ! R22   R(10,30)                1.0848         estimate D2E/DX2                !
 ! R23   R(11,13)                1.395          estimate D2E/DX2                !
 ! R24   R(11,31)                1.0848         estimate D2E/DX2                !
 ! R25   R(12,18)                1.395          estimate D2E/DX2                !
 ! R26   R(13,19)                1.395          estimate D2E/DX2                !
 ! R27   R(14,22)                1.3947         estimate D2E/DX2                !
 ! R28   R(14,32)                1.0855         estimate D2E/DX2                !
 ! R29   R(15,23)                1.3946         estimate D2E/DX2                !
 ! R30   R(15,33)                1.0853         estimate D2E/DX2                !
 ! R31   R(16,24)                1.3404         estimate D2E/DX2                !
 ! R32   R(16,34)                1.0878         estimate D2E/DX2                !
 ! R33   R(17,25)                1.3405         estimate D2E/DX2                !
 ! R34   R(17,35)                1.0876         estimate D2E/DX2                !
 ! R35   R(18,22)                1.3949         estimate D2E/DX2                !
 ! R36   R(19,23)                1.3948         estimate D2E/DX2                !
 ! R37   R(20,24)                1.493          estimate D2E/DX2                !
 ! R38   R(21,25)                1.4929         estimate D2E/DX2                !
 ! R39   R(22,36)                1.0867         estimate D2E/DX2                !
 ! R40   R(23,37)                1.0869         estimate D2E/DX2                !
 ! R41   R(24,38)                1.0831         estimate D2E/DX2                !
 ! R42   R(25,39)                1.0834         estimate D2E/DX2                !
 ! R43   R(26,42)                1.0954         estimate D2E/DX2                !
 ! R44   R(26,43)                1.0953         estimate D2E/DX2                !
 ! R45   R(26,44)                1.095          estimate D2E/DX2                !
 ! R46   R(27,45)                1.0953         estimate D2E/DX2                !
 ! R47   R(27,46)                1.0954         estimate D2E/DX2                !
 ! R48   R(27,47)                1.0951         estimate D2E/DX2                !
 ! A1    A(12,1,26)            117.028          estimate D2E/DX2                !
 ! A2    A(13,2,27)            117.0304         estimate D2E/DX2                !
 ! A3    A(18,3,40)            108.3075         estimate D2E/DX2                !
 ! A4    A(19,4,41)            109.007          estimate D2E/DX2                !
 ! A5    A(10,7,14)            121.3789         estimate D2E/DX2                !
 ! A6    A(10,7,16)            119.3242         estimate D2E/DX2                !
 ! A7    A(14,7,16)            119.2969         estimate D2E/DX2                !
 ! A8    A(11,8,15)            121.3717         estimate D2E/DX2                !
 ! A9    A(11,8,17)            119.3287         estimate D2E/DX2                !
 ! A10   A(15,8,17)            119.2995         estimate D2E/DX2                !
 ! A11   A(20,9,21)            115.3891         estimate D2E/DX2                !
 ! A12   A(20,9,28)            108.2578         estimate D2E/DX2                !
 ! A13   A(20,9,29)            107.2635         estimate D2E/DX2                !
 ! A14   A(21,9,28)            107.3164         estimate D2E/DX2                !
 ! A15   A(21,9,29)            110.5603         estimate D2E/DX2                !
 ! A16   A(28,9,29)            107.8067         estimate D2E/DX2                !
 ! A17   A(7,10,12)            119.3037         estimate D2E/DX2                !
 ! A18   A(7,10,30)            117.5605         estimate D2E/DX2                !
 ! A19   A(12,10,30)           123.1357         estimate D2E/DX2                !
 ! A20   A(8,11,13)            119.3109         estimate D2E/DX2                !
 ! A21   A(8,11,31)            117.565          estimate D2E/DX2                !
 ! A22   A(13,11,31)           123.124          estimate D2E/DX2                !
 ! A23   A(1,12,10)            119.4683         estimate D2E/DX2                !
 ! A24   A(1,12,18)            120.5346         estimate D2E/DX2                !
 ! A25   A(10,12,18)           119.9971         estimate D2E/DX2                !
 ! A26   A(2,13,11)            119.4661         estimate D2E/DX2                !
 ! A27   A(2,13,19)            120.5399         estimate D2E/DX2                !
 ! A28   A(11,13,19)           119.994          estimate D2E/DX2                !
 ! A29   A(7,14,22)            119.3207         estimate D2E/DX2                !
 ! A30   A(7,14,32)            123.1563         estimate D2E/DX2                !
 ! A31   A(22,14,32)           117.5095         estimate D2E/DX2                !
 ! A32   A(8,15,23)            119.3152         estimate D2E/DX2                !
 ! A33   A(8,15,33)            123.2026         estimate D2E/DX2                !
 ! A34   A(23,15,33)           117.4681         estimate D2E/DX2                !
 ! A35   A(7,16,24)            124.6133         estimate D2E/DX2                !
 ! A36   A(7,16,34)            115.5528         estimate D2E/DX2                !
 ! A37   A(24,16,34)           119.8255         estimate D2E/DX2                !
 ! A38   A(8,17,25)            124.5979         estimate D2E/DX2                !
 ! A39   A(8,17,35)            115.3302         estimate D2E/DX2                !
 ! A40   A(25,17,35)           120.0705         estimate D2E/DX2                !
 ! A41   A(3,18,12)            120.5463         estimate D2E/DX2                !
 ! A42   A(3,18,22)            119.449          estimate D2E/DX2                !
 ! A43   A(12,18,22)           120.0047         estimate D2E/DX2                !
 ! A44   A(4,19,13)            120.5417         estimate D2E/DX2                !
 ! A45   A(4,19,23)            119.457          estimate D2E/DX2                !
 ! A46   A(13,19,23)           120.0013         estimate D2E/DX2                !
 ! A47   A(5,20,9)             122.5352         estimate D2E/DX2                !
 ! A48   A(5,20,24)            121.7174         estimate D2E/DX2                !
 ! A49   A(9,20,24)            115.7165         estimate D2E/DX2                !
 ! A50   A(6,21,9)             122.5147         estimate D2E/DX2                !
 ! A51   A(6,21,25)            121.7123         estimate D2E/DX2                !
 ! A52   A(9,21,25)            115.7405         estimate D2E/DX2                !
 ! A53   A(14,22,18)           119.9949         estimate D2E/DX2                !
 ! A54   A(14,22,36)           119.6773         estimate D2E/DX2                !
 ! A55   A(18,22,36)           120.3273         estimate D2E/DX2                !
 ! A56   A(15,23,19)           120.0069         estimate D2E/DX2                !
 ! A57   A(15,23,37)           119.2636         estimate D2E/DX2                !
 ! A58   A(19,23,37)           120.7288         estimate D2E/DX2                !
 ! A59   A(16,24,20)           120.3885         estimate D2E/DX2                !
 ! A60   A(16,24,38)           122.9691         estimate D2E/DX2                !
 ! A61   A(20,24,38)           116.5064         estimate D2E/DX2                !
 ! A62   A(17,25,21)           120.3976         estimate D2E/DX2                !
 ! A63   A(17,25,39)           123.4162         estimate D2E/DX2                !
 ! A64   A(21,25,39)           116.1594         estimate D2E/DX2                !
 ! A65   A(1,26,42)            111.6431         estimate D2E/DX2                !
 ! A66   A(1,26,43)            111.6508         estimate D2E/DX2                !
 ! A67   A(1,26,44)            107.0785         estimate D2E/DX2                !
 ! A68   A(42,26,43)           112.4515         estimate D2E/DX2                !
 ! A69   A(42,26,44)           106.8051         estimate D2E/DX2                !
 ! A70   A(43,26,44)           106.818          estimate D2E/DX2                !
 ! A71   A(2,27,45)            111.6461         estimate D2E/DX2                !
 ! A72   A(2,27,46)            111.6437         estimate D2E/DX2                !
 ! A73   A(2,27,47)            107.0785         estimate D2E/DX2                !
 ! A74   A(45,27,46)           112.4512         estimate D2E/DX2                !
 ! A75   A(45,27,47)           106.8135         estimate D2E/DX2                !
 ! A76   A(46,27,47)           106.8144         estimate D2E/DX2                !
 ! D1    D(26,1,12,10)          -0.0448         estimate D2E/DX2                !
 ! D2    D(26,1,12,18)        -179.9998         estimate D2E/DX2                !
 ! D3    D(12,1,26,42)          63.4726         estimate D2E/DX2                !
 ! D4    D(12,1,26,43)         -63.3661         estimate D2E/DX2                !
 ! D5    D(12,1,26,44)        -179.9566         estimate D2E/DX2                !
 ! D6    D(27,2,13,11)          -0.0444         estimate D2E/DX2                !
 ! D7    D(27,2,13,19)         179.9977         estimate D2E/DX2                !
 ! D8    D(13,2,27,45)          63.4087         estimate D2E/DX2                !
 ! D9    D(13,2,27,46)         -63.4264         estimate D2E/DX2                !
 ! D10   D(13,2,27,47)         179.9912         estimate D2E/DX2                !
 ! D11   D(40,3,18,12)          -0.0317         estimate D2E/DX2                !
 ! D12   D(40,3,18,22)        -179.9799         estimate D2E/DX2                !
 ! D13   D(41,4,19,13)         179.9946         estimate D2E/DX2                !
 ! D14   D(41,4,19,23)           0.0613         estimate D2E/DX2                !
 ! D15   D(14,7,10,12)          -0.0046         estimate D2E/DX2                !
 ! D16   D(14,7,10,30)        -179.8892         estimate D2E/DX2                !
 ! D17   D(16,7,10,12)        -179.9547         estimate D2E/DX2                !
 ! D18   D(16,7,10,30)           0.1607         estimate D2E/DX2                !
 ! D19   D(10,7,14,22)           0.0049         estimate D2E/DX2                !
 ! D20   D(10,7,14,32)        -178.6248         estimate D2E/DX2                !
 ! D21   D(16,7,14,22)         179.9549         estimate D2E/DX2                !
 ! D22   D(16,7,14,32)           1.3252         estimate D2E/DX2                !
 ! D23   D(10,7,16,24)        -160.0449         estimate D2E/DX2                !
 ! D24   D(10,7,16,34)          21.0217         estimate D2E/DX2                !
 ! D25   D(14,7,16,24)          20.004          estimate D2E/DX2                !
 ! D26   D(14,7,16,34)        -158.9294         estimate D2E/DX2                !
 ! D27   D(15,8,11,13)          -0.0026         estimate D2E/DX2                !
 ! D28   D(15,8,11,31)         179.8631         estimate D2E/DX2                !
 ! D29   D(17,8,11,13)        -179.9536         estimate D2E/DX2                !
 ! D30   D(17,8,11,31)          -0.0878         estimate D2E/DX2                !
 ! D31   D(11,8,15,23)           0.0066         estimate D2E/DX2                !
 ! D32   D(11,8,15,33)         178.6051         estimate D2E/DX2                !
 ! D33   D(17,8,15,23)         179.9575         estimate D2E/DX2                !
 ! D34   D(17,8,15,33)          -1.4439         estimate D2E/DX2                !
 ! D35   D(11,8,17,25)         159.9551         estimate D2E/DX2                !
 ! D36   D(11,8,17,35)         -19.617          estimate D2E/DX2                !
 ! D37   D(15,8,17,25)         -19.9969         estimate D2E/DX2                !
 ! D38   D(15,8,17,35)         160.4311         estimate D2E/DX2                !
 ! D39   D(21,9,20,5)          123.6623         estimate D2E/DX2                !
 ! D40   D(21,9,20,24)         -58.3289         estimate D2E/DX2                !
 ! D41   D(28,9,20,5)            3.43           estimate D2E/DX2                !
 ! D42   D(28,9,20,24)        -178.5612         estimate D2E/DX2                !
 ! D43   D(29,9,20,5)         -112.6568         estimate D2E/DX2                !
 ! D44   D(29,9,20,24)          65.352          estimate D2E/DX2                !
 ! D45   D(20,9,21,6)          -28.3444         estimate D2E/DX2                !
 ! D46   D(20,9,21,25)         149.6141         estimate D2E/DX2                !
 ! D47   D(28,9,21,6)           92.4009         estimate D2E/DX2                !
 ! D48   D(28,9,21,25)         -89.6406         estimate D2E/DX2                !
 ! D49   D(29,9,21,6)         -150.2726         estimate D2E/DX2                !
 ! D50   D(29,9,21,25)          27.6858         estimate D2E/DX2                !
 ! D51   D(7,10,12,1)         -179.9629         estimate D2E/DX2                !
 ! D52   D(7,10,12,18)          -0.0076         estimate D2E/DX2                !
 ! D53   D(30,10,12,1)          -0.085          estimate D2E/DX2                !
 ! D54   D(30,10,12,18)        179.8702         estimate D2E/DX2                !
 ! D55   D(8,11,13,2)         -179.9653         estimate D2E/DX2                !
 ! D56   D(8,11,13,19)          -0.0072         estimate D2E/DX2                !
 ! D57   D(31,11,13,2)           0.1768         estimate D2E/DX2                !
 ! D58   D(31,11,13,19)       -179.8652         estimate D2E/DX2                !
 ! D59   D(1,12,18,3)            0.0264         estimate D2E/DX2                !
 ! D60   D(1,12,18,22)         179.9743         estimate D2E/DX2                !
 ! D61   D(10,12,18,3)        -179.9284         estimate D2E/DX2                !
 ! D62   D(10,12,18,22)          0.0195         estimate D2E/DX2                !
 ! D63   D(2,13,19,4)            0.0377         estimate D2E/DX2                !
 ! D64   D(2,13,19,23)         179.9707         estimate D2E/DX2                !
 ! D65   D(11,13,19,4)        -179.9199         estimate D2E/DX2                !
 ! D66   D(11,13,19,23)          0.0131         estimate D2E/DX2                !
 ! D67   D(7,14,22,18)           0.0071         estimate D2E/DX2                !
 ! D68   D(7,14,22,36)        -179.7293         estimate D2E/DX2                !
 ! D69   D(32,14,22,18)        178.7137         estimate D2E/DX2                !
 ! D70   D(32,14,22,36)         -1.0227         estimate D2E/DX2                !
 ! D71   D(8,15,23,19)          -0.0007         estimate D2E/DX2                !
 ! D72   D(8,15,23,37)         179.6863         estimate D2E/DX2                !
 ! D73   D(33,15,23,19)       -178.679          estimate D2E/DX2                !
 ! D74   D(33,15,23,37)          1.0079         estimate D2E/DX2                !
 ! D75   D(7,16,24,20)        -179.4803         estimate D2E/DX2                !
 ! D76   D(7,16,24,38)           4.9083         estimate D2E/DX2                !
 ! D77   D(34,16,24,20)         -0.5895         estimate D2E/DX2                !
 ! D78   D(34,16,24,38)       -176.201          estimate D2E/DX2                !
 ! D79   D(8,17,25,21)        -179.5087         estimate D2E/DX2                !
 ! D80   D(8,17,25,39)          -1.4659         estimate D2E/DX2                !
 ! D81   D(35,17,25,21)          0.0443         estimate D2E/DX2                !
 ! D82   D(35,17,25,39)        178.0871         estimate D2E/DX2                !
 ! D83   D(3,18,22,14)         179.9292         estimate D2E/DX2                !
 ! D84   D(3,18,22,36)          -0.3361         estimate D2E/DX2                !
 ! D85   D(12,18,22,14)         -0.0193         estimate D2E/DX2                !
 ! D86   D(12,18,22,36)        179.7154         estimate D2E/DX2                !
 ! D87   D(4,19,23,15)         179.9246         estimate D2E/DX2                !
 ! D88   D(4,19,23,37)           0.2423         estimate D2E/DX2                !
 ! D89   D(13,19,23,15)         -0.0091         estimate D2E/DX2                !
 ! D90   D(13,19,23,37)       -179.6914         estimate D2E/DX2                !
 ! D91   D(5,20,24,16)          27.3052         estimate D2E/DX2                !
 ! D92   D(5,20,24,38)        -156.8086         estimate D2E/DX2                !
 ! D93   D(9,20,24,16)        -150.7214         estimate D2E/DX2                !
 ! D94   D(9,20,24,38)          25.1648         estimate D2E/DX2                !
 ! D95   D(6,21,25,17)          -2.7265         estimate D2E/DX2                !
 ! D96   D(6,21,25,39)         179.0935         estimate D2E/DX2                !
 ! D97   D(9,21,25,17)         179.2971         estimate D2E/DX2                !
 ! D98   D(9,21,25,39)           1.1172         estimate D2E/DX2                !
 --------------------------------------------------------------------------------
 Trust Radius=3.00D-01 FncErr=1.00D-07 GrdErr=1.00D-06 EigMax=2.50D+02 EigMin=1.00D-04
 Number of steps in this run=    232 maximum allowed number of steps=    282.
 GradGradGradGradGradGradGradGradGradGradGradGradGradGradGradGradGradGrad

                          Input orientation:                          
 ---------------------------------------------------------------------
 Center     Atomic      Atomic             Coordinates (Angstroms)
 Number     Number       Type             X           Y           Z
 ---------------------------------------------------------------------
      1          8           0        7.402900   -1.326300    0.775900
      2          8           0       -7.387100   -1.197200   -1.024900
      3          8           0        6.313500   -3.340400   -0.799500
      4          8           0       -7.443100   -1.950800    1.649800
      5          8           0        2.077400    3.918300    0.008200
      6          8           0       -0.733700    2.014700   -1.549700
      7          6           0        4.215200    0.162400   -0.161800
      8          6           0       -4.149900    0.018700    0.115100
      9          6           0        0.032500    2.788100    0.600500
     10          6           0        5.463600    0.009000    0.419000
     11          6           0       -5.219800   -0.258400   -0.720300
     12          6           0        6.175400   -1.171600    0.205800
     13          6           0       -6.333600   -0.922500   -0.206100
     14          6           0        3.659100   -0.832100   -0.949900
     15          6           0       -4.163200   -0.350000    1.450600
     16          6           0        3.463300    1.409800    0.062300
     17          6           0       -2.973600    0.721100   -0.427400
     18          6           0        5.628800   -2.182400   -0.585100
     19          6           0       -6.361900   -1.300400    1.136400
     20          6           0        1.475000    2.855900    0.139300
     21          6           0       -0.916100    2.066300   -0.336100
     22          6           0        4.370700   -2.012500   -1.163100
     23          6           0       -5.276700   -1.014000    1.964600
     24          6           0        2.139800    1.541400   -0.104100
     25          6           0       -2.069300    1.376300    0.314200
     26          6           0        7.889600   -0.246000    1.569800
     27          6           0       -7.278800   -0.777100   -2.383600
     28          1           0       -0.339600    3.812500    0.715900
     29          1           0        0.029200    2.316900    1.589900
     30          1           0        5.838700    0.826200    1.025800
     31          1           0       -5.144800    0.060200   -1.754500
     32          1           0        2.693600   -0.733900   -1.436200
     33          1           0       -3.333300   -0.167600    2.125800
     34          1           0        4.058200    2.267900    0.367200
     35          1           0       -2.870400    0.688600   -1.509600
     36          1           0        3.941900   -2.794600   -1.783900
     37          1           0       -5.284100   -1.307400    3.011100
     38          1           0        1.490800    0.709300   -0.347900
     39          1           0       -2.135300    1.468600    1.391600
     40          1           0        7.161600   -3.286200   -0.325700
     41          1           0       -7.285500   -2.132300    2.592200
     42          1           0        7.257800   -0.073200    2.447800
     43          1           0        8.033700    0.661100    0.973100
     44          1           0        8.876300   -0.540000    1.942700
     45          1           0       -6.457600   -1.286000   -2.899600
     46          1           0       -7.212400    0.313200   -2.465300
     47          1           0       -8.203700   -1.076800   -2.887600
 ---------------------------------------------------------------------
                    Distance matrix (angstroms):
                    1          2          3          4          5
     1  O    0.000000
     2  O   14.899787   0.000000
     3  O    2.779438  13.869050   0.000000
     4  O   14.884805   2.779401  14.041870   0.000000
     5  O    7.513730  10.807978   8.443083  11.304031   0.000000
     6  O    9.098074   7.406716   8.882732   8.424847   3.735375
     7  C    3.641008  11.713531   4.132691  11.985970   4.325029
     8  C   11.649587   3.641082  11.027365   4.132723   7.348304
     9  C    8.442858   8.577587   8.886477   8.913069   2.410350
    10  C    2.381447  12.987696   3.664090  13.112536   5.188230
    11  C   12.755845   2.381452  11.938258   3.663967   8.439471
    12  C    1.362242  13.618248   2.394450  13.716991   6.537563
    13  C   13.777475   1.362261  12.889822   2.394317   9.706915
    14  C    4.151946  11.052486   3.655137  11.457259   5.097650
    15  C   11.626825   4.152033  11.125048   3.655131   7.697012
    16  C    4.849321  11.212031   5.606312  11.522298   2.866395
    17  C   10.644789   4.849316  10.143198   5.606268   5.993700
    18  C    2.394297  13.060540   1.362257  13.263596   7.083995
    19  C   13.769544   2.394348  12.983646   1.362202   9.986463
    20  C    7.282586   9.814265   7.917485  10.242972   1.228319
    21  C    9.052737   7.280022   9.039594   7.917236   3.536876
    22  C    3.663991  11.786843   2.381175  12.144220   6.465722
    23  C   12.739026   3.663941  12.140227   2.381172   9.068510
    24  C    6.057914   9.955382   6.460288  10.349087   2.380369
    25  C    9.861024   6.057647   9.682919   6.459965   4.873451
    26  C    1.426255  15.524652   4.203925  15.427392   7.318583
    27  C   15.027853   1.426281  13.922302   4.203913  10.738062
    28  H    9.292856   8.820132   9.885553   9.194972   2.520699
    29  H    8.264802   8.613221   8.786734   8.605354   3.043252
    30  H    2.672532  13.535926   4.573588  13.583347   4.974331
    31  H   12.875173   2.672317  11.990360   4.573354   8.375692
    32  H    5.236586  10.099719   4.505875  10.665689   4.910087
    33  H   10.882592   5.236438  10.568102   4.505201   7.103132
    34  H    4.926695  12.039093   6.156346  12.317564   2.603127
    35  H   10.715597   4.918511  10.053910   6.152871   6.100443
    36  H    4.548297  11.466212   2.625153  11.921431   7.193817
    37  H   12.882408   4.552367  12.375706   2.632182   9.514044
    38  H    6.352914   9.105503   6.313672   9.533179   3.281553
    39  H    9.958304   6.366111   9.965421   6.319154   5.065735
    40  H    2.261185  14.714533   0.972984  14.798079   8.824137
    41  H   14.822202   3.737398  14.067549   0.972573  11.443370
    42  H    2.094412  15.092916   4.702261  14.841787   6.979990
    43  H    2.094410  15.660343   4.702468  15.710229   6.856959
    44  H    2.037302  16.544991   4.682931  16.382886   8.357259
    45  H   14.339609   2.094363  13.104655   4.702149  10.410872
    46  H   15.059891   2.094416  14.109346   4.702443  10.267197
    47  H   16.032762   2.037396  14.840254   4.682989  11.791425
                    6          7          8          9         10
     6  O    0.000000
     7  C    5.463414   0.000000
     8  C    4.292551   8.370915   0.000000
     9  C    2.410098   4.997037   5.039609   0.000000
    10  C    6.804788   1.385411   9.618307   6.103539   0.000000
    11  C    5.097056   9.460878   1.385411   6.213882  10.747304
    12  C    7.808326   2.399389  10.394078   7.319169   1.394966
    13  C    6.464618  10.604534   2.399494   7.412583  11.850416
    14  C    5.268844   1.385417   7.927078   5.353673   2.416104
    15  C    5.133720   8.547513   1.385524   5.307941   9.688568
    16  C    4.536437   1.473629   7.739429   3.736276   2.467929
    17  C    2.819594   7.215368   1.473551   3.790212   8.509396
    18  C    7.682936   2.770476  10.047791   7.578264   2.416142
    19  C    7.062695  10.756400   2.770564   7.608638  11.919381
    20  C    2.904943   3.854128   6.299983   1.515951   4.908360
    21  C    1.228315   5.475898   3.854051   1.515934   6.745608
    22  C    6.513271   2.399369   8.852129   6.706417   2.789970
    23  C    6.493241   9.798044   2.399333   6.671157  10.899057
    24  C    3.251273   2.492440   6.475105   2.547830   3.697233
    25  C    2.380232   6.418339   2.492311   2.548080   7.656701
    26  C    9.444752   4.082456  12.129954   8.478168   2.697191
    27  C    7.164347  11.744407   4.082501   8.664330  13.070627
    28  H    2.918963   5.902524   5.410385   1.095979   6.944918
    29  H    3.245062   5.023238   4.992157   1.095880   6.019146
    30  H    7.158364   2.118201  10.062483   6.143443   1.084768
    31  H    4.829060   9.495090   2.118243   6.308082  10.828891
    32  H    4.394778   2.177778   7.057367   4.861490   3.415636
    33  H    5.002964   7.894420   2.178178   4.731946   8.962690
    34  H    5.167293   2.176608   8.514421   4.065870   2.660914
    35  H    2.515082   7.231817   2.173830   4.157794   8.581195
    36  H    6.711591   3.383748   8.774855   7.220479   3.876663
    37  H    7.248682  10.122465   3.381090   7.130943  11.133955
    38  H    2.845486   2.784975   5.701648   2.710629   4.106299
    39  H    3.303627   6.666938   2.791106   2.658247   7.798696
    40  H    9.588195   4.538830  11.792655   9.411644   3.781022
    41  H    8.790849  12.046421   4.538151   9.040483  13.109062
    42  H    9.176241   4.015337  11.644121   7.987773   2.709601
    43  H    9.223018   4.014678  12.230656   8.287470   2.708814
    44  H   10.539234   5.162184  13.165643   9.544137   3.777510
    45  H    6.743877  11.113149   4.014491   8.424392  12.442071
    46  H    6.760694  11.658426   4.015483   8.246989  13.003565
    47  H    8.194403  12.774767   5.162327   9.743679  14.103463
                   11         12         13         14         15
    11  C    0.000000
    12  C   11.469184   0.000000
    13  C    1.394984  12.518258   0.000000
    14  C    8.900377   2.789743  10.020752   0.000000
    15  C    2.416113  10.445631   2.789811   8.196536   0.000000
    16  C    8.876462   3.746959  10.074270   2.467590   7.949074
    17  C    2.467919   9.364158   3.746998   6.832141   2.467648
    18  C   11.018719   1.394995  12.034534   2.415804  10.167843
    19  C    2.416090  12.572450   1.394961  10.246580   2.415836
    20  C    7.433581   6.190229   8.681581   4.422442   6.617145
    21  C    4.906493   7.814539   6.188629   5.450681   4.424303
    22  C    9.759643   2.416183  10.802129   1.394695   9.078699
    23  C    2.789777  11.587442   2.416061   9.400847   1.394623
    24  C    7.601493   4.872625   8.824948   2.942304   6.761826
    25  C    3.697037   8.630100   4.872314   6.268137   2.942097
    26  C   13.307933   2.378174  14.349596   4.958783  12.053838
    27  C    2.697239  13.706791   2.378245  11.031599   4.958878
    28  H    6.515462   8.218679   7.694046   6.351126   5.699659
    29  H    6.286589   7.201468   7.362374   5.435344   4.970712
    30  H   11.247917   2.185628  12.358819   3.376982  10.079777
    31  H    1.084758  11.554524   2.185518   8.885507   3.377050
    32  H    7.959932   3.874361   9.112577   1.085505   7.449611
    33  H    3.415759   9.752425   3.874201   7.667799   1.085310
    34  H    9.677093   4.042121  10.885625   3.391760   8.695894
    35  H    2.653203   9.393053   4.035903   6.727567   3.393053
    36  H    9.565579   3.403169  10.563149   2.151032   9.062599
    37  H    3.876581  11.798656   3.405873   9.792663   2.146670
    38  H    6.790234   5.078370   7.994005   2.727608   6.026976
    39  H    4.117862   8.800256   5.088784   6.659648   2.724549
    40  H   12.752347   2.393035  13.701161   4.322006  11.833326
    41  H    4.330274  13.704513   3.193777  11.576755   3.772082
    42  H   12.874846   2.721146  13.874100   5.007089  11.467793
    43  H   13.392847   2.720444  14.502331   5.006466  12.248049
    44  H   14.348202   3.272705  15.365699   5.972573  13.050166
    45  H    2.708774  13.009584   2.720744  10.312855   5.006457
    46  H    2.709651  13.732174   2.720887  11.036198   5.007168
    47  H    3.777648  14.708386   3.272847  12.022503   5.972760
                   16         17         18         19         20
    16  C    0.000000
    17  C    6.492133   0.000000
    18  C    4.244104   9.080554   0.000000
    19  C   10.248582   4.244115  12.145714   0.000000
    20  C    2.459771   4.966746   6.569876   8.926704   0.000000
    21  C    4.446219   2.459920   7.806995   6.569601   2.562583
    22  C    3.746614   7.870995   1.394907  10.999249   5.812284
    23  C    9.267208   3.746532  11.260376   1.394847   7.993328
    24  C    1.340395   5.188861   5.125541   9.049507   1.493021
    25  C    5.538433   1.340528   8.528413   5.125149   3.844720
    26  C    4.960480  11.087525   3.674841  14.297022   7.267407
    27  C   11.231993   4.960450  13.107845   3.674908   9.807789
    28  H    4.545570   4.219223   8.558810   7.911173   2.130804
    29  H    3.866450   3.953844   7.505321   7.357763   2.117805
    30  H    2.628963   8.931935   3.419171  12.385043   4.893612
    31  H    8.900650   2.629086  11.066490   3.419045   7.431297
    32  H    2.726424   5.937328   3.382000   9.430868   4.105344
    33  H    7.275988   2.727270   9.577454   3.381504   6.017265
    34  H    1.087753   7.243631   4.814440  11.040965   2.659061
    35  H    6.565573   1.087595   9.018522   4.811238   5.128212
    36  H    4.616762   7.875556   2.158134  10.813375   6.458517
    37  H    9.622661   4.612646  11.523440   2.162453   8.441904
    38  H    2.133007   4.465123   5.053834   8.240567   2.201251
    39  H    5.754548   2.137818   8.804453   5.059312   4.065356
    40  H    5.990024  10.899132   1.906604  13.746497   8.383259
    41  H   11.596705   5.987684  13.299507   1.914275  10.375221
    42  H    4.721031  10.657356   4.037431  13.737613   6.881103
    43  H    4.720028  11.096200   4.036957  14.529537   6.966270
    44  H    6.052949  12.150221   4.430971  15.278451   8.340481
    45  H   10.698806   4.720008  12.338619   4.037160   9.450735
    46  H   11.025510   4.720894  13.215884   4.037239   9.419139
    47  H   12.288368   6.053014  14.066340   4.431117  10.876833
                   21         22         23         24         25
    21  C    0.000000
    22  C    6.728357   0.000000
    23  C    5.813459  10.190772   0.000000
    24  C    3.109320   4.327655   8.112587   0.000000
    25  C    1.492937   7.425630   4.327213   4.233055   0.000000
    26  C    9.301588   4.792903  13.194588   6.249555  10.167993
    27  C    7.263686  11.778229   4.792846   9.964015   6.249332
    28  H    2.118554   7.723224   7.016360   3.460884   3.014680
    29  H    2.160062   6.720962   6.275976   2.815256   2.629799
    30  H    7.001424   3.873567  11.305742   3.933198   7.958985
    31  H    4.890624   9.756566   3.873372   7.614668   3.933235
    32  H    4.699072   2.126515   8.670039   2.694100   5.495640
    33  H    4.110245   8.577420   2.125837   6.152069   2.695036
    34  H    5.027816   4.556457  10.023119   2.104800   6.192255
    35  H    2.663541   7.736248   4.556226   5.273026   2.107354
    36  H    7.023150   1.086712  10.109618   4.987002   7.611370
    37  H    6.454845  10.542119   1.086877   8.540165   4.981009
    38  H    2.763106   4.045562   7.356390   1.083065   3.682062
    39  H    2.197417   7.808494   4.044753   4.529779   1.083359
    40  H    9.690129   3.180043  12.849890   6.969455  10.361365
    41  H    8.171440  12.246780   2.383223  10.469116   6.686427
    42  H    8.896078   5.013465  12.579041   5.942479   9.677195
    43  H    9.153552   5.012889  13.451981   6.055852  10.149693
    44  H   10.386377   5.666982  14.160952   7.341801  11.230778
    45  H    6.965463  10.990692   5.012878   9.472291   6.055867
    46  H    6.873881  11.885824   5.013223   9.723548   5.941993
    47  H    8.336567  12.726546   5.667020  11.026823   7.341668
                   26         27         28         29         30
    26  C    0.000000
    27  C   15.684126   0.000000
    28  H    9.215221   8.878278   0.000000
    29  H    8.267693   8.875156   1.771076   0.000000
    30  H    2.377339  13.647834   6.869164   6.024175   0.000000
    31  H   13.455122   2.377140   6.578190   6.561096  11.355796
    32  H    6.022665  10.017395   5.873805   5.056055   4.288008
    33  H   11.236938   6.022719   5.176027   4.215013   9.291029
    34  H    4.737675  12.056803   4.674187   4.210729   2.383785
    35  H   11.230930   4.727171   4.595275   4.545981   9.071693
    36  H    5.772954  11.416394   8.260388   7.267681   4.960086
    37  H   13.294747   5.776057   7.478596   6.586844  11.498276
    38  H    6.747949   9.124656   3.756579   2.911309   4.561245
    39  H   10.172032   6.763941   3.029022   2.333237   8.008194
    40  H    3.655916  14.800530  10.380004   9.270134   4.526417
    41  H   15.326027   5.157053   9.333096   8.620024  13.544407
    42  H    1.095406  15.334622   8.707389   7.661673   2.201102
    43  H    1.095284  15.741935   8.950398   8.197203   2.201831
    44  H    1.095019  16.726038  10.265579   9.303630   3.454594
    45  H   15.063176   1.095265   8.746226   8.672662  13.079340
    46  H   15.641775   1.095371   8.342692   8.538163  13.519695
    47  H   16.719837   1.095115   9.936525   9.967239  14.701194
                   31         32         33         34         35
    31  H    0.000000
    32  H    7.884949   0.000000
    33  H    4.288374   7.023679   0.000000
    34  H    9.699008   3.758349   7.978634   0.000000
    35  H    2.372290   5.743430   3.763441   7.349970   0.000000
    36  H    9.524645   2.434262   8.666915   5.501787   7.656066
    37  H    4.959907   9.151561   2.426627  10.346572   5.499699
    38  H    6.814033   2.171164   5.491820   3.087417   4.513318
    39  H    4.575874   6.013795   2.156711   6.328327   3.092852
    40  H   12.833057   5.264073  11.219556   6.399940  10.855491
    41  H    5.318219  10.852003   4.438182  12.368990   6.653972
    42  H   13.095862   6.029420  10.596414   4.477397  10.900541
    43  H   13.471219   6.022244  11.455311   4.330534  11.183200
    44  H   14.512780   7.048428  12.216650   5.794876  12.304991
    45  H    2.201579   9.283901   6.022185  11.570836   4.324251
    46  H    2.200958  10.014205   6.029659  11.784326   4.461754
    47  H    3.454498  10.998877   7.048519  13.120020   5.784428
                   36         37         38         39         40
    36  H    0.000000
    37  H   10.503469   0.000000
    38  H    4.510798   7.826189   0.000000
    39  H    8.074097   4.499322   4.092798   0.000000
    40  H    3.568541  13.036308   6.937037  10.582513   0.000000
    41  H   12.068281   2.204890   9.682062   6.397850  14.783921
    42  H    6.025653  12.615063   6.456511   9.577214   4.245577
    43  H    6.023764  13.615882   6.675096  10.209592   4.246012
    44  H    6.581723  14.221368   7.832829  11.206851   3.953157
    45  H   10.567415   6.026104   8.583091   6.684646  14.003870
    46  H   11.599187   6.027905   8.965822   6.479782  14.971488
    47  H   12.316030   6.585735  10.179566   7.849592  15.733316
                   41         42         43         44         45
    41  H    0.000000
    42  H   14.689054   0.000000
    43  H   15.655748   1.820977   0.000000
    44  H   16.253032   1.758571   1.758619   0.000000
    45  H    5.617963  14.770842  15.125699  16.097605   0.000000
    46  H    5.618195  15.286417  15.632888  16.703433   1.820928
    47  H    5.655562  16.386937  16.780300  17.757994   1.758628
                   46         47
    46  H    0.000000
    47  H    1.758725   0.000000
 Stoichiometry    C21H20O6
 Framework group  C1[X(C21H20O6)]
 Deg. of freedom   135
 Full point group                 C1      NOp   1
 Largest Abelian subgroup         C1      NOp   1
 Largest concise Abelian subgroup C1      NOp   1
                         Standard orientation:                         
 ---------------------------------------------------------------------
 Center     Atomic      Atomic             Coordinates (Angstroms)
 Number     Number       Type             X           Y           Z
 ---------------------------------------------------------------------
      1          8           0        7.401293   -1.310257    0.697230
      2          8           0       -7.409365   -1.174664   -0.924395
      3          8           0        6.289077   -3.341696   -0.839489
      4          8           0       -7.434013   -1.894764    1.759989
      5          8           0        2.076276    3.934781   -0.070830
      6          8           0       -0.757095    2.017421   -1.570418
      7          6           0        4.205056    0.172878   -0.220006
      8          6           0       -4.156278    0.049010    0.160742
      9          6           0        0.036736    2.816054    0.560448
     10          6           0        5.460186    0.024285    0.347384
     11          6           0       -5.236812   -0.236384   -0.658013
     12          6           0        6.167194   -1.160271    0.140267
     13          6           0       -6.345437   -0.891844   -0.122007
     14          6           0        3.637567   -0.830275   -0.988783
     15          6           0       -4.153911   -0.302992    1.500804
     16          6           0        3.458205    1.424443   -0.002336
     17          6           0       -2.985434    0.742292   -0.404801
     18          6           0        5.609141   -2.179776   -0.631222
     19          6           0       -6.358000   -1.252929    1.225352
     20          6           0        1.473608    2.875279    0.080866
     21          6           0       -0.924547    2.084497   -0.355421
     22          6           0        4.344375   -2.014631   -1.195900
     23          6           0       -5.262239   -0.958355    2.036605
     24          6           0        2.133009    1.556549   -0.154200
     25          6           0       -2.070952    1.404912    0.317469
     26          6           0        7.899614   -0.221102    1.471582
     27          6           0       -7.316930   -0.771740   -2.289454
     28          1           0       -0.332076    3.842539    0.667583
     29          1           0        0.044685    2.357227    1.555620
     30          1           0        5.844153    0.848247    0.939311
     31          1           0       -5.173889    0.069157   -1.696948
     32          1           0        2.666371   -0.736253   -1.464451
     33          1           0       -3.315489   -0.113817    2.163495
     34          1           0        4.058337    2.285110    0.284544
     35          1           0       -2.895534    0.696107   -1.487690
     36          1           0        3.906605   -2.803565   -1.801607
     37          1           0       -5.257370   -1.238677    3.086699
     38          1           0        1.479576    0.722747   -0.379654
     39          1           0       -2.123606    1.510759    1.394358
     40          1           0        7.143004   -3.283256   -0.376789
     41          1           0       -7.265229   -2.064814    2.702588
     42          1           0        7.278910   -0.036138    2.355002
     43          1           0        8.038043    0.678208    0.861890
     44          1           0        8.890268   -0.512363    1.836053
     45          1           0       -6.503021   -1.288637   -2.809045
     46          1           0       -7.249567    0.317325   -2.385564
     47          1           0       -8.248464   -1.075887   -2.778347
 ---------------------------------------------------------------------
 Rotational constants (GHZ):           0.3175001           0.0504703           0.0469890
 Standard basis: 6-311++G(d,p) (5D, 7F)
 There are   761 symmetry adapted cartesian basis functions of A   symmetry.
 There are   734 symmetry adapted basis functions of A   symmetry.
   734 basis functions,  1152 primitive gaussians,   761 cartesian basis functions
    97 alpha electrons       97 beta electrons
       nuclear repulsion energy      2133.1211350468 Hartrees.
 NAtoms=   47 NActive=   47 NUniq=   47 SFac= 1.00D+00 NAtFMM=   60 NAOKFM=F Big=F
 Integral buffers will be    131072 words long.
 Raffenetti 2 integral format.
 Two-electron integral symmetry is turned on.
 R6APFD:  NTU= -4 IXU= 1 FactS= 1.050
 Nuclear repulsion after empirical dispersion term =     2133.0868831430 Hartrees.
 One-electron integrals computed using PRISM.
 NBasis=   734 RedAO= T EigKep=  1.29D-06  NBF=   734
 NBsUse=   729 1.00D-06 EigRej=  8.66D-07 NBFU=   729
 ExpMin= 3.60D-02 ExpMax= 8.59D+03 ExpMxC= 1.30D+03 IAcc=3 IRadAn=         5 AccDes= 0.00D+00
 Harris functional with IExCor= 1009 and IRadAn=       5 diagonalized for initial guess.
 HarFok:  IExCor= 1009 AccDes= 0.00D+00 IRadAn=         5 IDoV= 1 UseB2=F ITyADJ=14
 ICtDFT=  3500011 ScaDFX=  1.000000  1.000000  1.000000  1.000000
 FoFCou: FMM=F IPFlag=           0 FMFlag=      100000 FMFlg1=           0
         NFxFlg=           0 DoJE=T BraDBF=F KetDBF=T FulRan=T
         wScrn=  0.000000 ICntrl=       500 IOpCl=  0 I1Cent=   200000004 NGrid=           0
         NMat0=    1 NMatS0=      1 NMatT0=    0 NMatD0=    1 NMtDS0=    0 NMtDT0=    0
 Petite list used in FoFCou.
 Requested convergence on RMS density matrix=1.00D-08 within  32 cycles.
 Requested convergence on MAX density matrix=1.00D-06.
 Requested convergence on             energy=1.00D-06.
 No special actions if energy rises.
 SCF Done:  E(RM08HX) =  -1263.52031819     A.U. after   17 cycles
            NFock= 17  Conv=0.54D-08     -V/T= 2.0044
 QCSCF skips out because SCF is already converged.

 **********************************************************************

            Population analysis using the SCF Density.

 **********************************************************************

 Orbital symmetries:
       Occupied  (A) (A) (A) (A) (A) (A) (A) (A) (A) (A) (A) (A)
                 (A) (A) (A) (A) (A) (A) (A) (A) (A) (A) (A) (A)
                 (A) (A) (A) (A) (A) (A) (A) (A) (A) (A) (A) (A)
                 (A) (A) (A) (A) (A) (A) (A) (A) (A) (A) (A) (A)
                 (A) (A) (A) (A) (A) (A) (A) (A) (A) (A) (A) (A)
                 (A) (A) (A) (A) (A) (A) (A) (A) (A) (A) (A) (A)
                 (A) (A) (A) (A) (A) (A) (A) (A) (A) (A) (A) (A)
                 (A) (A) (A) (A) (A) (A) (A) (A) (A) (A) (A) (A)
                 (A)
       Virtual   (A) (A) (A) (A) (A) (A) (A) (A) (A) (A) (A) (A)
                 (A) (A) (A) (A) (A) (A) (A) (A) (A) (A) (A) (A)
                 (A) (A) (A) (A) (A) (A) (A) (A) (A) (A) (A) (A)
                 (A) (A) (A) (A) (A) (A) (A) (A) (A) (A) (A) (A)
                 (A) (A) (A) (A) (A) (A) (A) (A) (A) (A) (A) (A)
                 (A) (A) (A) (A) (A) (A) (A) (A) (A) (A) (A) (A)
                 (A) (A) (A) (A) (A) (A) (A) (A) (A) (A) (A) (A)
                 (A) (A) (A) (A) (A) (A) (A) (A) (A) (A) (A) (A)
                 (A) (A) (A) (A) (A) (A) (A) (A) (A) (A) (A) (A)
                 (A) (A) (A) (A) (A) (A) (A) (A) (A) (A) (A) (A)
                 (A) (A) (A) (A) (A) (A) (A) (A) (A) (A) (A) (A)
                 (A) (A) (A) (A) (A) (A) (A) (A) (A) (A) (A) (A)
                 (A) (A) (A) (A) (A) (A) (A) (A) (A) (A) (A) (A)
                 (A) (A) (A) (A) (A) (A) (A) (A) (A) (A) (A) (A)
                 (A) (A) (A) (A) (A) (A) (A) (A) (A) (A) (A) (A)
                 (A) (A) (A) (A) (A) (A) (A) (A) (A) (A) (A) (A)
                 (A) (A) (A) (A) (A) (A) (A) (A) (A) (A) (A) (A)
                 (A) (A) (A) (A) (A) (A) (A) (A) (A) (A) (A) (A)
                 (A) (A) (A) (A) (A) (A) (A) (A) (A) (A) (A) (A)
                 (A) (A) (A) (A) (A) (A) (A) (A) (A) (A) (A) (A)
                 (A) (A) (A) (A) (A) (A) (A) (A) (A) (A) (A) (A)
                 (A) (A) (A) (A) (A) (A) (A) (A) (A) (A) (A) (A)
                 (A) (A) (A) (A) (A) (A) (A) (A) (A) (A) (A) (A)
                 (A) (A) (A) (A) (A) (A) (A) (A) (A) (A) (A) (A)
                 (A) (A) (A) (A) (A) (A) (A) (A) (A) (A) (A) (A)
                 (A) (A) (A) (A) (A) (A) (A) (A) (A) (A) (A) (A)
                 (A) (A) (A) (A) (A) (A) (A) (A) (A) (A) (A) (A)
                 (A) (A) (A) (A) (A) (A) (A) (A) (A) (A) (A) (A)
                 (A) (A) (A) (A) (A) (A) (A) (A) (A) (A) (A) (A)
                 (A) (A) (A) (A) (A) (A) (A) (A) (A) (A) (A) (A)
                 (A) (A) (A) (A) (A) (A) (A) (A) (A) (A) (A) (A)
                 (A) (A) (A) (A) (A) (A) (A) (A) (A) (A) (A) (A)
                 (A) (A) (A) (A) (A) (A) (A) (A) (A) (A) (A) (A)
                 (A) (A) (A) (A) (A) (A) (A) (A) (A) (A) (A) (A)
                 (A) (A) (A) (A) (A) (A) (A) (A) (A) (A) (A) (A)
                 (A) (A) (A) (A) (A) (A) (A) (A) (A) (A) (A) (A)
                 (A) (A) (A) (A) (A) (A) (A) (A) (A) (A) (A) (A)
                 (A) (A) (A) (A) (A) (A) (A) (A) (A) (A) (A) (A)
                 (A) (A) (A) (A) (A) (A) (A) (A) (A) (A) (A) (A)
                 (A) (A) (A) (A) (A) (A) (A) (A) (A) (A) (A) (A)
                 (A) (A) (A) (A) (A) (A) (A) (A) (A) (A) (A) (A)
                 (A) (A) (A) (A) (A) (A) (A) (A) (A) (A) (A) (A)
                 (A) (A) (A) (A) (A) (A) (A) (A) (A) (A) (A) (A)
                 (A) (A) (A) (A) (A) (A) (A) (A) (A) (A) (A) (A)
                 (A) (A) (A) (A) (A) (A) (A) (A) (A) (A) (A) (A)
                 (A) (A) (A) (A) (A) (A) (A) (A) (A) (A) (A) (A)
                 (A) (A) (A) (A) (A) (A) (A) (A) (A) (A) (A) (A)
                 (A) (A) (A) (A) (A) (A) (A) (A) (A) (A) (A) (A)
                 (A) (A) (A) (A) (A) (A) (A) (A) (A) (A) (A) (A)
                 (A) (A) (A) (A) (A) (A) (A) (A) (A) (A) (A) (A)
                 (A) (A) (A) (A) (A) (A) (A) (A) (A) (A) (A) (A)
                 (A) (A) (A) (A) (A) (A) (A) (A) (A) (A) (A) (A)
                 (A) (A) (A) (A) (A) (A) (A) (A)
 The electronic state is 1-A.
 Alpha  occ. eigenvalues --  -19.66416 -19.65489 -19.65335 -19.64684 -19.60646
 Alpha  occ. eigenvalues --  -19.59996 -10.63662 -10.62833 -10.61746 -10.61436
 Alpha  occ. eigenvalues --  -10.60931 -10.60820 -10.60022 -10.59259 -10.56715
 Alpha  occ. eigenvalues --  -10.55741 -10.55626 -10.55598 -10.55320 -10.55095
 Alpha  occ. eigenvalues --  -10.55093 -10.54877 -10.54793 -10.54712 -10.54342
 Alpha  occ. eigenvalues --  -10.54039 -10.53879  -1.21654  -1.20945  -1.19003
 Alpha  occ. eigenvalues --   -1.18440  -1.16877  -1.15770  -0.99440  -0.98629
 Alpha  occ. eigenvalues --   -0.92537  -0.91655  -0.89093  -0.87652  -0.87133
 Alpha  occ. eigenvalues --   -0.86057  -0.84757  -0.81235  -0.80837  -0.76148
 Alpha  occ. eigenvalues --   -0.74099  -0.72650  -0.71438  -0.69544  -0.67455
 Alpha  occ. eigenvalues --   -0.65363  -0.65239  -0.63321  -0.62085  -0.61271
 Alpha  occ. eigenvalues --   -0.59424  -0.58958  -0.58452  -0.57563  -0.57379
 Alpha  occ. eigenvalues --   -0.56806  -0.56667  -0.54840  -0.54290  -0.53827
 Alpha  occ. eigenvalues --   -0.53400  -0.53027  -0.51645  -0.51080  -0.50964
 Alpha  occ. eigenvalues --   -0.50634  -0.50521  -0.49771  -0.48631  -0.48101
 Alpha  occ. eigenvalues --   -0.47616  -0.46369  -0.45901  -0.44981  -0.44713
 Alpha  occ. eigenvalues --   -0.44320  -0.44093  -0.43625  -0.43341  -0.43028
 Alpha  occ. eigenvalues --   -0.42070  -0.41909  -0.41325  -0.41176  -0.35837
 Alpha  occ. eigenvalues --   -0.34960  -0.34397  -0.32676  -0.31524  -0.30910
 Alpha  occ. eigenvalues --   -0.27620  -0.26981
 Alpha virt. eigenvalues --   -0.05944  -0.04417  -0.03869  -0.03302  -0.02875
 Alpha virt. eigenvalues --   -0.02699  -0.01951  -0.01527  -0.00817  -0.00675
 Alpha virt. eigenvalues --   -0.00629  -0.00282   0.00057   0.00299   0.00720
 Alpha virt. eigenvalues --    0.00970   0.01055   0.01541   0.01921   0.02146
 Alpha virt. eigenvalues --    0.02709   0.02744   0.03193   0.03351   0.03782
 Alpha virt. eigenvalues --    0.04117   0.04294   0.04360   0.04867   0.04887
 Alpha virt. eigenvalues --    0.05419   0.05622   0.06122   0.06281   0.07046
 Alpha virt. eigenvalues --    0.07485   0.07527   0.07861   0.07911   0.08173
 Alpha virt. eigenvalues --    0.08550   0.08894   0.09066   0.09343   0.09626
 Alpha virt. eigenvalues --    0.09853   0.10004   0.10164   0.10565   0.10803
 Alpha virt. eigenvalues --    0.11029   0.11120   0.11204   0.11365   0.11722
 Alpha virt. eigenvalues --    0.11921   0.12068   0.12390   0.12607   0.12924
 Alpha virt. eigenvalues --    0.13096   0.13191   0.13381   0.13542   0.13888
 Alpha virt. eigenvalues --    0.14212   0.14358   0.14701   0.14727   0.14792
 Alpha virt. eigenvalues --    0.14890   0.15212   0.15412   0.15495   0.16014
 Alpha virt. eigenvalues --    0.16369   0.16588   0.16824   0.17279   0.17426
 Alpha virt. eigenvalues --    0.17592   0.17990   0.18066   0.18588   0.18820
 Alpha virt. eigenvalues --    0.18860   0.19278   0.19491   0.19701   0.20018
 Alpha virt. eigenvalues --    0.20487   0.20612   0.20762   0.20905   0.21296
 Alpha virt. eigenvalues --    0.21474   0.21630   0.22260   0.22719   0.22850
 Alpha virt. eigenvalues --    0.23161   0.23465   0.23599   0.23957   0.24080
 Alpha virt. eigenvalues --    0.24377   0.24820   0.25395   0.25798   0.25908
 Alpha virt. eigenvalues --    0.26092   0.26285   0.26476   0.26739   0.27175
 Alpha virt. eigenvalues --    0.27399   0.27648   0.27778   0.28139   0.28527
 Alpha virt. eigenvalues --    0.28830   0.28842   0.29047   0.29333   0.29564
 Alpha virt. eigenvalues --    0.29812   0.30312   0.30712   0.30850   0.30973
 Alpha virt. eigenvalues --    0.31349   0.31726   0.32202   0.32361   0.32647
 Alpha virt. eigenvalues --    0.32755   0.32970   0.33350   0.33416   0.33615
 Alpha virt. eigenvalues --    0.33813   0.33978   0.34363   0.34865   0.35148
 Alpha virt. eigenvalues --    0.35751   0.36116   0.36414   0.36506   0.36867
 Alpha virt. eigenvalues --    0.37331   0.37546   0.37677   0.37983   0.38241
 Alpha virt. eigenvalues --    0.39006   0.39123   0.39741   0.39772   0.40437
 Alpha virt. eigenvalues --    0.40979   0.41435   0.41615   0.42029   0.43422
 Alpha virt. eigenvalues --    0.43630   0.43860   0.44805   0.45481   0.45981
 Alpha virt. eigenvalues --    0.46567   0.47134   0.47452   0.47529   0.48753
 Alpha virt. eigenvalues --    0.49500   0.50080   0.52147   0.52608   0.53483
 Alpha virt. eigenvalues --    0.54416   0.54678   0.55288   0.55996   0.56823
 Alpha virt. eigenvalues --    0.57009   0.57626   0.58228   0.58681   0.59329
 Alpha virt. eigenvalues --    0.59785   0.60106   0.60441   0.61189   0.61559
 Alpha virt. eigenvalues --    0.61901   0.62264   0.62724   0.63157   0.63476
 Alpha virt. eigenvalues --    0.63607   0.64163   0.64272   0.64746   0.65093
 Alpha virt. eigenvalues --    0.65227   0.65455   0.65751   0.65947   0.66659
 Alpha virt. eigenvalues --    0.66929   0.67352   0.68267   0.68828   0.69331
 Alpha virt. eigenvalues --    0.69674   0.69844   0.70353   0.70924   0.71219
 Alpha virt. eigenvalues --    0.71254   0.71790   0.72258   0.72476   0.73088
 Alpha virt. eigenvalues --    0.73379   0.73756   0.74326   0.74562   0.75599
 Alpha virt. eigenvalues --    0.76073   0.76481   0.76742   0.77090   0.77679
 Alpha virt. eigenvalues --    0.77790   0.78570   0.78839   0.79583   0.79831
 Alpha virt. eigenvalues --    0.80101   0.80315   0.81861   0.81928   0.82911
 Alpha virt. eigenvalues --    0.84489   0.85130   0.85386   0.86000   0.86656
 Alpha virt. eigenvalues --    0.87287   0.88073   0.88733   0.89633   0.90175
 Alpha virt. eigenvalues --    0.91588   0.91653   0.92514   0.92939   0.93906
 Alpha virt. eigenvalues --    0.94221   0.94650   0.94885   0.95588   0.95890
 Alpha virt. eigenvalues --    0.96457   0.96858   0.97396   0.98626   0.99281
 Alpha virt. eigenvalues --    1.00662   1.01315   1.01867   1.02037   1.02753
 Alpha virt. eigenvalues --    1.03279   1.03582   1.03962   1.04410   1.04762
 Alpha virt. eigenvalues --    1.05889   1.06933   1.07312   1.08093   1.08474
 Alpha virt. eigenvalues --    1.08987   1.09622   1.09887   1.11373   1.12726
 Alpha virt. eigenvalues --    1.13512   1.14232   1.14814   1.15267   1.16119
 Alpha virt. eigenvalues --    1.18184   1.18586   1.19273   1.19452   1.20993
 Alpha virt. eigenvalues --    1.21622   1.22375   1.23377   1.23478   1.24247
 Alpha virt. eigenvalues --    1.24651   1.25036   1.25776   1.26946   1.27898
 Alpha virt. eigenvalues --    1.28911   1.29535   1.30280   1.31133   1.31256
 Alpha virt. eigenvalues --    1.32083   1.32380   1.32898   1.33544   1.34658
 Alpha virt. eigenvalues --    1.34975   1.35839   1.41419   1.41861   1.42155
 Alpha virt. eigenvalues --    1.44194   1.44719   1.45395   1.46001   1.46466
 Alpha virt. eigenvalues --    1.47350   1.49385   1.51072   1.51939   1.52446
 Alpha virt. eigenvalues --    1.52945   1.53474   1.54391   1.55406   1.55768
 Alpha virt. eigenvalues --    1.56131   1.56280   1.57214   1.57757   1.58138
 Alpha virt. eigenvalues --    1.58508   1.59270   1.59908   1.60308   1.61000
 Alpha virt. eigenvalues --    1.61188   1.62524   1.63341   1.63976   1.64480
 Alpha virt. eigenvalues --    1.65176   1.65765   1.66771   1.67866   1.68267
 Alpha virt. eigenvalues --    1.68479   1.68989   1.69244   1.70144   1.70443
 Alpha virt. eigenvalues --    1.71006   1.72792   1.73099   1.73200   1.73475
 Alpha virt. eigenvalues --    1.74251   1.74828   1.75305   1.75670   1.76141
 Alpha virt. eigenvalues --    1.76453   1.77671   1.78154   1.79777   1.80587
 Alpha virt. eigenvalues --    1.81888   1.82347   1.83685   1.83875   1.84656
 Alpha virt. eigenvalues --    1.85797   1.86828   1.87782   1.88215   1.90250
 Alpha virt. eigenvalues --    1.90643   1.91107   1.92327   1.93417   1.94982
 Alpha virt. eigenvalues --    1.95155   1.95591   1.96557   1.97573   1.98226
 Alpha virt. eigenvalues --    1.98483   1.99328   1.99949   2.00793   2.01976
 Alpha virt. eigenvalues --    2.02241   2.03046   2.04513   2.05357   2.06170
 Alpha virt. eigenvalues --    2.07530   2.07703   2.09131   2.09367   2.10037
 Alpha virt. eigenvalues --    2.11095   2.11452   2.12169   2.13722   2.14553
 Alpha virt. eigenvalues --    2.14788   2.14996   2.16436   2.17117   2.18799
 Alpha virt. eigenvalues --    2.20422   2.21274   2.21613   2.22028   2.22808
 Alpha virt. eigenvalues --    2.23930   2.24500   2.25081   2.27726   2.30580
 Alpha virt. eigenvalues --    2.31163   2.31546   2.32514   2.34401   2.35713
 Alpha virt. eigenvalues --    2.36613   2.36977   2.38799   2.39430   2.40134
 Alpha virt. eigenvalues --    2.41226   2.45976   2.46283   2.46650   2.46964
 Alpha virt. eigenvalues --    2.47553   2.48226   2.49592   2.50388   2.52532
 Alpha virt. eigenvalues --    2.52993   2.54118   2.55614   2.60444   2.60976
 Alpha virt. eigenvalues --    2.61142   2.61230   2.62136   2.63506   2.64492
 Alpha virt. eigenvalues --    2.66688   2.68522   2.69786   2.70220   2.70467
 Alpha virt. eigenvalues --    2.70683   2.71371   2.71614   2.72127   2.72636
 Alpha virt. eigenvalues --    2.72850   2.73879   2.75066   2.75573   2.75910
 Alpha virt. eigenvalues --    2.76316   2.76382   2.77711   2.78591   2.79459
 Alpha virt. eigenvalues --    2.80564   2.81613   2.83898   2.84487   2.85385
 Alpha virt. eigenvalues --    2.85852   2.86230   2.86466   2.88416   2.90653
 Alpha virt. eigenvalues --    2.91877   2.92156   2.92363   2.93535   2.95166
 Alpha virt. eigenvalues --    2.97406   2.98436   2.98748   3.00921   3.02100
 Alpha virt. eigenvalues --    3.03883   3.04314   3.06217   3.08064   3.09025
 Alpha virt. eigenvalues --    3.10323   3.10999   3.12815   3.13127   3.13320
 Alpha virt. eigenvalues --    3.13785   3.14018   3.14334   3.15042   3.15583
 Alpha virt. eigenvalues --    3.16003   3.16946   3.17703   3.20151   3.20687
 Alpha virt. eigenvalues --    3.23090   3.24478   3.25304   3.28474   3.30017
 Alpha virt. eigenvalues --    3.31090   3.32030   3.32473   3.33260   3.34496
 Alpha virt. eigenvalues --    3.36325   3.38917   3.40417   3.42673   3.43938
 Alpha virt. eigenvalues --    3.47490   3.48121   3.49854   3.50452   3.52256
 Alpha virt. eigenvalues --    3.52565   3.57997   3.59486   3.60587   3.61059
 Alpha virt. eigenvalues --    3.62922   3.63789   3.65705   3.66769   3.74385
 Alpha virt. eigenvalues --    3.74780   3.76009   3.76435   3.78350   3.78514
 Alpha virt. eigenvalues --    3.81210   3.81950   3.83917   3.84551   3.89719
 Alpha virt. eigenvalues --    3.92823   3.96165   3.97551   3.99271   4.07942
 Alpha virt. eigenvalues --    4.10180   4.15851   4.16257   4.16661   4.22260
 Alpha virt. eigenvalues --    4.23360   4.24185   4.24350   4.28579   4.30796
 Alpha virt. eigenvalues --    4.31600   4.32250   4.41025   4.57856   4.61420
 Alpha virt. eigenvalues --    4.92721   4.93356   5.11122   5.11426   5.17161
 Alpha virt. eigenvalues --    5.17904   5.19937   5.21339   5.37769   5.38790
 Alpha virt. eigenvalues --    5.46967   5.49164   5.57415   5.60933   5.78496
 Alpha virt. eigenvalues --    5.80046   5.84827   5.88617   5.93603   5.93923
 Alpha virt. eigenvalues --   23.63894  23.64510  23.83354  23.84481  23.87090
 Alpha virt. eigenvalues --   23.91310  23.97054  23.97414  23.97698  23.98222
 Alpha virt. eigenvalues --   23.98503  24.00917  24.01492  24.10641  24.11560
 Alpha virt. eigenvalues --   24.13953  24.14834  24.23025  24.23943  24.27617
 Alpha virt. eigenvalues --   24.28607  49.92995  49.93081  50.00839  50.00956
 Alpha virt. eigenvalues --   50.02222  50.03265
          Condensed to atoms (all electrons):
               1          2          3          4          5          6
     1  O    8.211945   0.000000   0.029075  -0.000000   0.000001  -0.000000
     2  O    0.000000   8.119065  -0.000000   0.063219   0.000000  -0.000001
     3  O    0.029075  -0.000000   7.924783  -0.000000   0.000000   0.000000
     4  O   -0.000000   0.063219  -0.000000   7.927283   0.000000   0.000000
     5  O    0.000001   0.000000   0.000000   0.000000   7.825080   0.000666
     6  O   -0.000000  -0.000001   0.000000   0.000000   0.000666   7.846840
     7  C    0.108229  -0.000001  -0.055975  -0.000000   0.025949  -0.025165
     8  C    0.000000  -0.017198   0.000000  -0.011691  -0.002644  -0.035757
     9  C    0.000010  -0.000053   0.000027   0.000018   0.188944   0.246081
    10  C    0.582569  -0.000000   0.060552  -0.000000   0.003751  -0.010933
    11  C   -0.000000   0.959969   0.000000   0.143747   0.000380  -0.000035
    12  C    0.369658  -0.000000   0.297970   0.000000  -0.001365  -0.000168
    13  C   -0.000000   0.224777   0.000000  -0.628838   0.000020   0.000081
    14  C    0.044487   0.000000  -0.041856   0.000000   0.014420   0.011940
    15  C   -0.000000  -0.019070   0.000000  -0.012216   0.000729   0.030006
    16  C    0.016169   0.000000  -0.003462   0.000001   0.083392   0.003868
    17  C    0.000002   0.019175   0.000001  -0.005574   0.003442   0.018418
    18  C   -1.141541   0.000000   0.327523   0.000000   0.000608   0.000243
    19  C    0.000000  -1.313884  -0.000000   0.195904   0.000013   0.000362
    20  C    0.000963   0.000001   0.000160   0.000006   0.557333  -0.162694
    21  C    0.000041   0.000798  -0.000020   0.000415  -0.193924  -0.086618
    22  C   -0.133192   0.000000  -0.564195  -0.000000   0.000989   0.002852
    23  C   -0.000000   0.012325   0.000000   0.324582   0.000045   0.002685
    24  C   -0.000177  -0.000008  -0.000261   0.000002  -0.307823   0.121910
    25  C   -0.000015   0.002383   0.000005   0.003451   0.013597   0.223322
    26  C    0.165003  -0.000000   0.004437  -0.000000  -0.000072  -0.000005
    27  C   -0.000000   0.161247   0.000000   0.003174  -0.000000  -0.000002
    28  H    0.000003   0.000003   0.000001   0.000002  -0.002775  -0.009558
    29  H   -0.000012  -0.000000   0.000005  -0.000002  -0.001920   0.014107
    30  H   -0.034053   0.000000  -0.001395  -0.000000   0.004380   0.000060
    31  H    0.000000  -0.031632   0.000000  -0.000357  -0.000003  -0.000201
    32  H    0.000980  -0.000001   0.003897   0.000000   0.000388  -0.000485
    33  H    0.000000  -0.001369   0.000000  -0.001941  -0.000049  -0.000362
    34  H    0.000829   0.000000   0.000099   0.000000  -0.018174  -0.000514
    35  H    0.000000   0.000114   0.000000   0.000110  -0.000190   0.004594
    36  H   -0.002223  -0.000000  -0.027960  -0.000000  -0.000003  -0.000126
    37  H   -0.000000   0.002525   0.000000  -0.006678  -0.000002  -0.000002
    38  H   -0.000173   0.000005  -0.000798  -0.000006  -0.016266  -0.010876
    39  H   -0.000001   0.000131  -0.000001  -0.000337   0.001677   0.002903
    40  H    0.022643   0.000000   0.262257   0.000000  -0.000001   0.000000
    41  H    0.000000  -0.009119   0.000000   0.202693   0.000000  -0.000002
    42  H   -0.042758  -0.000000   0.000697   0.000000  -0.000016  -0.000000
    43  H   -0.041854  -0.000000   0.000681  -0.000000  -0.000018   0.000001
    44  H   -0.065459  -0.000000  -0.000151  -0.000000  -0.000002  -0.000000
    45  H    0.000000  -0.029872   0.000000  -0.000092   0.000000  -0.000034
    46  H   -0.000000  -0.031975  -0.000000   0.000293  -0.000000   0.000076
    47  H   -0.000000  -0.077686   0.000000  -0.001456   0.000000  -0.000001
               7          8          9         10         11         12
     1  O    0.108229   0.000000   0.000010   0.582569  -0.000000   0.369658
     2  O   -0.000001  -0.017198  -0.000053  -0.000000   0.959969  -0.000000
     3  O   -0.055975   0.000000   0.000027   0.060552   0.000000   0.297970
     4  O   -0.000000  -0.011691   0.000018  -0.000000   0.143747   0.000000
     5  O    0.025949  -0.002644   0.188944   0.003751   0.000380  -0.001365
     6  O   -0.025165  -0.035757   0.246081  -0.010933  -0.000035  -0.000168
     7  C   25.589593   0.044934  -0.700782   4.402305  -0.011715  -7.899967
     8  C    0.044934  28.051773  -1.215662   0.012478  -3.490503   0.001775
     9  C   -0.700782  -1.215662  17.708138  -0.713676   0.034241  -0.050054
    10  C    4.402305   0.012478  -0.713676  27.331205  -0.002480   0.103384
    11  C   -0.011715  -3.490503   0.034241  -0.002480  43.143565   0.000136
    12  C   -7.899967   0.001775  -0.050054   0.103384   0.000136  29.729208
    13  C   -0.000341  -8.761533   0.049646  -0.000229  -1.281871  -0.000000
    14  C   -4.540201  -0.010440   0.354063  -2.417558   0.005821   1.369635
    15  C   -0.017977  -2.682507   0.231426  -0.003668 -10.618036  -0.000520
    16  C    1.973492   0.074145  -0.068179  -7.122923   0.027600  -5.774437
    17  C   -0.047424  -1.452746   0.379540  -0.021057  -3.261205  -0.004305
    18  C   -0.728586   0.000335   0.005756  -9.118135   0.000404  -3.679196
    19  C    0.000021   1.913719   0.009754   0.000043 -20.171882  -0.000003
    20  C   -0.114294   0.380771  -4.500817   0.019983  -0.062399  -0.075562
    21  C    0.081640   4.237877  -8.028568   0.310933  -0.852590  -0.003328
    22  C   -3.606912  -0.002829   0.012225  -2.115950   0.000558  -6.491787
    23  C   -0.011302  -3.478159   0.036782  -0.001418   3.561320  -0.000021
    24  C   -9.053461  -0.313486  -1.018896  -5.014142  -0.028684  -1.437571
    25  C   -0.071698  -7.245220   3.383391  -0.166064  -3.191100   0.007232
    26  C   -0.764378   0.000013  -0.004075  -0.463134  -0.000002   0.739543
    27  C   -0.000019  -1.074948   0.000039  -0.000002  -0.250246   0.000000
    28  H   -0.024292   0.028492   0.480133  -0.002338   0.012454  -0.000950
    29  H   -0.042919  -0.049116   0.634235  -0.015932  -0.003998  -0.000076
    30  H    0.106189  -0.000244   0.020564   0.400572   0.000007  -0.156329
    31  H   -0.000190  -0.018056  -0.004649   0.000030   0.420594   0.000009
    32  H   -0.325412   0.007393   0.023394  -0.006864   0.007896   0.250493
    33  H    0.005018  -0.376594  -0.026176   0.002023  -0.149056   0.000111
    34  H   -0.153375   0.001979  -0.075214   0.151439   0.000146   0.035574
    35  H    0.003592  -0.036767  -0.000800   0.000162  -0.080100  -0.000316
    36  H    0.095739  -0.000155  -0.001396   0.037008  -0.000419  -0.200757
    37  H   -0.000078   0.094694  -0.000634  -0.000030   0.106427  -0.000001
    38  H   -0.195233   0.005529  -0.262197  -0.120775  -0.030029  -0.119281
    39  H   -0.009773  -0.075855  -0.016451  -0.006687  -0.013374   0.000079
    40  H   -0.014974   0.000002  -0.000027  -0.029007   0.000000  -0.367323
    41  H   -0.000002  -0.010005  -0.000041   0.000000   0.034380   0.000000
    42  H   -0.019054   0.000002  -0.000598   0.032130   0.000000   0.036305
    43  H   -0.025355   0.000000   0.000172  -0.005311  -0.000000   0.085708
    44  H   -0.059390   0.000000  -0.000145  -0.128914  -0.000000   0.094578
    45  H    0.000013   0.047047  -0.000040   0.000002   0.028067  -0.000000
    46  H   -0.000009  -0.100562   0.000172  -0.000001   0.198309  -0.000000
    47  H   -0.000000  -0.055253   0.000037  -0.000000  -0.224090   0.000000
              13         14         15         16         17         18
     1  O   -0.000000   0.044487  -0.000000   0.016169   0.000002  -1.141541
     2  O    0.224777   0.000000  -0.019070   0.000000   0.019175   0.000000
     3  O    0.000000  -0.041856   0.000000  -0.003462   0.000001   0.327523
     4  O   -0.628838   0.000000  -0.012216   0.000001  -0.005574   0.000000
     5  O    0.000020   0.014420   0.000729   0.083392   0.003442   0.000608
     6  O    0.000081   0.011940   0.030006   0.003868   0.018418   0.000243
     7  C   -0.000341  -4.540201  -0.017977   1.973492  -0.047424  -0.728586
     8  C   -8.761533  -0.010440  -2.682507   0.074145  -1.452746   0.000335
     9  C    0.049646   0.354063   0.231426  -0.068179   0.379540   0.005756
    10  C   -0.000229  -2.417558  -0.003668  -7.122923  -0.021057  -9.118135
    11  C   -1.281871   0.005821 -10.618036   0.027600  -3.261205   0.000404
    12  C   -0.000000   1.369635  -0.000520  -5.774437  -0.004305  -3.679196
    13  C   31.846603  -0.000264   1.023908   0.000068  -3.582957  -0.000007
    14  C   -0.000264  14.770292   0.007227   0.442840   0.046903  -4.479119
    15  C    1.023908   0.007227  28.683919  -0.040106  -0.403950   0.000071
    16  C    0.000068   0.442840  -0.040106  16.124412  -0.007225   0.171390
    17  C   -3.582957   0.046903  -0.403950  -0.007225  18.650661   0.004473
    18  C   -0.000007  -4.479119   0.000071   0.171390   0.004473  22.019312
    19  C   -5.910509  -0.000157   0.569670  -0.001607   0.038649  -0.000009
    20  C   -0.010034  -0.614842  -0.276349  -1.601022  -1.862598  -0.122574
    21  C   -0.195591  -0.118255  -1.605652  -0.261646  -5.636269   0.001492
    22  C    0.000235   0.852387   0.004944  -0.473587   0.035899   2.917203
    23  C   -6.441191   0.005521  -8.604008   0.003125   0.171768   0.000260
    24  C    0.007594   0.407017   0.094129   2.254603   0.341987   0.187748
    25  C   -0.782704   0.204949   0.566807   0.504083   3.156111   0.010040
    26  C   -0.000000   0.098109  -0.000007  -0.469135  -0.000046   0.223109
    27  C    0.779597   0.000008  -0.049507   0.000072  -0.375157   0.000000
    28  H    0.001022  -0.005679  -0.004393  -0.039346   0.008567  -0.000589
    29  H    0.002854  -0.001369   0.023018  -0.059358  -0.058744  -0.000749
    30  H   -0.000000   0.145080   0.000267  -0.090888   0.001682   0.020531
    31  H    0.000325   0.000058   0.118997  -0.000422  -0.121399  -0.000007
    32  H    0.001170   0.757512  -0.003208  -0.011001  -0.000550  -0.127096
    33  H    0.107473  -0.001122   0.992062  -0.001522  -0.065375  -0.000253
    34  H    0.000006  -0.047141  -0.001704   0.301037  -0.011493  -0.029704
    35  H   -0.001270  -0.002617   0.085791  -0.004608   0.357458  -0.000003
    36  H   -0.000028  -0.023095   0.000248  -0.038602  -0.000631  -0.130275
    37  H   -0.059907   0.000015  -0.037016   0.000131   0.000618   0.000007
    38  H   -0.005946  -0.300896  -0.036108  -0.004470  -0.070662   0.082792
    39  H   -0.044508   0.007667  -0.337505   0.018584   0.115205   0.000562
    40  H   -0.000000   0.015747  -0.000001  -0.009214  -0.000002   0.199869
    41  H    0.362065   0.000001  -0.099375   0.000001   0.000032   0.000000
    42  H    0.000000   0.010952  -0.000004  -0.001257  -0.000010  -0.063422
    43  H   -0.000000   0.002074  -0.000000  -0.016195  -0.000001  -0.041865
    44  H   -0.000000  -0.003569  -0.000000  -0.026261  -0.000002   0.123728
    45  H   -0.014293  -0.000011   0.022642  -0.000021  -0.020222  -0.000000
    46  H   -0.014263   0.000007  -0.027132   0.000023   0.021647   0.000000
    47  H    0.156788  -0.000000   0.002026   0.000001  -0.027511  -0.000000
              19         20         21         22         23         24
     1  O    0.000000   0.000963   0.000041  -0.133192  -0.000000  -0.000177
     2  O   -1.313884   0.000001   0.000798   0.000000   0.012325  -0.000008
     3  O   -0.000000   0.000160  -0.000020  -0.564195   0.000000  -0.000261
     4  O    0.195904   0.000006   0.000415  -0.000000   0.324582   0.000002
     5  O    0.000013   0.557333  -0.193924   0.000989   0.000045  -0.307823
     6  O    0.000362  -0.162694  -0.086618   0.002852   0.002685   0.121910
     7  C    0.000021  -0.114294   0.081640  -3.606912  -0.011302  -9.053461
     8  C    1.913719   0.380771   4.237877  -0.002829  -3.478159  -0.313486
     9  C    0.009754  -4.500817  -8.028568   0.012225   0.036782  -1.018896
    10  C    0.000043   0.019983   0.310933  -2.115950  -0.001418  -5.014142
    11  C  -20.171882  -0.062399  -0.852590   0.000558   3.561320  -0.028684
    12  C   -0.000003  -0.075562  -0.003328  -6.491787  -0.000021  -1.437571
    13  C   -5.910509  -0.010034  -0.195591   0.000235  -6.441191   0.007594
    14  C   -0.000157  -0.614842  -0.118255   0.852387   0.005521   0.407017
    15  C    0.569670  -0.276349  -1.605652   0.004944  -8.604008   0.094129
    16  C   -0.001607  -1.601022  -0.261646  -0.473587   0.003125   2.254603
    17  C    0.038649  -1.862598  -5.636269   0.035899   0.171768   0.341987
    18  C   -0.000009  -0.122574   0.001492   2.917203   0.000260   0.187748
[...]
 0.00000148,0.00000944,-0.00000081,-0.00000065,-0.00000037,-0.00000054,
 0.00000261,-0.00019134,0.00007611,0.00007050,0.00000552,-0.00000035,-0
 .00000214,-0.00240469,0.00117549,-0.00008056,-0.00989781,0.00131651,0.
 00308082,0.33930999,-0.04407710,-0.00718605,0.00547365,0.00000120,0.00
 000089,0.00000198,0.00035213,0.00001974,-0.00001823,0.00000391,0.00000
 039,-0.00000025,0.00001864,0.00002198,-0.00000259,0.00000604,0.0000025
 2,-0.00000175,-0.00036144,0.00037719,0.00010053,0.00000237,-0.00000012
 ,-0.00000048,0.00000734,0.00000249,-0.00000095,0.00077218,-0.00105925,
 -0.00041886,-0.00000010,0.00000041,-0.00000047,0.00017145,-0.00545702,
 -0.00118424,-0.00000021,-0.00000114,-0.00000258,0.00005851,0.00021329,
 0.00005536,-0.00000043,0.00000053,0.00000070,-0.00001413,-0.00009655,-
 0.00002227,-0.00000345,-0.00000169,-0.00000168,-0.00213370,0.00033090,
 0.00032657,-0.00000336,-0.00000013,0.00000038,-0.00001292,-0.00002960,
 -0.00000169,-0.00001105,-0.00000475,0.00000013,0.00031433,-0.00055147,
 -0.00017784,0.00000105,0.00000052,0.00000058,-0.00003009,0.00004616,0.
 00001297,0.00000673,0.00000175,0.00000312,0.03630266,-0.04833171,-0.00
 545761,0.00000016,-0.00000012,-0.00000067,-0.00000031,-0.00000004,0.00
 000012,-0.00000064,0.00000005,-0.00000039,0.00021458,0.00073941,0.0002
 2284,-0.00000026,-0.00000002,-0.00000007,0.00000849,0.00005098,0.00001
 429,-0.00000006,0.00000022,-0.00000003,-0.00002358,0.00003269,0.000012
 97,-0.00000033,-0.00000012,0.00000004,-0.00014661,-0.00003192,0.000024
 62,0.00000014,-0.00000003,-0.00000008,0.00001139,0.00000147,-0.0000030
 8,0.00000038,0.00000039,0.00000019,-0.00021569,-0.00008312,-0.00001794
 ,-0.00000059,0.00000006,0.00000031,0.00844292,0.00020488,0.00037956,0.
 01784290,0.00030553,-0.00511416,-0.01750336,0.06048035,-0.00656993,-0.
 00060032,0.00077646,0.00000165,0.00000071,0.00000074,0.00001227,0.0000
 6636,-0.00012959,0.00000688,0.00000113,-0.00000097,0.00000789,-0.00002
 072,-0.00000134,0.00001264,-0.00000171,-0.00000622,-0.00003649,0.00006
 631,0.00014084,0.00000344,0.00000009,-0.00000029,0.00000541,-0.0000006
 7,0.00000053,0.00021187,-0.00030319,0.00033487,-0.00000063,-0.00000144
 ,-0.00000118,-0.00036455,-0.00093434,0.00028311,0.00000045,-0.00000079
 ,-0.00000329,0.00003128,0.00004217,-0.00001094,-0.00000071,0.00000101,
 0.00000055,-0.00000904,-0.00000991,0.00004750,-0.00000630,-0.00000188,
 -0.00000219,-0.00022226,-0.00008904,0.00046889,-0.00000599,-0.00000054
 ,0.00000060,-0.00002699,0.00003125,0.00000808,-0.00001923,-0.00000097,
 0.00000428,0.00004092,-0.00006144,-0.00007477,0.00000169,0.00000022,0.
 00000191,0.00002503,-0.00001054,-0.00000578,0.00001057,0.00000535,0.00
 000388,0.04902914,-0.00320936,-0.05830553,-0.00000070,-0.00000016,0.00
 000030,0.00000205,-0.00000077,-0.00000002,0.00000004,0.00000005,0.0000
 0041,-0.00005021,0.00027663,-0.00040909,-0.00000037,-0.00000016,-0.000
 00019,0.00000111,0.00001834,-0.00002088,-0.00000043,-0.00000032,0.0000
 0045,-0.00000719,0.00000898,-0.00001151,-0.00000064,-0.00000018,-0.000
 00022,-0.00002572,0.00000571,-0.00003915,0.00000044,0.00000004,-0.0000
 0033,0.00000022,0.00000056,-0.00000248,0.00000005,0.00000020,-0.000000
 54,0.00000870,-0.00006219,0.00014447,-0.00000103,-0.00000020,0.0000006
 5,0.02895701,-0.00221742,-0.00270010,-0.02116184,0.00120627,0.00479880
 ,-0.04986040,0.00579675,0.05470894,0.00001500,0.00000231,-0.00000238,-
 0.00946601,0.00991819,0.00828205,0.00002370,-0.00002312,-0.00000965,-0
 .00026442,-0.00015871,0.00004813,0.00003922,-0.00000078,-0.00001306,0.
 00012941,-0.00002364,-0.00010106,0.00000922,-0.00001089,-0.00000151,0.
 00007170,0.00014101,-0.00036480,0.00005409,0.00001806,0.00001070,-0.00
 000729,-0.00000401,0.00000102,0.00012094,-0.00003615,0.00073041,-0.000
 01341,-0.00001526,-0.00000205,-0.00094908,-0.00204796,-0.00265468,-0.0
 0000076,0.00000536,-0.00000087,0.00011609,0.00022606,0.00029015,-0.000
 03319,0.00001440,0.00001151,-0.00013091,-0.00003949,0.00003191,-0.0000
 1768,0.00002200,0.00000840,0.00030488,0.00030420,0.00037309,-0.0000948
 7,0.00002612,0.00003549,-0.00026393,-0.00001645,0.00008100,0.00001233,
 0.00000351,-0.00000190,0.00003869,-0.00008886,-0.00011357,0.00005548,-
 0.00001971,-0.00002074,0.00022688,0.00005800,0.00005951,-0.00000240,-0
 .00000282,0.00000033,-0.16987159,0.12064971,-0.03320229,0.00000306,-0.
 00000730,-0.00000287,0.00000064,0.00000120,-0.00000365,-0.00000194,0.0
 0000034,0.00000071,-0.00012897,-0.00126445,-0.00058329,-0.00000080,0.0
 0000428,0.00000133,0.00001381,-0.00004758,0.00000256,-0.00000103,0.000
 00075,-0.00000106,0.00000551,-0.00000292,0.00000127,0.00000064,-0.0000
 0151,0.00000055,0.00000374,0.00003183,0.00004167,-0.00000528,0.0000046
 1,-0.00000100,-0.00001257,-0.00000529,-0.00001036,-0.00000373,0.000001
 47,0.00000157,0.00008760,0.00006630,-0.00001997,-0.00000047,0.00000079
 ,-0.00000061,-0.00000050,0.00000065,0.00000084,0.00000108,-0.00000007,
 -0.00000004,0.18345310,0.00001773,0.00000764,-0.00000064,0.00353598,-0
 .00155112,-0.00710583,0.00001184,-0.00000801,-0.00000227,-0.00024226,0
 .00002022,0.00010162,0.00001103,0.00001727,-0.00000151,0.00000917,0.00
 003629,0.00004722,0.00000299,-0.00000200,0.00000018,-0.00050594,0.0000
 0831,-0.00015230,0.00001580,0.00000644,0.00001161,0.00000018,-0.000000
 50,0.00000057,0.00071599,-0.00006280,-0.00023899,-0.00001406,-0.000006
 38,0.00000017,0.00223185,0.00127500,0.00296714,-0.00000310,-0.00000051
 ,0.00000147,-0.00036035,-0.00001810,0.00021403,-0.00000575,0.00000328,
 0.00000278,0.00008463,-0.00001726,-0.00009339,-0.00000892,0.00001014,0
 .00000346,0.00009279,-0.00032525,-0.00096166,-0.00002088,-0.00001227,0
 .00000531,-0.00001054,-0.00003356,-0.00004779,0.00000366,0.00000122,0.
 00000134,0.00038298,0.00021333,0.00028636,0.00000604,-0.00000557,-0.00
 000017,-0.00004155,0.00001455,0.00002373,-0.00000391,-0.00000730,-0.00
 000140,0.12029836,-0.17253960,0.03262978,0.00000219,0.00000012,-0.0000
 0005,0.00000156,-0.00000055,-0.00000119,-0.00000035,0.00000075,-0.0000
 0030,-0.00102590,-0.00130209,-0.00032845,0.00000013,0.00000005,-0.0000
 0274,-0.00002938,-0.00000039,0.00006600,0.00000063,0.00000032,-0.00000
 116,-0.00005628,-0.00003219,0.00000881,-0.00000178,0.00000099,-0.00000
 113,-0.00000755,-0.00001841,-0.00000562,-0.00000224,0.00000198,-0.0000
 0318,0.00001294,0.00000482,0.00002007,-0.00000344,0.00000021,-0.000000
 33,-0.00004042,-0.00002534,0.00000073,-0.00000066,0.00000090,0.0000004
 8,-0.00000058,0.00000072,0.00000028,0.00000113,-0.00000010,-0.00000028
 ,-0.13388326,0.18074535,-0.00001208,-0.00000529,0.00000040,0.02600868,
 -0.02657478,-0.00487231,-0.00000827,0.00000574,0.00000141,-0.00024479,
 -0.00009882,0.00003468,-0.00001412,-0.00001182,0.00000373,-0.00004080,
 0.00000115,0.00002537,-0.00000182,0.00000152,-0.00000001,-0.00016640,0
 .00006422,-0.00103254,-0.00001793,-0.00000379,-0.00000807,0.00000061,0
 .00000105,-0.00000060,-0.00125503,0.00036305,0.00089031,0.00000960,0.0
 0000509,-0.00000002,0.00396969,0.00102181,0.00548251,0.00000017,0.0000
 0019,-0.00000080,-0.00080252,0.00004883,0.00041305,0.00000661,-0.00000
 257,-0.00000210,0.00012684,-0.00001958,0.00000964,0.00000565,-0.000007
 25,-0.00000178,0.00037053,0.00026481,-0.00164466,0.00002750,0.00000458
 ,-0.00001140,0.00009620,0.00001041,-0.00002121,-0.00000251,0.00000013,
 -0.00000153,0.00079339,0.00045677,0.00028408,-0.00000964,0.00000388,0.
 00000334,-0.00011704,-0.00003016,-0.00003169,0.00000273,0.00000490,0.0
 0000101,-0.03764083,0.03696810,-0.05972363,-0.00000228,0.00000095,0.00
 000069,-0.00000185,-0.00000029,0.00000158,0.00000047,-0.00000052,0.000
 00006,-0.00045975,-0.00162952,-0.00045022,0.00000004,-0.00000073,0.000
 00189,0.00000668,-0.00008163,0.00002602,0.00000005,-0.00000029,0.00000
 046,0.00000599,0.00000223,0.00001080,0.00000083,-0.00000052,0.00000106
 ,0.00001554,-0.00007707,0.00001779,0.00000187,-0.00000221,0.00000252,0
 .00000082,0.00000036,-0.00000185,0.00000249,0.,0.00000028,-0.00008822,
 -0.00005555,-0.00003313,0.00000051,-0.00000062,-0.00000032,0.00000046,
 -0.00000051,-0.00000023,-0.00000085,0.00000018,0.00000017,0.03012527,-
 0.03150373,0.06293010,0.00002362,0.00000774,-0.00000268,-0.00705605,-0
 .00817810,0.01375799,0.00002534,-0.00002200,-0.00000945,-0.00032946,0.
 00003606,0.00001141,0.00004245,0.00001381,-0.00001413,0.00012847,-0.00
 001358,-0.00007911,0.00000849,-0.00000920,-0.00000345,-0.00000045,-0.0
 0029226,-0.00010452,0.00005774,0.00001711,0.00001474,-0.00000590,-0.00
 000364,0.00000142,0.00039022,0.00054051,0.00021830,-0.00001979,-0.0000
 1646,-0.00000110,-0.00085372,-0.00051007,-0.00259555,-0.00000118,0.000
 00387,-0.00000006,0.00010782,0.00009336,0.00033376,-0.00003112,0.00001
 350,0.00001159,-0.00011561,-0.00001229,-0.00001409,-0.00001833,0.00002
 287,0.00000846,0.00025736,0.00014537,0.00021220,-0.00009712,0.00001198
 ,0.00003733,-0.00025977,-0.00003071,0.00006264,0.00001148,0.00000298,-
 0.00000148,0.00004588,0.00003519,-0.00008946,0.00005053,-0.00001930,-0
 .00001919,0.00020939,0.00007065,0.00006242,-0.00000455,-0.00000786,-0.
 00000017,-0.08784472,-0.08044499,0.03796264,0.00000446,-0.00000660,-0.
 00000214,0.00000114,0.00000099,-0.00000410,-0.00000182,0.00000076,0.00
 000072,-0.00077122,0.00044077,-0.00131687,-0.00000033,0.00000348,0.000
 00047,-0.00001144,0.00003531,-0.00000559,-0.00000051,0.00000083,-0.000
 00119,-0.00001832,0.00000925,-0.00000620,-0.00000032,-0.00000092,0.000
 00041,0.00000561,-0.00000087,0.00004754,-0.00000539,0.00000550,-0.0000
 0145,-0.00000787,-0.00000043,-0.00000403,-0.00000508,0.00000070,0.0000
 0156,0.00009605,-0.00002175,0.00001881,-0.00000078,0.00000121,-0.00000
 024,-0.00000094,0.00000114,0.00000071,0.00000167,-0.00000019,-0.000000
 13,0.00975664,0.01800321,-0.01004648,0.09325873,-0.00000580,-0.0000006
 8,-0.00000069,0.00572115,0.01541818,-0.00645873,-0.00000734,0.00000730
 ,0.00000031,-0.00011476,0.00003964,-0.00009738,-0.00000315,0.00000423,
 -0.00000382,0.00000287,-0.00000968,-0.00005705,-0.00000141,0.00000234,
 0.00000034,0.00036600,-0.00041839,-0.00049271,-0.00000322,-0.00000790,
 -0.00000752,0.00000135,0.00000133,-0.00000160,-0.00120285,0.00003282,0
 .00108731,0.00000530,0.00000373,0.00000031,0.00026069,0.00127740,-0.00
 019345,-0.00000037,-0.00000020,-0.00000262,-0.00021070,-0.00001375,0.0
 0027421,0.00000570,-0.00000276,-0.00000308,-0.00003197,0.00006099,0.00
 005203,0.00000566,-0.00000697,-0.00000145,0.00047129,-0.00043056,0.000
 05179,0.00000868,-0.00000767,-0.00000042,-0.00001089,0.00001350,0.0000
 4893,-0.00000299,-0.00000133,-0.00000209,0.00029886,-0.00002592,0.0000
 0457,-0.00000846,0.00000311,-0.00000032,0.00002161,0.00000428,-0.00002
 368,0.00000158,0.00000067,0.00000178,-0.08256178,-0.22628402,0.0852255
 7,-0.00000251,-0.00000107,0.00000092,-0.00000243,0.00000036,-0.0000010
 7,0.00000071,-0.00000028,0.00000112,0.00017906,0.00034593,-0.00063468,
 0.00000014,-0.00000194,0.00000277,0.00000816,0.00003616,-0.00006884,0.
 00000087,0.00000002,0.00000187,0.00004899,-0.00000166,0.00001176,0.000
 00009,-0.00000035,0.00000188,0.00000283,0.00004237,0.00000267,0.000001
 19,-0.00000107,0.00000317,-0.00001012,-0.00001422,-0.00001383,0.000001
 77,-0.00000116,0.00000135,0.00000446,-0.00001982,-0.00001912,0.0000003
 6,-0.00000031,-0.00000037,-0.00000013,0.00000014,-0.00000046,-0.000000
 37,0.00000004,0.00000035,-0.00991276,-0.01620872,0.00732984,0.08867683
 ,0.23388800,-0.00000118,-0.00000026,0.00000042,0.01524937,0.01679631,-
 0.02445626,-0.00000202,0.00000198,0.00000115,-0.00031766,-0.00002032,0
 .00007929,-0.00000568,-0.00000485,0.00000400,-0.00003568,0.00001299,0.
 00006585,-0.00000064,0.00000078,0.00000257,-0.00032157,-0.00073166,-0.
 00055038,-0.00000864,-0.00000467,0.00000016,0.00000070,0.00000047,-0.0
 0000123,-0.00043442,-0.00005960,0.00050987,0.00000100,0.00000151,-0.00
 000019,0.00405196,0.00443040,0.00541934,0.00000009,-0.00000052,-0.0000
 0022,-0.00085672,-0.00000940,0.00042019,0.00000367,-0.00000169,-0.0000
 0201,0.00015085,0.00003609,-0.00007777,0.00000137,-0.00000187,-0.00000
 047,0.00052393,-0.00111351,-0.00149427,0.00001510,0.00000179,-0.000006
 73,0.00008969,0.00000366,-0.00006262,-0.00000128,-0.00000042,0.0000006
 6,0.00089948,0.00022436,0.00053196,-0.00000601,0.00000282,0.00000454,-
 0.00013256,-0.00004636,-0.00000434,0.00000016,0.00000032,-0.00000013,0
 .03613442,0.07956931,-0.08832090,-0.00000093,0.00000195,-0.00000033,0.
 00000017,-0.00000068,0.00000139,0.00000014,0.00000006,-0.00000029,-0.0
 0149872,0.00065626,-0.00146655,-0.00000003,-0.00000029,-0.00000103,-0.
 00004124,0.00007268,0.00001210,-0.00000014,-0.00000011,-0.00000029,-0.
 00003860,0.00001220,0.00000371,-0.00000009,0.00000029,-0.00000035,-0.0
 0001896,0.00005387,-0.00004429,0.00000066,-0.00000058,-0.00000119,0.00
 000912,0.00000954,0.00001038,0.00000028,-0.00000001,-0.00000036,-0.000
 11484,-0.00000159,-0.00004717,0.,-0.00000007,0.00000012,0.00000011,-0.
 00000011,-0.00000001,-0.00000008,0.00000003,-0.00000002,0.00105888,0.0
 0534052,-0.00061706,-0.04800707,-0.09028456,0.10032110,-0.00002043,-0.
 00000581,0.00000253,0.01413862,0.00901730,0.01620007,-0.00002369,0.000
 02100,0.00000918,0.00012355,-0.00002277,-0.00014276,-0.00003349,-0.000
 00624,0.00000994,-0.00009675,0.00000264,0.00004580,-0.00000742,0.00000
 832,0.00000382,0.00042721,0.00004225,-0.00002767,-0.00004582,-0.000014
 27,-0.00001519,0.00000538,0.00000321,-0.00000177,-0.00106800,-0.000185
 27,0.00029684,0.00001663,0.00001498,-0.00000041,-0.00093145,0.00104225
 ,0.00348801,0.00000264,-0.00000378,0.00000171,0.00004229,-0.00006748,-
 0.00020866,0.00002731,-0.00001343,-0.00000982,0.00007942,0.00003595,0.
 00006147,0.00001778,-0.00002218,-0.00000577,0.00062789,0.00028404,0.00
 065378,0.00007874,-0.00001554,-0.00002572,0.00019196,0.00002597,-0.000
 02884,-0.00001124,-0.00000185,-0.00000089,-0.00033191,-0.00003203,0.00
 002510,-0.00004383,0.00001851,0.00001379,-0.00012648,-0.00005041,-0.00
 005594,0.00000365,0.00000591,0.00000032,-0.20064795,-0.07759545,-0.124
 19827,-0.00000360,0.00000473,0.00000213,-0.00000158,-0.00000013,0.0000
 0313,0.00000154,-0.00000044,-0.00000077,0.00044614,-0.00004793,-0.0006
 0839,0.00000041,-0.00000284,-0.00000061,0.00002539,-0.00000735,-0.0000
 4639,0.00000025,-0.00000079,0.00000110,0.00004350,0.00000886,-0.000003
 82,0.00000058,0.00000080,-0.00000056,0.00003317,0.00003152,0.00004716,
 0.00000507,-0.00000407,0.00000197,-0.00000255,-0.00000297,-0.00000535,
 0.00000453,-0.00000095,-0.00000168,-0.00003832,-0.00000300,-0.00000612
 ,0.00000060,-0.00000108,0.00000035,0.00000076,-0.00000099,-0.00000074,
 -0.00000140,0.00000017,0.00000007,-0.01327262,-0.00917373,-0.01064598,
 -0.00702131,-0.00200221,-0.00634639,0.20738481,-0.00000976,-0.00000393
 ,0.00000110,-0.00494126,-0.00441266,-0.00901101,-0.00000894,0.00000709
 ,0.00000344,0.00015314,-0.00000134,0.00001582,-0.00001707,-0.00000688,
 0.00000504,-0.00005244,0.00000992,0.00003955,-0.00000288,0.00000309,0.
 00000039,-0.00007754,0.00014392,-0.00004845,-0.00002312,-0.00000506,-0
 .00000583,0.00000194,0.00000135,0.00000032,0.00009290,0.00040860,-0.00
 010505,0.00000788,0.00000630,0.,0.00139875,0.00063458,-0.00041610,0.00
 000009,-0.00000151,0.00000096,-0.00003569,-0.00003886,-0.00001126,0.00
 001106,-0.00000469,-0.00000382,0.00007182,0.00003336,-0.00001584,0.000
 00621,-0.00000789,-0.00000273,-0.00057277,0.00024975,-0.00039390,0.000
 03748,-0.00000317,-0.00001492,0.00011206,0.00001098,-0.00003509,-0.000
 00370,-0.00000047,0.00000033,0.00016399,-0.00009729,-0.00003027,-0.000
 01845,0.00000645,0.00000772,-0.00010099,-0.00002172,-0.00002516,0.0000
 0191,0.00000382,0.,-0.07253152,-0.08608717,-0.05663772,-0.00000175,0.0
 0000241,0.00000199,-0.00000051,-0.00000046,0.00000181,0.00000065,-0.00
 000028,-0.00000053,0.00012275,-0.00040554,0.00020958,-0.00000013,-0.00
 000099,-0.00000066,0.00000212,-0.00002579,0.00000749,0.00000018,-0.000
 00037,0.00000055,0.00000284,-0.00000819,0.00000556,0.00000011,0.000000
 39,-0.00000023,-0.00000945,-0.00004409,-0.00002396,0.00000188,-0.00000
 241,0.00000058,0.00000322,-0.00000128,0.00000364,0.00000201,0.00000008
 ,-0.00000072,-0.00001180,-0.00003819,0.00001490,0.00000032,-0.00000050
 ,0.00000005,0.00000048,-0.00000054,-0.00000024,-0.00000069,0.00000009,
 0.00000004,0.01611183,0.00980815,0.01354748,-0.01860375,-0.00772207,-0
 .01494706,0.07871657,0.08761296,-0.00001280,-0.00000355,0.00000135,-0.
 02004800,-0.01615535,-0.03159055,-0.00001542,0.00001392,0.00000550,0.0
 0031432,0.00010831,0.00007312,-0.00002628,-0.00000567,0.00000932,-0.00
 008828,0.00001730,0.00007982,-0.00000525,0.00000571,0.00000285,-0.0003
 3404,-0.00011568,0.00005577,-0.00003540,-0.00000893,-0.00000846,0.0000
 0384,0.00000236,-0.00000039,0.00098122,0.00002194,0.00001476,0.0000109
 5,0.00000983,0.00000032,0.00444207,-0.00016554,-0.00232078,0.00000040,
 -0.00000279,0.00000038,-0.00013651,0.00000260,0.00005214,0.00001967,-0
 .00000864,-0.00000729,0.00015848,0.00000397,-0.00004190,0.00001127,-0.
 00001404,-0.00000485,-0.00155124,-0.00082262,-0.00081832,0.00006072,-0
 .00001084,-0.00002354,0.00019432,0.00001300,-0.00006922,-0.00000713,-0
 .00000158,0.00000021,0.00054238,0.00007433,-0.00019727,-0.00003286,0.0
 0001223,0.00001076,-0.00019107,-0.00005580,-0.00002987,0.00000249,0.00
 000369,0.00000021,-0.11096916,-0.05404429,-0.13338319,-0.00000261,0.00
 000434,0.00000185,-0.00000086,-0.00000031,0.00000315,0.00000116,-0.000
 00038,-0.00000034,-0.00016754,0.00029959,0.00035216,0.00000030,-0.0000
 0226,-0.00000052,-0.00002252,0.00001206,0.00001358,0.00000038,-0.00000
 053,0.00000054,-0.00001906,0.00000157,0.00000360,0.00000005,0.00000061
 ,0.00000003,-0.00005832,-0.00004536,-0.00011920,0.00000353,-0.00000315
 ,0.00000089,0.00000795,0.00000589,0.00000888,0.00000297,-0.00000072,-0
 .00000065,-0.00003224,0.00000862,0.00000042,0.00000049,-0.00000067,0.0
 0000016,0.00000039,-0.00000056,-0.00000051,-0.00000091,0.00000006,0.00
 000014,-0.00408691,-0.00127957,-0.00168780,0.00956484,0.00426471,0.009
 76767,0.12152024,0.06786220,0.15984507\\0.00000270,0.00000051,-0.00000
 048,-0.00000022,0.00000116,0.00000057,-0.00000189,0.00000275,0.0000006
 9,0.00000300,0.00000074,-0.00000095,0.00000004,0.00000632,0.00000074,0
 .00000321,-0.00000146,-0.00000955,0.,-0.00000329,-0.00000089,0.0000001
 8,0.00000188,0.00000542,-0.00000765,0.00000028,-0.00000161,0.00000584,
 0.00000138,0.00000060,-0.00000454,-0.00000162,-0.00000455,-0.00000594,
 -0.00000167,0.00000060,0.00000393,-0.00000052,-0.00000267,0.00000013,-
 0.00000122,-0.00000007,0.00000378,-0.00000022,-0.00000300,-0.00000011,
 0.00000482,0.00000101,-0.00000158,-0.00000106,-0.00000130,0.00000474,-
 0.00000266,-0.00000122,-0.00000404,0.00000091,0.00000359,0.00000402,-0
 .00001562,0.00000087,-0.00001000,-0.00000116,0.00001628,-0.00000090,0.
 00000065,-0.00000031,-0.00000204,-0.00000125,-0.00000045,-0.00000338,0
 .00000370,0.00000185,0.00000843,0.00000194,-0.00000342,-0.00000362,-0.
 00000001,0.00000089,0.00000133,0.00000086,-0.00000060,0.00000210,0.000
 00144,0.00000052,0.00000208,0.00000024,-0.00000132,-0.00000039,0.00000
 030,0.00000005,0.00000111,0.00000078,0.00000094,-0.00000069,0.00000194
 ,-0.00000064,-0.00000147,-0.00000054,0.00000046,0.00000009,-0.00000110
 ,-0.00000041,-0.00000011,0.00000110,0.00000020,-0.00000008,-0.00000014
 ,-0.00000066,0.00000020,-0.00000024,-0.00000006,0.00000247,-0.00000047
 ,-0.00000012,0.00000056,0.00000012,0.00000010,-0.00000055,0.00000026,-
 0.00000054,-0.00000030,-0.00000043,-0.00000042,0.00000020,-0.00000092,
 0.00000033,0.00000031,-0.00000045,0.00000016,0.00000051,-0.00000015,0.
 00000022,-0.00000071,0.00000070,-0.00000023,-0.00000063,0.00000081,0.0
 0000007,-0.00000008,0.00000061,-0.00000066\\\@


 SCIENCE AND PEACE WILL TRIUMPH OVER IGNORANCE AND WAR

                          -- PASTEUR
 Job cpu time:       1 days  5 hours 46 minutes 55.4 seconds.
 Elapsed time:       0 days  1 hours 52 minutes  8.1 seconds.
 File lengths (MBytes):  RWF=   2156 Int=      0 D2E=      0 Chk=     44 Scr=      1
 Normal termination of Gaussian 16 at Wed Oct  1 03:09:12 2025.
