 Entering Gaussian System, Link 0=g16
 Input=CECL0013.gjf
 Output=CECL0013.log
 Initial command:
 /usr/local/g16/l1.exe "/dados_01/scratch/Gau-1946955.inp" -scrdir="/dados_01/scratch/"
 Entering Link 1 = /usr/local/g16/l1.exe PID=   1946961.
  
 Copyright (c) 1988-2017, Gaussian, Inc.  All Rights Reserved.
  
 This is part of the Gaussian(R) 16 program.  It is based on
 the Gaussian(R) 09 system (copyright 2009, Gaussian, Inc.),
 the Gaussian(R) 03 system (copyright 2003, Gaussian, Inc.),
 the Gaussian(R) 98 system (copyright 1998, Gaussian, Inc.),
 the Gaussian(R) 94 system (copyright 1995, Gaussian, Inc.),
 the Gaussian 92(TM) system (copyright 1992, Gaussian, Inc.),
 the Gaussian 90(TM) system (copyright 1990, Gaussian, Inc.),
 the Gaussian 88(TM) system (copyright 1988, Gaussian, Inc.),
 the Gaussian 86(TM) system (copyright 1986, Carnegie Mellon
 University), and the Gaussian 82(TM) system (copyright 1983,
 Carnegie Mellon University). Gaussian is a federally registered
 trademark of Gaussian, Inc.
  
 This software contains proprietary and confidential information,
 including trade secrets, belonging to Gaussian, Inc.
  
 This software is provided under written license and may be
 used, copied, transmitted, or stored only in accord with that
 written license.
  
 The following legend is applicable only to US Government
 contracts under FAR:
  
                    RESTRICTED RIGHTS LEGEND
  
 Use, reproduction and disclosure by the US Government is
 subject to restrictions as set forth in subparagraphs (a)
 and (c) of the Commercial Computer Software - Restricted
 Rights clause in FAR 52.227-19.
  
 Gaussian, Inc.
 340 Quinnipiac St., Bldg. 40, Wallingford CT 06492
  
  
 ---------------------------------------------------------------
 Warning -- This program may not be used in any manner that
 competes with the business of Gaussian, Inc. or will provide
 assistance to any competitor of Gaussian, Inc.  The licensee
 of this program is prohibited from giving any competitor of
 Gaussian, Inc. access to this program.  By using this program,
 the user acknowledges that Gaussian, Inc. is engaged in the
 business of creating and licensing software in the field of
 computational chemistry and represents and warrants to the
 licensee that it is not a competitor of Gaussian, Inc. and that
 it will not use this program in any manner prohibited above.
 ---------------------------------------------------------------
  

 Cite this work as:
 Gaussian 16, Revision B.01,
 M. J. Frisch, G. W. Trucks, H. B. Schlegel, G. E. Scuseria, 
 M. A. Robb, J. R. Cheeseman, G. Scalmani, V. Barone, 
 G. A. Petersson, H. Nakatsuji, X. Li, M. Caricato, A. V. Marenich, 
 J. Bloino, B. G. Janesko, R. Gomperts, B. Mennucci, H. P. Hratchian, 
 J. V. Ortiz, A. F. Izmaylov, J. L. Sonnenberg, D. Williams-Young, 
 F. Ding, F. Lipparini, F. Egidi, J. Goings, B. Peng, A. Petrone, 
 T. Henderson, D. Ranasinghe, V. G. Zakrzewski, J. Gao, N. Rega, 
 G. Zheng, W. Liang, M. Hada, M. Ehara, K. Toyota, R. Fukuda, 
 J. Hasegawa, M. Ishida, T. Nakajima, Y. Honda, O. Kitao, H. Nakai, 
 T. Vreven, K. Throssell, J. A. Montgomery, Jr., J. E. Peralta, 
 F. Ogliaro, M. J. Bearpark, J. J. Heyd, E. N. Brothers, K. N. Kudin, 
 V. N. Staroverov, T. A. Keith, R. Kobayashi, J. Normand, 
 K. Raghavachari, A. P. Rendell, J. C. Burant, S. S. Iyengar, 
 J. Tomasi, M. Cossi, J. M. Millam, M. Klene, C. Adamo, R. Cammi, 
 J. W. Ochterski, R. L. Martin, K. Morokuma, O. Farkas, 
 J. B. Foresman, and D. J. Fox, Gaussian, Inc., Wallingford CT, 2016.
 
 ******************************************
 Gaussian 16:  ES64L-G16RevB.01 20-Dec-2017
                18-Sep-2025 
 ******************************************
 %nprocs=16
 Will use up to   16 processors via shared memory.
 %mem=40GB
 %chk=CECL0013.chk
 ----------------------------------------------------------------------
 # opt freq=noraman M08HX/6-311++G** scf=xqc Empiricaldispersion=pfd In
 t(Grid=ultraFine)
 ----------------------------------------------------------------------
 1/18=20,19=15,26=4,38=1/1,3;
 2/9=110,12=2,17=6,18=5,40=1/2;
 3/5=4,6=6,7=1111,11=2,25=1,30=1,71=1,74=-74,75=-5,124=11/1,2,3;
 4//1;
 5/5=2,8=3,13=1,38=5/2,8;
 6/7=2,8=2,9=2,10=2,28=1/1;
 7//1,2,3,16;
 1/18=20,19=15,26=4/3(2);
 2/9=110/2;
 99//99;
 2/9=110/2;
 3/5=4,6=6,7=1111,11=2,25=1,30=1,71=1,74=-74,75=-5,124=11/1,2,3;
 4/5=5,16=3,69=1/1;
 5/5=2,8=3,13=1,38=5/2,8;
 7//1,2,3,16;
 1/18=20,19=15,26=4/3(-5);
 2/9=110/2;
 6/7=2,8=2,9=2,10=2,19=2,28=1/1;
 99/9=1/99;
 --------
 CECL0013
 --------
 Symbolic Z-matrix:
 Charge =  0 Multiplicity = 1
 O                     1.7858    1.39      0.0004 
 O                     1.7858   -1.39     -0.0001 
 C                     0.6128    0.6973   -0.0003 
 C                     0.6127   -0.6974   -0.0001 
 C                    -0.5952    1.3949   -0.0002 
 C                    -0.5953   -1.3948    0.0001 
 C                    -1.8032    0.6974    0.0001 
 C                    -1.8033   -0.6974    0.0001 
 H                    -0.6022    2.4815    0. 
 H                    -0.61     -2.4814    0.0003 
 H                    -2.7438    1.2404    0.0002 
 H                    -2.744    -1.2403    0.0003 
 H                     2.5187    0.75      0.0006 
 H                     1.591    -2.3429    0. 
 

 GradGradGradGradGradGradGradGradGradGradGradGradGradGradGradGradGradGrad
 Berny optimization.
 Initialization pass.
                           ----------------------------
                           !    Initial Parameters    !
                           ! (Angstroms and Degrees)  !
 --------------------------                            --------------------------
 ! Name  Definition              Value          Derivative Info.                !
 --------------------------------------------------------------------------------
 ! R1    R(1,3)                  1.3623         estimate D2E/DX2                !
 ! R2    R(1,13)                 0.973          estimate D2E/DX2                !
 ! R3    R(2,4)                  1.3623         estimate D2E/DX2                !
 ! R4    R(2,14)                 0.9726         estimate D2E/DX2                !
 ! R5    R(3,4)                  1.3947         estimate D2E/DX2                !
 ! R6    R(3,5)                  1.395          estimate D2E/DX2                !
 ! R7    R(4,6)                  1.3949         estimate D2E/DX2                !
 ! R8    R(5,7)                  1.3949         estimate D2E/DX2                !
 ! R9    R(5,9)                  1.0866         estimate D2E/DX2                !
 ! R10   R(6,8)                  1.3949         estimate D2E/DX2                !
 ! R11   R(6,10)                 1.0867         estimate D2E/DX2                !
 ! R12   R(7,8)                  1.3948         estimate D2E/DX2                !
 ! R13   R(7,11)                 1.0861         estimate D2E/DX2                !
 ! R14   R(8,12)                 1.0861         estimate D2E/DX2                !
 ! A1    A(3,1,13)             108.3077         estimate D2E/DX2                !
 ! A2    A(4,2,14)             109.004          estimate D2E/DX2                !
 ! A3    A(1,3,4)              120.5675         estimate D2E/DX2                !
 ! A4    A(1,3,5)              119.4308         estimate D2E/DX2                !
 ! A5    A(4,3,5)              120.0016         estimate D2E/DX2                !
 ! A6    A(2,4,3)              120.5536         estimate D2E/DX2                !
 ! A7    A(2,4,6)              119.4437         estimate D2E/DX2                !
 ! A8    A(3,4,6)              120.0027         estimate D2E/DX2                !
 ! A9    A(3,5,7)              119.9921         estimate D2E/DX2                !
 ! A10   A(3,5,9)              120.3748         estimate D2E/DX2                !
 ! A11   A(7,5,9)              119.6331         estimate D2E/DX2                !
 ! A12   A(4,6,8)              120.0028         estimate D2E/DX2                !
 ! A13   A(4,6,10)             120.7737         estimate D2E/DX2                !
 ! A14   A(8,6,10)             119.2235         estimate D2E/DX2                !
 ! A15   A(5,7,8)              120.0063         estimate D2E/DX2                !
 ! A16   A(5,7,11)             120.0004         estimate D2E/DX2                !
 ! A17   A(8,7,11)             119.9933         estimate D2E/DX2                !
 ! A18   A(6,8,7)              119.9945         estimate D2E/DX2                !
 ! A19   A(6,8,12)             120.0111         estimate D2E/DX2                !
 ! A20   A(7,8,12)             119.9944         estimate D2E/DX2                !
 ! D1    D(13,1,3,4)             0.0243         estimate D2E/DX2                !
 ! D2    D(13,1,3,5)           179.976          estimate D2E/DX2                !
 ! D3    D(14,2,4,3)          -179.9967         estimate D2E/DX2                !
 ! D4    D(14,2,4,6)             0.0032         estimate D2E/DX2                !
 ! D5    D(1,3,4,2)             -0.0439         estimate D2E/DX2                !
 ! D6    D(1,3,4,6)            179.9562         estimate D2E/DX2                !
 ! D7    D(5,3,4,2)           -179.9954         estimate D2E/DX2                !
 ! D8    D(5,3,4,6)              0.0047         estimate D2E/DX2                !
 ! D9    D(1,3,5,7)           -179.952          estimate D2E/DX2                !
 ! D10   D(1,3,5,9)              0.0263         estimate D2E/DX2                !
 ! D11   D(4,3,5,7)              0.0            estimate D2E/DX2                !
 ! D12   D(4,3,5,9)            179.9783         estimate D2E/DX2                !
 ! D13   D(2,4,6,8)           -179.9999         estimate D2E/DX2                !
 ! D14   D(2,4,6,10)             0.0027         estimate D2E/DX2                !
 ! D15   D(3,4,6,8)              0.0            estimate D2E/DX2                !
 ! D16   D(3,4,6,10)          -179.9974         estimate D2E/DX2                !
 ! D17   D(3,5,7,8)             -0.0095         estimate D2E/DX2                !
 ! D18   D(3,5,7,11)           179.9987         estimate D2E/DX2                !
 ! D19   D(9,5,7,8)           -179.988          estimate D2E/DX2                !
 ! D20   D(9,5,7,11)             0.0202         estimate D2E/DX2                !
 ! D21   D(4,6,8,7)             -0.0095         estimate D2E/DX2                !
 ! D22   D(4,6,8,12)          -179.9973         estimate D2E/DX2                !
 ! D23   D(10,6,8,7)           179.9879         estimate D2E/DX2                !
 ! D24   D(10,6,8,12)            0.0001         estimate D2E/DX2                !
 ! D25   D(5,7,8,6)              0.0142         estimate D2E/DX2                !
 ! D26   D(5,7,8,12)          -179.998          estimate D2E/DX2                !
 ! D27   D(11,7,8,6)          -179.9939         estimate D2E/DX2                !
 ! D28   D(11,7,8,12)           -0.0061         estimate D2E/DX2                !
 --------------------------------------------------------------------------------
 Trust Radius=3.00D-01 FncErr=1.00D-07 GrdErr=1.00D-06 EigMax=2.50D+02 EigMin=1.00D-04
 Number of steps in this run=     72 maximum allowed number of steps=    100.
 GradGradGradGradGradGradGradGradGradGradGradGradGradGradGradGradGradGrad

                          Input orientation:                          
 ---------------------------------------------------------------------
 Center     Atomic      Atomic             Coordinates (Angstroms)
 Number     Number       Type             X           Y           Z
 ---------------------------------------------------------------------
      1          8           0        1.785800    1.390000    0.000400
      2          8           0        1.785800   -1.390000   -0.000100
      3          6           0        0.612800    0.697300   -0.000300
      4          6           0        0.612700   -0.697400   -0.000100
      5          6           0       -0.595200    1.394900   -0.000200
      6          6           0       -0.595300   -1.394800    0.000100
      7          6           0       -1.803200    0.697400    0.000100
      8          6           0       -1.803300   -0.697400    0.000100
      9          1           0       -0.602200    2.481500    0.000000
     10          1           0       -0.610000   -2.481400    0.000300
     11          1           0       -2.743800    1.240400    0.000200
     12          1           0       -2.744000   -1.240300    0.000300
     13          1           0        2.518700    0.750000    0.000600
     14          1           0        1.591000   -2.342900    0.000000
 ---------------------------------------------------------------------
                    Distance matrix (angstroms):
                    1          2          3          4          5
     1  O    0.000000
     2  O    2.780000   0.000000
     3  C    1.362264   2.394316   0.000000
     4  C    2.394452   1.362299   1.394700   0.000000
     5  C    2.381005   3.663991   1.394959   2.415935   0.000000
     6  C    3.663980   2.381105   2.415862   1.394859   2.789700
     7  C    3.655218   4.151886   2.416000   2.789631   1.394909
     8  C    4.151973   3.655316   2.789754   2.416000   2.416035
     9  H    2.625627   4.548742   2.158609   3.403144   1.086623
    10  H    4.552757   2.632681   3.405785   2.162788   3.876328
    11  H    4.532070   5.237965   3.400253   3.875714   2.154148
    12  H    5.238088   4.532273   3.875874   3.400320   3.400238
    13  H    0.973007   2.262022   1.906629   2.393283   3.179980
    14  H    3.737979   0.972608   3.193696   1.914351   4.330199
                    6          7          8          9         10
     6  C    0.000000
     7  C    2.415848   0.000000
     8  C    1.394859   1.394800   0.000000
     9  H    3.876306   2.150678   3.398242   0.000000
    10  H    1.086699   3.395364   2.146304   4.962906   0.000000
    11  H    3.400049   1.086084   2.153975   2.475233   4.290093
    12  H    2.154247   2.154016   1.086120   4.294078   2.468661
    13  H    3.781159   4.322220   4.557922   3.569049   4.497856
    14  H    2.383024   4.556755   3.772127   5.299525   2.205353
                   11         12         13         14
    11  H    0.000000
    12  H    2.480700   0.000000
    13  H    5.285300   5.626483   0.000000
    14  H    5.624103   4.473025   3.229034   0.000000
 Stoichiometry    C6H6O2
 Framework group  C1[X(C6H6O2)]
 Deg. of freedom    36
 Full point group                 C1      NOp   1
 Largest Abelian subgroup         C1      NOp   1
 Largest concise Abelian subgroup C1      NOp   1
                         Standard orientation:                         
 ---------------------------------------------------------------------
 Center     Atomic      Atomic             Coordinates (Angstroms)
 Number     Number       Type             X           Y           Z
 ---------------------------------------------------------------------
      1          8           0       -1.638536   -1.496408    0.000366
      2          8           0       -1.769656    1.280498   -0.000134
      3          6           0       -0.499513   -0.749154   -0.000334
      4          6           0       -0.565195    0.643999   -0.000134
      5          6           0        0.740045   -1.389002   -0.000234
      6          6           0        0.608567    1.397598    0.000066
      7          6           0        1.913803   -0.635302    0.000066
      8          6           0        1.848116    0.757951    0.000066
      9          1           0        0.798287   -2.474062   -0.000034
     10          1           0        0.572001    2.483683    0.000266
     11          1           0        2.878967   -1.133334    0.000166
     12          1           0        2.762163    1.344615    0.000266
     13          1           0       -2.400806   -0.891688    0.000566
     14          1           0       -1.620017    2.241525   -0.000034
 ---------------------------------------------------------------------
 Rotational constants (GHZ):           3.2946569           2.2842984           1.3489944
 Standard basis: 6-311++G(d,p) (5D, 7F)
 There are   226 symmetry adapted cartesian basis functions of A   symmetry.
 There are   218 symmetry adapted basis functions of A   symmetry.
   218 basis functions,   342 primitive gaussians,   226 cartesian basis functions
    29 alpha electrons       29 beta electrons
       nuclear repulsion energy       350.9578123554 Hartrees.
 NAtoms=   14 NActive=   14 NUniq=   14 SFac= 1.00D+00 NAtFMM=   60 NAOKFM=F Big=F
 Integral buffers will be    131072 words long.
 Raffenetti 2 integral format.
 Two-electron integral symmetry is turned on.
 R6APFD:  NTU= -4 IXU= 1 FactS= 1.050
 Nuclear repulsion after empirical dispersion term =      350.9515703532 Hartrees.
 One-electron integrals computed using PRISM.
 NBasis=   218 RedAO= T EigKep=  1.06D-06  NBF=   218
 NBsUse=   218 1.00D-06 EigRej= -1.00D+00 NBFU=   218
 ExpMin= 3.60D-02 ExpMax= 8.59D+03 ExpMxC= 1.30D+03 IAcc=3 IRadAn=         5 AccDes= 0.00D+00
 Harris functional with IExCor= 1009 and IRadAn=       5 diagonalized for initial guess.
 HarFok:  IExCor= 1009 AccDes= 0.00D+00 IRadAn=         5 IDoV= 1 UseB2=F ITyADJ=14
 ICtDFT=  3500011 ScaDFX=  1.000000  1.000000  1.000000  1.000000
 FoFCou: FMM=F IPFlag=           0 FMFlag=      100000 FMFlg1=           0
         NFxFlg=           0 DoJE=T BraDBF=F KetDBF=T FulRan=T
         wScrn=  0.000000 ICntrl=       500 IOpCl=  0 I1Cent=   200000004 NGrid=           0
         NMat0=    1 NMatS0=      1 NMatT0=    0 NMatD0=    1 NMtDS0=    0 NMtDT0=    0
 Petite list used in FoFCou.
 Requested convergence on RMS density matrix=1.00D-08 within  32 cycles.
 Requested convergence on MAX density matrix=1.00D-06.
 Requested convergence on             energy=1.00D-06.
 No special actions if energy rises.
 SCF Done:  E(RM08HX) =  -382.680934664     A.U. after   14 cycles
            NFock= 14  Conv=0.90D-08     -V/T= 2.0043
 QCSCF skips out because SCF is already converged.

 **********************************************************************

            Population analysis using the SCF Density.

 **********************************************************************

 Orbital symmetries:
       Occupied  (A) (A) (A) (A) (A) (A) (A) (A) (A) (A) (A) (A)
                 (A) (A) (A) (A) (A) (A) (A) (A) (A) (A) (A) (A)
                 (A) (A) (A) (A) (A)
       Virtual   (A) (A) (A) (A) (A) (A) (A) (A) (A) (A) (A) (A)
                 (A) (A) (A) (A) (A) (A) (A) (A) (A) (A) (A) (A)
                 (A) (A) (A) (A) (A) (A) (A) (A) (A) (A) (A) (A)
                 (A) (A) (A) (A) (A) (A) (A) (A) (A) (A) (A) (A)
                 (A) (A) (A) (A) (A) (A) (A) (A) (A) (A) (A) (A)
                 (A) (A) (A) (A) (A) (A) (A) (A) (A) (A) (A) (A)
                 (A) (A) (A) (A) (A) (A) (A) (A) (A) (A) (A) (A)
                 (A) (A) (A) (A) (A) (A) (A) (A) (A) (A) (A) (A)
                 (A) (A) (A) (A) (A) (A) (A) (A) (A) (A) (A) (A)
                 (A) (A) (A) (A) (A) (A) (A) (A) (A) (A) (A) (A)
                 (A) (A) (A) (A) (A) (A) (A) (A) (A) (A) (A) (A)
                 (A) (A) (A) (A) (A) (A) (A) (A) (A) (A) (A) (A)
                 (A) (A) (A) (A) (A) (A) (A) (A) (A) (A) (A) (A)
                 (A) (A) (A) (A) (A) (A) (A) (A) (A) (A) (A) (A)
                 (A) (A) (A) (A) (A) (A) (A) (A) (A) (A) (A) (A)
                 (A) (A) (A) (A) (A) (A) (A) (A) (A)
 The electronic state is 1-A.
 Alpha  occ. eigenvalues --  -19.65879 -19.64067 -10.60408 -10.60102 -10.54467
 Alpha  occ. eigenvalues --  -10.53812 -10.53716 -10.53563  -1.20925  -1.17767
 Alpha  occ. eigenvalues --   -0.96784  -0.85528  -0.84666  -0.73762  -0.70510
 Alpha  occ. eigenvalues --   -0.64661  -0.62551  -0.57217  -0.54736  -0.52461
 Alpha  occ. eigenvalues --   -0.51236  -0.49597  -0.47085  -0.46378  -0.43163
 Alpha  occ. eigenvalues --   -0.41933  -0.40947  -0.30580  -0.27687
 Alpha virt. eigenvalues --   -0.03496  -0.01700  -0.01016   0.00433   0.00702
 Alpha virt. eigenvalues --    0.01414   0.02662   0.03763   0.04081   0.04496
 Alpha virt. eigenvalues --    0.06171   0.06216   0.06605   0.08604   0.10283
 Alpha virt. eigenvalues --    0.10513   0.10568   0.10896   0.11063   0.11428
 Alpha virt. eigenvalues --    0.12210   0.12931   0.13757   0.13979   0.14075
 Alpha virt. eigenvalues --    0.15794   0.16346   0.17405   0.18770   0.19213
 Alpha virt. eigenvalues --    0.20153   0.21265   0.21539   0.21855   0.22625
 Alpha virt. eigenvalues --    0.23949   0.25947   0.26451   0.27607   0.29088
 Alpha virt. eigenvalues --    0.30594   0.31268   0.31399   0.32572   0.33306
 Alpha virt. eigenvalues --    0.35507   0.37655   0.38282   0.39164   0.39337
 Alpha virt. eigenvalues --    0.42407   0.43933   0.44795   0.51242   0.54485
 Alpha virt. eigenvalues --    0.55061   0.56686   0.58057   0.58290   0.58967
 Alpha virt. eigenvalues --    0.60631   0.60792   0.60954   0.62952   0.64821
 Alpha virt. eigenvalues --    0.65348   0.65961   0.71968   0.72629   0.76416
 Alpha virt. eigenvalues --    0.78521   0.79750   0.80955   0.82591   0.86892
 Alpha virt. eigenvalues --    0.88090   0.88715   0.90807   0.92064   0.92269
 Alpha virt. eigenvalues --    0.94722   1.00017   1.01510   1.02473   1.03980
 Alpha virt. eigenvalues --    1.04889   1.08339   1.12924   1.13716   1.15448
 Alpha virt. eigenvalues --    1.16233   1.20765   1.23540   1.24174   1.26762
 Alpha virt. eigenvalues --    1.28036   1.29321   1.38514   1.42929   1.45071
 Alpha virt. eigenvalues --    1.51815   1.54943   1.56416   1.57962   1.59754
 Alpha virt. eigenvalues --    1.60699   1.64229   1.65564   1.67873   1.68560
 Alpha virt. eigenvalues --    1.71308   1.75201   1.77291   1.80139   1.83410
 Alpha virt. eigenvalues --    1.89688   1.91105   1.92777   1.96148   1.96931
 Alpha virt. eigenvalues --    1.96945   1.98098   1.99325   2.04788   2.06416
 Alpha virt. eigenvalues --    2.07458   2.10715   2.14275   2.20731   2.28363
 Alpha virt. eigenvalues --    2.33067   2.36596   2.36827   2.44069   2.48044
 Alpha virt. eigenvalues --    2.57584   2.58577   2.60845   2.66548   2.68411
 Alpha virt. eigenvalues --    2.69235   2.70999   2.71611   2.74195   2.81108
 Alpha virt. eigenvalues --    2.82777   2.84191   2.84772   2.87548   2.94380
 Alpha virt. eigenvalues --    2.95868   3.13980   3.14378   3.15856   3.16581
 Alpha virt. eigenvalues --    3.19217   3.22901   3.23464   3.28344   3.38943
 Alpha virt. eigenvalues --    3.44736   3.47519   3.52889   3.55176   3.58793
 Alpha virt. eigenvalues --    3.66415   3.77974   3.94253   3.95685   4.07806
 Alpha virt. eigenvalues --    4.08299   4.21748   4.22623   4.25965   4.91604
 Alpha virt. eigenvalues --    5.08093   5.15941   5.52267   5.57557   5.77458
 Alpha virt. eigenvalues --    5.91055  23.61989  23.98206  24.00083  24.10936
 Alpha virt. eigenvalues --   24.13782  24.23818  49.91260  49.99382
          Condensed to atoms (all electrons):
               1          2          3          4          5          6
     1  O    7.943111   0.022911   0.696998  -0.029702  -0.682444  -0.016739
     2  O    0.022911   8.019827  -0.900883   0.640279  -0.106035   0.253119
     3  C    0.696998  -0.900883  18.092825  -5.171317  -5.302446  -1.535135
     4  C   -0.029702   0.640279  -5.171317  14.879124  -2.032822  -1.585276
     5  C   -0.682444  -0.106035  -5.302446  -2.032822  18.225702  -3.718035
     6  C   -0.016739   0.253119  -1.535135  -1.585276  -3.718035  12.507099
     7  C    0.062150   0.036729   3.602776  -2.100470  -5.524352   3.348557
     8  C   -0.030961   0.020226  -2.723570   1.712123   4.091566  -3.344799
     9  H   -0.029776  -0.001780  -0.245816  -0.044992   0.710710  -0.052668
    10  H   -0.001265  -0.012906  -0.053805  -0.122900   0.021229   0.424310
    11  H    0.001565   0.000867   0.130941   0.021476  -0.274286   0.085761
    12  H   -0.000267  -0.002649  -0.003955   0.093125   0.072181  -0.143907
    13  H    0.271823   0.015434   0.074154  -0.225677   0.215698  -0.065710
    14  H    0.000722   0.256950   0.220278   0.108842   0.009763  -0.313031
               7          8          9         10         11         12
     1  O    0.062150  -0.030961  -0.029776  -0.001265   0.001565  -0.000267
     2  O    0.036729   0.020226  -0.001780  -0.012906   0.000867  -0.002649
     3  C    3.602776  -2.723570  -0.245816  -0.053805   0.130941  -0.003955
     4  C   -2.100470   1.712123  -0.044992  -0.122900   0.021476   0.093125
     5  C   -5.524352   4.091566   0.710710   0.021229  -0.274286   0.072181
     6  C    3.348557  -3.344799  -0.052668   0.424310   0.085761  -0.143907
     7  C   10.718679  -3.864072  -0.179077   0.017110   0.507477  -0.133475
     8  C   -3.864072   9.941607   0.099549   0.046906  -0.159635   0.420631
     9  H   -0.179077   0.099549   0.426566   0.000604  -0.010665   0.002396
    10  H    0.017110   0.046906   0.000604   0.441093   0.000095   0.000832
    11  H    0.507477  -0.159635  -0.010665   0.000095   0.426095  -0.003175
    12  H   -0.133475   0.420631   0.002396   0.000832  -0.003175   0.415893
    13  H   -0.012945   0.009730   0.004693  -0.000898  -0.000263   0.000396
    14  H   -0.008512  -0.005421  -0.000113  -0.000344   0.000065   0.001544
              13         14
     1  O    0.271823   0.000722
     2  O    0.015434   0.256950
     3  C    0.074154   0.220278
     4  C   -0.225677   0.108842
     5  C    0.215698   0.009763
     6  C   -0.065710  -0.313031
     7  C   -0.012945  -0.008512
     8  C    0.009730  -0.005421
     9  H    0.004693  -0.000113
    10  H   -0.000898  -0.000344
    11  H   -0.000263   0.000065
    12  H    0.000396   0.001544
    13  H    0.412054   0.002584
    14  H    0.002584   0.432521
 Mulliken charges:
               1
     1  O   -0.208126
     2  O   -0.242089
     3  C   -0.881044
     4  C   -0.141812
     5  C    0.293570
     6  C    0.156455
     7  C   -0.470576
     8  C   -0.213879
     9  H    0.320369
    10  H    0.239938
    11  H    0.273683
    12  H    0.280430
    13  H    0.298928
    14  H    0.294154
 Sum of Mulliken charges =  -0.00000
 Mulliken charges with hydrogens summed into heavy atoms:
               1
     1  O    0.090802
     2  O    0.052064
     3  C   -0.881044
     4  C   -0.141812
     5  C    0.613940
     6  C    0.396393
     7  C   -0.196893
     8  C    0.066550
 Electronic spatial extent (au):  <R**2>=            852.0557
 Charge=             -0.0000 electrons
 Dipole moment (field-independent basis, Debye):
    X=              0.2542    Y=              2.5111    Z=              0.0008  Tot=              2.5240
 Quadrupole moment (field-independent basis, Debye-Ang):
   XX=            -43.1654   YY=            -40.7903   ZZ=            -51.2707
   XY=             -3.7204   XZ=             -0.0006   YZ=              0.0010
 Traceless Quadrupole moment (field-independent basis, Debye-Ang):
   XX=              1.9100   YY=              4.2852   ZZ=             -6.1952
   XY=             -3.7204   XZ=             -0.0006   YZ=              0.0010
 Octapole moment (field-independent basis, Debye-Ang**2):
  XXX=            -13.1957  YYY=             24.8331  ZZZ=              0.0028  XYY=             -2.5414
  XXY=              1.1885  XXZ=              0.0091  XZZ=             -8.8506  YZZ=             -0.0247
  YYZ=              0.0023  XYZ=             -0.0002
 Hexadecapole moment (field-independent basis, Debye-Ang**3):
 XXXX=           -549.6589 YYYY=           -382.6028 ZZZZ=            -57.3372 XXXY=              7.5049
 XXXZ=             -0.0092 YYYX=            -46.4804 YYYZ=              0.0061 ZZZX=             -0.0007
 ZZZY=              0.0005 XXYY=           -164.8440 XXZZ=           -123.3886 YYZZ=            -91.7349
 XXYZ=             -0.0013 YYXZ=              0.0038 ZZXY=             -0.7675
 N-N= 3.509515703532D+02 E-N=-1.595671639071D+03  KE= 3.810445342385D+02
 R6APFD:  NTU= -4 IXU= 1 FactS= 1.050
 Calling FoFJK, ICntrl=      2127 FMM=F ISym2X=0 I1Cent= 0 IOpClX= 0 NMat=1 NMatS=1 NMatT=0.
 ***** Axes restored to original set *****
 -------------------------------------------------------------------
 Center     Atomic                   Forces (Hartrees/Bohr)
 Number     Number              X              Y              Z
 -------------------------------------------------------------------
      1        8           0.006942280   -0.010563593   -0.000034856
      2        8           0.007878508   -0.004019472    0.000008163
      3        6           0.006499591    0.007931165    0.000074811
      4        6          -0.018040947   -0.018277559   -0.000020750
      5        6          -0.003915373   -0.005874710    0.000015741
      6        6          -0.008080528    0.012281498   -0.000013007
      7        6           0.004292613   -0.003442727   -0.000034489
      8        6           0.001078393    0.001734166    0.000018376
      9        1           0.004604213    0.000472182   -0.000006049
     10        1           0.002507389   -0.002753070   -0.000002912
     11        1          -0.000575405    0.001083691    0.000001899
     12        1          -0.000689187   -0.001209020   -0.000000385
     13        1          -0.007345202    0.008178526   -0.000005993
     14        1           0.004843654    0.014458924   -0.000000549
 -------------------------------------------------------------------
 Cartesian Forces:  Max     0.018277559 RMS     0.006353154

 GradGradGradGradGradGradGradGradGradGradGradGradGradGradGradGradGradGrad
 Berny optimization.
 FormGI is forming the generalized inverse of G from B-inverse, IUseBI=4.
 Internal  Forces:  Max     0.021919608 RMS     0.004857115
 Search for a local minimum.
 Step number   1 out of a maximum of   72
 All quantities printed in internal units (Hartrees-Bohrs-Radians)
 Mixed Optimization -- RFO/linear search
 Second derivative matrix not updated -- first step.
 ITU=  0
     Eigenvalues ---    0.02156   0.02156   0.02157   0.02157   0.02157
     Eigenvalues ---    0.02157   0.02158   0.02163   0.02164   0.02190
     Eigenvalues ---    0.02191   0.16000   0.16000   0.16000   0.16000
     Eigenvalues ---    0.16000   0.16000   0.22000   0.22493   0.24488
     Eigenvalues ---    0.25000   0.25000   0.35197   0.35206   0.35265
     Eigenvalues ---    0.35269   0.42232   0.42417   0.46473   0.46479
     Eigenvalues ---    0.46487   0.46503   0.52486   0.52493   0.52767
     Eigenvalues ---    0.52848
 RFO step:  Lambda=-5.03590833D-03 EMin= 2.15575861D-02
 Linear search not attempted -- first point.
 Iteration  1 RMS(Cart)=  0.04363116 RMS(Int)=  0.00136745
 Iteration  2 RMS(Cart)=  0.00190281 RMS(Int)=  0.00000282
 Iteration  3 RMS(Cart)=  0.00000116 RMS(Int)=  0.00000269
 Iteration  4 RMS(Cart)=  0.00000000 RMS(Int)=  0.00000269
 Variable       Old X    -DE/DX   Delta X   Delta X   Delta X     New X
                                 (Linear)    (Quad)   (Total)
    R1        2.57431  -0.00156   0.00000  -0.00294  -0.00294   2.57136
    R2        1.83872  -0.01092   0.00000  -0.02049  -0.02049   1.81822
    R3        2.57437   0.00565   0.00000   0.01066   0.01066   2.58503
    R4        1.83796  -0.01514   0.00000  -0.02838  -0.02838   1.80958
    R5        2.63560  -0.00056   0.00000  -0.00126  -0.00126   2.63434
    R6        2.63609  -0.00554   0.00000  -0.01208  -0.01207   2.62402
    R7        2.63590  -0.00104   0.00000  -0.00200  -0.00200   2.63390
    R8        2.63600  -0.00153   0.00000  -0.00348  -0.00348   2.63252
    R9        2.05342   0.00044   0.00000   0.00124   0.00124   2.05466
   R10        2.63590  -0.00223   0.00000  -0.00447  -0.00447   2.63143
   R11        2.05356   0.00272   0.00000   0.00762   0.00762   2.06118
   R12        2.63579  -0.00165   0.00000  -0.00345  -0.00345   2.63234
   R13        2.05240   0.00104   0.00000   0.00291   0.00291   2.05531
   R14        2.05247   0.00120   0.00000   0.00336   0.00336   2.05583
    A1        1.89033   0.00245   0.00000   0.01484   0.01484   1.90516
    A2        1.90248   0.00341   0.00000   0.02063   0.02063   1.92311
    A3        2.10430  -0.00041   0.00000  -0.00124  -0.00124   2.10306
    A4        2.08446   0.00188   0.00000   0.00773   0.00773   2.09219
    A5        2.09442  -0.00147   0.00000  -0.00648  -0.00649   2.08794
    A6        2.10406  -0.02192   0.00000  -0.08606  -0.08606   2.01800
    A7        2.08469   0.02130   0.00000   0.08341   0.08342   2.16810
    A8        2.09444   0.00062   0.00000   0.00264   0.00264   2.09708
    A9        2.09426   0.00141   0.00000   0.00513   0.00513   2.09939
   A10        2.10094  -0.00543   0.00000  -0.03120  -0.03120   2.06974
   A11        2.08799   0.00402   0.00000   0.02607   0.02607   2.11406
   A12        2.09444   0.00044   0.00000   0.00293   0.00293   2.09737
   A13        2.10790  -0.00284   0.00000  -0.01732  -0.01732   2.09058
   A14        2.08084   0.00240   0.00000   0.01439   0.01439   2.09524
   A15        2.09450   0.00083   0.00000   0.00325   0.00325   2.09776
   A16        2.09440  -0.00108   0.00000  -0.00564  -0.00564   2.08876
   A17        2.09428   0.00025   0.00000   0.00239   0.00239   2.09667
   A18        2.09430  -0.00182   0.00000  -0.00746  -0.00746   2.08684
   A19        2.09459   0.00018   0.00000  -0.00067  -0.00067   2.09392
   A20        2.09430   0.00164   0.00000   0.00813   0.00813   2.10243
    D1        0.00042  -0.00001   0.00000  -0.00031  -0.00031   0.00011
    D2        3.14117   0.00002   0.00000   0.00059   0.00059  -3.14142
    D3       -3.14153  -0.00000   0.00000  -0.00007  -0.00008   3.14158
    D4        0.00006   0.00000   0.00000   0.00000   0.00000   0.00006
    D5       -0.00077   0.00002   0.00000   0.00084   0.00083   0.00006
    D6        3.14083   0.00002   0.00000   0.00076   0.00075   3.14158
    D7       -3.14151  -0.00000   0.00000  -0.00007  -0.00008  -3.14159
    D8        0.00008  -0.00000   0.00000  -0.00015  -0.00015  -0.00007
    D9       -3.14076  -0.00002   0.00000  -0.00089  -0.00089   3.14154
   D10        0.00046  -0.00001   0.00000  -0.00049  -0.00050  -0.00004
   D11       -0.00000   0.00000   0.00000   0.00001   0.00001   0.00001
   D12        3.14121   0.00001   0.00000   0.00040   0.00040  -3.14157
   D13       -3.14159  -0.00000   0.00000  -0.00002  -0.00003   3.14157
   D14        0.00005  -0.00000   0.00000  -0.00005  -0.00005  -0.00001
   D15       -0.00000   0.00000   0.00000   0.00006   0.00006   0.00006
   D16       -3.14155   0.00000   0.00000   0.00003   0.00003  -3.14152
   D17       -0.00017   0.00001   0.00000   0.00023   0.00023   0.00007
   D18        3.14157   0.00000   0.00000   0.00007   0.00008  -3.14154
   D19       -3.14138  -0.00000   0.00000  -0.00015  -0.00015  -3.14154
   D20        0.00035  -0.00001   0.00000  -0.00031  -0.00031   0.00004
   D21       -0.00017   0.00000   0.00000   0.00018   0.00018   0.00002
   D22       -3.14155  -0.00000   0.00000  -0.00005  -0.00005   3.14159
   D23        3.14138   0.00001   0.00000   0.00021   0.00021  -3.14159
   D24        0.00000  -0.00000   0.00000  -0.00002  -0.00002  -0.00002
   D25        0.00025  -0.00001   0.00000  -0.00033  -0.00033  -0.00008
   D26       -3.14156  -0.00000   0.00000  -0.00010  -0.00010   3.14153
   D27       -3.14149  -0.00000   0.00000  -0.00017  -0.00017   3.14153
   D28       -0.00011   0.00000   0.00000   0.00006   0.00006  -0.00004
         Item               Value     Threshold  Converged?
 Maximum Force            0.021920     0.000450     NO 
 RMS     Force            0.004857     0.000300     NO 
 Maximum Displacement     0.215387     0.001800     NO 
 RMS     Displacement     0.043718     0.001200     NO 
 Predicted change in Energy=-2.566080D-03
 GradGradGradGradGradGradGradGradGradGradGradGradGradGradGradGradGradGrad

                          Input orientation:                          
 ---------------------------------------------------------------------
 Center     Atomic      Atomic             Coordinates (Angstroms)
 Number     Number       Type             X           Y           Z
 ---------------------------------------------------------------------
      1          8           0        1.784676    1.350846    0.000146
      2          8           0        1.808809   -1.325871    0.000126
      3          6           0        0.602821    0.676501    0.000144
      4          6           0        0.583646   -0.717400    0.000094
      5          6           0       -0.594616    1.379544    0.000123
      6          6           0       -0.631061   -1.400896    0.000107
      7          6           0       -1.809519    0.697891    0.000062
      8          6           0       -1.831321   -0.694913    0.000102
      9          1           0       -0.559878    2.466266    0.000144
     10          1           0       -0.638972   -2.491598    0.000138
     11          1           0       -2.741528    1.258498   -0.000004
     12          1           0       -2.777585   -1.231667    0.000110
     13          1           0        2.509351    0.717914    0.000004
     14          1           0        1.704978   -2.277816    0.000104
 ---------------------------------------------------------------------
                    Distance matrix (angstroms):
                    1          2          3          4          5
     1  O    0.000000
     2  O    2.676826   0.000000
     3  C    1.360707   2.337499   0.000000
     4  C    2.391676   1.367941   1.394033   0.000000
     5  C    2.379466   3.618801   1.388569   2.405301   0.000000
     6  C    3.661676   2.441024   2.416204   1.393800   2.780679
     7  C    3.653025   4.145831   2.412434   2.780339   1.393068
     8  C    4.154583   3.694409   2.793890   2.415071   2.415121
     9  H    2.596362   4.471128   2.134274   3.382806   1.087277
    10  H    4.542956   2.711190   3.402778   2.154663   3.871396
    11  H    4.527146   5.233023   3.394612   3.867939   2.150322
    12  H    5.242481   4.587362   3.881785   3.400345   3.403495
    13  H    0.962163   2.160513   1.906981   2.401764   3.173700
    14  H    3.629537   0.957591   3.153211   1.921531   4.320233
                    6          7          8          9         10
     6  C    0.000000
     7  C    2.407004   0.000000
     8  C    1.392492   1.392974   0.000000
     9  H    3.867817   2.165353   3.407289   0.000000
    10  H    1.090731   3.397502   2.156333   4.958495   0.000000
    11  H    3.395062   1.087622   2.155062   2.493652   4.299298
    12  H    2.153184   2.158784   1.087898   4.311953   2.482154
    13  H    3.788344   4.318917   4.564813   3.532266   4.495877
    14  H    2.495209   4.605054   3.874402   5.256984   2.353679
                   11         12         13         14
    11  H    0.000000
    12  H    2.490427   0.000000
    13  H    5.278633   5.634942   0.000000
    14  H    5.681279   4.603021   3.101840   0.000000
 Stoichiometry    C6H6O2
 Framework group  C1[X(C6H6O2)]
 Deg. of freedom    36
 Full point group                 C1      NOp   1
 Largest Abelian subgroup         C1      NOp   1
 Largest concise Abelian subgroup C1      NOp   1
                         Standard orientation:                         
 ---------------------------------------------------------------------
 Center     Atomic      Atomic             Coordinates (Angstroms)
 Number     Number       Type             X           Y           Z
 ---------------------------------------------------------------------
      1          8           0       -1.667697   -1.434666    0.000034
      2          8           0       -1.777728    1.239897    0.000015
      3          6           0       -0.508094   -0.722737    0.000033
      4          6           0       -0.533667    0.671062   -0.000017
      5          6           0        0.711291   -1.386985    0.000011
      6          6           0        0.658478    1.393192   -0.000005
      7          6           0        1.903690   -0.666691   -0.000050
      8          6           0        1.880777    0.726095   -0.000010
      9          1           0        0.711449   -2.474262    0.000032
     10          1           0        0.631378    2.483586    0.000026
     11          1           0        2.853212   -1.197095   -0.000115
     12          1           0        2.809327    1.292945   -0.000001
     13          1           0       -2.412313   -0.825319   -0.000107
     14          1           0       -1.704503    2.194684   -0.000008
 ---------------------------------------------------------------------
 Rotational constants (GHZ):           3.4096433           2.2502627           1.3556043
 Standard basis: 6-311++G(d,p) (5D, 7F)
 There are   226 symmetry adapted cartesian basis functions of A   symmetry.
 There are   218 symmetry adapted basis functions of A   symmetry.
   218 basis functions,   342 primitive gaussians,   226 cartesian basis functions
    29 alpha electrons       29 beta electrons
       nuclear repulsion energy       351.7776620506 Hartrees.
 NAtoms=   14 NActive=   14 NUniq=   14 SFac= 1.00D+00 NAtFMM=   60 NAOKFM=F Big=F
 Integral buffers will be    131072 words long.
 Raffenetti 2 integral format.
 Two-electron integral symmetry is turned on.
 R6APFD:  NTU= -4 IXU= 1 FactS= 1.050
 Nuclear repulsion after empirical dispersion term =      351.7712083944 Hartrees.
 One-electron integrals computed using PRISM.
 NBasis=   218 RedAO= T EigKep=  6.60D-06  NBF=   218
 NBsUse=   217 1.00D-06 EigRej=  9.74D-07 NBFU=   217
 Initial guess from the checkpoint file:  "CECL0013.chk"
 B after Tr=     0.000000    0.000000    0.000000
         Rot=    0.999973   -0.000009   -0.000003    0.007345 Ang=  -0.84 deg.
 ExpMin= 3.60D-02 ExpMax= 8.59D+03 ExpMxC= 1.30D+03 IAcc=3 IRadAn=         5 AccDes= 0.00D+00
 Harris functional with IExCor= 1009 and IRadAn=       5 diagonalized for initial guess.
 HarFok:  IExCor= 1009 AccDes= 0.00D+00 IRadAn=         5 IDoV= 1 UseB2=F ITyADJ=14
 ICtDFT=  3500011 ScaDFX=  1.000000  1.000000  1.000000  1.000000
 FoFCou: FMM=F IPFlag=           0 FMFlag=      100000 FMFlg1=           0
         NFxFlg=           0 DoJE=T BraDBF=F KetDBF=T FulRan=T
         wScrn=  0.000000 ICntrl=       500 IOpCl=  0 I1Cent=   200000004 NGrid=           0
         NMat0=    1 NMatS0=      1 NMatT0=    0 NMatD0=    1 NMtDS0=    0 NMtDT0=    0
 Petite list used in FoFCou.
 Requested convergence on RMS density matrix=1.00D-08 within  32 cycles.
 Requested convergence on MAX density matrix=1.00D-06.
 Requested convergence on             energy=1.00D-06.
 No special actions if energy rises.
 SCF Done:  E(RM08HX) =  -382.683770221     A.U. after   12 cycles
            NFock= 12  Conv=0.68D-08     -V/T= 2.0042
 QCSCF skips out because SCF is already converged.
 R6APFD:  NTU= -4 IXU= 1 FactS= 1.050
 Calling FoFJK, ICntrl=      2127 FMM=F ISym2X=0 I1Cent= 0 IOpClX= 0 NMat=1 NMatS=1 NMatT=0.
 ***** Axes restored to original set *****
 -------------------------------------------------------------------
 Center     Atomic                   Forces (Hartrees/Bohr)
 Number     Number              X              Y              Z
 -------------------------------------------------------------------
      1        8          -0.002969361   -0.001559557    0.000000886
      2        8           0.000511271    0.000888456   -0.000002410
      3        6           0.004755372    0.005798367   -0.000007161
      4        6          -0.006450327   -0.006219444    0.000008256
      5        6          -0.001384674    0.000537960   -0.000001656
      6        6           0.002829536   -0.000235247    0.000001061
      7        6           0.000211931   -0.001299955    0.000004271
      8        6          -0.000238129    0.002652909   -0.000004044
      9        1           0.000908606    0.000335673   -0.000001235
     10        1           0.000942540   -0.000001049   -0.000000694
     11        1           0.000023112    0.000215389    0.000001989
     12        1           0.000485052   -0.000174519   -0.000000908
     13        1          -0.000665287   -0.000229668    0.000001996
     14        1           0.001040357   -0.000709315   -0.000000352
 -------------------------------------------------------------------
 Cartesian Forces:  Max     0.006450327 RMS     0.002024498

 GradGradGradGradGradGradGradGradGradGradGradGradGradGradGradGradGradGrad
 Berny optimization.
 Using GEDIIS/GDIIS optimizer.
 FormGI is forming the generalized inverse of G from B-inverse, IUseBI=4.
 Internal  Forces:  Max     0.004110216 RMS     0.001127524
 Search for a local minimum.
 Step number   2 out of a maximum of   72
 All quantities printed in internal units (Hartrees-Bohrs-Radians)
 Mixed Optimization -- RFO/linear search
 Update second derivatives using D2CorX and points    1    2
 DE= -2.84D-03 DEPred=-2.57D-03 R= 1.11D+00
 TightC=F SS=  1.41D+00  RLast= 1.38D-01 DXNew= 5.0454D-01 4.1473D-01
 Trust test= 1.11D+00 RLast= 1.38D-01 DXMaxT set to 4.15D-01
 ITU=  1  0
 Use linear search instead of GDIIS.
     Eigenvalues ---    0.02156   0.02156   0.02157   0.02157   0.02157
     Eigenvalues ---    0.02157   0.02158   0.02163   0.02164   0.02190
     Eigenvalues ---    0.02191   0.14896   0.16000   0.16000   0.16000
     Eigenvalues ---    0.16000   0.16163   0.21602   0.22063   0.24144
     Eigenvalues ---    0.24616   0.25009   0.35186   0.35216   0.35267
     Eigenvalues ---    0.35292   0.42286   0.42485   0.45981   0.46478
     Eigenvalues ---    0.46494   0.47307   0.51583   0.52508   0.52786
     Eigenvalues ---    0.55838
 RFO step:  Lambda=-2.24753119D-04 EMin= 2.15576915D-02
 Quartic linear search produced a step of  0.09228.
 Iteration  1 RMS(Cart)=  0.00900770 RMS(Int)=  0.00007919
 Iteration  2 RMS(Cart)=  0.00008630 RMS(Int)=  0.00000079
 Iteration  3 RMS(Cart)=  0.00000000 RMS(Int)=  0.00000079
 Variable       Old X    -DE/DX   Delta X   Delta X   Delta X     New X
                                 (Linear)    (Quad)   (Total)
    R1        2.57136  -0.00404  -0.00027  -0.00825  -0.00852   2.56284
    R2        1.81822  -0.00035  -0.00189   0.00036  -0.00153   1.81669
    R3        2.58503   0.00131   0.00098   0.00216   0.00315   2.58818
    R4        1.80958   0.00059  -0.00262   0.00272   0.00011   1.80969
    R5        2.63434   0.00401  -0.00012   0.00964   0.00953   2.64387
    R6        2.62402  -0.00019  -0.00111   0.00041  -0.00070   2.62331
    R7        2.63390  -0.00411  -0.00018  -0.00959  -0.00978   2.62412
    R8        2.63252  -0.00016  -0.00032  -0.00014  -0.00047   2.63205
    R9        2.05466   0.00036   0.00011   0.00106   0.00117   2.05583
   R10        2.63143   0.00134  -0.00041   0.00317   0.00275   2.63418
   R11        2.06118  -0.00000   0.00070  -0.00044   0.00026   2.06144
   R12        2.63234  -0.00020  -0.00032  -0.00045  -0.00077   2.63157
   R13        2.05531   0.00009   0.00027   0.00012   0.00039   2.05569
   R14        2.05583  -0.00034   0.00031  -0.00123  -0.00092   2.05491
    A1        1.90516  -0.00110   0.00137  -0.00852  -0.00715   1.89801
    A2        1.92311   0.00202   0.00190   0.01238   0.01428   1.93740
    A3        2.10306  -0.00017  -0.00011  -0.00107  -0.00119   2.10187
    A4        2.09219   0.00027   0.00071   0.00032   0.00104   2.09322
    A5        2.08794  -0.00010  -0.00060   0.00075   0.00015   2.08809
    A6        2.01800  -0.00255  -0.00794  -0.00615  -0.01409   2.00391
    A7        2.16810   0.00169   0.00770   0.00225   0.00995   2.17805
    A8        2.09708   0.00086   0.00024   0.00389   0.00414   2.10122
    A9        2.09939  -0.00100   0.00047  -0.00462  -0.00414   2.09525
   A10        2.06974  -0.00042  -0.00288  -0.00203  -0.00491   2.06483
   A11        2.11406   0.00142   0.00241   0.00665   0.00905   2.12311
   A12        2.09737  -0.00116   0.00027  -0.00639  -0.00612   2.09125
   A13        2.09058  -0.00040  -0.00160  -0.00240  -0.00400   2.08658
   A14        2.09524   0.00156   0.00133   0.00879   0.01012   2.10536
   A15        2.09776   0.00023   0.00030   0.00079   0.00109   2.09885
   A16        2.08876  -0.00031  -0.00052  -0.00147  -0.00199   2.08678
   A17        2.09667   0.00008   0.00022   0.00067   0.00089   2.09756
   A18        2.08684   0.00117  -0.00069   0.00557   0.00488   2.09172
   A19        2.09392  -0.00099  -0.00006  -0.00527  -0.00533   2.08859
   A20        2.10243  -0.00018   0.00075  -0.00030   0.00045   2.10288
    D1        0.00011  -0.00000  -0.00003   0.00002  -0.00000   0.00011
    D2       -3.14142  -0.00000   0.00005  -0.00025  -0.00019   3.14158
    D3        3.14158   0.00000  -0.00001   0.00009   0.00009  -3.14153
    D4        0.00006  -0.00000   0.00000  -0.00005  -0.00005   0.00002
    D5        0.00006  -0.00000   0.00008  -0.00029  -0.00021  -0.00015
    D6        3.14158  -0.00000   0.00007  -0.00016  -0.00009   3.14149
    D7       -3.14159  -0.00000  -0.00001  -0.00002  -0.00003   3.14157
    D8       -0.00007   0.00000  -0.00001   0.00011   0.00010   0.00003
    D9        3.14154   0.00000  -0.00008   0.00027   0.00019  -3.14145
   D10       -0.00004   0.00000  -0.00005   0.00016   0.00011   0.00007
   D11        0.00001   0.00000   0.00000   0.00000   0.00000   0.00001
   D12       -3.14157  -0.00000   0.00004  -0.00011  -0.00007   3.14154
   D13        3.14157   0.00000  -0.00000   0.00007   0.00006  -3.14155
   D14       -0.00001   0.00000  -0.00001   0.00005   0.00005   0.00004
   D15        0.00006  -0.00000   0.00001  -0.00008  -0.00007  -0.00002
   D16       -3.14152  -0.00000   0.00000  -0.00009  -0.00009   3.14158
   D17        0.00007  -0.00000   0.00002  -0.00015  -0.00013  -0.00006
   D18       -3.14154  -0.00000   0.00001  -0.00007  -0.00007   3.14158
   D19       -3.14154  -0.00000  -0.00001  -0.00004  -0.00005  -3.14159
   D20        0.00004  -0.00000  -0.00003   0.00004   0.00001   0.00005
   D21        0.00002  -0.00000   0.00002  -0.00007  -0.00005  -0.00003
   D22        3.14159   0.00000  -0.00000   0.00001   0.00001  -3.14158
   D23       -3.14159  -0.00000   0.00002  -0.00005  -0.00003   3.14156
   D24       -0.00002   0.00000  -0.00000   0.00003   0.00003   0.00001
   D25       -0.00008   0.00000  -0.00003   0.00018   0.00015   0.00007
   D26        3.14153   0.00000  -0.00001   0.00010   0.00009  -3.14156
   D27        3.14153   0.00000  -0.00002   0.00010   0.00009  -3.14157
   D28       -0.00004   0.00000   0.00001   0.00002   0.00003  -0.00002
         Item               Value     Threshold  Converged?
 Maximum Force            0.004110     0.000450     NO 
 RMS     Force            0.001128     0.000300     NO 
 Maximum Displacement     0.045936     0.001800     NO 
 RMS     Displacement     0.009018     0.001200     NO 
 Predicted change in Energy=-1.395578D-04
 GradGradGradGradGradGradGradGradGradGradGradGradGradGradGradGradGradGrad

                          Input orientation:                          
 ---------------------------------------------------------------------
 Center     Atomic      Atomic             Coordinates (Angstroms)
 Number     Number       Type             X           Y           Z
 ---------------------------------------------------------------------
      1          8           0        1.779694    1.343874    0.000161
      2          8           0        1.808915   -1.317749    0.000087
      3          6           0        0.598969    0.676672    0.000053
      4          6           0        0.575565   -0.722207    0.000108
      5          6           0       -0.595945    1.383263    0.000042
      6          6           0       -0.633839   -1.404573    0.000117
      7          6           0       -1.809938    0.700494    0.000100
      8          6           0       -1.831836   -0.691903    0.000093
      9          1           0       -0.552451    2.470291    0.000050
     10          1           0       -0.636118   -2.495438    0.000144
     11          1           0       -2.741580    1.262107    0.000103
     12          1           0       -2.777477   -1.228776    0.000109
     13          1           0        2.496557    0.703326    0.000168
     14          1           0        1.729286   -2.272079    0.000066
 ---------------------------------------------------------------------
                    Distance matrix (angstroms):
                    1          2          3          4          5
     1  O    0.000000
     2  O    2.661783   0.000000
     3  C    1.356197   2.332741   0.000000
     4  C    2.391363   1.369606   1.399075   0.000000
     5  C    2.375965   3.616465   1.388197   2.409448   0.000000
     6  C    3.657745   2.444297   2.418966   1.388626   2.788093
     7  C    3.646834   4.143598   2.409025   2.777536   1.392822
     8  C    4.145786   3.694151   2.789590   2.407592   2.415314
     9  H    2.589926   4.463776   2.131393   3.385922   1.087898
    10  H    4.536129   2.713879   3.404075   2.147679   3.878909
    11  H    4.522013   5.230933   3.391461   3.865353   2.149053
    12  H    5.233195   4.587255   3.876999   3.391092   3.403208
    13  H    0.961351   2.134852   1.897775   2.392144   3.166368
    14  H    3.616305   0.957647   3.157966   1.932142   4.332231
                    6          7          8          9         10
     6  C    0.000000
     7  C    2.411330   0.000000
     8  C    1.393949   1.392569   0.000000
     9  H    3.875718   2.171049   3.411202   0.000000
    10  H    1.090868   3.404679   2.163904   4.966434   0.000000
    11  H    3.399081   1.087826   2.155409   2.500399   4.307217
    12  H    2.150834   2.158289   1.087413   4.316692   2.487942
    13  H    3.773939   4.306496   4.547709   3.524006   4.477247
    14  H    2.517325   4.621936   3.895965   5.262737   2.375926
                   11         12         13         14
    11  H    0.000000
    12  H    2.491141   0.000000
    13  H    5.267857   5.616801   0.000000
    14  H    5.699045   4.625948   3.072741   0.000000
 Stoichiometry    C6H6O2
 Framework group  C1[X(C6H6O2)]
 Deg. of freedom    36
 Full point group                 C1      NOp   1
 Largest Abelian subgroup         C1      NOp   1
 Largest concise Abelian subgroup C1      NOp   1
                         Standard orientation:                         
 ---------------------------------------------------------------------
 Center     Atomic      Atomic             Coordinates (Angstroms)
 Number     Number       Type             X           Y           Z
 ---------------------------------------------------------------------
      1          8           0       -1.658555   -1.434860    0.000062
      2          8           0       -1.785160    1.223911   -0.000012
      3          6           0       -0.503038   -0.724895   -0.000045
      4          6           0       -0.530842    0.673903    0.000010
      5          6           0        0.716934   -1.387285   -0.000056
      6          6           0        0.652781    1.400070    0.000019
      7          6           0        1.905128   -0.660547    0.000002
      8          6           0        1.876056    0.731719   -0.000005
      9          1           0        0.713249   -2.475176   -0.000048
     10          1           0        0.615137    2.490288    0.000046
     11          1           0        2.856698   -1.187690    0.000005
     12          1           0        2.801416    1.302838    0.000010
     13          1           0       -2.398379   -0.820975    0.000070
     14          1           0       -1.740508    2.180516   -0.000032
 ---------------------------------------------------------------------
 Rotational constants (GHZ):           3.4172230           2.2530703           1.3578210
 Standard basis: 6-311++G(d,p) (5D, 7F)
 There are   226 symmetry adapted cartesian basis functions of A   symmetry.
 There are   218 symmetry adapted basis functions of A   symmetry.
   218 basis functions,   342 primitive gaussians,   226 cartesian basis functions
    29 alpha electrons       29 beta electrons
       nuclear repulsion energy       351.9755832044 Hartrees.
 NAtoms=   14 NActive=   14 NUniq=   14 SFac= 1.00D+00 NAtFMM=   60 NAOKFM=F Big=F
 Integral buffers will be    131072 words long.
 Raffenetti 2 integral format.
 Two-electron integral symmetry is turned on.
 R6APFD:  NTU= -4 IXU= 1 FactS= 1.050
 Nuclear repulsion after empirical dispersion term =      351.9691178538 Hartrees.
 One-electron integrals computed using PRISM.
 NBasis=   218 RedAO= T EigKep=  6.63D-06  NBF=   218
 NBsUse=   217 1.00D-06 EigRej=  9.72D-07 NBFU=   217
 Initial guess from the checkpoint file:  "CECL0013.chk"
 B after Tr=     0.000000   -0.000000    0.000000
         Rot=    0.999998   -0.000002    0.000002   -0.002193 Ang=  -0.25 deg.
 ExpMin= 3.60D-02 ExpMax= 8.59D+03 ExpMxC= 1.30D+03 IAcc=3 IRadAn=         5 AccDes= 0.00D+00
 Harris functional with IExCor= 1009 and IRadAn=       5 diagonalized for initial guess.
 HarFok:  IExCor= 1009 AccDes= 0.00D+00 IRadAn=         5 IDoV= 1 UseB2=F ITyADJ=14
 ICtDFT=  3500011 ScaDFX=  1.000000  1.000000  1.000000  1.000000
 FoFCou: FMM=F IPFlag=           0 FMFlag=      100000 FMFlg1=           0
         NFxFlg=           0 DoJE=T BraDBF=F KetDBF=T FulRan=T
         wScrn=  0.000000 ICntrl=       500 IOpCl=  0 I1Cent=   200000004 NGrid=           0
         NMat0=    1 NMatS0=      1 NMatT0=    0 NMatD0=    1 NMtDS0=    0 NMtDT0=    0
 Petite list used in FoFCou.
 Requested convergence on RMS density matrix=1.00D-08 within  32 cycles.
 Requested convergence on MAX density matrix=1.00D-06.
 Requested convergence on             energy=1.00D-06.
 No special actions if energy rises.
 SCF Done:  E(RM08HX) =  -382.683918447     A.U. after   12 cycles
            NFock= 12  Conv=0.16D-08     -V/T= 2.0041
 QCSCF skips out because SCF is already converged.
 R6APFD:  NTU= -4 IXU= 1 FactS= 1.050
 Calling FoFJK, ICntrl=      2127 FMM=F ISym2X=0 I1Cent= 0 IOpClX= 0 NMat=1 NMatS=1 NMatT=0.
 ***** Axes restored to original set *****
 -------------------------------------------------------------------
 Center     Atomic                   Forces (Hartrees/Bohr)
 Number     Number              X              Y              Z
 -------------------------------------------------------------------
      1        8          -0.001251705   -0.000526781   -0.000006285
      2        8           0.000326663    0.000506122    0.000003290
      3        6           0.001033910    0.002310257    0.000012369
      4        6          -0.001237300   -0.001263405   -0.000008317
      5        6           0.000482252    0.000143272    0.000004381
      6        6           0.001404689   -0.000675489   -0.000001804
      7        6          -0.000595240   -0.001440239   -0.000008013
      8        6          -0.000807962    0.001648451    0.000005195
      9        1           0.000105402   -0.000080156   -0.000000472
     10        1          -0.000042919    0.000263818   -0.000000447
     11        1          -0.000049517   -0.000140498    0.000000146
     12        1          -0.000041151   -0.000027823    0.000000149
     13        1           0.000809968   -0.000348844   -0.000000516
     14        1          -0.000137091   -0.000368687    0.000000325
 -------------------------------------------------------------------
 Cartesian Forces:  Max     0.002310257 RMS     0.000711610

 GradGradGradGradGradGradGradGradGradGradGradGradGradGradGradGradGradGrad
 Berny optimization.
 Using GEDIIS/GDIIS optimizer.
 FormGI is forming the generalized inverse of G from B-inverse, IUseBI=4.
 Internal  Forces:  Max     0.001074454 RMS     0.000340555
 Search for a local minimum.
 Step number   3 out of a maximum of   72
 All quantities printed in internal units (Hartrees-Bohrs-Radians)
 Mixed Optimization -- En-DIIS/RFO-DIIS
 Update second derivatives using D2CorX and points    1    2    3
 DE= -1.48D-04 DEPred=-1.40D-04 R= 1.06D+00
 TightC=F SS=  1.41D+00  RLast= 3.45D-02 DXNew= 6.9749D-01 1.0361D-01
 Trust test= 1.06D+00 RLast= 3.45D-02 DXMaxT set to 4.15D-01
 ITU=  1  1  0
 Use linear search instead of GDIIS.
     Eigenvalues ---    0.02156   0.02156   0.02157   0.02157   0.02157
     Eigenvalues ---    0.02157   0.02158   0.02163   0.02164   0.02190
     Eigenvalues ---    0.02191   0.14646   0.16000   0.16000   0.16000
     Eigenvalues ---    0.16019   0.17008   0.20193   0.22052   0.23852
     Eigenvalues ---    0.24755   0.25713   0.35210   0.35258   0.35283
     Eigenvalues ---    0.35316   0.41625   0.42313   0.43456   0.46489
     Eigenvalues ---    0.46674   0.48450   0.51638   0.52507   0.53470
     Eigenvalues ---    0.54985
 RFO step:  Lambda=-1.95568982D-05 EMin= 2.15577196D-02
 Quartic linear search produced a step of  0.11854.
 Iteration  1 RMS(Cart)=  0.00147412 RMS(Int)=  0.00000152
 Iteration  2 RMS(Cart)=  0.00000210 RMS(Int)=  0.00000035
 Iteration  3 RMS(Cart)=  0.00000000 RMS(Int)=  0.00000035
 Variable       Old X    -DE/DX   Delta X   Delta X   Delta X     New X
                                 (Linear)    (Quad)   (Total)
    R1        2.56284  -0.00081  -0.00101  -0.00137  -0.00238   2.56046
    R2        1.81669   0.00083  -0.00018   0.00165   0.00147   1.81816
    R3        2.58818   0.00011   0.00037   0.00019   0.00056   2.58874
    R4        1.80969   0.00037   0.00001   0.00055   0.00056   1.81025
    R5        2.64387   0.00100   0.00113   0.00202   0.00315   2.64702
    R6        2.62331  -0.00006  -0.00008  -0.00017  -0.00025   2.62306
    R7        2.62412  -0.00062  -0.00116  -0.00105  -0.00221   2.62191
    R8        2.63205   0.00092  -0.00006   0.00219   0.00214   2.63419
    R9        2.05583  -0.00008   0.00014  -0.00029  -0.00015   2.05568
   R10        2.63418   0.00089   0.00033   0.00193   0.00226   2.63644
   R11        2.06144  -0.00026   0.00003  -0.00078  -0.00075   2.06069
   R12        2.63157  -0.00107  -0.00009  -0.00263  -0.00272   2.62885
   R13        2.05569  -0.00003   0.00005  -0.00009  -0.00004   2.05565
   R14        2.05491   0.00005  -0.00011   0.00023   0.00012   2.05503
    A1        1.89801   0.00051  -0.00085   0.00397   0.00313   1.90114
    A2        1.93740  -0.00018   0.00169  -0.00173  -0.00004   1.93736
    A3        2.10187  -0.00019  -0.00014  -0.00091  -0.00105   2.10082
    A4        2.09322   0.00066   0.00012   0.00286   0.00298   2.09620
    A5        2.08809  -0.00047   0.00002  -0.00194  -0.00192   2.08617
    A6        2.00391  -0.00036  -0.00167  -0.00172  -0.00339   2.00052
    A7        2.17805   0.00002   0.00118   0.00020   0.00138   2.17943
    A8        2.10122   0.00034   0.00049   0.00152   0.00201   2.10323
    A9        2.09525   0.00003  -0.00049   0.00042  -0.00007   2.09518
   A10        2.06483  -0.00012  -0.00058  -0.00085  -0.00143   2.06339
   A11        2.12311   0.00009   0.00107   0.00043   0.00150   2.12461
   A12        2.09125  -0.00013  -0.00073  -0.00045  -0.00117   2.09008
   A13        2.08658   0.00010  -0.00047   0.00068   0.00021   2.08678
   A14        2.10536   0.00002   0.00120  -0.00023   0.00097   2.10632
   A15        2.09885   0.00018   0.00013   0.00072   0.00085   2.09970
   A16        2.08678   0.00007  -0.00024   0.00076   0.00053   2.08730
   A17        2.09756  -0.00025   0.00011  -0.00148  -0.00138   2.09618
   A18        2.09172   0.00005   0.00058  -0.00028   0.00030   2.09202
   A19        2.08859  -0.00003  -0.00063   0.00016  -0.00048   2.08811
   A20        2.10288  -0.00001   0.00005   0.00012   0.00018   2.10305
    D1        0.00011  -0.00000  -0.00000  -0.00007  -0.00007   0.00004
    D2        3.14158   0.00000  -0.00002   0.00012   0.00010  -3.14151
    D3       -3.14153  -0.00000   0.00001  -0.00006  -0.00005  -3.14158
    D4        0.00002   0.00000  -0.00001   0.00003   0.00003   0.00004
    D5       -0.00015   0.00000  -0.00003   0.00023   0.00020   0.00005
    D6        3.14149   0.00000  -0.00001   0.00013   0.00012  -3.14157
    D7        3.14157   0.00000  -0.00000   0.00004   0.00003  -3.14158
    D8        0.00003  -0.00000   0.00001  -0.00006  -0.00005  -0.00002
    D9       -3.14145  -0.00000   0.00002  -0.00020  -0.00018   3.14155
   D10        0.00007  -0.00000   0.00001  -0.00011  -0.00010  -0.00002
   D11        0.00001  -0.00000   0.00000  -0.00001  -0.00001   0.00000
   D12        3.14154   0.00000  -0.00001   0.00008   0.00007  -3.14157
   D13       -3.14155  -0.00000   0.00001  -0.00007  -0.00006   3.14157
   D14        0.00004  -0.00000   0.00001  -0.00006  -0.00005  -0.00001
   D15       -0.00002   0.00000  -0.00001   0.00003   0.00003   0.00001
   D16        3.14158   0.00000  -0.00001   0.00004   0.00003  -3.14158
   D17       -0.00006   0.00000  -0.00002   0.00010   0.00009   0.00002
   D18        3.14158   0.00000  -0.00001   0.00003   0.00002  -3.14159
   D19       -3.14159   0.00000  -0.00001   0.00001  -0.00000  -3.14159
   D20        0.00005  -0.00000   0.00000  -0.00007  -0.00007  -0.00001
   D21       -0.00003   0.00000  -0.00001   0.00006   0.00005   0.00002
   D22       -3.14158  -0.00000   0.00000  -0.00001  -0.00001  -3.14159
   D23        3.14156   0.00000  -0.00000   0.00005   0.00004  -3.14159
   D24        0.00001  -0.00000   0.00000  -0.00002  -0.00002  -0.00001
   D25        0.00007  -0.00000   0.00002  -0.00012  -0.00011  -0.00003
   D26       -3.14156  -0.00000   0.00001  -0.00006  -0.00005   3.14158
   D27       -3.14157  -0.00000   0.00001  -0.00005  -0.00004   3.14158
   D28       -0.00002   0.00000   0.00000   0.00002   0.00002   0.00000
         Item               Value     Threshold  Converged?
 Maximum Force            0.001074     0.000450     NO 
 RMS     Force            0.000341     0.000300     NO 
 Maximum Displacement     0.004011     0.001800     NO 
 RMS     Displacement     0.001474     0.001200     NO 
 Predicted change in Energy=-1.134169D-05
 GradGradGradGradGradGradGradGradGradGradGradGradGradGradGradGradGradGrad

                          Input orientation:                          
 ---------------------------------------------------------------------
 Center     Atomic      Atomic             Coordinates (Angstroms)
 Number     Number       Type             X           Y           Z
 ---------------------------------------------------------------------
      1          8           0        1.780442    1.341783    0.000107
      2          8           0        1.808733   -1.315627    0.000142
      3          6           0        0.599216    0.678031    0.000126
      4          6           0        0.573900   -0.722483    0.000111
      5          6           0       -0.595994    1.383864    0.000110
      6          6           0       -0.634030   -1.405080    0.000102
      7          6           0       -1.810532    0.699757    0.000081
      8          6           0       -1.832692   -0.691195    0.000096
      9          1           0       -0.551573    2.470776    0.000102
     10          1           0       -0.635805   -2.495549    0.000106
     11          1           0       -2.742812    1.260265    0.000063
     12          1           0       -2.778402   -1.228071    0.000089
     13          1           0        2.498353    0.701238    0.000049
     14          1           0        1.730997   -2.270412    0.000117
 ---------------------------------------------------------------------
                    Distance matrix (angstroms):
                    1          2          3          4          5
     1  O    0.000000
     2  O    2.657561   0.000000
     3  C    1.354939   2.331867   0.000000
     4  C    2.391012   1.369902   1.400743   0.000000
     5  C    2.376808   3.615240   1.388066   2.409429   0.000000
     6  C    3.657175   2.444400   2.420794   1.387455   2.789203
     7  C    3.647916   4.142566   2.409846   2.776379   1.393953
     8  C    4.145809   3.694575   2.790870   2.406795   2.415635
     9  H    2.590930   4.461826   2.130317   3.385793   1.087820
    10  H    4.534685   2.714403   3.405421   2.146428   3.879617
    11  H    4.523988   5.229893   3.392366   3.864177   2.150373
    12  H    5.233278   4.587970   3.878341   3.390213   3.403690
    13  H    0.962130   2.131507   1.899278   2.393846   3.168747
    14  H    3.612534   0.957945   3.158203   1.932604   4.332276
                    6          7          8          9         10
     6  C    0.000000
     7  C    2.411327   0.000000
     8  C    1.395143   1.391128   0.000000
     9  H    3.876733   2.172899   3.411646   0.000000
    10  H    1.090471   3.404403   2.165232   4.967040   0.000000
    11  H    3.398680   1.087803   2.153257   2.503371   4.306462
    12  H    2.151666   2.157149   1.087476   4.317434   2.489422
    13  H    3.774704   4.308885   4.549375   3.526090   4.476873
    14  H    2.518363   4.622157   3.897923   5.262033   2.377486
                   11         12         13         14
    11  H    0.000000
    12  H    2.488590   0.000000
    13  H    5.270893   5.618396   0.000000
    14  H    5.699180   4.628299   3.069127   0.000000
 Stoichiometry    C6H6O2
 Framework group  C1[X(C6H6O2)]
 Deg. of freedom    36
 Full point group                 C1      NOp   1
 Largest Abelian subgroup         C1      NOp   1
 Largest concise Abelian subgroup C1      NOp   1
                         Standard orientation:                         
 ---------------------------------------------------------------------
 Center     Atomic      Atomic             Coordinates (Angstroms)
 Number     Number       Type             X           Y           Z
 ---------------------------------------------------------------------
      1          8           0       -1.660598   -1.431525   -0.000001
      2          8           0       -1.784236    1.223158    0.000034
      3          6           0       -0.503953   -0.725810    0.000018
      4          6           0       -0.528913    0.674710    0.000003
      5          6           0        0.715817   -1.388296    0.000002
      6          6           0        0.653742    1.400216   -0.000006
      7          6           0        1.905023   -0.661044   -0.000027
      8          6           0        1.877251    0.729807   -0.000012
      9          1           0        0.710430   -2.476103   -0.000006
     10          1           0        0.616384    2.490046   -0.000002
     11          1           0        2.856817   -1.187735   -0.000045
     12          1           0        2.803086    1.300275   -0.000019
     13          1           0       -2.401033   -0.817156   -0.000059
     14          1           0       -1.740815    2.180118    0.000009
 ---------------------------------------------------------------------
 Rotational constants (GHZ):           3.4207316           2.2519775           1.3579774
 Standard basis: 6-311++G(d,p) (5D, 7F)
 There are   226 symmetry adapted cartesian basis functions of A   symmetry.
 There are   218 symmetry adapted basis functions of A   symmetry.
   218 basis functions,   342 primitive gaussians,   226 cartesian basis functions
    29 alpha electrons       29 beta electrons
       nuclear repulsion energy       351.9844921123 Hartrees.
 NAtoms=   14 NActive=   14 NUniq=   14 SFac= 1.00D+00 NAtFMM=   60 NAOKFM=F Big=F
 Integral buffers will be    131072 words long.
 Raffenetti 2 integral format.
 Two-electron integral symmetry is turned on.
 R6APFD:  NTU= -4 IXU= 1 FactS= 1.050
 Nuclear repulsion after empirical dispersion term =      351.9780248565 Hartrees.
 One-electron integrals computed using PRISM.
 NBasis=   218 RedAO= T EigKep=  6.66D-06  NBF=   218
 NBsUse=   217 1.00D-06 EigRej=  9.73D-07 NBFU=   217
 Initial guess from the checkpoint file:  "CECL0013.chk"
 B after Tr=    -0.000000    0.000000   -0.000000
         Rot=    1.000000   -0.000001   -0.000001    0.000387 Ang=  -0.04 deg.
 Requested convergence on RMS density matrix=1.00D-08 within  32 cycles.
 Requested convergence on MAX density matrix=1.00D-06.
 Requested convergence on             energy=1.00D-06.
 No special actions if energy rises.
 SCF Done:  E(RM08HX) =  -382.683931535     A.U. after   10 cycles
            NFock= 10  Conv=0.74D-08     -V/T= 2.0041
 QCSCF skips out because SCF is already converged.
 R6APFD:  NTU= -4 IXU= 1 FactS= 1.050
 Calling FoFJK, ICntrl=      2127 FMM=F ISym2X=0 I1Cent= 0 IOpClX= 0 NMat=1 NMatS=1 NMatT=0.
 ***** Axes restored to original set *****
 -------------------------------------------------------------------
 Center     Atomic                   Forces (Hartrees/Bohr)
 Number     Number              X              Y              Z
 -------------------------------------------------------------------
      1        8          -0.000203295   -0.000152402    0.000001313
      2        8           0.000091324   -0.000084663   -0.000001525
      3        6          -0.000021857    0.000616047   -0.000004631
      4        6          -0.000139839   -0.000055365    0.000003731
      5        6           0.000565771   -0.000023445   -0.000001248
      6        6           0.000627450   -0.000237395    0.000000842
      7        6          -0.000200006   -0.000425432    0.000002936
      8        6          -0.000338354    0.000447213   -0.000002121
      9        1          -0.000122915   -0.000004948    0.000000035
     10        1          -0.000120538    0.000031312    0.000000015
     11        1           0.000016041    0.000020609    0.000000099
     12        1          -0.000009574   -0.000005315   -0.000000208
     13        1          -0.000059259   -0.000047441    0.000000912
     14        1          -0.000084951   -0.000078775   -0.000000150
 -------------------------------------------------------------------
 Cartesian Forces:  Max     0.000627450 RMS     0.000209281

 GradGradGradGradGradGradGradGradGradGradGradGradGradGradGradGradGradGrad
 Berny optimization.
 Using GEDIIS/GDIIS optimizer.
 FormGI is forming the generalized inverse of G from B-inverse, IUseBI=4.
 Internal  Forces:  Max     0.000326734 RMS     0.000113334
 Search for a local minimum.
 Step number   4 out of a maximum of   72
 All quantities printed in internal units (Hartrees-Bohrs-Radians)
 Mixed Optimization -- En-DIIS/RFO-DIIS
 Swapping is turned off.
 Update second derivatives using D2CorX and points    1    2    3    4
 DE= -1.31D-05 DEPred=-1.13D-05 R= 1.15D+00
 TightC=F SS=  1.41D+00  RLast= 9.59D-03 DXNew= 6.9749D-01 2.8774D-02
 Trust test= 1.15D+00 RLast= 9.59D-03 DXMaxT set to 4.15D-01
 ITU=  1  1  1  0
     Eigenvalues ---    0.02156   0.02156   0.02157   0.02157   0.02157
     Eigenvalues ---    0.02157   0.02158   0.02163   0.02164   0.02190
     Eigenvalues ---    0.02191   0.15738   0.16000   0.16000   0.16005
     Eigenvalues ---    0.16548   0.17306   0.18971   0.22096   0.23902
     Eigenvalues ---    0.24708   0.25336   0.34582   0.35219   0.35272
     Eigenvalues ---    0.35290   0.35767   0.42412   0.42960   0.46488
     Eigenvalues ---    0.46721   0.48337   0.51628   0.52503   0.54010
     Eigenvalues ---    0.54241
 En-DIIS/RFO-DIIS/Sim-DIIS IScMMF=       -3 using points:     4    3
 RFO step:  Lambda=-2.80389293D-06.
 Use linear search instead of GDIIS.
 RFO step:  Lambda=-2.37250497D-06 EMin= 2.15577225D-02
 Quartic linear search produced a step of  0.13860.
 Iteration  1 RMS(Cart)=  0.00056727 RMS(Int)=  0.00000030
 Iteration  2 RMS(Cart)=  0.00000033 RMS(Int)=  0.00000005
 Variable       Old X    -DE/DX   Delta X   Delta X   Delta X     New X
                                 (Linear)    (Quad)   (Total)
    R1        2.56046  -0.00033  -0.00033  -0.00063  -0.00096   2.55951
    R2        1.81816  -0.00002   0.00020  -0.00017   0.00004   1.81820
    R3        2.58874   0.00008   0.00008   0.00018   0.00026   2.58900
    R4        1.81025   0.00008   0.00008   0.00009   0.00017   1.81042
    R5        2.64702   0.00028   0.00044   0.00058   0.00101   2.64803
    R6        2.62306  -0.00025  -0.00003  -0.00061  -0.00065   2.62242
    R7        2.62191  -0.00015  -0.00031  -0.00029  -0.00060   2.62131
    R8        2.63419   0.00026   0.00030   0.00047   0.00076   2.63495
    R9        2.05568  -0.00001  -0.00002  -0.00001  -0.00004   2.05565
   R10        2.63644   0.00033   0.00031   0.00068   0.00099   2.63743
   R11        2.06069  -0.00003  -0.00010  -0.00004  -0.00014   2.06055
   R12        2.62885  -0.00030  -0.00038  -0.00058  -0.00096   2.62789
   R13        2.05565  -0.00000  -0.00001  -0.00000  -0.00001   2.05564
   R14        2.05503   0.00001   0.00002   0.00003   0.00004   2.05508
    A1        1.90114  -0.00013   0.00043  -0.00114  -0.00071   1.90043
    A2        1.93736  -0.00013  -0.00001  -0.00077  -0.00078   1.93658
    A3        2.10082  -0.00009  -0.00015  -0.00034  -0.00049   2.10033
    A4        2.09620   0.00013   0.00041   0.00041   0.00083   2.09703
    A5        2.08617  -0.00004  -0.00027  -0.00007  -0.00034   2.08583
    A6        2.00052   0.00023  -0.00047   0.00092   0.00045   2.00097
    A7        2.17943  -0.00025   0.00019  -0.00101  -0.00082   2.17862
    A8        2.10323   0.00003   0.00028   0.00009   0.00036   2.10360
    A9        2.09518   0.00001  -0.00001  -0.00001  -0.00002   2.09516
   A10        2.06339   0.00013  -0.00020   0.00091   0.00071   2.06410
   A11        2.12461  -0.00014   0.00021  -0.00090  -0.00069   2.12392
   A12        2.09008  -0.00003  -0.00016  -0.00008  -0.00025   2.08983
   A13        2.08678   0.00014   0.00003   0.00080   0.00083   2.08762
   A14        2.10632  -0.00010   0.00013  -0.00072  -0.00059   2.10573
   A15        2.09970   0.00006   0.00012   0.00022   0.00034   2.10003
   A16        2.08730  -0.00005   0.00007  -0.00033  -0.00026   2.08705
   A17        2.09618  -0.00001  -0.00019   0.00011  -0.00008   2.09610
   A18        2.09202  -0.00003   0.00004  -0.00014  -0.00010   2.09192
   A19        2.08811   0.00001  -0.00007   0.00002  -0.00005   2.08806
   A20        2.10305   0.00002   0.00002   0.00013   0.00015   2.10320
    D1        0.00004  -0.00000  -0.00001   0.00001  -0.00000   0.00003
    D2       -3.14151  -0.00000   0.00001  -0.00009  -0.00008  -3.14159
    D3       -3.14158   0.00000  -0.00001   0.00004   0.00003  -3.14154
    D4        0.00004  -0.00000   0.00000  -0.00002  -0.00002   0.00002
    D5        0.00005  -0.00000   0.00003  -0.00012  -0.00009  -0.00004
    D6       -3.14157  -0.00000   0.00002  -0.00006  -0.00004   3.14158
    D7       -3.14158  -0.00000   0.00000  -0.00003  -0.00002   3.14158
    D8       -0.00002   0.00000  -0.00001   0.00004   0.00003   0.00001
    D9        3.14155   0.00000  -0.00002   0.00010   0.00007  -3.14156
   D10       -0.00002   0.00000  -0.00001   0.00005   0.00004   0.00002
   D11        0.00000  -0.00000  -0.00000   0.00000   0.00000   0.00000
   D12       -3.14157  -0.00000   0.00001  -0.00004  -0.00003   3.14158
   D13        3.14157   0.00000  -0.00001   0.00005   0.00004  -3.14157
   D14       -0.00001   0.00000  -0.00001   0.00003   0.00003   0.00001
   D15        0.00001  -0.00000   0.00000  -0.00002  -0.00002  -0.00001
   D16       -3.14158  -0.00000   0.00000  -0.00003  -0.00003   3.14158
   D17        0.00002  -0.00000   0.00001  -0.00005  -0.00004  -0.00002
   D18       -3.14159  -0.00000   0.00000  -0.00001  -0.00001   3.14159
   D19       -3.14159  -0.00000  -0.00000  -0.00001  -0.00001   3.14159
   D20       -0.00001   0.00000  -0.00001   0.00003   0.00002   0.00001
   D21        0.00002  -0.00000   0.00001  -0.00003  -0.00003  -0.00001
   D22       -3.14159  -0.00000  -0.00000  -0.00000  -0.00000   3.14159
   D23       -3.14159  -0.00000   0.00001  -0.00002  -0.00001   3.14159
   D24       -0.00001   0.00000  -0.00000   0.00001   0.00001   0.00000
   D25       -0.00003   0.00000  -0.00001   0.00007   0.00006   0.00002
   D26        3.14158   0.00000  -0.00001   0.00004   0.00003  -3.14158
   D27        3.14158   0.00000  -0.00001   0.00003   0.00002  -3.14158
   D28        0.00000  -0.00000   0.00000  -0.00000  -0.00000  -0.00000
         Item               Value     Threshold  Converged?
[...]
 ! A15   A(5,7,8)              120.3231         -DE/DX =    0.0                 !
 ! A16   A(5,7,11)             119.579          -DE/DX =    0.0                 !
 ! A17   A(8,7,11)             120.0979         -DE/DX =    0.0                 !
 ! A18   A(6,8,7)              119.8581         -DE/DX =    0.0                 !
 ! A19   A(6,8,12)             119.6371         -DE/DX =    0.0                 !
 ! A20   A(7,8,12)             120.5048         -DE/DX =    0.0                 !
 ! D1    D(13,1,3,4)             0.0019         -DE/DX =    0.0                 !
 ! D2    D(13,1,3,5)          -179.9998         -DE/DX =    0.0                 !
 ! D3    D(14,2,4,3)          -179.9972         -DE/DX =    0.0                 !
 ! D4    D(14,2,4,6)             0.0013         -DE/DX =    0.0                 !
 ! D5    D(1,3,4,2)             -0.0024         -DE/DX =    0.0                 !
 ! D6    D(1,3,4,6)            179.999          -DE/DX =    0.0                 !
 ! D7    D(5,3,4,2)           -180.0007         -DE/DX =    0.0                 !
 ! D8    D(5,3,4,6)              0.0007         -DE/DX =    0.0                 !
 ! D9    D(1,3,5,7)            180.0018         -DE/DX =    0.0                 !
 ! D10   D(1,3,5,9)              0.0011         -DE/DX =    0.0                 !
 ! D11   D(4,3,5,7)              0.0001         -DE/DX =    0.0                 !
 ! D12   D(4,3,5,9)           -180.0006         -DE/DX =    0.0                 !
 ! D13   D(2,4,6,8)            180.001          -DE/DX =    0.0                 !
 ! D14   D(2,4,6,10)             0.0008         -DE/DX =    0.0                 !
 ! D15   D(3,4,6,8)             -0.0005         -DE/DX =    0.0                 !
 ! D16   D(3,4,6,10)          -180.0007         -DE/DX =    0.0                 !
 ! D17   D(3,5,7,8)             -0.0011         -DE/DX =    0.0                 !
 ! D18   D(3,5,7,11)          -180.0003         -DE/DX =    0.0                 !
 ! D19   D(9,5,7,8)            179.9996         -DE/DX =    0.0                 !
 ! D20   D(9,5,7,11)             0.0004         -DE/DX =    0.0                 !
 ! D21   D(4,6,8,7)             -0.0006         -DE/DX =    0.0                 !
 ! D22   D(4,6,8,12)           180.0            -DE/DX =    0.0                 !
 ! D23   D(10,6,8,7)           179.9997         -DE/DX =    0.0                 !
 ! D24   D(10,6,8,12)            0.0002         -DE/DX =    0.0                 !
 ! D25   D(5,7,8,6)              0.0014         -DE/DX =    0.0                 !
 ! D26   D(5,7,8,12)          -179.9992         -DE/DX =    0.0                 !
 ! D27   D(11,7,8,6)           180.0005         -DE/DX =    0.0                 !
 ! D28   D(11,7,8,12)            0.0            -DE/DX =    0.0                 !
 --------------------------------------------------------------------------------
 GradGradGradGradGradGradGradGradGradGradGradGradGradGradGradGradGradGrad


 ----------------------------------------------------------------------

 Electric dipole moment (input orientation):
 (Debye = 10**-18 statcoulomb cm , SI units = C m)
                  (au)            (Debye)         (10**-30 SI)
   Tot        0.102686D+01      0.261001D+01      0.870606D+01
   x         -0.637392D-01     -0.162009D+00     -0.540403D+00
   y         -0.102488D+01     -0.260498D+01     -0.868927D+01
   z         -0.189009D-04     -0.480413D-04     -0.160249D-03

 Dipole polarizability, Alpha (input orientation).
 (esu units = cm**3 , SI units = C**2 m**2 J**-1)
 Alpha(0;0):
               (au)            (10**-24 esu)      (10**-40 SI)
   iso        0.746432D+02      0.110610D+02      0.123070D+02
   aniso      0.451042D+02      0.668375D+01      0.743667D+01
   xx         0.931287D+02      0.138003D+02      0.153549D+02
   yx        -0.661564D+00     -0.980337D-01     -0.109077D+00
   yy         0.859286D+02      0.127333D+02      0.141677D+02
   zx         0.234941D-03      0.348146D-04      0.387365D-04
   zy        -0.323367D-03     -0.479181D-04     -0.533161D-04
   zz         0.448723D+02      0.664939D+01      0.739844D+01

 ----------------------------------------------------------------------

 Dipole orientation:
     8          3.19470644         -0.19851489         -2.73963590
     8          3.55903718         -0.22108610          2.26975892
     6          1.04894087         -0.06508551         -1.35076553
     6          1.16529263         -0.07222617          1.29470207
     6         -1.28343278          0.07992299         -2.54075440
     6         -1.02763480          0.06417600          2.72429636
     6         -3.48977564          0.21719134         -1.10681196
     6         -3.36864902          0.20971147          1.51827562
     1         -1.32920312          0.08271500         -4.59588928
     1         -0.90428553          0.05655655          4.78113776
     1         -5.31044839          0.33039476         -2.05444311
     1         -5.08589344          0.31652533          2.64210767
     1          4.61980896         -0.28711857         -1.61399115
     1          3.52225764         -0.21881465          4.07980446

 Electric dipole moment (dipole orientation):
 (Debye = 10**-18 statcoulomb cm , SI units = C m)
                  (au)            (Debye)         (10**-30 SI)
   Tot        0.102686D+01      0.261001D+01      0.870606D+01
   x          0.000000D+00      0.000000D+00      0.000000D+00
   y          0.000000D+00      0.000000D+00      0.000000D+00
   z          0.102686D+01      0.261001D+01      0.870606D+01

 Dipole polarizability, Alpha (dipole orientation).
 (esu units = cm**3 , SI units = C**2 m**2 J**-1)
 Alpha(0;0):
               (au)            (10**-24 esu)      (10**-40 SI)
   iso        0.746432D+02      0.110610D+02      0.123070D+02
   aniso      0.451042D+02      0.668375D+01      0.743667D+01
   xx         0.929969D+02      0.137807D+02      0.153331D+02
   yx        -0.299271D+01     -0.443473D+00     -0.493431D+00
   yy         0.450584D+02      0.667697D+01      0.742913D+01
   zx         0.210059D+00      0.311276D-01      0.346341D-01
   zy        -0.119991D-01     -0.177808D-02     -0.197838D-02
   zz         0.858744D+02      0.127253D+02      0.141588D+02

 ----------------------------------------------------------------------
 1\1\GINC-PITOMBA\Freq\RM08HX\6-311++G(d,p)\C6H6O2\VALTER\18-Sep-2025\0
 \\#N Geom=AllCheck Guess=TCheck SCRF=Check GenChk RM08HX/6-311++G(d,p)
  Freq\\CECL0013\\0,1\O,1.7805494744,1.341817895,0.0001166872\O,1.80879
 78217,-1.3159181196,0.0001139782\C,0.5994394677,0.6788949975,0.0000925
 192\C,0.5741109783,-0.7221556681,0.000117183\C,-0.5957102518,1.3841554
 285,0.000079514\C,-0.6332949734,-1.4050349729,0.0001135819\C,-1.810359
 2125,0.6994211974,0.0000926924\C,-1.8324901424,-0.6910228539,0.0000952
 411\H,-0.55242377,2.4710950709,0.0000707244\H,-0.6355844201,-2.4954290
 992,0.0001209551\H,-2.7426898438,1.2598384026,0.0000871758\H,-2.778131
 9202,-1.2280667845,0.0000921817\H,2.4977061718,0.700400047,0.000119639
 1\H,1.7298806201,-2.2706955407,0.0000879269\\Version=ES64L-G16RevB.01\
 State=1-A\HF=-382.6839331\RMSD=1.912e-09\RMSF=5.883e-05\ZeroPoint=0.10
 92532\Thermal=0.1160688\Dipole=-0.0637392,-1.0248772,-0.0000189\Dipole
 Deriv=-1.3745312,-0.5240941,-0.000008,-0.5277156,-0.4936005,-0.0000009
 ,-0.000025,-0.0000057,-0.3763639,-1.2023675,0.5766909,-0.0000026,0.600
 7317,-0.6222176,0.0000075,-0.0000008,0.0000087,-0.3805321,1.1261958,0.
 5773761,0.0000136,0.8485555,0.2427744,0.0000053,0.0000262,-0.0000006,0
 .0739489,0.8743141,-0.523942,0.,-0.918475,0.3276899,-0.0000088,-0.0000
 027,0.0000145,0.0541815,-0.0856324,-0.1759384,-0.0000004,0.0925004,0.0
 619986,-0.0000021,-0.0000035,0.0000022,-0.1691842,-0.030344,0.1211095,
 0.0000028,-0.0560634,0.0235322,-0.0000026,-0.0000006,-0.0000022,-0.172
 8818,-0.0161403,0.0732636,-0.0000038,-0.1195728,0.0384365,-0.0000014,0
 .000007,-0.0000036,-0.1575793,-0.0794076,-0.0401388,0.0000032,0.116218
 7,-0.047133,0.0000012,-0.0000043,-0.0000053,-0.1679688,0.0798184,-0.01
 37917,0.0000004,-0.0147827,-0.0364137,0.0000017,-0.0000002,-0.000002,0
 .1538304,0.0634158,0.03631,-0.000001,0.0334397,-0.0917853,0.0000017,0.
 000001,-0.0000002,0.1555578,-0.0392689,0.0635683,-0.0000009,0.0668208,
 0.0309497,0.000001,-0.0000043,0.0000038,0.147433,-0.0412517,-0.0592806
 ,-0.0000005,-0.063085,0.0305716,0.0000002,0.000002,0.000002,0.1506149,
 0.4186783,0.0333659,0.0000004,0.0360172,0.2512619,-0.0000009,0.0000032
 ,-0.0000018,0.3395109,0.3065211,-0.1444986,-0.000003,-0.0945898,0.2839
 353,-0.0000019,0.000002,-0.0000096,0.3494327\Polar=93.1287495,-0.66156
 4,85.9285937,0.0002349,-0.0003234,44.872302\Quadrupole=1.3323355,3.388
 7435,-4.721079,-3.1558898,-0.0000369,0.0000276\PG=C01 [X(C6H6O2)]\NIma
 g=0\\0.61357722,-0.12907793,0.42963438,0.00000588,0.00000152,0.0277800
 4,0.01372327,-0.00035695,0.00000033,0.37658286,0.00342331,0.00036541,0
 .00000004,-0.05471797,0.71257842,0.00000016,-0.00000010,-0.00393992,0.
 00000178,0.00001544,0.02295160,-0.26927023,-0.06678495,-0.00000347,-0.
 02469939,0.05509767,-0.00000057,0.76271745,-0.12029248,-0.16492274,-0.
 00000274,0.01420304,-0.03916403,0.00000091,-0.02946911,0.70126719,-0.0
 0000323,-0.00000096,-0.04029233,-0.00000041,0.00000005,0.00924067,0.00
 000629,-0.00000583,0.14390804,-0.02071192,-0.03688592,-0.00000005,-0.2
 6750586,0.09543961,0.00000054,-0.10657688,0.04634836,-0.00000044,0.723
 79058,-0.00102048,-0.00816586,0.00000070,0.05051777,-0.14389545,-0.000
 00143,-0.05645625,-0.29433167,0.00000410,0.01440574,0.68468934,-0.0000
 0032,-0.00000054,0.00910415,-0.00000137,-0.00000008,-0.03852296,0.0000
 0051,0.00000430,-0.06905993,0.00000204,-0.00000413,0.13790896,-0.04174
 571,0.01728049,-0.00000075,0.00677432,-0.01095583,0.00000046,-0.276319
 69,0.05945423,-0.00000219,0.03468012,0.08651843,-0.00000099,0.68662035
 ,-0.02120732,0.02276786,-0.00000030,-0.00488125,-0.00481955,-0.0000000
 5,0.14267124,-0.20449330,0.00000258,0.02997317,-0.01747354,0.00000007,
 0.01050944,0.75023047,-0.00000101,-0.00000010,0.00588159,0.00000039,0.
 00000004,0.00476472,-0.00000228,0.00000247,-0.05954289,-0.00000081,0.0
 0000018,0.00124040,0.00000121,-0.00000675,0.12272723,0.00473642,0.0103
 8835,-0.00000038,-0.04767711,-0.01556287,0.00000004,0.03432075,-0.0904
 5414,0.00000144,-0.28625048,-0.05052989,-0.00000128,-0.07115365,-0.003
 01207,0.00000030,0.69066083,0.00381002,-0.00444941,0.00000032,0.026364
 06,0.01481227,-0.00000010,-0.03149132,-0.01710000,-0.00000037,-0.14145
 678,-0.19921801,0.00000017,0.00589863,-0.00288840,0.00000011,-0.003448
 14,0.73905371,-0.00000025,0.00000006,0.00619529,-0.00000001,-0.0000002
 5,0.00508114,0.00000092,-0.00000033,0.00189429,-0.00000059,0.00000078,
 -0.05632626,-0.00000084,0.00000008,-0.00070900,0.00000401,-0.00000479,
 0.11841395,0.00348566,0.00196633,0.00000028,-0.00732026,0.00531848,-0.
 00000018,-0.05989291,0.03189565,-0.00000042,-0.01548063,-0.03428735,0.
 00000025,-0.29374147,-0.12876044,0.00000230,0.03419473,0.02531508,0.00
 000031,0.72631194,0.00579450,-0.00855385,0.00000021,0.00006859,0.00483
 449,-0.00000023,-0.02566416,0.08260403,-0.00000082,-0.03391453,-0.0680
 4540,0.00000068,-0.05781285,-0.18125849,0.00000155,0.08302452,-0.02975
 341,0.00000075,-0.03603155,0.69499099,-0.00000015,0.00000011,0.0054511
 7,0.00000006,-0.00000012,-0.00162127,-0.00000005,-0.00000051,-0.000043
 01,0.00000011,0.00000045,-0.00171081,0.00000213,0.00000165,-0.05495361
 ,-0.00000060,0.00000072,0.00554305,-0.00000027,-0.00000394,0.12846688,
 -0.00643108,-0.00533305,-0.00000011,0.00000394,0.00083557,-0.00000017,
 -0.01166625,0.03891127,-0.00000027,-0.06095088,-0.03355735,-0.00000007
 ,0.03220941,-0.02854805,-0.00000010,-0.28369176,0.13088967,-0.00000327
 ,-0.12611726,-0.03891731,0.00000002,0.72224028,-0.00394158,0.00379001,
 -0.00000032,-0.00338202,-0.00815413,0.00000019,0.03638624,-0.06809844,
 0.00000106,0.02653108,0.08163642,-0.00000049,-0.08511787,-0.02495733,0
 .00000012,0.05990386,-0.18031388,0.00000163,0.03312498,-0.34635037,0.0
 0000063,0.03610845,0.69050111,-0.00000005,-0.00000008,-0.00132395,0.00
 000009,0.00000007,0.00792969,-0.00000024,0.00000069,-0.00166832,-0.000
 00061,-0.00000070,0.00151900,0.00000092,0.00000050,0.00512288,-0.00000
 287,0.00000213,-0.05498169,-0.00000067,0.00000020,-0.05908562,0.000004
 31,-0.00000293,0.12472577,0.00209845,-0.00136486,0.00000003,0.00001221
 ,0.00181702,0.,0.00618347,0.02801122,-0.00000030,-0.00428802,0.0014255
 6,0.,-0.05849630,-0.00908155,0.00000025,-0.00157574,0.00027882,-0.0000
 0002,0.00548928,-0.02686986,0.00000010,-0.00455614,-0.00270007,0.00000
 006,0.05470281,-0.00046628,0.00075170,-0.00000006,0.00016962,-0.000914
 39,0.,-0.00447262,-0.01304981,0.00000019,0.00229243,0.00022509,0.00000
 003,-0.00670236,-0.33998964,0.00000257,0.00067031,0.00089993,-0.000000
 01,0.00227334,-0.00915305,0.00000006,-0.00307255,0.00117834,0.00000007
 ,0.00931937,0.36002142,0.00000016,0.00000002,-0.00380035,-0.00000002,0
 .00000008,-0.00020495,0.00000005,0.00000014,0.00520685,-0.00000011,0.0
 0000003,0.00654675,-0.00000002,0.00000241,-0.03436446,-0.00000001,-0.0
 0000011,-0.00142197,-0.00000005,0.00000024,0.00182066,0.00000012,0.000
 00002,0.00703933,-0.00000014,-0.00000282,0.02398063,-0.00025135,-0.001
 70603,0.00000003,0.00323391,-0.00029720,0.00000001,-0.00459155,-0.0018
 0026,-0.00000015,0.00363153,-0.02686620,0.00000025,-0.00163900,-0.0001
 3381,0.00000002,-0.05837416,-0.00328505,-0.00000029,-0.00453216,0.0029
 0714,-0.00000014,0.00653919,0.02698849,-0.00000007,0.00008544,0.000022
 91,0.,0.05621238,-0.00058560,-0.00096392,0.,-0.00007934,0.00268677,-0.
 00000003,-0.00233439,0.00110994,0.,0.00550701,-0.01351889,0.00000019,-
 0.00044762,0.00084420,-0.00000003,-0.00362387,-0.33134908,0.00000205,0
 .00370885,0.00090285,0.00000008,-0.00303582,-0.01182906,0.00000006,-0.
 00003343,-0.00010733,0.,0.00254514,0.35289958,0.00000002,0.00000004,-0
 .00036060,-0.00000009,0.00000006,-0.00415459,-0.00000002,-0.00000002,0
 .00622392,0.00000001,-0.00000016,0.00364399,-0.00000004,-0.00000005,-0
 .00134444,-0.00000019,0.00000208,-0.03129826,-0.00000012,0.00000010,0.
 00657402,0.00000013,0.00000032,0.00189571,0.,0.,-0.00036556,0.00000022
 ,-0.00000231,0.02192158,-0.00159320,0.00093985,0.,0.00015014,0.0001947
 5,0.,-0.00188906,-0.00369745,0.00000004,-0.00017905,-0.00122462,0.,-0.
 01793363,0.01604040,-0.00000020,0.00207934,-0.00046801,0.00000004,-0.2
 6497657,0.12437476,-0.00000118,0.00397805,-0.00247115,0.00000002,0.000
 64512,-0.00034955,0.,0.00006841,-0.00017662,0.,0.27931768,-0.00063577,
 0.00066766,0.,0.00000644,0.00042629,-0.00000001,-0.00327520,-0.0008683
 8,0.00000006,-0.00096415,-0.00110704,0.,-0.01447050,0.01133254,-0.0000
 0009,-0.00103941,-0.00566301,0.00000002,0.12441488,-0.13262526,0.00000
 084,0.02823058,-0.00985573,0.00000026,0.00047350,0.00054186,-0.0000000
 3,0.00140570,-0.00072371,0.00000003,-0.13329668,0.13742483,0.00000005,
 -0.00000003,0.00021132,-0.00000010,0.00000006,-0.00069397,0.,0.0000002
 1,0.00688343,0.00000002,-0.00000007,-0.00069062,0.00000027,-0.00000016
 ,0.00225695,-0.00000004,0.,0.00700033,-0.00000150,0.00000095,-0.034606
 82,-0.00000007,0.00000012,0.00236958,0.,-0.00000004,-0.00390263,0.,0.,
 0.00030452,0.00000129,-0.00000104,0.02495841,0.00024361,-0.00007235,0.
 00000002,-0.00179777,-0.00055512,0.,-0.00014027,0.00087686,-0.00000002
 ,-0.00174329,0.00398394,-0.00000007,0.00202622,0.00023208,-0.00000006,
 -0.01803188,-0.01509924,0.,0.00329000,0.00206397,0.,-0.27164005,-0.121
 41108,-0.00000084,0.00003323,0.00016352,0.,0.00057177,0.00031359,0.000
 00003,0.00055132,-0.00041643,0.00000004,0.28643118,-0.00008101,0.00035
 378,0.,0.00105454,0.00046694,0.,0.00105349,-0.00125348,0.,0.00319276,-
 0.00099907,0.00000005,0.00103543,-0.00573994,0.00000004,0.01544295,0.0
 1095340,0.00000003,-0.02859348,-0.00889633,0.,-0.12167619,-0.12624186,
 -0.00000035,-0.00137495,-0.00052720,0.00000003,-0.00045782,0.00063224,
 -0.00000003,0.00042041,0.00058483,-0.00000002,0.13006626,0.13058700,0.
 00000006,0.00000003,-0.00044216,-0.00000003,-0.00000001,0.00060951,0.0
 0000005,-0.00000017,-0.00087391,-0.00000004,0.00000026,0.00620338,-0.0
 0000012,0.00000003,0.00697095,-0.00000042,-0.00000018,0.00162371,0.000
 00012,0.00000027,0.00209741,-0.00000057,-0.00000038,-0.03265537,0.,0.,
 0.00027548,0.00000003,-0.00000004,-0.00373189,0.,-0.00000003,-0.004073
 89,0.00000093,0.00000023,0.02415220,-0.29857903,0.21300663,-0.00000189
 ,-0.00091142,0.00070388,0.00000003,-0.03984273,0.02412639,-0.00000034,
 0.00038142,0.00075715,0.00000003,-0.00278264,-0.00513977,0.00000008,-0
 .00143513,0.00098424,-0.00000004,-0.00064506,0.00171714,-0.00000009,0.
 00078187,-0.00031086,0.00000003,0.00007544,-0.00004377,0.00000002,0.00
 034011,0.00017732,-0.00000001,-0.00021709,-0.00024370,0.,0.00004428,-0
 .00003384,0.,0.34188380,0.26295204,-0.27230766,0.00000064,0.00188006,-
 0.00137344,0.00000015,-0.01613752,0.01722329,-0.00000006,-0.01040367,0
 .00115220,0.00000009,-0.00540623,-0.00234356,-0.00000012,0.00135381,-0
 .00016433,-0.00000004,0.00040432,0.00110199,0.,-0.00045164,-0.00056604
 ,0.,-0.00010927,0.00007492,0.,-0.00019573,-0.00013378,0.,-0.00029124,-
 0.00011528,0.00000002,0.00013396,-0.00005999,0.,-0.23580373,0.25748959
 ,-0.00000119,-0.00000002,-0.00502302,-0.00000003,0.00000004,-0.0008500
 6,-0.00000107,0.00000070,-0.00290690,0.00000015,-0.00000005,0.00222530
 ,0.00000005,-0.00000017,0.00100384,0.00000007,-0.00000005,-0.00077337,
 -0.00000015,-0.00000001,0.00172466,0.00000003,0.00000011,-0.00000093,0
 .,0.,-0.00056164,0.,0.,0.00014244,-0.00000001,-0.00000001,-0.00002107,
 0.,0.,-0.00012400,0.00000217,-0.00000057,0.00629087,0.00071791,-0.0019
 9961,0.00000007,-0.05056885,-0.08074130,-0.00000210,-0.00833271,0.0018
 8643,0.,0.00120338,0.04633354,0.00000103,0.00150168,0.00133793,-0.0000
 0008,0.00219784,0.00170801,0.,-0.00006528,-0.00074036,0.00000005,-0.00
 069930,0.00029152,-0.00000009,-0.00040925,0.00019562,-0.00000002,-0.00
 129451,-0.00193524,0.00000007,-0.00000145,-0.00018926,0.,0.00016165,-0
 .00004855,0.,0.00090618,0.00207484,-0.00000003,0.05468271,0.00132858,0
 .00103266,-0.00000003,-0.03084659,-0.53784959,-0.00001473,0.00087688,0
 .00107741,0.,-0.00006511,-0.02094812,-0.00000035,0.00021661,-0.0012113
 3,0.,-0.00311342,0.00518023,0.,-0.00074911,0.00020181,0.00000002,-0.00
 038358,-0.00073902,0.00000009,0.00020850,0.00004816,0.,0.00087270,-0.0
 0044979,-0.00000006,0.00000515,-0.00001960,-0.00000002,-0.00027997,0.0
 0013969,0.,0.00010291,0.00002209,0.00000003,0.03182645,0.55351541,-0.0
 0000012,0.00000004,0.00055876,-0.00000059,-0.00001542,-0.00058962,-0.0
 0000013,0.00000017,0.00103009,-0.00000024,0.00000004,-0.00208136,-0.00
 000008,0.00000015,0.00094583,-0.00000007,0.00000008,-0.00024122,0.0000
 0008,0.00000003,0.00034329,0.,-0.00000008,-0.00088609,-0.00000002,0.00
 000001,-0.00024813,0.00000007,0.00000002,0.00054917,0.,0.,0.00000446,-
 0.00000001,0.00000001,-0.00003142,0.,-0.00000012,-0.00112613,0.0000011
 0,0.00001505,0.00177238\\-0.00008932,0.00005380,0.00000150,-0.00001930
 ,0.00001768,-0.00000117,0.00018323,-0.00002995,-0.00000326,0.00002821,
 -0.00004385,0.00000307,-0.00021147,0.00003166,-0.00000116,-0.00014668,
 0.00000292,0.00000058,0.00007283,0.00006761,0.00000212,0.00008628,-0.0
 0004266,-0.00000154,0.00006563,-0.00000035,-0.00000005,0.00005187,0.00
 001044,-0.00000002,-0.00001509,-0.00003674,0.00000010,-0.00000818,0.00
 000193,-0.00000017,-0.00001833,-0.00002463,0.00000015,0.00002032,-0.00
 000786,-0.00000016\\\@


 THE ONLY EXISTING THINGS ARE ATOMS AND EMPTY SPACE;
 ALL ELSE IS MERE OPINION. -- DEMOCRITUS OF ABDERA D. 370 B.C.
 EXPERIMENTS ARE THE ONLY MEANS OF KNOWLEDGE AT OUR DISPOSAL
 THE REST IS POETRY, IMAGINATION. -- MAX PLANCK
 Job cpu time:       0 days  1 hours 15 minutes 48.5 seconds.
 Elapsed time:       0 days  0 hours  4 minutes 46.2 seconds.
 File lengths (MBytes):  RWF=     69 Int=      0 D2E=      0 Chk=      5 Scr=      1
 Normal termination of Gaussian 16 at Thu Sep 18 15:51:16 2025.
