 Entering Gaussian System, Link 0=g16
 Input=CEPE0026.gjf
 Output=CEPE0026.log
 Initial command:
 /usr/local/g16/l1.exe "/dados_01/scratch/Gau-2353300.inp" -scrdir="/dados_01/scratch/"
 Entering Link 1 = /usr/local/g16/l1.exe PID=   2353301.
  
 Copyright (c) 1988-2017, Gaussian, Inc.  All Rights Reserved.
  
 This is part of the Gaussian(R) 16 program.  It is based on
 the Gaussian(R) 09 system (copyright 2009, Gaussian, Inc.),
 the Gaussian(R) 03 system (copyright 2003, Gaussian, Inc.),
 the Gaussian(R) 98 system (copyright 1998, Gaussian, Inc.),
 the Gaussian(R) 94 system (copyright 1995, Gaussian, Inc.),
 the Gaussian 92(TM) system (copyright 1992, Gaussian, Inc.),
 the Gaussian 90(TM) system (copyright 1990, Gaussian, Inc.),
 the Gaussian 88(TM) system (copyright 1988, Gaussian, Inc.),
 the Gaussian 86(TM) system (copyright 1986, Carnegie Mellon
 University), and the Gaussian 82(TM) system (copyright 1983,
 Carnegie Mellon University). Gaussian is a federally registered
 trademark of Gaussian, Inc.
  
 This software contains proprietary and confidential information,
 including trade secrets, belonging to Gaussian, Inc.
  
 This software is provided under written license and may be
 used, copied, transmitted, or stored only in accord with that
 written license.
  
 The following legend is applicable only to US Government
 contracts under FAR:
  
                    RESTRICTED RIGHTS LEGEND
  
 Use, reproduction and disclosure by the US Government is
 subject to restrictions as set forth in subparagraphs (a)
 and (c) of the Commercial Computer Software - Restricted
 Rights clause in FAR 52.227-19.
  
 Gaussian, Inc.
 340 Quinnipiac St., Bldg. 40, Wallingford CT 06492
  
  
 ---------------------------------------------------------------
 Warning -- This program may not be used in any manner that
 competes with the business of Gaussian, Inc. or will provide
 assistance to any competitor of Gaussian, Inc.  The licensee
 of this program is prohibited from giving any competitor of
 Gaussian, Inc. access to this program.  By using this program,
 the user acknowledges that Gaussian, Inc. is engaged in the
 business of creating and licensing software in the field of
 computational chemistry and represents and warrants to the
 licensee that it is not a competitor of Gaussian, Inc. and that
 it will not use this program in any manner prohibited above.
 ---------------------------------------------------------------
  

 Cite this work as:
 Gaussian 16, Revision B.01,
 M. J. Frisch, G. W. Trucks, H. B. Schlegel, G. E. Scuseria, 
 M. A. Robb, J. R. Cheeseman, G. Scalmani, V. Barone, 
 G. A. Petersson, H. Nakatsuji, X. Li, M. Caricato, A. V. Marenich, 
 J. Bloino, B. G. Janesko, R. Gomperts, B. Mennucci, H. P. Hratchian, 
 J. V. Ortiz, A. F. Izmaylov, J. L. Sonnenberg, D. Williams-Young, 
 F. Ding, F. Lipparini, F. Egidi, J. Goings, B. Peng, A. Petrone, 
 T. Henderson, D. Ranasinghe, V. G. Zakrzewski, J. Gao, N. Rega, 
 G. Zheng, W. Liang, M. Hada, M. Ehara, K. Toyota, R. Fukuda, 
 J. Hasegawa, M. Ishida, T. Nakajima, Y. Honda, O. Kitao, H. Nakai, 
 T. Vreven, K. Throssell, J. A. Montgomery, Jr., J. E. Peralta, 
 F. Ogliaro, M. J. Bearpark, J. J. Heyd, E. N. Brothers, K. N. Kudin, 
 V. N. Staroverov, T. A. Keith, R. Kobayashi, J. Normand, 
 K. Raghavachari, A. P. Rendell, J. C. Burant, S. S. Iyengar, 
 J. Tomasi, M. Cossi, J. M. Millam, M. Klene, C. Adamo, R. Cammi, 
 J. W. Ochterski, R. L. Martin, K. Morokuma, O. Farkas, 
 J. B. Foresman, and D. J. Fox, Gaussian, Inc., Wallingford CT, 2016.
 
 ******************************************
 Gaussian 16:  ES64L-G16RevB.01 20-Dec-2017
                 1-Oct-2025 
 ******************************************
 %nprocs=16
 Will use up to   16 processors via shared memory.
 %mem=40GB
 %chk=CEPE0026.chk
 ----------------------------------------------------------------------
 # opt freq=noraman M08HX/6-311++G** scf=xqc Empiricaldispersion=pfd In
 t(Grid=ultraFine)
 ----------------------------------------------------------------------
 1/18=20,19=15,26=4,38=1/1,3;
 2/9=110,12=2,17=6,18=5,40=1/2;
 3/5=4,6=6,7=1111,11=2,25=1,30=1,71=1,74=-74,75=-5,124=11/1,2,3;
 4//1;
 5/5=2,8=3,13=1,38=5/2,8;
 6/7=2,8=2,9=2,10=2,28=1/1;
 7//1,2,3,16;
 1/18=20,19=15,26=4/3(2);
 2/9=110/2;
 99//99;
 2/9=110/2;
 3/5=4,6=6,7=1111,11=2,25=1,30=1,71=1,74=-74,75=-5,124=11/1,2,3;
 4/5=5,16=3,69=1/1;
 5/5=2,8=3,13=1,38=5/2,8;
 7//1,2,3,16;
 1/18=20,19=15,26=4/3(-5);
 2/9=110/2;
 6/7=2,8=2,9=2,10=2,19=2,28=1/1;
 99/9=1/99;
 --------
 CEPE0026
 --------
 Symbolic Z-matrix:
 Charge =  0 Multiplicity = 1
 O                    -2.5843   -0.0003    0.0012 
 C                     1.8878   -0.7507   -0.1357 
 C                     1.8878    0.7502    0.1371 
 C                     0.6713   -1.4993    0.4048 
 C                     0.6721    1.4989   -0.4054 
 C                    -0.5923   -1.2438   -0.4066 
 C                    -0.5923    1.2447    0.405 
 C                    -1.3502    0.0003   -0.0004 
 H                     2.7881   -1.1764    0.3252 
 H                     1.9841   -0.9279   -1.2141 
 H                     2.7888    1.1756   -0.3226 
 H                     1.9825    0.9274    1.2155 
 H                     0.5171   -1.2644    1.4643 
 H                     0.8951   -2.5721    0.3484 
 H                     0.5189    1.2631   -1.465 
 H                     0.8964    2.5717   -0.3498 
 H                    -1.2736   -2.09     -0.2519 
 H                    -0.3804   -1.1889   -1.4796 
 H                    -1.2732    2.0909    0.2485 
 H                    -0.3813    1.191     1.4783 
 

 GradGradGradGradGradGradGradGradGradGradGradGradGradGradGradGradGradGrad
 Berny optimization.
 Initialization pass.
                           ----------------------------
                           !    Initial Parameters    !
                           ! (Angstroms and Degrees)  !
 --------------------------                            --------------------------
 ! Name  Definition              Value          Derivative Info.                !
 --------------------------------------------------------------------------------
 ! R1    R(1,8)                  1.2341         estimate D2E/DX2                !
 ! R2    R(2,3)                  1.5255         estimate D2E/DX2                !
 ! R3    R(2,4)                  1.5272         estimate D2E/DX2                !
 ! R4    R(2,9)                  1.0974         estimate D2E/DX2                !
 ! R5    R(2,10)                 1.0971         estimate D2E/DX2                !
 ! R6    R(3,5)                  1.5273         estimate D2E/DX2                !
 ! R7    R(3,11)                 1.0973         estimate D2E/DX2                !
 ! R8    R(3,12)                 1.097          estimate D2E/DX2                !
 ! R9    R(4,6)                  1.5233         estimate D2E/DX2                !
 ! R10   R(4,13)                 1.0961         estimate D2E/DX2                !
 ! R11   R(4,14)                 1.0973         estimate D2E/DX2                !
 ! R12   R(5,7)                  1.5232         estimate D2E/DX2                !
 ! R13   R(5,15)                 1.0963         estimate D2E/DX2                !
 ! R14   R(5,16)                 1.0974         estimate D2E/DX2                !
 ! R15   R(6,8)                  1.5123         estimate D2E/DX2                !
 ! R16   R(6,17)                 1.0973         estimate D2E/DX2                !
 ! R17   R(6,18)                 1.0951         estimate D2E/DX2                !
 ! R18   R(7,8)                  1.5124         estimate D2E/DX2                !
 ! R19   R(7,19)                 1.0973         estimate D2E/DX2                !
 ! R20   R(7,20)                 1.0952         estimate D2E/DX2                !
 ! A1    A(3,2,4)              114.7702         estimate D2E/DX2                !
 ! A2    A(3,2,9)              107.8526         estimate D2E/DX2                !
 ! A3    A(3,2,10)             109.5539         estimate D2E/DX2                !
 ! A4    A(4,2,9)              108.3431         estimate D2E/DX2                !
 ! A5    A(4,2,10)             109.7932         estimate D2E/DX2                !
 ! A6    A(9,2,10)             106.1516         estimate D2E/DX2                !
 ! A7    A(2,3,5)              114.7574         estimate D2E/DX2                !
 ! A8    A(2,3,11)             107.849          estimate D2E/DX2                !
 ! A9    A(2,3,12)             109.5565         estimate D2E/DX2                !
 ! A10   A(5,3,11)             108.3439         estimate D2E/DX2                !
 ! A11   A(5,3,12)             109.7984         estimate D2E/DX2                !
 ! A12   A(11,3,12)            106.161          estimate D2E/DX2                !
 ! A13   A(2,4,6)              112.956          estimate D2E/DX2                !
 ! A14   A(2,4,13)             110.432          estimate D2E/DX2                !
 ! A15   A(2,4,14)             107.3714         estimate D2E/DX2                !
 ! A16   A(6,4,13)             111.2373         estimate D2E/DX2                !
 ! A17   A(6,4,14)             107.8053         estimate D2E/DX2                !
 ! A18   A(13,4,14)            106.7309         estimate D2E/DX2                !
 ! A19   A(3,5,7)              112.9509         estimate D2E/DX2                !
 ! A20   A(3,5,15)             110.4324         estimate D2E/DX2                !
 ! A21   A(3,5,16)             107.3689         estimate D2E/DX2                !
 ! A22   A(7,5,15)             111.2443         estimate D2E/DX2                !
 ! A23   A(7,5,16)             107.8097         estimate D2E/DX2                !
 ! A24   A(15,5,16)            106.7264         estimate D2E/DX2                !
 ! A25   A(4,6,8)              114.2441         estimate D2E/DX2                !
 ! A26   A(4,6,17)             108.0948         estimate D2E/DX2                !
 ! A27   A(4,6,18)             111.7043         estimate D2E/DX2                !
 ! A28   A(8,6,17)             106.58           estimate D2E/DX2                !
 ! A29   A(8,6,18)             108.5963         estimate D2E/DX2                !
 ! A30   A(17,6,18)            107.2731         estimate D2E/DX2                !
 ! A31   A(5,7,8)              114.2483         estimate D2E/DX2                !
 ! A32   A(5,7,19)             108.0898         estimate D2E/DX2                !
 ! A33   A(5,7,20)             111.6956         estimate D2E/DX2                !
 ! A34   A(8,7,19)             106.5777         estimate D2E/DX2                !
 ! A35   A(8,7,20)             108.5969         estimate D2E/DX2                !
 ! A36   A(19,7,20)            107.2853         estimate D2E/DX2                !
 ! A37   A(1,8,6)              120.0721         estimate D2E/DX2                !
 ! A38   A(1,8,7)              120.0783         estimate D2E/DX2                !
 ! A39   A(6,8,7)              119.8496         estimate D2E/DX2                !
 ! D1    D(4,2,3,5)            -57.462          estimate D2E/DX2                !
 ! D2    D(4,2,3,11)          -178.2989         estimate D2E/DX2                !
 ! D3    D(4,2,3,12)            66.5694         estimate D2E/DX2                !
 ! D4    D(9,2,3,5)           -178.3089         estimate D2E/DX2                !
 ! D5    D(9,2,3,11)            60.8541         estimate D2E/DX2                !
 ! D6    D(9,2,3,12)           -54.2775         estimate D2E/DX2                !
 ! D7    D(10,2,3,5)            66.5699         estimate D2E/DX2                !
 ! D8    D(10,2,3,11)          -54.267          estimate D2E/DX2                !
 ! D9    D(10,2,3,12)         -169.3987         estimate D2E/DX2                !
 ! D10   D(3,2,4,6)             73.8055         estimate D2E/DX2                !
 ! D11   D(3,2,4,13)           -51.4757         estimate D2E/DX2                !
 ! D12   D(3,2,4,14)          -167.4791         estimate D2E/DX2                !
 ! D13   D(9,2,4,6)           -165.6174         estimate D2E/DX2                !
 ! D14   D(9,2,4,13)            69.1014         estimate D2E/DX2                !
 ! D15   D(9,2,4,14)           -46.902          estimate D2E/DX2                !
 ! D16   D(10,2,4,6)           -50.0995         estimate D2E/DX2                !
 ! D17   D(10,2,4,13)         -175.3806         estimate D2E/DX2                !
 ! D18   D(10,2,4,14)           68.6159         estimate D2E/DX2                !
 ! D19   D(2,3,5,7)             73.8672         estimate D2E/DX2                !
 ! D20   D(2,3,5,15)           -51.4197         estimate D2E/DX2                !
 ! D21   D(2,3,5,16)          -167.4166         estimate D2E/DX2                !
 ! D22   D(11,3,5,7)          -165.5683         estimate D2E/DX2                !
 ! D23   D(11,3,5,15)           69.1448         estimate D2E/DX2                !
 ! D24   D(11,3,5,16)          -46.8521         estimate D2E/DX2                !
 ! D25   D(12,3,5,7)           -50.0358         estimate D2E/DX2                !
 ! D26   D(12,3,5,15)         -175.3227         estimate D2E/DX2                !
 ! D27   D(12,3,5,16)           68.6804         estimate D2E/DX2                !
 ! D28   D(2,4,6,8)            -85.2761         estimate D2E/DX2                !
 ! D29   D(2,4,6,17)           156.2743         estimate D2E/DX2                !
 ! D30   D(2,4,6,18)            38.4818         estimate D2E/DX2                !
 ! D31   D(13,4,6,8)            39.5685         estimate D2E/DX2                !
 ! D32   D(13,4,6,17)          -78.8812         estimate D2E/DX2                !
 ! D33   D(13,4,6,18)          163.3264         estimate D2E/DX2                !
 ! D34   D(14,4,6,8)           156.261          estimate D2E/DX2                !
 ! D35   D(14,4,6,17)           37.8113         estimate D2E/DX2                !
 ! D36   D(14,4,6,18)          -79.9812         estimate D2E/DX2                !
 ! D37   D(3,5,7,8)            -85.2589         estimate D2E/DX2                !
 ! D38   D(3,5,7,19)           156.2951         estimate D2E/DX2                !
 ! D39   D(3,5,7,20)            38.496          estimate D2E/DX2                !
 ! D40   D(15,5,7,8)            39.5878         estimate D2E/DX2                !
 ! D41   D(15,5,7,19)          -78.8582         estimate D2E/DX2                !
 ! D42   D(15,5,7,20)          163.3427         estimate D2E/DX2                !
 ! D43   D(16,5,7,8)           156.2813         estimate D2E/DX2                !
 ! D44   D(16,5,7,19)           37.8353         estimate D2E/DX2                !
 ! D45   D(16,5,7,20)          -79.9638         estimate D2E/DX2                !
 ! D46   D(4,6,8,1)           -142.1423         estimate D2E/DX2                !
 ! D47   D(4,6,8,7)             37.8034         estimate D2E/DX2                !
 ! D48   D(17,6,8,1)           -22.8352         estimate D2E/DX2                !
 ! D49   D(17,6,8,7)           157.1105         estimate D2E/DX2                !
 ! D50   D(18,6,8,1)            92.4454         estimate D2E/DX2                !
 ! D51   D(18,6,8,7)           -87.6089         estimate D2E/DX2                !
 ! D52   D(5,7,8,1)           -142.3918         estimate D2E/DX2                !
 ! D53   D(5,7,8,6)             37.6625         estimate D2E/DX2                !
 ! D54   D(19,7,8,1)           -23.09           estimate D2E/DX2                !
 ! D55   D(19,7,8,6)           156.9643         estimate D2E/DX2                !
 ! D56   D(20,7,8,1)            92.2039         estimate D2E/DX2                !
 ! D57   D(20,7,8,6)           -87.7418         estimate D2E/DX2                !
 --------------------------------------------------------------------------------
 Trust Radius=3.00D-01 FncErr=1.00D-07 GrdErr=1.00D-06 EigMax=2.50D+02 EigMin=1.00D-04
 Number of steps in this run=    120 maximum allowed number of steps=    120.
 GradGradGradGradGradGradGradGradGradGradGradGradGradGradGradGradGradGrad

                          Input orientation:                          
 ---------------------------------------------------------------------
 Center     Atomic      Atomic             Coordinates (Angstroms)
 Number     Number       Type             X           Y           Z
 ---------------------------------------------------------------------
      1          8           0       -2.584300   -0.000300    0.001200
      2          6           0        1.887800   -0.750700   -0.135700
      3          6           0        1.887800    0.750200    0.137100
      4          6           0        0.671300   -1.499300    0.404800
      5          6           0        0.672100    1.498900   -0.405400
      6          6           0       -0.592300   -1.243800   -0.406600
      7          6           0       -0.592300    1.244700    0.405000
      8          6           0       -1.350200    0.000300   -0.000400
      9          1           0        2.788100   -1.176400    0.325200
     10          1           0        1.984100   -0.927900   -1.214100
     11          1           0        2.788800    1.175600   -0.322600
     12          1           0        1.982500    0.927400    1.215500
     13          1           0        0.517100   -1.264400    1.464300
     14          1           0        0.895100   -2.572100    0.348400
     15          1           0        0.518900    1.263100   -1.465000
     16          1           0        0.896400    2.571700   -0.349800
     17          1           0       -1.273600   -2.090000   -0.251900
     18          1           0       -0.380400   -1.188900   -1.479600
     19          1           0       -1.273200    2.090900    0.248500
     20          1           0       -0.381300    1.191000    1.478300
 ---------------------------------------------------------------------
                    Distance matrix (angstroms):
                    1          2          3          4          5
     1  O    0.000000
     2  C    4.536686   0.000000
     3  C    4.536673   1.525490   0.000000
     4  C    3.606775   1.527224   2.571339   0.000000
     5  C    3.607917   2.571257   1.527346   3.105741   0.000000
     6  C    2.383413   2.543114   3.228396   1.523265   3.020118
     7  C    2.383515   3.228757   2.543068   3.020964   1.523179
     8  C    1.234101   3.326703   3.326545   2.549402   2.549416
     9  H    5.509162   1.097356   2.134879   2.142765   3.488332
    10  H    4.817434   1.097096   2.156626   2.161199   2.874839
    11  H    5.509790   2.134798   1.097310   3.488267   2.142848
    12  H    4.815684   2.156555   1.096957   2.874953   2.161268
    13  H    3.654763   2.168572   2.774688   1.096128   3.340004
    14  H    4.340614   2.130095   3.473871   1.097346   4.146201
    15  H    3.657290   2.774224   2.168796   3.339196   1.096277
    16  H    4.342080   3.473767   2.130213   4.146460   1.097407
    17  H    2.479686   3.435357   4.267611   2.136075   4.085280
    18  H    2.909074   2.672605   3.393900   2.180226   3.079924
    19  H    2.480576   4.267812   3.435376   4.085957   2.135940
    20  H    2.907616   3.394703   2.672440   3.081896   2.180087
                    6          7          8          9         10
     6  C    0.000000
     7  C    2.617504   0.000000
     8  C    1.512348   1.512380   0.000000
     9  H    3.459361   4.158750   4.314645   0.000000
    10  H    2.718398   3.738919   3.667721   1.754313   0.000000
    11  H    4.158412   3.459193   4.314680   2.439580   2.422195
    12  H    3.738303   2.717938   3.666717   2.422313   3.056975
    13  H    2.175192   2.940828   2.689167   2.542191   3.072320
    14  H    2.132314   4.096770   3.432241   2.352013   2.516092
    15  H    2.939307   2.175317   2.689471   3.782228   2.647686
    16  H    4.096034   2.132341   3.432403   4.252341   3.765276
    17  H    1.097341   3.466397   2.106769   4.202989   3.590113
    18  H    1.095100   3.085292   2.131371   3.646485   2.393631
    19  H    3.465978   1.097347   2.106772   5.212992   4.675720
    20  H    3.086360   1.095161   2.131452   4.120597   4.163397
                   11         12         13         14         15
    11  H    0.000000
    12  H    1.754273   0.000000
    13  H    3.782490   2.648261   0.000000
    14  H    4.252246   3.765740   1.760169   0.000000
    15  H    2.542672   3.072442   3.868987   4.258956   0.000000
    16  H    2.351811   2.516645   4.260339   5.190969   1.760287
    17  H    5.212699   4.675484   2.614109   2.301313   3.990983
    18  H    4.119871   4.162401   3.078596   2.623304   2.611754
    19  H    4.202829   3.590042   3.992666   5.143450   2.613993
    20  H    3.645958   2.392927   2.614633   4.131197   3.078729
                   16         17         18         19         20
    16  H    0.000000
    17  H    5.142950   0.000000
    18  H    4.129017   1.765513   0.000000
    19  H    2.301368   4.210739   3.813202   0.000000
    20  H    2.623128   3.815069   3.796459   1.765705   0.000000
 Stoichiometry    C7H12O
 Framework group  C1[X(C7H12O)]
 Deg. of freedom    54
 Full point group                 C1      NOp   1
 Largest Abelian subgroup         C1      NOp   1
 Largest concise Abelian subgroup C1      NOp   1
                         Standard orientation:                         
 ---------------------------------------------------------------------
 Center     Atomic      Atomic             Coordinates (Angstroms)
 Number     Number       Type             X           Y           Z
 ---------------------------------------------------------------------
      1          8           0        2.647095   -0.000321   -0.001258
      2          6           0       -1.825014   -0.751748    0.129578
      3          6           0       -1.824996    0.751335   -0.130927
      4          6           0       -0.608535   -1.495917   -0.417054
      5          6           0       -0.609274    1.495550    0.417660
      6          6           0        0.655083   -1.247087    0.396387
      7          6           0        0.655107    1.247973   -0.394817
      8          6           0        1.412995    0.000285    0.000370
      9          1           0       -2.725329   -1.173647   -0.334774
     10          1           0       -1.921297   -0.937768    1.206493
     11          1           0       -2.725981    1.172971    0.332256
     12          1           0       -1.919713    0.937357   -1.207839
     13          1           0       -0.454351   -1.252355   -1.474598
     14          1           0       -0.832351   -2.569140   -0.369433
     15          1           0       -0.456059    1.251083    1.475292
     16          1           0       -0.833559    2.568773    0.370848
     17          1           0        1.336368   -2.092003    0.234753
     18          1           0        0.443204   -1.200968    1.469804
     19          1           0        1.336023    2.092853   -0.231408
     20          1           0        0.444086    1.203063   -1.468516
 ---------------------------------------------------------------------
 Rotational constants (GHZ):           3.1991729           1.7831968           1.2630272
 Standard basis: 6-311++G(d,p) (5D, 7F)
 There are   268 symmetry adapted cartesian basis functions of A   symmetry.
 There are   260 symmetry adapted basis functions of A   symmetry.
   260 basis functions,   396 primitive gaussians,   268 cartesian basis functions
    31 alpha electrons       31 beta electrons
       nuclear repulsion energy       389.6295071902 Hartrees.
 NAtoms=   20 NActive=   20 NUniq=   20 SFac= 1.00D+00 NAtFMM=   60 NAOKFM=F Big=F
 Integral buffers will be    131072 words long.
 Raffenetti 2 integral format.
 Two-electron integral symmetry is turned on.
 R6APFD:  NTU= -4 IXU= 1 FactS= 1.050
 Nuclear repulsion after empirical dispersion term =      389.6149530427 Hartrees.
 One-electron integrals computed using PRISM.
 NBasis=   260 RedAO= T EigKep=  1.21D-05  NBF=   260
 NBsUse=   260 1.00D-06 EigRej= -1.00D+00 NBFU=   260
 ExpMin= 3.60D-02 ExpMax= 8.59D+03 ExpMxC= 1.30D+03 IAcc=3 IRadAn=         5 AccDes= 0.00D+00
 Harris functional with IExCor= 1009 and IRadAn=       5 diagonalized for initial guess.
 HarFok:  IExCor= 1009 AccDes= 0.00D+00 IRadAn=         5 IDoV= 1 UseB2=F ITyADJ=14
 ICtDFT=  3500011 ScaDFX=  1.000000  1.000000  1.000000  1.000000
 FoFCou: FMM=F IPFlag=           0 FMFlag=      100000 FMFlg1=           0
         NFxFlg=           0 DoJE=T BraDBF=F KetDBF=T FulRan=T
         wScrn=  0.000000 ICntrl=       500 IOpCl=  0 I1Cent=   200000004 NGrid=           0
         NMat0=    1 NMatS0=      1 NMatT0=    0 NMatD0=    1 NMtDS0=    0 NMtDT0=    0
 Petite list used in FoFCou.
 Requested convergence on RMS density matrix=1.00D-08 within  32 cycles.
 Requested convergence on MAX density matrix=1.00D-06.
 Requested convergence on             energy=1.00D-06.
 No special actions if energy rises.
 SCF Done:  E(RM08HX) =  -349.209657781     A.U. after   13 cycles
            NFock= 13  Conv=0.63D-08     -V/T= 2.0051
 QCSCF skips out because SCF is already converged.

 **********************************************************************

            Population analysis using the SCF Density.

 **********************************************************************

 Orbital symmetries:
       Occupied  (A) (A) (A) (A) (A) (A) (A) (A) (A) (A) (A) (A)
                 (A) (A) (A) (A) (A) (A) (A) (A) (A) (A) (A) (A)
                 (A) (A) (A) (A) (A) (A) (A)
       Virtual   (A) (A) (A) (A) (A) (A) (A) (A) (A) (A) (A) (A)
                 (A) (A) (A) (A) (A) (A) (A) (A) (A) (A) (A) (A)
                 (A) (A) (A) (A) (A) (A) (A) (A) (A) (A) (A) (A)
                 (A) (A) (A) (A) (A) (A) (A) (A) (A) (A) (A) (A)
                 (A) (A) (A) (A) (A) (A) (A) (A) (A) (A) (A) (A)
                 (A) (A) (A) (A) (A) (A) (A) (A) (A) (A) (A) (A)
                 (A) (A) (A) (A) (A) (A) (A) (A) (A) (A) (A) (A)
                 (A) (A) (A) (A) (A) (A) (A) (A) (A) (A) (A) (A)
                 (A) (A) (A) (A) (A) (A) (A) (A) (A) (A) (A) (A)
                 (A) (A) (A) (A) (A) (A) (A) (A) (A) (A) (A) (A)
                 (A) (A) (A) (A) (A) (A) (A) (A) (A) (A) (A) (A)
                 (A) (A) (A) (A) (A) (A) (A) (A) (A) (A) (A) (A)
                 (A) (A) (A) (A) (A) (A) (A) (A) (A) (A) (A) (A)
                 (A) (A) (A) (A) (A) (A) (A) (A) (A) (A) (A) (A)
                 (A) (A) (A) (A) (A) (A) (A) (A) (A) (A) (A) (A)
                 (A) (A) (A) (A) (A) (A) (A) (A) (A) (A) (A) (A)
                 (A) (A) (A) (A) (A) (A) (A) (A) (A) (A) (A) (A)
                 (A) (A) (A) (A) (A) (A) (A) (A) (A) (A) (A) (A)
                 (A) (A) (A) (A) (A) (A) (A) (A) (A) (A) (A) (A)
                 (A)
 The electronic state is 1-A.
 Alpha  occ. eigenvalues --  -19.59645 -10.62148 -10.53747 -10.53746 -10.53680
 Alpha  occ. eigenvalues --  -10.53677 -10.53161 -10.53122  -1.15347  -0.94720
 Alpha  occ. eigenvalues --   -0.88574  -0.85817  -0.76591  -0.72439  -0.66313
 Alpha  occ. eigenvalues --   -0.61356  -0.56358  -0.56307  -0.53084  -0.52032
 Alpha  occ. eigenvalues --   -0.49680  -0.48980  -0.47364  -0.46491  -0.43562
 Alpha  occ. eigenvalues --   -0.42601  -0.40183  -0.40050  -0.38629  -0.38006
 Alpha  occ. eigenvalues --   -0.31894
 Alpha virt. eigenvalues --   -0.03176  -0.02148  -0.01722  -0.01103   0.00681
 Alpha virt. eigenvalues --    0.00773   0.01318   0.01616   0.01838   0.01902
 Alpha virt. eigenvalues --    0.04509   0.04713   0.05469   0.05546   0.06088
 Alpha virt. eigenvalues --    0.06948   0.07289   0.10019   0.10834   0.10837
 Alpha virt. eigenvalues --    0.11339   0.11454   0.11653   0.11711   0.11873
 Alpha virt. eigenvalues --    0.12164   0.12291   0.13224   0.13611   0.13893
 Alpha virt. eigenvalues --    0.14710   0.15008   0.15854   0.16135   0.16171
 Alpha virt. eigenvalues --    0.16666   0.17316   0.17413   0.17916   0.18466
 Alpha virt. eigenvalues --    0.21679   0.22417   0.23238   0.24301   0.24352
 Alpha virt. eigenvalues --    0.25778   0.27149   0.28000   0.28484   0.29628
 Alpha virt. eigenvalues --    0.29654   0.32281   0.32475   0.33267   0.33505
 Alpha virt. eigenvalues --    0.34755   0.35172   0.36133   0.36445   0.36472
 Alpha virt. eigenvalues --    0.38444   0.38596   0.38960   0.42447   0.45488
 Alpha virt. eigenvalues --    0.46649   0.47894   0.50639   0.50848   0.51248
 Alpha virt. eigenvalues --    0.54373   0.56180   0.58059   0.58345   0.60129
 Alpha virt. eigenvalues --    0.63799   0.66479   0.66919   0.68370   0.69085
 Alpha virt. eigenvalues --    0.70293   0.70399   0.71036   0.71589   0.72907
 Alpha virt. eigenvalues --    0.73153   0.73667   0.74012   0.75070   0.76366
 Alpha virt. eigenvalues --    0.76813   0.78098   0.78286   0.79741   0.80295
 Alpha virt. eigenvalues --    0.81257   0.83161   0.87152   0.88479   0.92676
 Alpha virt. eigenvalues --    0.95636   1.03259   1.05922   1.09425   1.13044
 Alpha virt. eigenvalues --    1.16996   1.17348   1.20629   1.21405   1.23853
 Alpha virt. eigenvalues --    1.25297   1.29298   1.30054   1.32264   1.32344
 Alpha virt. eigenvalues --    1.39406   1.46018   1.46512   1.49527   1.53442
 Alpha virt. eigenvalues --    1.55649   1.56284   1.57472   1.59203   1.61372
 Alpha virt. eigenvalues --    1.63517   1.64863   1.65707   1.65917   1.66056
 Alpha virt. eigenvalues --    1.68690   1.69230   1.70442   1.71327   1.72298
 Alpha virt. eigenvalues --    1.74466   1.75104   1.77941   1.78181   1.79349
 Alpha virt. eigenvalues --    1.79446   1.81833   1.83216   1.84535   1.87307
 Alpha virt. eigenvalues --    1.90086   1.92562   1.96807   1.97049   2.00627
 Alpha virt. eigenvalues --    2.01037   2.08536   2.11372   2.18142   2.19327
 Alpha virt. eigenvalues --    2.21341   2.23344   2.26187   2.26662   2.27071
 Alpha virt. eigenvalues --    2.29670   2.29783   2.36428   2.37154   2.39916
 Alpha virt. eigenvalues --    2.43128   2.45412   2.49859   2.53019   2.55845
 Alpha virt. eigenvalues --    2.57089   2.57500   2.57910   2.61962   2.62801
 Alpha virt. eigenvalues --    2.62950   2.68501   2.69089   2.71493   2.73196
 Alpha virt. eigenvalues --    2.73619   2.76963   2.78574   2.78590   2.81028
 Alpha virt. eigenvalues --    2.82381   2.83561   2.84132   2.86955   2.90273
 Alpha virt. eigenvalues --    2.95069   2.95138   2.99832   3.00085   3.01619
 Alpha virt. eigenvalues --    3.05561   3.09552   3.24713   3.27173   3.36280
 Alpha virt. eigenvalues --    3.42905   3.44872   3.44929   3.61433   3.71880
 Alpha virt. eigenvalues --    3.77187   3.82720   3.85311   3.89236   3.91374
 Alpha virt. eigenvalues --    3.95444   4.10029   4.15819   4.18024   4.24337
 Alpha virt. eigenvalues --    4.39608   4.45779   4.47457   5.19163   5.35164
 Alpha virt. eigenvalues --    5.81979  23.85946  23.89998  23.95177  23.99177
 Alpha virt. eigenvalues --   24.00326  24.03755  24.04556  50.00575
          Condensed to atoms (all electrons):
               1          2          3          4          5          6
     1  O    7.933597  -0.006412  -0.006181   0.012054   0.012187  -0.179017
     2  C   -0.006412   7.204792  -0.770249  -0.554177  -0.041324  -0.717119
     3  C   -0.006181  -0.770249   7.204359  -0.040124  -0.553546   0.378929
     4  C    0.012054  -0.554177  -0.040124   6.845016  -0.109108  -0.182672
     5  C    0.012187  -0.041324  -0.553546  -0.109108   6.845484  -0.343497
     6  C   -0.179017  -0.717119   0.378929  -0.182672  -0.343497   9.026136
     7  C   -0.179780   0.379784  -0.719616  -0.343132  -0.185396  -0.972341
     8  C    0.665788   0.425019   0.426450  -0.192097  -0.190018  -1.314815
     9  H   -0.000836   0.525860  -0.100966  -0.080850  -0.006652  -0.011959
    10  H    0.001180   0.523511  -0.087019  -0.000952  -0.019099  -0.054638
    11  H   -0.000832  -0.100802   0.525519  -0.006655  -0.080640   0.000964
    12  H    0.001186  -0.087624   0.524118  -0.018996  -0.000920  -0.021267
    13  H   -0.001743  -0.070747  -0.021539   0.571101  -0.001253  -0.042771
    14  H    0.002815  -0.034245  -0.023443   0.464375  -0.006451  -0.089904
    15  H   -0.001740  -0.021492  -0.070805  -0.001217   0.571236  -0.059112
    16  H    0.002810  -0.023348  -0.034355  -0.006400   0.464378   0.029731
    17  H   -0.002996  -0.022118   0.015946  -0.081345  -0.004091   0.504608
    18  H   -0.014415  -0.102330   0.048914   0.007858  -0.027061   0.569600
    19  H   -0.003058   0.015924  -0.022074  -0.004121  -0.081624  -0.026142
    20  H   -0.014490   0.049043  -0.102476  -0.027056   0.007907  -0.026424
               7          8          9         10         11         12
     1  O   -0.179780   0.665788  -0.000836   0.001180  -0.000832   0.001186
     2  C    0.379784   0.425019   0.525860   0.523511  -0.100802  -0.087624
     3  C   -0.719616   0.426450  -0.100966  -0.087019   0.525519   0.524118
     4  C   -0.343132  -0.192097  -0.080850  -0.000952  -0.006655  -0.018996
     5  C   -0.185396  -0.190018  -0.006652  -0.019099  -0.080640  -0.000920
     6  C   -0.972341  -1.314815  -0.011959  -0.054638   0.000964  -0.021267
     7  C    9.031101  -1.315519   0.001095  -0.021594  -0.011914  -0.055226
     8  C   -1.315519   8.007277   0.010463  -0.008266   0.010553  -0.008168
     9  H    0.001095   0.010463   0.475360  -0.009421  -0.020488   0.000807
    10  H   -0.021594  -0.008266  -0.009421   0.440403   0.000856  -0.000987
    11  H   -0.011914   0.010553  -0.020488   0.000856   0.475131  -0.009312
    12  H   -0.055226  -0.008168   0.000807  -0.000987  -0.009312   0.440350
    13  H   -0.058930  -0.018859   0.000420   0.004324  -0.000026  -0.003709
    14  H    0.029888   0.003696  -0.002371  -0.005159  -0.001990  -0.001510
    15  H   -0.042976  -0.018622  -0.000014  -0.003739   0.000440   0.004302
    16  H   -0.089878   0.003794  -0.001989  -0.001495  -0.002399  -0.005099
    17  H   -0.026313  -0.054330  -0.002574  -0.001309   0.000523  -0.000347
    18  H   -0.025888  -0.119723  -0.002616   0.001084   0.002274  -0.000388
    19  H    0.504610  -0.054138   0.000528  -0.000363  -0.002563  -0.001340
    20  H    0.570530  -0.120272   0.002280  -0.000409  -0.002603   0.001059
              13         14         15         16         17         18
     1  O   -0.001743   0.002815  -0.001740   0.002810  -0.002996  -0.014415
     2  C   -0.070747  -0.034245  -0.021492  -0.023348  -0.022118  -0.102330
     3  C   -0.021539  -0.023443  -0.070805  -0.034355   0.015946   0.048914
     4  C    0.571101   0.464375  -0.001217  -0.006400  -0.081345   0.007858
     5  C   -0.001253  -0.006451   0.571236   0.464378  -0.004091  -0.027061
     6  C   -0.042771  -0.089904  -0.059112   0.029731   0.504608   0.569600
     7  C   -0.058930   0.029888  -0.042976  -0.089878  -0.026313  -0.025888
     8  C   -0.018859   0.003696  -0.018622   0.003794  -0.054330  -0.119723
     9  H    0.000420  -0.002371  -0.000014  -0.001989  -0.002574  -0.002616
    10  H    0.004324  -0.005159  -0.003739  -0.001495  -0.001309   0.001084
    11  H   -0.000026  -0.001990   0.000440  -0.002399   0.000523   0.002274
    12  H   -0.003709  -0.001510   0.004302  -0.005099  -0.000347  -0.000388
    13  H    0.436818  -0.016214  -0.002427   0.000407   0.004681   0.005581
    14  H   -0.016214   0.434856   0.000411  -0.000548  -0.008064  -0.003677
    15  H   -0.002427   0.000411   0.436943  -0.016176  -0.002458  -0.008082
    16  H    0.000407  -0.000548  -0.016176   0.434762   0.000721   0.000938
    17  H    0.004681  -0.008064  -0.002458   0.000721   0.405895  -0.000320
    18  H    0.005581  -0.003677  -0.008082   0.000938  -0.000320   0.435741
    19  H   -0.002457   0.000724   0.004686  -0.008049  -0.001807  -0.004798
    20  H   -0.008028   0.000955   0.005600  -0.003670  -0.004802  -0.004334
              19         20
     1  O   -0.003058  -0.014490
     2  C    0.015924   0.049043
     3  C   -0.022074  -0.102476
     4  C   -0.004121  -0.027056
     5  C   -0.081624   0.007907
     6  C   -0.026142  -0.026424
     7  C    0.504610   0.570530
     8  C   -0.054138  -0.120272
     9  H    0.000528   0.002280
    10  H   -0.000363  -0.000409
    11  H   -0.002563  -0.002603
    12  H   -0.001340   0.001059
    13  H   -0.002457  -0.008028
    14  H    0.000724   0.000955
    15  H    0.004686   0.005600
    16  H   -0.008049  -0.003670
    17  H   -0.001807  -0.004802
    18  H   -0.004798  -0.004334
    19  H    0.405936  -0.000274
    20  H   -0.000274   0.435467
 Mulliken charges:
               1
     1  O   -0.220119
     2  C   -0.571947
     3  C   -0.571841
     4  C   -0.251504
     5  C   -0.250513
     6  C   -0.468288
     7  C   -0.468502
     8  C   -0.138213
     9  H    0.223922
    10  H    0.243092
    11  H    0.223964
    12  H    0.243072
    13  H    0.225372
    14  H    0.255855
    15  H    0.225241
    16  H    0.255867
    17  H    0.280500
    18  H    0.241643
    19  H    0.280401
    20  H    0.241996
 Sum of Mulliken charges =  -0.00000
 Mulliken charges with hydrogens summed into heavy atoms:
               1
     1  O   -0.220119
     2  C   -0.104932
     3  C   -0.104805
     4  C    0.229723
     5  C    0.230595
     6  C    0.053855
     7  C    0.053896
     8  C   -0.138213
 Electronic spatial extent (au):  <R**2>=           1000.6403
 Charge=             -0.0000 electrons
 Dipole moment (field-independent basis, Debye):
    X=             -3.6212    Y=              0.0012    Z=              0.0030  Tot=              3.6213
 Quadrupole moment (field-independent basis, Debye-Ang):
   XX=            -63.3423   YY=            -48.0347   ZZ=            -49.3064
   XY=              0.0029   XZ=              0.0099   YZ=             -0.1973
 Traceless Quadrupole moment (field-independent basis, Debye-Ang):
   XX=             -9.7811   YY=              5.5264   ZZ=              4.2547
   XY=              0.0029   XZ=              0.0099   YZ=             -0.1973
 Octapole moment (field-independent basis, Debye-Ang**2):
  XXX=            -32.4947  YYY=             -0.0028  ZZZ=             -0.0070  XYY=              3.7618
  XXY=              0.0066  XXZ=              0.0246  XZZ=              2.7673  YZZ=              0.0003
  YYZ=              0.0008  XYZ=             -0.1312
 Hexadecapole moment (field-independent basis, Debye-Ang**3):
 XXXX=           -860.8297 YYYY=           -454.6031 ZZZZ=           -126.6293 XXXY=              0.0038
 XXXZ=              0.0592 YYYX=              0.0007 YYYZ=              0.5103 ZZZX=             -0.0100
 ZZZY=             -2.7898 XXYY=           -200.8673 XXZZ=           -146.9030 YYZZ=           -103.6021
 XXYZ=              3.2707 YYXZ=              0.0066 ZZXY=              0.0024
 N-N= 3.896149530427D+02 E-N=-1.590769703482D+03  KE= 3.474511618225D+02
 R6APFD:  NTU= -4 IXU= 1 FactS= 1.050
 Calling FoFJK, ICntrl=      2127 FMM=F ISym2X=0 I1Cent= 0 IOpClX= 0 NMat=1 NMatS=1 NMatT=0.
 ***** Axes restored to original set *****
 -------------------------------------------------------------------
 Center     Atomic                   Forces (Hartrees/Bohr)
 Number     Number              X              Y              Z
 -------------------------------------------------------------------
      1        8           0.039651880    0.000051877   -0.000080107
      2        6           0.005439562    0.000600949    0.007700312
      3        6           0.005362932   -0.000635024   -0.007808012
      4        6           0.009663980   -0.001984011   -0.008898964
      5        6           0.009727257    0.002023702    0.008837564
      6        6          -0.008621967   -0.005908514    0.010301779
      7        6          -0.008597993    0.005903785   -0.010395889
      8        6          -0.046936404   -0.000079589    0.000175434
      9        1           0.002452082   -0.000826541   -0.000647033
     10        1          -0.001547989   -0.001011521   -0.002943601
     11        1           0.002472224    0.000837212    0.000648437
     12        1          -0.001542896    0.001036098    0.003021436
     13        1          -0.001347734    0.000932566    0.002628881
     14        1          -0.001063932   -0.001049628    0.002085387
     15        1          -0.001327311   -0.000916170   -0.002533075
     16        1          -0.001070270    0.001013269   -0.002085717
     17        1          -0.003978085    0.002871445   -0.004204780
     18        1           0.002654930    0.000452389   -0.003210398
     19        1          -0.003987797   -0.002857776    0.004236328
     20        1           0.002597532   -0.000454517    0.003172017
 -------------------------------------------------------------------
 Cartesian Forces:  Max     0.046936404 RMS     0.009063997

 GradGradGradGradGradGradGradGradGradGradGradGradGradGradGradGradGradGrad
 Berny optimization.
 FormGI is forming the generalized inverse of G from B-inverse, IUseBI=4.
 Internal  Forces:  Max     0.039651971 RMS     0.004447729
 Search for a local minimum.
 Step number   1 out of a maximum of  120
 All quantities printed in internal units (Hartrees-Bohrs-Radians)
 Mixed Optimization -- RFO/linear search
 Second derivative matrix not updated -- first step.
 ITU=  0
     Eigenvalues ---    0.00519   0.00602   0.00616   0.00787   0.00905
     Eigenvalues ---    0.02303   0.02597   0.03723   0.03900   0.04519
     Eigenvalues ---    0.04573   0.04710   0.04938   0.05091   0.05465
     Eigenvalues ---    0.05879   0.06209   0.06967   0.07942   0.08425
     Eigenvalues ---    0.08478   0.08720   0.08727   0.08984   0.09692
     Eigenvalues ---    0.09734   0.12423   0.12466   0.12791   0.14761
     Eigenvalues ---    0.16407   0.21955   0.22035   0.25000   0.28300
     Eigenvalues ---    0.28440   0.29240   0.29842   0.29878   0.30664
     Eigenvalues ---    0.30987   0.33971   0.33976   0.33977   0.33977
     Eigenvalues ---    0.33978   0.33981   0.34005   0.34021   0.34097
     Eigenvalues ---    0.34114   0.34223   0.34230   0.89399
 RFO step:  Lambda=-6.40094786D-03 EMin= 5.18711514D-03
 Linear search not attempted -- first point.
 Iteration  1 RMS(Cart)=  0.02182745 RMS(Int)=  0.00047093
 Iteration  2 RMS(Cart)=  0.00045275 RMS(Int)=  0.00029403
 Iteration  3 RMS(Cart)=  0.00000017 RMS(Int)=  0.00029403
 Variable       Old X    -DE/DX   Delta X   Delta X   Delta X     New X
                                 (Linear)    (Quad)   (Total)
    R1        2.33211  -0.03965   0.00000  -0.04404  -0.04404   2.28807
    R2        2.88276   0.00377   0.00000   0.01296   0.01297   2.89573
    R3        2.88604   0.00551   0.00000   0.01817   0.01819   2.90422
    R4        2.07370   0.00206   0.00000   0.00595   0.00595   2.07966
    R5        2.07321   0.00292   0.00000   0.00843   0.00843   2.08164
    R6        2.88626   0.00545   0.00000   0.01802   0.01803   2.90430
    R7        2.07362   0.00208   0.00000   0.00602   0.00602   2.07963
    R8        2.07295   0.00300   0.00000   0.00867   0.00867   2.08161
    R9        2.87855   0.01035   0.00000   0.03393   0.03392   2.91248
   R10        2.07138   0.00293   0.00000   0.00844   0.00844   2.07982
   R11        2.07368   0.00070   0.00000   0.00203   0.00203   2.07571
   R12        2.87839   0.01038   0.00000   0.03406   0.03405   2.91244
   R13        2.07166   0.00283   0.00000   0.00816   0.00816   2.07982
   R14        2.07380   0.00067   0.00000   0.00192   0.00192   2.07572
   R15        2.85792   0.00296   0.00000   0.00877   0.00877   2.86669
   R16        2.07367  -0.00034   0.00000  -0.00097  -0.00097   2.07270
   R17        2.06944   0.00368   0.00000   0.01055   0.01055   2.07999
   R18        2.85798   0.00295   0.00000   0.00876   0.00876   2.86674
   R19        2.07369  -0.00033   0.00000  -0.00096  -0.00096   2.07272
   R20        2.06955   0.00363   0.00000   0.01041   0.01041   2.07997
    A1        2.00312  -0.00115   0.00000   0.00408   0.00392   2.00703
    A2        1.88238   0.00060   0.00000   0.00977   0.00957   1.89195
    A3        1.91208   0.00069   0.00000  -0.00529  -0.00537   1.90671
    A4        1.89094   0.00144   0.00000   0.01595   0.01587   1.90682
    A5        1.91625  -0.00121   0.00000  -0.02235  -0.02240   1.89385
    A6        1.85269  -0.00026   0.00000  -0.00159  -0.00145   1.85124
    A7        2.00289  -0.00113   0.00000   0.00417   0.00401   2.00690
    A8        1.88232   0.00060   0.00000   0.00976   0.00956   1.89188
    A9        1.91212   0.00068   0.00000  -0.00522  -0.00531   1.90682
   A10        1.89096   0.00143   0.00000   0.01594   0.01586   1.90682
   A11        1.91634  -0.00122   0.00000  -0.02241  -0.02246   1.89388
   A12        1.85286  -0.00026   0.00000  -0.00167  -0.00154   1.85132
   A13        1.97145   0.00453   0.00000   0.02994   0.02954   2.00100
   A14        1.92740  -0.00145   0.00000  -0.01141  -0.01107   1.91633
   A15        1.87398   0.00015   0.00000   0.01460   0.01431   1.88829
   A16        1.94146  -0.00259   0.00000  -0.02353  -0.02336   1.91810
   A17        1.88156  -0.00094   0.00000   0.00149   0.00091   1.88246
   A18        1.86280   0.00018   0.00000  -0.01161  -0.01166   1.85114
   A19        1.97137   0.00452   0.00000   0.03001   0.02961   2.00097
   A20        1.92741  -0.00146   0.00000  -0.01154  -0.01119   1.91622
   A21        1.87394   0.00016   0.00000   0.01467   0.01438   1.88832
   A22        1.94158  -0.00259   0.00000  -0.02355  -0.02337   1.91821
   A23        1.88163  -0.00093   0.00000   0.00148   0.00090   1.88253
   A24        1.86273   0.00018   0.00000  -0.01159  -0.01164   1.85108
   A25        1.99394   0.00282   0.00000   0.01930   0.01884   2.01277
   A26        1.88661   0.00570   0.00000   0.05810   0.05809   1.94470
   A27        1.94961  -0.00402   0.00000  -0.03487  -0.03458   1.91503
   A28        1.86017  -0.00402   0.00000  -0.01733  -0.01866   1.84151
   A29        1.89536  -0.00001   0.00000  -0.01385  -0.01397   1.88139
   A30        1.87227  -0.00063   0.00000  -0.01173  -0.01140   1.86087
   A31        1.99401   0.00285   0.00000   0.01963   0.01916   2.01317
   A32        1.88652   0.00570   0.00000   0.05818   0.05816   1.94468
   A33        1.94946  -0.00400   0.00000  -0.03468  -0.03439   1.91507
   A34        1.86013  -0.00402   0.00000  -0.01724  -0.01859   1.84154
   A35        1.89537  -0.00005   0.00000  -0.01428  -0.01439   1.88098
   A36        1.87248  -0.00064   0.00000  -0.01202  -0.01169   1.86079
   A37        2.09565   0.00119   0.00000   0.00186   0.00185   2.09751
   A38        2.09576   0.00114   0.00000   0.00166   0.00166   2.09742
   A39        2.09177  -0.00232   0.00000  -0.00351  -0.00351   2.08826
    D1       -1.00290   0.00220   0.00000   0.02829   0.02842  -0.97448
    D2       -3.11190   0.00066   0.00000  -0.00193  -0.00188  -3.11379
    D3        1.16186   0.00029   0.00000  -0.00253  -0.00245   1.15940
    D4       -3.11208   0.00067   0.00000  -0.00190  -0.00185  -3.11393
    D5        1.06210  -0.00087   0.00000  -0.03211  -0.03215   1.02995
    D6       -0.94732  -0.00124   0.00000  -0.03271  -0.03272  -0.98005
    D7        1.16186   0.00029   0.00000  -0.00257  -0.00249   1.15937
    D8       -0.94714  -0.00125   0.00000  -0.03278  -0.03280  -0.97993
    D9       -2.95656  -0.00162   0.00000  -0.03338  -0.03337  -2.98993
   D10        1.28815  -0.00170   0.00000  -0.02721  -0.02733   1.26082
   D11       -0.89842  -0.00056   0.00000  -0.00978  -0.00980  -0.90822
   D12       -2.92306  -0.00009   0.00000   0.00181   0.00195  -2.92112
   D13       -2.89057  -0.00063   0.00000  -0.00032  -0.00035  -2.89092
   D14        1.20605   0.00051   0.00000   0.01710   0.01718   1.22322
   D15       -0.81860   0.00098   0.00000   0.02870   0.02892  -0.78967
   D16       -0.87440  -0.00079   0.00000  -0.00538  -0.00555  -0.87995
   D17       -3.06097   0.00035   0.00000   0.01204   0.01198  -3.04899
   D18        1.19757   0.00082   0.00000   0.02364   0.02373   1.22130
   D19        1.28923  -0.00171   0.00000  -0.02714  -0.02727   1.26195
   D20       -0.89744  -0.00056   0.00000  -0.00965  -0.00967  -0.90712
   D21       -2.92197  -0.00009   0.00000   0.00195   0.00208  -2.91989
   D22       -2.88971  -0.00063   0.00000  -0.00023  -0.00026  -2.88998
   D23        1.20680   0.00052   0.00000   0.01726   0.01733   1.22414
   D24       -0.81772   0.00098   0.00000   0.02886   0.02909  -0.78864
   D25       -0.87329  -0.00080   0.00000  -0.00543  -0.00559  -0.87888
   D26       -3.05996   0.00035   0.00000   0.01207   0.01200  -3.04795
   D27        1.19870   0.00081   0.00000   0.02366   0.02376   1.22246
   D28       -1.48835   0.00149   0.00000   0.02708   0.02753  -1.46082
   D29        2.72750   0.00088   0.00000  -0.00305  -0.00354   2.72396
   D30        0.67163   0.00043   0.00000  -0.00467  -0.00444   0.66719
   D31        0.69060   0.00100   0.00000   0.01640   0.01668   0.70728
   D32       -1.37674   0.00039   0.00000  -0.01373  -0.01438  -1.39112
   D33        2.85058  -0.00006   0.00000  -0.01535  -0.01528   2.83530
   D34        2.72727  -0.00077   0.00000  -0.00979  -0.00938   2.71789
   D35        0.65993  -0.00138   0.00000  -0.03991  -0.04044   0.61949
   D36       -1.39593  -0.00183   0.00000  -0.04154  -0.04134  -1.43728
   D37       -1.48805   0.00152   0.00000   0.02777   0.02822  -1.45983
   D38        2.72786   0.00088   0.00000  -0.00274  -0.00323   2.72463
   D39        0.67188   0.00044   0.00000  -0.00415  -0.00393   0.66796
   D40        0.69094   0.00101   0.00000   0.01696   0.01725   0.70818
   D41       -1.37634   0.00038   0.00000  -0.01354  -0.01420  -1.39054
   D42        2.85087  -0.00006   0.00000  -0.01496  -0.01490   2.83597
   D43        2.72762  -0.00076   0.00000  -0.00922  -0.00881   2.71881
   D44        0.66035  -0.00139   0.00000  -0.03973  -0.04026   0.62009
   D45       -1.39563  -0.00184   0.00000  -0.04114  -0.04095  -1.43658
   D46       -2.48085  -0.00311   0.00000  -0.02142  -0.02135  -2.50221
   D47        0.65979  -0.00309   0.00000  -0.01968  -0.01962   0.64018
   D48       -0.39855   0.00293   0.00000   0.05068   0.05032  -0.34823
   D49        2.74210   0.00295   0.00000   0.05241   0.05205   2.79415
   D50        1.61348   0.00013   0.00000   0.02140   0.02151   1.63499
   D51       -1.52906   0.00016   0.00000   0.02314   0.02325  -1.50581
   D52       -2.48521  -0.00309   0.00000  -0.01947  -0.01941  -2.50461
   D53        0.65733  -0.00311   0.00000  -0.02121  -0.02115   0.63619
   D54       -0.40300   0.00297   0.00000   0.05298   0.05261  -0.35038
   D55        2.73954   0.00295   0.00000   0.05124   0.05087   2.79042
   D56        1.60926   0.00014   0.00000   0.02320   0.02331   1.63258
   D57       -1.53138   0.00011   0.00000   0.02146   0.02158  -1.50981
         Item               Value     Threshold  Converged?
 Maximum Force            0.039652     0.000450     NO 
 RMS     Force            0.004448     0.000300     NO 
 Maximum Displacement     0.098987     0.001800     NO 
 RMS     Displacement     0.021685     0.001200     NO 
 Predicted change in Energy=-3.393869D-03
 GradGradGradGradGradGradGradGradGradGradGradGradGradGradGradGradGradGrad

                          Input orientation:                          
 ---------------------------------------------------------------------
 Center     Atomic      Atomic             Coordinates (Angstroms)
 Number     Number       Type             X           Y           Z
 ---------------------------------------------------------------------
      1          8           0       -2.587964   -0.000043    0.000829
      2          6           0        1.914947   -0.755106   -0.130820
      3          6           0        1.914912    0.754518    0.132127
      4          6           0        0.683655   -1.506620    0.399321
      5          6           0        0.684453    1.506138   -0.399912
      6          6           0       -0.614623   -1.251546   -0.391096
      7          6           0       -0.614659    1.252447    0.389545
      8          6           0       -1.377167    0.000138    0.000142
      9          1           0        2.823416   -1.185678    0.316848
     10          1           0        1.994498   -0.934888   -1.214691
     11          1           0        2.824069    1.184842   -0.314353
     12          1           0        1.992932    0.934399    1.216078
     13          1           0        0.528762   -1.265550    1.461959
     14          1           0        0.895966   -2.583599    0.359815
     15          1           0        0.530562    1.264057   -1.462466
     16          1           0        0.897262    2.583060   -0.361349
     17          1           0       -1.325784   -2.077870   -0.270818
     18          1           0       -0.388022   -1.185167   -1.466156
     19          1           0       -1.325581    2.078697    0.267255
     20          1           0       -0.389234    1.187772    1.464941
 ---------------------------------------------------------------------
                    Distance matrix (angstroms):
                    1          2          3          4          5
     1  O    0.000000
     2  C    4.567676   0.000000
     3  C    4.567548   1.532353   0.000000
     4  C    3.623818   1.536849   2.588461   0.000000
     5  C    3.624622   2.588387   1.536888   3.116967   0.000000
     6  C    2.369375   2.590931   3.270566   1.541217   3.048360
     7  C    2.369339   3.271079   2.590931   3.049290   1.541199
     8  C    1.210797   3.380172   3.379984   2.583922   2.584252
     9  H    5.548750   1.100507   2.150317   2.165267   3.512091
    10  H    4.832223   1.101556   2.162023   2.156437   2.887679
    11  H    5.549179   2.150252   1.100495   3.512075   2.165296
    12  H    4.830592   2.162092   1.101542   2.887883   2.156485
    13  H    3.667477   2.172327   2.787569   1.100593   3.342612
    14  H    4.352172   2.149985   3.497588   1.098418   4.165078
    15  H    3.669385   2.786902   2.172275   3.341607   1.100593
    16  H    4.353205   3.497453   2.150045   4.165300   1.098424
    17  H    2.446274   3.503091   4.322835   2.193914   4.111306
    18  H    2.897638   2.696617   3.408869   2.175276   3.087102
    19  H    2.446580   4.323185   3.503214   4.112052   2.193895
    20  H    2.896367   3.410349   2.696886   3.089723   2.175279
                    6          7          8          9         10
     6  C    0.000000
     7  C    2.622858   0.000000
     8  C    1.516988   1.517015   0.000000
     9  H    3.510789   4.215459   4.376227   0.000000
    10  H    2.754287   3.763736   3.703811   1.759435   0.000000
    11  H    4.215031   3.510682   4.376393   2.453117   2.447867
    12  H    3.763072   2.753877   3.702555   2.448070   3.066410
    13  H    2.177462   2.966107   2.715040   2.565754   3.069555
    14  H    2.149445   4.122878   3.460087   2.381405   2.530630
    15  H    2.964379   2.177524   2.715905   3.797939   2.653273
    16  H    4.122000   2.149482   3.460518   4.286422   3.782602
    17  H    1.096826   3.468832   2.096230   4.284533   3.636149
    18  H    1.100685   3.071963   2.129175   3.673206   2.408791
    19  H    3.468344   1.096839   2.096287   5.279468   4.722371
    20  H    3.073426   1.100670   2.128878   4.156020   4.167528
                   11         12         13         14         15
    11  H    0.000000
    12  H    1.759469   0.000000
    13  H    3.798439   2.654058   0.000000
    14  H    4.286401   3.783230   1.756932   0.000000
    15  H    2.566050   3.069495   3.866675   4.273018   0.000000
    16  H    2.381136   2.531177   4.274581   5.216747   1.756899
    17  H    5.279059   4.722129   2.664906   2.364241   4.004313
    18  H    4.154650   4.166039   3.069334   2.634086   2.615818
    19  H    4.284488   3.636237   4.006233   5.165351   2.664740
    20  H    3.673038   2.408494   2.619450   4.134765   3.069455
                   16         17         18         19         20
    16  H    0.000000
    17  H    5.164726   0.000000
    18  H    4.131838   1.762143   0.000000
    19  H    2.364436   4.191250   3.812681   0.000000
    20  H    2.633863   3.815024   3.771229   1.762086   0.000000
 Stoichiometry    C7H12O
 Framework group  C1[X(C7H12O)]
 Deg. of freedom    54
 Full point group                 C1      NOp   1
 Largest Abelian subgroup         C1      NOp   1
 Largest concise Abelian subgroup C1      NOp   1
                         Standard orientation:                         
 ---------------------------------------------------------------------
 Center     Atomic      Atomic             Coordinates (Angstroms)
 Number     Number       Type             X           Y           Z
 ---------------------------------------------------------------------
      1          8           0        2.650935   -0.000377   -0.000926
      2          6           0       -1.852070   -0.755579    0.126635
      3          6           0       -1.851846    0.755497   -0.127836
      4          6           0       -0.620893   -1.504267   -0.407755
      5          6           0       -0.621271    1.503958    0.408371
      6          6           0        0.677444   -1.253802    0.384037
      7          6           0        0.677781    1.254533   -0.382541
      8          6           0        1.440139   -0.000042   -0.000197
      9          1           0       -2.760610   -1.183514   -0.323412
     10          1           0       -1.931609   -0.941430    1.209483
     11          1           0       -2.760932    1.183427    0.321082
     12          1           0       -1.929878    0.941467   -1.210759
     13          1           0       -0.466004   -1.257258   -1.469029
     14          1           0       -0.833344   -2.581423   -0.374287
     15          1           0       -0.467377    1.255899    1.469544
     16          1           0       -0.833940    2.581108    0.375859
     17          1           0        1.388493   -2.079531    0.259100
     18          1           0        0.450887   -1.193427    1.459460
     19          1           0        1.388816    2.079990   -0.255640
     20          1           0        0.452313    1.195922   -1.458276
 ---------------------------------------------------------------------
 Rotational constants (GHZ):           3.1845914           1.7522151           1.2421420
 Standard basis: 6-311++G(d,p) (5D, 7F)
 There are   268 symmetry adapted cartesian basis functions of A   symmetry.
 There are   260 symmetry adapted basis functions of A   symmetry.
   260 basis functions,   396 primitive gaussians,   268 cartesian basis functions
    31 alpha electrons       31 beta electrons
       nuclear repulsion energy       387.7320238460 Hartrees.
 NAtoms=   20 NActive=   20 NUniq=   20 SFac= 1.00D+00 NAtFMM=   60 NAOKFM=F Big=F
 Integral buffers will be    131072 words long.
 Raffenetti 2 integral format.
 Two-electron integral symmetry is turned on.
 R6APFD:  NTU= -4 IXU= 1 FactS= 1.050
 Nuclear repulsion after empirical dispersion term =      387.7174089040 Hartrees.
 One-electron integrals computed using PRISM.
 NBasis=   260 RedAO= T EigKep=  1.25D-05  NBF=   260
 NBsUse=   260 1.00D-06 EigRej= -1.00D+00 NBFU=   260
 Initial guess from the checkpoint file:  "CEPE0026.chk"
 B after Tr=    -0.000000    0.000000    0.000000
         Rot=    1.000000    0.000521   -0.000002    0.000049 Ang=   0.06 deg.
 ExpMin= 3.60D-02 ExpMax= 8.59D+03 ExpMxC= 1.30D+03 IAcc=3 IRadAn=         5 AccDes= 0.00D+00
 Harris functional with IExCor= 1009 and IRadAn=       5 diagonalized for initial guess.
 HarFok:  IExCor= 1009 AccDes= 0.00D+00 IRadAn=         5 IDoV= 1 UseB2=F ITyADJ=14
 ICtDFT=  3500011 ScaDFX=  1.000000  1.000000  1.000000  1.000000
 FoFCou: FMM=F IPFlag=           0 FMFlag=      100000 FMFlg1=           0
         NFxFlg=           0 DoJE=T BraDBF=F KetDBF=T FulRan=T
         wScrn=  0.000000 ICntrl=       500 IOpCl=  0 I1Cent=   200000004 NGrid=           0
         NMat0=    1 NMatS0=      1 NMatT0=    0 NMatD0=    1 NMtDS0=    0 NMtDT0=    0
 Petite list used in FoFCou.
 Requested convergence on RMS density matrix=1.00D-08 within  32 cycles.
 Requested convergence on MAX density matrix=1.00D-06.
 Requested convergence on             energy=1.00D-06.
 No special actions if energy rises.
 SCF Done:  E(RM08HX) =  -349.212916660     A.U. after   12 cycles
            NFock= 12  Conv=0.97D-08     -V/T= 2.0053
 QCSCF skips out because SCF is already converged.
 R6APFD:  NTU= -4 IXU= 1 FactS= 1.050
 Calling FoFJK, ICntrl=      2127 FMM=F ISym2X=0 I1Cent= 0 IOpClX= 0 NMat=1 NMatS=1 NMatT=0.
 ***** Axes restored to original set *****
 -------------------------------------------------------------------
 Center     Atomic                   Forces (Hartrees/Bohr)
 Number     Number              X              Y              Z
 -------------------------------------------------------------------
      1        8           0.006600133   -0.000012139    0.000037567
      2        6          -0.001282452    0.000592828    0.000298602
      3        6          -0.001303929   -0.000597340   -0.000309621
      4        6           0.001186633    0.000255856   -0.001635465
      5        6           0.001190806   -0.000268763    0.001639181
      6        6           0.001755003   -0.001208414    0.003337402
      7        6           0.001774027    0.001180836   -0.003282838
      8        6          -0.008989721    0.000033751   -0.000128189
      9        1          -0.000876060   -0.000208589   -0.000291715
     10        1          -0.000274169    0.000037673   -0.000753379
     11        1          -0.000870719    0.000212889    0.000294008
     12        1          -0.000268985   -0.000037274    0.000758013
     13        1          -0.000267659    0.000170099    0.000763942
     14        1          -0.000464125    0.000211854    0.000428973
     15        1          -0.000276331   -0.000166510   -0.000762224
     16        1          -0.000473420   -0.000215430   -0.000417561
     17        1           0.000809044   -0.000161683   -0.000725348
     18        1           0.000606743    0.000625413   -0.001080838
     19        1           0.000804840    0.000151710    0.000730526
     20        1           0.000620341   -0.000596766    0.001098966
 -------------------------------------------------------------------
 Cartesian Forces:  Max     0.008989721 RMS     0.001730035

 GradGradGradGradGradGradGradGradGradGradGradGradGradGradGradGradGradGrad
 Berny optimization.
 Using GEDIIS/GDIIS optimizer.
 FormGI is forming the generalized inverse of G from B-inverse, IUseBI=4.
 Internal  Forces:  Max     0.006600109 RMS     0.000860605
 Search for a local minimum.
 Step number   2 out of a maximum of  120
 All quantities printed in internal units (Hartrees-Bohrs-Radians)
 Mixed Optimization -- En-DIIS/RFO-DIIS
 Update second derivatives using D2CorX and points    1    2
 DE= -3.26D-03 DEPred=-3.39D-03 R= 9.60D-01
 TightC=F SS=  1.41D+00  RLast= 2.39D-01 DXNew= 5.0454D-01 7.1819D-01
 Trust test= 9.60D-01 RLast= 2.39D-01 DXMaxT set to 5.05D-01
 ITU=  1  0
 Use linear search instead of GDIIS.
     Eigenvalues ---    0.00519   0.00602   0.00607   0.00770   0.00869
     Eigenvalues ---    0.02198   0.02555   0.03611   0.03808   0.04316
     Eigenvalues ---    0.04529   0.04744   0.04863   0.04992   0.05432
     Eigenvalues ---    0.05839   0.06311   0.07033   0.08121   0.08652
     Eigenvalues ---    0.08729   0.08752   0.08758   0.09029   0.09923
     Eigenvalues ---    0.10025   0.12520   0.12538   0.12898   0.15592
     Eigenvalues ---    0.16569   0.21806   0.21954   0.25000   0.28394
     Eigenvalues ---    0.28443   0.29391   0.29875   0.30393   0.30989
     Eigenvalues ---    0.32358   0.33622   0.33971   0.33977   0.33977
     Eigenvalues ---    0.33979   0.33981   0.34012   0.34055   0.34106
     Eigenvalues ---    0.34161   0.34227   0.34428   0.81270
 RFO step:  Lambda=-4.34852112D-04 EMin= 5.18989962D-03
 Quartic linear search produced a step of  0.02245.
 Iteration  1 RMS(Cart)=  0.01239166 RMS(Int)=  0.00009319
 Iteration  2 RMS(Cart)=  0.00010011 RMS(Int)=  0.00002760
 Iteration  3 RMS(Cart)=  0.00000001 RMS(Int)=  0.00002760
 Variable       Old X    -DE/DX   Delta X   Delta X   Delta X     New X
                                 (Linear)    (Quad)   (Total)
    R1        2.28807  -0.00660  -0.00099  -0.00902  -0.01001   2.27807
    R2        2.89573  -0.00104   0.00029  -0.00353  -0.00327   2.89246
    R3        2.90422  -0.00210   0.00041  -0.00682  -0.00642   2.89780
    R4        2.07966  -0.00076   0.00013  -0.00208  -0.00195   2.07771
    R5        2.08164   0.00071   0.00019   0.00242   0.00261   2.08425
    R6        2.90430  -0.00210   0.00040  -0.00684  -0.00645   2.89784
    R7        2.07963  -0.00075   0.00014  -0.00207  -0.00193   2.07770
    R8        2.08161   0.00072   0.00019   0.00245   0.00264   2.08426
    R9        2.91248  -0.00216   0.00076  -0.00611  -0.00535   2.90713
   R10        2.07982   0.00081   0.00019   0.00272   0.00291   2.08273
   R11        2.07571  -0.00031   0.00005  -0.00087  -0.00083   2.07488
   R12        2.91244  -0.00218   0.00076  -0.00620  -0.00543   2.90701
   R13        2.07982   0.00081   0.00018   0.00271   0.00289   2.08271
   R14        2.07572  -0.00032   0.00004  -0.00089  -0.00085   2.07487
   R15        2.86669   0.00109   0.00020   0.00420   0.00442   2.87112
   R16        2.07270  -0.00048  -0.00002  -0.00148  -0.00150   2.07120
   R17        2.07999   0.00122   0.00024   0.00398   0.00422   2.08421
   R18        2.86674   0.00110   0.00020   0.00423   0.00446   2.87120
   R19        2.07272  -0.00049  -0.00002  -0.00150  -0.00152   2.07121
   R20        2.07997   0.00123   0.00023   0.00403   0.00426   2.08423
    A1        2.00703   0.00040   0.00009  -0.00437  -0.00438   2.00265
    A2        1.89195   0.00029   0.00021   0.00455   0.00478   1.89674
    A3        1.90671  -0.00020  -0.00012   0.00106   0.00096   1.90766
    A4        1.90682  -0.00084   0.00036  -0.00381  -0.00342   1.90340
    A5        1.89385   0.00020  -0.00050   0.00072   0.00025   1.89410
    A6        1.85124   0.00014  -0.00003   0.00236   0.00231   1.85355
    A7        2.00690   0.00040   0.00009  -0.00423  -0.00423   2.00267
    A8        1.89188   0.00029   0.00021   0.00467   0.00491   1.89678
    A9        1.90682  -0.00021  -0.00012   0.00089   0.00078   1.90759
   A10        1.90682  -0.00084   0.00036  -0.00376  -0.00337   1.90345
   A11        1.89388   0.00020  -0.00050   0.00065   0.00017   1.89405
   A12        1.85132   0.00014  -0.00003   0.00228   0.00223   1.85355
   A13        2.00100  -0.00056   0.00066  -0.00906  -0.00843   1.99257
   A14        1.91633   0.00036  -0.00025   0.00341   0.00316   1.91950
   A15        1.88829   0.00035   0.00032   0.00609   0.00642   1.89471
   A16        1.91810   0.00013  -0.00052   0.00073   0.00021   1.91831
   A17        1.88246  -0.00006   0.00002   0.00032   0.00036   1.88283
   A18        1.85114  -0.00020  -0.00026  -0.00090  -0.00118   1.84997
   A19        2.00097  -0.00055   0.00066  -0.00909  -0.00845   1.99252
   A20        1.91622   0.00036  -0.00025   0.00356   0.00331   1.91952
   A21        1.88832   0.00036   0.00032   0.00609   0.00640   1.89472
   A22        1.91821   0.00012  -0.00052   0.00064   0.00012   1.91833
   A23        1.88253  -0.00007   0.00002   0.00026   0.00030   1.88283
   A24        1.85108  -0.00020  -0.00026  -0.00084  -0.00113   1.84996
   A25        2.01277   0.00066   0.00042   0.00303   0.00339   2.01616
   A26        1.94470  -0.00057   0.00130   0.00425   0.00548   1.95018
   A27        1.91503  -0.00015  -0.00078  -0.00840  -0.00917   1.90585
   A28        1.84151   0.00037  -0.00042   0.01000   0.00949   1.85100
   A29        1.88139  -0.00041  -0.00031  -0.00766  -0.00800   1.87339
   A30        1.86087   0.00009  -0.00026  -0.00127  -0.00148   1.85940
   A31        2.01317   0.00065   0.00043   0.00287   0.00324   2.01640
   A32        1.94468  -0.00056   0.00131   0.00429   0.00553   1.95022
   A33        1.91507  -0.00017  -0.00077  -0.00842  -0.00920   1.90587
   A34        1.84154   0.00036  -0.00042   0.00985   0.00934   1.85088
   A35        1.88098  -0.00039  -0.00032  -0.00729  -0.00763   1.87335
   A36        1.86079   0.00009  -0.00026  -0.00134  -0.00156   1.85923
   A37        2.09751   0.00071   0.00004   0.00429   0.00431   2.10182
   A38        2.09742   0.00071   0.00004   0.00429   0.00430   2.10172
   A39        2.08826  -0.00142  -0.00008  -0.00857  -0.00862   2.07964
    D1       -0.97448  -0.00095   0.00064  -0.02614  -0.02549  -0.99997
    D2       -3.11379  -0.00036  -0.00004  -0.02189  -0.02192  -3.13570
    D3        1.15940  -0.00057  -0.00006  -0.02759  -0.02766   1.13174
    D4       -3.11393  -0.00035  -0.00004  -0.02163  -0.02166  -3.13559
    D5        1.02995   0.00024  -0.00072  -0.01738  -0.01808   1.01187
    D6       -0.98005   0.00003  -0.00073  -0.02309  -0.02382  -1.00387
    D7        1.15937  -0.00057  -0.00006  -0.02746  -0.02752   1.13185
    D8       -0.97993   0.00003  -0.00074  -0.02321  -0.02395  -1.00388
    D9       -2.98993  -0.00019  -0.00075  -0.02892  -0.02969  -3.01962
   D10        1.26082   0.00021  -0.00061   0.01637   0.01574   1.27655
   D11       -0.90822   0.00017  -0.00022   0.01945   0.01922  -0.88900
   D12       -2.92112   0.00002   0.00004   0.01531   0.01534  -2.90578
   D13       -2.89092   0.00022  -0.00001   0.01631   0.01630  -2.87463
   D14        1.22322   0.00018   0.00039   0.01939   0.01978   1.24300
   D15       -0.78967   0.00003   0.00065   0.01526   0.01590  -0.77377
   D16       -0.87995   0.00004  -0.00012   0.01747   0.01734  -0.86260
   D17       -3.04899   0.00001   0.00027   0.02055   0.02083  -3.02816
   D18        1.22130  -0.00014   0.00053   0.01641   0.01694   1.23825
   D19        1.26195   0.00021  -0.00061   0.01502   0.01438   1.27633
   D20       -0.90712   0.00017  -0.00022   0.01811   0.01789  -0.88923
   D21       -2.91989   0.00002   0.00005   0.01385   0.01387  -2.90602
   D22       -2.88998   0.00022  -0.00001   0.01526   0.01524  -2.87473
   D23        1.22414   0.00019   0.00039   0.01835   0.01875   1.24289
   D24       -0.78864   0.00003   0.00065   0.01409   0.01473  -0.77390
   D25       -0.87888   0.00005  -0.00013   0.01631   0.01618  -0.86271
   D26       -3.04795   0.00001   0.00027   0.01940   0.01968  -3.02827
   D27        1.22246  -0.00014   0.00053   0.01514   0.01567   1.23812
   D28       -1.46082   0.00004   0.00062  -0.00518  -0.00454  -1.46536
   D29        2.72396  -0.00049  -0.00008  -0.02395  -0.02405   2.69991
   D30        0.66719  -0.00016  -0.00010  -0.01967  -0.01975   0.64745
   D31        0.70728   0.00019   0.00037  -0.00685  -0.00646   0.70082
   D32       -1.39112  -0.00033  -0.00032  -0.02561  -0.02597  -1.41709
   D33        2.83530   0.00000  -0.00034  -0.02133  -0.02167   2.81363
   D34        2.71789  -0.00001  -0.00021  -0.00735  -0.00754   2.71035
   D35        0.61949  -0.00053  -0.00091  -0.02611  -0.02705   0.59244
   D36       -1.43728  -0.00020  -0.00093  -0.02183  -0.02275  -1.46003
   D37       -1.45983   0.00003   0.00063  -0.00601  -0.00536  -1.46519
   D38        2.72463  -0.00049  -0.00007  -0.02450  -0.02460   2.70003
   D39        0.66796  -0.00015  -0.00009  -0.02014  -0.02021   0.64774
   D40        0.70818   0.00019   0.00039  -0.00757  -0.00717   0.70101
   D41       -1.39054  -0.00032  -0.00032  -0.02607  -0.02641  -1.41695
   D42        2.83597   0.00002  -0.00033  -0.02170  -0.02203   2.81394
   D43        2.71881  -0.00002  -0.00020  -0.00809  -0.00828   2.71053
   D44        0.62009  -0.00053  -0.00090  -0.02659  -0.02752   0.59257
   D45       -1.43658  -0.00019  -0.00092  -0.02222  -0.02313  -1.45972
   D46       -2.50221   0.00032  -0.00048   0.00503   0.00454  -2.49767
   D47        0.64018   0.00029  -0.00044   0.00091   0.00046   0.64064
   D48       -0.34823   0.00029   0.00113   0.01992   0.02108  -0.32716
   D49        2.79415   0.00026   0.00117   0.01580   0.01700   2.81115
   D50        1.63499   0.00039   0.00048   0.01980   0.02027   1.65526
   D51       -1.50581   0.00036   0.00052   0.01568   0.01619  -1.48962
   D52       -2.50461   0.00029  -0.00044   0.00067   0.00022  -2.50439
   D53        0.63619   0.00032  -0.00047   0.00479   0.00430   0.64049
   D54       -0.35038   0.00027   0.00118   0.01541   0.01662  -0.33377
   D55        2.79042   0.00030   0.00114   0.01953   0.02070   2.81112
   D56        1.63258   0.00036   0.00052   0.01530   0.01581   1.64839
   D57       -1.50981   0.00039   0.00048   0.01942   0.01989  -1.48992
         Item               Value     Threshold  Converged?
 Maximum Force            0.006600     0.000450     NO 
 RMS     Force            0.000861     0.000300     NO 
 Maximum Displacement     0.043303     0.001800     NO 
 RMS     Displacement     0.012420     0.001200     NO 
 Predicted change in Energy=-2.231609D-04
 GradGradGradGradGradGradGradGradGradGradGradGradGradGradGradGradGradGrad

                          Input orientation:                          
 ---------------------------------------------------------------------
 Center     Atomic      Atomic             Coordinates (Angstroms)
 Number     Number       Type             X           Y           Z
 ---------------------------------------------------------------------
      1          8           0       -2.584867   -0.000353    0.001344
      2          6           0        1.907517   -0.753292   -0.135961
      3          6           0        1.907708    0.752796    0.136989
      4          6           0        0.684854   -1.503622    0.405857
      5          6           0        0.685988    1.503720   -0.406199
      6          6           0       -0.610085   -1.252188   -0.385692
      7          6           0       -0.609930    1.252616    0.383730
      8          6           0       -1.379369    0.000351   -0.001358
      9          1           0        2.818243   -1.189933    0.298511
     10          1           0        1.971583   -0.926738   -1.223291
     11          1           0        2.819164    1.189047   -0.296339
     12          1           0        1.970529    0.926135    1.224410
     13          1           0        0.529976   -1.253814    1.468074
     14          1           0        0.894440   -2.580994    0.375862
     15          1           0        0.532297    1.254195   -1.468645
     16          1           0        0.895936    2.581005   -0.375733
     17          1           0       -1.315937   -2.084513   -0.284235
     18          1           0       -0.369504   -1.173710   -1.459184
     19          1           0       -1.315434    2.085147    0.281521
     20          1           0       -0.370710    1.174144    1.457536
 ---------------------------------------------------------------------
                    Distance matrix (angstroms):
                    1          2          3          4          5
     1  O    0.000000
     2  C    4.557113   0.000000
     3  C    4.557287   1.530622   0.000000
     4  C    3.621398   1.533449   2.580520   0.000000
     5  C    3.623096   2.580555   1.533473   3.115051   0.000000
     6  C    2.369947   2.578678   3.260742   1.538388   3.045530
     7  C    2.369921   3.260565   2.578605   3.045292   1.538326
     8  C    1.205501   3.374865   3.374935   2.586267   2.586448
     9  H    5.540488   1.099475   2.151595   2.158998   3.506978
    10  H    4.808239   1.102939   2.162239   2.154668   2.868365
    11  H    5.541375   2.151628   1.099473   3.506968   2.159057
    12  H    4.806860   2.162188   1.102940   2.868224   2.154654
    13  H    3.663974   2.172802   2.774242   1.102133   3.337849
    14  H    4.348051   2.151461   3.492553   1.097979   4.164128
    15  H    3.667625   2.774397   2.172836   3.338051   1.102123
    16  H    4.349895   3.492609   2.151491   4.164086   1.097975
    17  H    2.456718   3.490672   4.315048   2.194727   4.110718
    18  H    2.901334   2.666926   3.383029   2.167693   3.064551
    19  H    2.457493   4.314909   3.490658   4.110460   2.194700
    20  H    2.898695   3.382980   2.666939   3.064420   2.167657
                    6          7          8          9         10
     6  C    0.000000
     7  C    2.620315   0.000000
     8  C    1.519330   1.519373   0.000000
     9  H    3.496490   4.210188   4.373402   0.000000
    10  H    2.733588   3.741164   3.685308   1.761246   0.000000
    11  H    4.210387   3.496459   4.373522   2.452222   2.460524
    12  H    3.741268   2.733514   3.685295   2.460418   3.069916
    13  H    2.176279   2.959287   2.716204   2.570627   3.070612
    14  H    2.146925   4.118223   3.460614   2.375301   2.540491
    15  H    2.959692   2.176230   2.716527   3.784462   2.624540
    16  H    4.118442   2.146866   3.460772   4.286005   3.765585
    17  H    1.096032   3.475781   2.104924   4.269814   3.609717
    18  H    1.102916   3.056337   2.126853   3.640259   2.365867
    19  H    3.475701   1.096034   2.104871   5.273872   4.705358
    20  H    3.056448   1.102925   2.126865   4.135410   4.133627
                   11         12         13         14         15
    11  H    0.000000
    12  H    1.761245   0.000000
    13  H    3.784324   2.624260   0.000000
    14  H    4.285980   3.765363   1.757034   0.000000
    15  H    2.570663   3.070615   3.861921   4.271069   0.000000
    16  H    2.375427   2.540433   4.270760   5.216429   1.757018
    17  H    5.274031   4.705409   2.677321   2.359659   3.995719
    18  H    4.135509   4.133616   3.063384   2.635412   2.589992
    19  H    4.269874   3.609695   3.995261   5.163848   2.677251
    20  H    3.640274   2.365851   2.589657   4.107516   3.063391
                   16         17         18         19         20
    16  H    0.000000
    17  H    5.164089   0.000000
    18  H    4.107686   1.762329   0.000000
    19  H    2.359665   4.207868   3.813789   0.000000
    20  H    2.635247   3.813931   3.744285   1.762227   0.000000
 Stoichiometry    C7H12O
 Framework group  C1[X(C7H12O)]
 Deg. of freedom    54
 Full point group                 C1      NOp   1
 Largest Abelian subgroup         C1      NOp   1
 Largest concise Abelian subgroup C1      NOp   1
                         Standard orientation:                         
 ---------------------------------------------------------------------
 Center     Atomic      Atomic             Coordinates (Angstroms)
 Number     Number       Type             X           Y           Z
 ---------------------------------------------------------------------
      1          8           0        2.647798    0.000164   -0.001537
      2          6           0       -1.844438   -0.754081    0.133409
      3          6           0       -1.844924    0.752906   -0.134531
      4          6           0       -0.621650   -1.502373   -0.410941
      5          6           0       -0.623329    1.502252    0.411112
      6          6           0        0.673267   -1.253326    0.381398
      7          6           0        0.672611    1.254022   -0.379690
      8          6           0        1.442300    0.000630    0.001207
      9          1           0       -2.755096   -1.189448   -0.302483
     10          1           0       -1.908435   -0.931154    1.220159
     11          1           0       -2.756449    1.187540    0.300275
     12          1           0       -1.907814    0.929849   -1.221367
     13          1           0       -0.466855   -1.249004   -1.472326
     14          1           0       -0.831031   -2.579879   -0.384522
     15          1           0       -0.469555    1.249225    1.472717
     16          1           0       -0.833483    2.579592    0.384235
     17          1           0        1.379274   -2.085175    0.277151
     18          1           0        0.432707   -1.178464    1.455153
     19          1           0        1.377960    2.086344   -0.274736
[...]
 .00034573,-0.00068062,-0.01655985,0.02120437,0.00439412,-0.01654221,-0
 .02121417,-0.00440429,-0.09056077,0.03081568,0.00480179,-0.09057459,-0
 .03080021,-0.00477909,0.98822887,-0.00006958,-0.10467506,-0.00841474,-
 0.00016004,0.00260633,-0.00088264,0.00016076,0.00260619,-0.00088294,0.
 00574899,0.00048555,0.00719698,-0.00572881,0.00052298,0.00719788,0.026
 63258,-0.17347626,-0.02457205,-0.02665169,-0.17345336,-0.02452110,0.00
 006591,0.48657681,0.00041616,-0.00856132,-0.07213364,0.00044783,0.0003
 5566,-0.00045893,-0.00044967,0.00035440,-0.00045509,-0.00552291,0.0215
 9816,0.00736119,0.00551180,0.02157582,0.00732972,0.00759740,-0.0292151
 8,-0.09440819,-0.00759502,-0.02917164,-0.09437126,-0.00042028,0.074664
 79,0.27345988,-0.00054258,0.00054743,0.00019030,-0.22155793,0.08419923
 ,-0.08455023,0.00053044,-0.00050377,0.00022249,-0.02159586,0.00914677,
 -0.01178063,0.00141054,0.00010770,0.00013062,-0.00276522,-0.00334897,0
 .00309296,0.00014302,-0.00015984,0.00002560,0.00038564,-0.00101258,-0.
 00031941,0.24235047,-0.00012556,0.00064391,0.00028537,0.08457273,-0.08
 546101,0.04061916,0.02847305,-0.01461135,0.01427017,-0.01469578,0.0052
 8943,-0.00769911,-0.00236949,-0.00640566,-0.00210762,-0.00309200,-0.00
 086334,0.00155467,-0.00025990,0.00014570,0.00026811,-0.00028867,-0.001
 21836,-0.00061103,-0.08877185,0.09950434,-0.00006110,-0.00005026,-0.00
 012678,-0.08538113,0.04084925,-0.09050207,0.00666543,-0.00419162,0.002
 23785,0.01182012,-0.00471904,0.00504416,-0.00033618,-0.00120644,0.0002
 8600,0.00114509,0.00111658,-0.00090157,-0.00013143,0.00018241,-0.00002
 204,0.00000077,0.00009817,0.00018432,0.09200825,-0.04460175,0.09295437
 ,0.00028128,-0.00010600,-0.00002256,-0.04701429,0.00312849,0.01032036,
 -0.00049684,-0.00004135,-0.00023394,-0.00525351,0.00300459,0.02755060,
 0.00010518,-0.00018827,0.00101707,0.00167595,0.00035664,0.00202062,-0.
 00004011,-0.00003490,0.00017455,-0.00028913,0.00030169,0.00006363,0.00
 143655,-0.00444270,-0.02587365,0.05300180,0.00001146,0.00012542,0.0000
 2535,0.00290212,-0.05171897,-0.03664885,0.00098059,-0.00788090,-0.0344
 1303,-0.00227363,0.00224412,0.01634921,-0.00109045,0.00178909,-0.00115
 256,0.00099606,0.00042569,0.00023698,0.00018136,0.00012440,0.00014435,
 -0.00007317,-0.00033419,-0.00003297,-0.00114285,0.00135689,0.01282531,
 0.00133178,0.06018161,0.00008531,0.00015128,-0.00007591,0.01171484,-0.
 03703011,-0.28892958,-0.00039595,-0.00132563,-0.00624984,0.00149669,-0
 .00131478,-0.01360558,-0.00005964,0.00040204,0.00054734,-0.00157158,-0
 .00026173,0.00099874,-0.00002046,0.00010769,0.00016569,-0.00028537,-0.
 00027869,0.00009809,0.00092973,-0.00187999,-0.01214710,-0.01459943,0.0
 4146956,0.31539553,-0.00054243,-0.00054739,-0.00018863,0.00053012,0.00
 050395,-0.00022010,-0.22180474,-0.08421072,0.08442049,0.00141085,-0.00
 010886,-0.00013027,-0.02159444,-0.00913150,0.01174889,0.00014327,0.000
 15972,-0.00002516,-0.00275797,0.00334900,-0.00309819,0.00038595,0.0010
 1190,0.00031768,0.00049764,-0.00038656,-0.00014439,-0.00000566,-0.0003
 5204,-0.00030551,0.24261464,0.00012572,0.00064404,0.00028469,-0.028493
 47,-0.01460385,0.01423846,-0.08458412,-0.08541418,0.04050303,0.0023694
 3,-0.00640734,-0.00210477,0.01471448,0.00528567,-0.00768630,0.00025955
 ,0.00014602,0.00026768,0.00308985,-0.00086690,0.00156077,0.00028871,-0
 .00121844,-0.00061009,0.00038573,0.00055682,0.00071670,-0.00024244,0.0
 0101410,-0.00061170,0.08878387,0.09945828,0.00006005,-0.00005130,-0.00
 012676,-0.00666891,-0.00418932,0.00222998,0.08525105,0.04073390,-0.090
 31146,0.00033672,-0.00120649,0.00028610,-0.01185233,-0.00472520,0.0050
 4562,0.00013191,0.00018248,-0.00002201,-0.00114555,0.00111983,-0.00090
 778,-0.00000119,0.00009918,0.00018420,0.00014523,0.00071627,-0.0000664
 7,-0.00047697,0.00030759,0.00042495,-0.09185858,-0.04447970,0.09274738
 ,0.00028075,0.00010593,0.00002224,-0.00049736,0.00004091,0.00023086,-0
 .04698935,-0.00308811,-0.01006113,0.00010665,0.00018846,-0.00101775,-0
 .00522064,-0.00300112,-0.02753631,-0.00003990,0.00003499,-0.00017496,0
 .00167618,-0.00035927,-0.00201880,-0.00028917,-0.00030203,-0.00006335,
 -0.00000638,0.00024323,0.00047655,0.00080318,0.00027456,-0.00017336,0.
 00141037,0.00444431,0.02589357,0.05296665,-0.00001131,0.00012541,0.000
 02559,-0.00094428,-0.00788006,-0.03441430,-0.00286262,-0.05171820,-0.0
 3664775,0.00109198,0.00178904,-0.00115103,0.00225730,0.00224507,0.0163
 5770,-0.00018136,0.00012450,0.00014424,-0.00099681,0.00042729,0.000237
 21,0.00007314,-0.00033381,-0.00003328,0.00035193,0.00101394,0.00030787
 ,-0.00027534,-0.00653781,-0.00111068,0.00112801,0.00135578,0.01281932,
 -0.00137556,0.06018180,-0.00008584,0.00015094,-0.00007583,0.00040245,-
 0.00132540,-0.00624867,-0.01145416,-0.03703027,-0.28894951,0.00005891,
 0.00040241,0.00054639,-0.00148869,-0.00131879,-0.01363770,0.00002021,0
 .00010759,0.00016509,0.00157419,-0.00026372,0.00099894,0.00028422,-0.0
 0027925,0.00009748,0.00030477,-0.00061149,0.00042580,0.00017247,-0.001
 11022,0.00131472,-0.00091433,-0.00187479,-0.01211888,0.01431570,0.0414
 6465,0.31542383,-0.00018528,-0.00020741,0.00014817,-0.00432311,0.00599
 602,0.02673442,0.00147073,0.00135411,0.00003598,-0.05176817,0.00870710
 ,0.03444278,-0.00002140,-0.00022584,-0.00015677,0.00287504,-0.00538079
 ,-0.02742943,0.00003635,0.00022791,-0.00003027,0.00183093,-0.00064730,
 -0.00068098,0.00001050,0.00054826,-0.00032002,-0.00403577,-0.00275053,
 0.00165605,-0.00002674,0.00037610,-0.00028318,-0.00001387,-0.00061958,
 -0.00070927,0.06020317,-0.00067823,0.00001571,0.00005614,-0.00305597,0
 .00336730,0.01693135,0.00066146,0.00132985,0.00108358,0.00871826,-0.06
 191493,-0.05978068,0.00002588,-0.00002035,0.00012874,-0.00041210,0.001
 20339,0.00751953,-0.00005309,-0.00025039,-0.00017423,0.00068062,0.0005
 5253,0.00063606,0.00035018,0.00014726,-0.00050010,-0.00279198,-0.00106
 633,0.00183360,0.00012224,0.00028037,-0.00021362,-0.00012628,-0.000080
 16,-0.00055921,-0.00935807,0.06482570,-0.00068088,0.00055144,0.0001407
 3,0.00268127,-0.00253698,-0.01208012,-0.00082013,-0.00070640,0.0006474
 2,0.03383794,-0.05851651,-0.27709122,0.00021832,0.00025298,-0.00001960
 ,0.00063075,-0.00241196,-0.01475923,0.00001687,0.00006330,-0.00072958,
 0.00123288,-0.00175842,-0.00041864,0.00047936,0.00014360,0.00002688,0.
 00206818,0.00096908,0.00045494,-0.00004000,-0.00011840,0.00035202,0.00
 016723,0.00099701,0.00017704,-0.03667406,0.06291647,0.30386887,-0.0022
 1937,0.00123352,0.00157352,0.00319853,-0.02891134,-0.00205778,-0.00455
 980,-0.00146519,0.00311389,-0.05197024,0.04941587,0.00251514,-0.000420
 91,0.00018190,-0.00002667,-0.01009643,0.02883057,-0.00006089,0.0002791
 1,-0.00004648,0.00092150,-0.00177144,-0.00231417,-0.00574628,0.0006720
 1,-0.00032850,-0.00064503,0.00055351,0.00057649,0.00022144,-0.00016834
 ,-0.00169404,-0.00016116,-0.00000229,0.00027107,-0.00005864,-0.0014777
 8,0.00443811,0.00013491,0.06729243,0.00043735,-0.00030233,-0.00017544,
 0.00234506,-0.01540621,-0.00161783,-0.00354379,0.00040865,0.00216933,0
 .04963681,-0.29859465,-0.00751972,-0.00009099,0.00052534,-0.00021492,0
 .00060719,-0.00399517,-0.00061479,-0.00018582,0.00025206,0.00008563,0.
 00003435,0.00153623,0.00076720,-0.00047736,0.00065036,-0.00049474,0.00
 005991,0.00000111,0.00051701,0.00002965,-0.00117536,-0.00014586,0.0001
 0426,0.00027294,-0.00001742,0.00122476,-0.00731899,-0.00015268,-0.0505
 0293,0.32215079,-0.00125508,0.00077564,0.00084841,-0.00211583,0.013519
 35,0.00041654,0.00204884,0.00019350,-0.00072605,0.00238451,-0.00793891
 ,-0.04798246,0.00004544,-0.00014651,-0.00003988,-0.00595735,0.01860495
 ,0.00041989,0.00032097,-0.00025552,-0.00028006,-0.00146520,-0.00149405
 ,-0.00307413,-0.00052548,-0.00061755,0.00070109,-0.00055218,0.00001655
 ,-0.00011832,0.00010753,0.00055149,0.00045074,0.00014371,0.00030679,0.
 00024265,0.00585312,-0.03074497,-0.00057983,0.00006734,0.00713139,0.04
 804742,-0.00018413,0.00020648,-0.00014744,0.00147083,-0.00135337,-0.00
 003481,-0.00429388,-0.00599507,-0.02671620,-0.00002142,0.00022575,0.00
 015647,-0.05171142,-0.00866040,-0.03424656,0.00003573,-0.00022960,0.00
 003156,0.00285625,0.00539358,0.02745311,0.00183084,0.00064940,0.000676
 78,-0.00002731,-0.00037600,0.00028274,-0.00001431,0.00061852,0.0007090
 6,0.00001021,-0.00054846,0.00032006,-0.00403064,0.00275010,-0.00166022
 ,-0.00014099,-0.00002617,-0.00003299,0.00005598,0.00003346,-0.00004854
 ,0.06013339,0.00067733,0.00001634,0.00005532,-0.00066453,0.00133060,0.
 00108192,0.00304188,0.00337129,0.01694313,-0.00002549,-0.00002012,0.00
 012849,-0.00867099,-0.06192682,-0.05981918,0.00005203,-0.00025249,-0.0
 0017242,0.00040456,0.00120316,0.00750006,-0.00067796,0.00055041,0.0006
 3460,-0.00012195,0.00028061,-0.00021384,0.00012695,-0.00008049,-0.0005
 5931,-0.00034965,0.00014756,-0.00050061,0.00279182,-0.00106856,0.00183
 757,0.00002642,0.00004328,-0.00020191,-0.00003387,0.00000582,-0.000035
 84,0.00930431,0.06484744,0.00067651,0.00055174,0.00014009,0.00082160,-
 0.00070924,0.00064880,-0.00267424,-0.00254405,-0.01211235,-0.00021864,
 0.00025350,-0.00001973,-0.03363924,-0.05855469,-0.27713464,-0.00001712
 ,0.00006348,-0.00072987,-0.00061797,-0.00241378,-0.01473906,-0.0012286
 1,-0.00175833,-0.00041583,0.00003960,-0.00011892,0.00035227,-0.0001671
 5,0.00099811,0.00017768,-0.00047911,0.00014323,0.00002634,-0.00207324,
 0.00097272,0.00045004,0.00003267,-0.00020198,0.00012695,0.00004987,0.0
 0004933,0.00004240,0.03646214,0.06296453,0.30391481,-0.00222445,-0.001
 23814,-0.00157113,-0.00455181,0.00146661,-0.00311780,0.00320250,0.0288
 8994,0.00205328,-0.00042132,-0.00018150,0.00002599,-0.05201086,-0.0495
 1544,-0.00250892,0.00027947,0.00004670,-0.00091901,-0.01010904,-0.0288
 4900,0.00005327,-0.00177733,0.00232020,0.00574352,-0.00016798,0.001692
 83,0.00016048,-0.00000225,-0.00027125,0.00005842,0.00067129,0.00033037
 ,0.00064463,0.00055251,-0.00057666,-0.00022051,0.00005595,0.00003394,-
 0.00004978,0.00016695,-0.00001347,0.00000943,-0.00147453,-0.00440945,-
 0.00013436,0.06734050,-0.00043744,-0.00030229,-0.00017401,0.00354246,0
 .00040721,0.00217442,-0.00234946,-0.01541524,-0.00161708,0.00009149,0.
 00052550,-0.00021491,-0.04973872,-0.29854430,-0.00750768,0.00018566,0.
 00025181,0.00008540,-0.00060341,-0.00397945,-0.00061436,-0.00003224,0.
 00153672,0.00076272,-0.00002976,-0.00117589,-0.00014585,-0.00010416,0.
 00027304,-0.00001755,0.00047793,0.00065056,-0.00049462,-0.00006051,0.0
 0000096,0.00051678,-0.00003345,0.00000577,0.00004934,0.00001341,-0.000
 03214,0.00000007,-0.00122920,-0.00732377,-0.00015236,0.05060937,0.3221
 0078,0.00125490,0.00077731,0.00084499,-0.00205269,0.00019505,-0.000732
 19,0.00212428,0.01354957,0.00041847,-0.00004598,-0.00014638,-0.0000398
 9,-0.00237858,-0.00792614,-0.04798493,-0.00032062,-0.00025578,-0.00028
 273,0.00595384,0.01857813,0.00042164,0.00146686,-0.00149670,-0.0030636
 8,-0.00010793,0.00055329,0.00045060,-0.00014380,0.00030633,0.00024249,
 0.00052528,-0.00061720,0.00070313,0.00055280,0.00001556,-0.00011864,0.
 00004861,-0.00003587,0.00004243,-0.00000921,0.00000008,0.00000369,-0.0
 0586859,-0.03074467,-0.00057786,-0.00005688,0.00711504,0.04804460,0.00
 044776,0.00010970,0.00027307,-0.00303702,0.00194318,-0.00392452,0.0000
 1084,0.00041053,0.00007995,-0.01614348,-0.01759012,0.00426462,-0.00017
 925,-0.00007740,0.00005463,-0.15417693,-0.13302444,0.01468606,-0.00130
 928,0.00175668,0.00111670,0.00964869,0.01428017,-0.00168756,-0.0012505
 1,-0.00079836,0.00030216,0.00032777,0.00014121,-0.00014104,0.00005530,
 -0.00013487,0.00003816,0.00000556,-0.00003131,-0.00003159,-0.00015236,
 -0.00017563,-0.00051227,0.00005313,0.00013528,0.00041928,0.00001136,-0
 .00000310,-0.00002304,0.00005539,-0.00003147,-0.00000136,0.16969064,-0
 .00021117,0.00504558,-0.00002894,0.00145781,0.00027726,0.00107596,0.00
 029226,-0.00010352,0.00000039,0.00687440,0.00617014,-0.00138955,0.0006
 9725,0.00083288,-0.00017381,-0.12958783,-0.20332628,0.02119336,0.00374
 692,-0.00251304,-0.00141078,-0.02042169,-0.02721992,0.00273437,0.00044
 431,0.00014469,-0.00006438,-0.00000015,-0.00009061,-0.00001308,-0.0000
 9579,0.00011751,-0.00000824,0.00000663,0.00000980,-0.00000346,-0.00040
 844,-0.00009174,0.00002942,0.00030519,0.00121126,-0.00021110,0.0000241
 0,0.00018224,0.00004154,0.00003525,0.00001082,-0.00000556,0.13775375,0
 .22218386,-0.00196416,0.00190760,-0.00053137,-0.00112626,0.00110770,-0
 .00233160,-0.00015315,0.00000847,0.00003302,-0.01137135,-0.01355123,0.
 00233833,0.00008788,0.00059043,-0.00042446,0.01459972,0.02143991,-0.04
 758545,0.00190164,-0.00182464,0.00022367,-0.00490054,-0.01254047,-0.00
 052381,-0.00058362,-0.00024073,0.00058539,-0.00010511,0.00006804,0.000
 42238,0.00001753,-0.00010222,0.00000793,0.00003917,-0.00000883,0.00003
 478,0.00012804,-0.00029892,-0.00050468,0.00050009,-0.00012502,0.001206
 10,-0.00009261,-0.00006052,0.00036106,0.00009684,0.00006309,0.00021345
 ,-0.01538303,-0.02080309,0.04906725,-0.00168266,0.00332774,-0.00281812
 ,0.00186681,-0.00041288,-0.00216427,-0.00014366,-0.00018249,-0.0000308
 7,0.00310890,0.00074063,-0.02901167,0.00008153,0.00002158,0.00027759,-
 0.05370950,-0.00455165,0.06231531,-0.00001813,0.00061524,-0.00116188,-
 0.00548463,-0.00388286,0.01653647,0.00042043,0.00024365,0.00009858,-0.
 00100653,0.00009397,0.00082835,0.00000102,-0.00002610,0.00002924,-0.00
 003261,0.00018557,0.00017905,-0.00452272,0.00121667,-0.00276726,0.0003
 2851,0.00017866,0.00043786,0.00017464,-0.00043003,-0.00008752,0.000030
 79,0.00004381,-0.00008088,-0.00435097,-0.00033942,0.01858667,0.0651015
 5,0.00242095,-0.00248982,0.00307475,-0.00075140,0.00058216,-0.00071144
 ,-0.00000564,0.00004810,-0.00002698,-0.00189591,0.00053386,0.00545967,
 -0.00044641,-0.00102755,-0.00047314,-0.00277731,-0.04722061,0.01346639
 ,0.00044399,-0.00121065,0.00364851,0.00507565,0.00611599,-0.02929998,-
 0.00004560,-0.00020284,0.00006394,-0.00002258,0.00023636,-0.00017730,0
 .00001459,0.00008730,0.00003592,0.00005359,-0.00007269,0.00010294,0.00
 076007,-0.00004564,0.00017992,-0.00019778,-0.00032492,0.00021314,-0.00
 043755,-0.00117051,0.00020849,-0.00026360,0.00012428,0.00013640,-0.005
 35729,-0.00135791,0.02481244,0.00335463,0.04685062,-0.00039013,-0.0012
 9757,0.00078452,0.00227521,0.00017896,0.00091715,-0.00033318,-0.000032
 39,0.00012243,0.00126393,0.00030357,-0.01867307,0.00005164,0.00028190,
 -0.00069331,0.05817503,0.01981388,-0.28028375,0.00062248,-0.00069636,0
 .00021662,0.00303024,0.00109165,-0.00944189,0.00031984,0.00028117,0.00
 050584,-0.00105391,-0.00049363,0.00081172,0.00000388,-0.00010152,0.000
 00364,0.00011984,0.00014349,0.00003784,-0.00292958,0.00145393,-0.00065
 313,-0.00015054,0.00020787,-0.00014771,-0.00004174,0.00001113,0.000639
 74,0.00008410,0.00008813,0.00035712,0.00015599,-0.00014583,-0.00238267
 ,-0.06116663,-0.02120393,0.30770446,0.00044162,-0.00011282,-0.00027710
 ,0.00000968,-0.00041044,-0.00008013,-0.00304391,-0.00194267,0.00392555
 ,-0.00017932,0.00007730,-0.00005417,-0.01614994,0.01760715,-0.00430213
 ,-0.00130685,-0.00175440,-0.00111615,-0.15409556,0.13296443,-0.0149085
 1,0.00964229,-0.01426840,0.00171574,0.00005546,0.00013522,-0.00003804,
 0.00000561,0.00003141,0.00003157,-0.00125097,0.00079955,-0.00030407,0.
 00032807,-0.00014184,0.00014149,0.00001120,0.00000323,0.00002255,0.000
 05542,0.00003136,0.00000108,-0.00015019,0.00017612,0.00051265,0.000052
 96,-0.00013555,-0.00042081,0.00030778,-0.00050724,-0.00024907,-0.00001
 478,-0.00018507,-0.00006543,0.16961453,0.00021245,0.00504476,-0.000040
 54,-0.00029235,-0.00010314,0.00000003,-0.00145727,0.00028033,0.0010714
 6,-0.00069646,0.00083432,-0.00017362,-0.00685870,0.00615570,-0.0013987
 3,-0.00374787,-0.00251513,-0.00141195,0.12954390,-0.20332092,0.0214720
 4,0.02040956,-0.02722559,0.00277557,0.00009572,0.00011738,-0.00000807,
 -0.00000663,0.00000978,-0.00000349,-0.00044330,0.00014435,-0.00006429,
 0.,-0.00009062,-0.00001274,-0.00002385,0.00018210,0.00004163,-0.000035
 75,0.00001081,-0.00000569,0.00040897,-0.00009233,0.00002865,-0.0003047
 4,0.00121030,-0.00021178,0.00050788,-0.00119283,-0.00062878,0.00006634
 ,-0.00028882,-0.00018891,-0.13770283,0.22217651,0.00196923,0.00190448,
 -0.00053170,0.00015293,0.00000834,0.00003360,0.00112765,0.00110550,-0.
 00232734,-0.00008724,0.00058968,-0.00042438,0.01135462,-0.01354130,0.0
 0235809,-0.00189769,-0.00182284,0.00021665,-0.01481450,0.02171182,-0.0
 4762650,0.00487990,-0.01253863,-0.00051102,-0.00001765,-0.00010219,0.0
 0000794,-0.00003911,-0.00000869,0.00003468,0.00058231,-0.00024032,0.00
 058597,0.00010505,0.00006794,0.00042286,0.00009209,-0.00006043,0.00036
 071,-0.00009710,0.00006288,0.00021295,-0.00012939,-0.00029920,-0.00050
 350,-0.00050218,-0.00012479,0.00120437,0.00024835,-0.00062770,-0.00024
 076,0.00002914,0.00018573,0.00003145,0.01563015,-0.02109443,0.04912594
 ,-0.00167765,-0.00331679,0.00282428,-0.00014395,0.00018251,0.00003049,
 0.00186961,0.00041181,0.00216470,0.00008190,-0.00002383,-0.00027788,0.
 00308102,-0.00071375,0.02903627,-0.00001888,-0.00061598,0.00116152,-0.
 05357884,0.00445740,-0.06205779,-0.00546328,0.00386584,-0.01654153,0.0
 0000107,0.00002641,-0.00002922,-0.00003242,-0.00018562,-0.00017911,0.0
 0042061,-0.00024417,-0.00009866,-0.00100770,-0.00009243,-0.00083019,0.
 00017435,0.00042694,0.00008710,0.00003102,-0.00004375,0.00008058,-0.00
 453040,-0.00121436,0.00276520,0.00033127,-0.00017878,-0.00043925,-0.00
 001442,-0.00006614,-0.00002868,-0.00014798,0.00026268,0.00002896,-0.00
 433309,0.00032492,-0.01858657,0.06495775,-0.00240232,-0.00247528,0.003
 07933,0.00000628,0.00004712,-0.00002665,0.00074879,0.00058034,-0.00071
 313,0.00044636,-0.00102577,-0.00047305,0.00188768,0.00053771,0.0054423
 0,-0.00044717,-0.00121535,0.00364899,0.00268699,-0.04716205,0.01324853
 ,-0.00506049,0.00606525,-0.02932385,-0.00001445,0.00008711,0.00003582,
 -0.00005354,-0.00007232,0.00010287,0.00004494,-0.00020227,0.00006476,0
 .00002420,0.00023537,-0.00017611,0.00043448,-0.00116471,0.00020908,0.0
 0026391,0.00012442,0.00013726,-0.00075885,-0.00004366,0.00017802,0.000
 19803,-0.00032468,0.00021331,0.00018562,-0.00029021,0.00018675,-0.0002
 6307,0.00083328,0.00030446,0.00533550,-0.00133696,0.02482413,-0.003262
 90,0.04680267,0.00039512,-0.00129133,0.00079075,0.00033197,-0.00003222
 ,0.00012323,-0.00227353,0.00018034,0.00091709,-0.00005053,0.00028130,-
 0.00069440,-0.00124475,0.00028824,-0.01864701,-0.00062368,-0.00069594,
 0.00021591,-0.05791780,0.01960843,-0.28045231,-0.00302212,0.00106934,-
 0.00943878,-0.00000380,-0.00010145,0.00000354,-0.00011967,0.00014351,0
 .00003739,-0.00031933,0.00028097,0.00050533,0.00105219,-0.00049423,0.0
 0081177,0.00004164,0.00001059,0.00063804,-0.00008440,0.00008770,0.0003
 5654,0.00292716,0.00145074,-0.00064733,0.00015063,0.00020822,-0.000147
 05,0.00006545,-0.00018951,0.00003142,-0.00002915,0.00030452,0.00014301
 ,-0.00016518,-0.00014636,-0.00243003,0.06088979,-0.02096284,0.30788288
 \\-0.00001279,0.00000016,0.00000127,0.00000291,-0.00000523,0.00000056,
 0.00000287,0.00000509,-0.00000086,-0.00001371,0.00000350,-0.00000225,-
 0.00001477,-0.00000317,0.00000396,0.00001253,0.00000646,0.00001624,0.0
 0001575,-0.00000611,-0.00001999,0.00001716,-0.00000165,0.00000095,0.00
 000393,0.00000026,-0.00000289,0.00000289,-0.00000051,0.00000031,0.0000
 0391,-0.00000021,0.00000284,0.00000284,0.00000055,-0.00000039,0.000002
 10,0.00000130,-0.00000248,-0.00000058,-0.00000125,0.00000114,0.0000020
 0,-0.00000096,0.00000246,-0.00000052,0.00000145,-0.00000103,-0.0000028
 6,-0.00000366,0.00000082,-0.00000947,0.00000277,0.00000020,-0.00000330
 ,0.00000363,-0.00000113,-0.00001086,-0.00000244,0.00000026\\\@


 ALL PAPERS THAT YOU SAVE WILL NEVER BE NEEDED UNTIL
 SUCH TIME AS THEY ARE DISPOSED OF, WHEN THEY BECOME
 ESSENTIAL.

           -- JOHN CORCORAN IN
              PAUL DICKSON'S "THE OFFICIAL RULES"
 Job cpu time:       0 days  2 hours  4 minutes 20.3 seconds.
 Elapsed time:       0 days  0 hours  7 minutes 50.7 seconds.
 File lengths (MBytes):  RWF=    122 Int=      0 D2E=      0 Chk=      7 Scr=      1
 Normal termination of Gaussian 16 at Wed Oct  1 03:22:52 2025.
