 Entering Gaussian System, Link 0=g16
 Input=CIAC0020.gjf
 Output=CIAC0020.log
 Initial command:
 /usr/local/g16/l1.exe "/dados_01/scratch/Gau-2355007.inp" -scrdir="/dados_01/scratch/"
 Entering Link 1 = /usr/local/g16/l1.exe PID=   2355008.
  
 Copyright (c) 1988-2017, Gaussian, Inc.  All Rights Reserved.
  
 This is part of the Gaussian(R) 16 program.  It is based on
 the Gaussian(R) 09 system (copyright 2009, Gaussian, Inc.),
 the Gaussian(R) 03 system (copyright 2003, Gaussian, Inc.),
 the Gaussian(R) 98 system (copyright 1998, Gaussian, Inc.),
 the Gaussian(R) 94 system (copyright 1995, Gaussian, Inc.),
 the Gaussian 92(TM) system (copyright 1992, Gaussian, Inc.),
 the Gaussian 90(TM) system (copyright 1990, Gaussian, Inc.),
 the Gaussian 88(TM) system (copyright 1988, Gaussian, Inc.),
 the Gaussian 86(TM) system (copyright 1986, Carnegie Mellon
 University), and the Gaussian 82(TM) system (copyright 1983,
 Carnegie Mellon University). Gaussian is a federally registered
 trademark of Gaussian, Inc.
  
 This software contains proprietary and confidential information,
 including trade secrets, belonging to Gaussian, Inc.
  
 This software is provided under written license and may be
 used, copied, transmitted, or stored only in accord with that
 written license.
  
 The following legend is applicable only to US Government
 contracts under FAR:
  
                    RESTRICTED RIGHTS LEGEND
  
 Use, reproduction and disclosure by the US Government is
 subject to restrictions as set forth in subparagraphs (a)
 and (c) of the Commercial Computer Software - Restricted
 Rights clause in FAR 52.227-19.
  
 Gaussian, Inc.
 340 Quinnipiac St., Bldg. 40, Wallingford CT 06492
  
  
 ---------------------------------------------------------------
 Warning -- This program may not be used in any manner that
 competes with the business of Gaussian, Inc. or will provide
 assistance to any competitor of Gaussian, Inc.  The licensee
 of this program is prohibited from giving any competitor of
 Gaussian, Inc. access to this program.  By using this program,
 the user acknowledges that Gaussian, Inc. is engaged in the
 business of creating and licensing software in the field of
 computational chemistry and represents and warrants to the
 licensee that it is not a competitor of Gaussian, Inc. and that
 it will not use this program in any manner prohibited above.
 ---------------------------------------------------------------
  

 Cite this work as:
 Gaussian 16, Revision B.01,
 M. J. Frisch, G. W. Trucks, H. B. Schlegel, G. E. Scuseria, 
 M. A. Robb, J. R. Cheeseman, G. Scalmani, V. Barone, 
 G. A. Petersson, H. Nakatsuji, X. Li, M. Caricato, A. V. Marenich, 
 J. Bloino, B. G. Janesko, R. Gomperts, B. Mennucci, H. P. Hratchian, 
 J. V. Ortiz, A. F. Izmaylov, J. L. Sonnenberg, D. Williams-Young, 
 F. Ding, F. Lipparini, F. Egidi, J. Goings, B. Peng, A. Petrone, 
 T. Henderson, D. Ranasinghe, V. G. Zakrzewski, J. Gao, N. Rega, 
 G. Zheng, W. Liang, M. Hada, M. Ehara, K. Toyota, R. Fukuda, 
 J. Hasegawa, M. Ishida, T. Nakajima, Y. Honda, O. Kitao, H. Nakai, 
 T. Vreven, K. Throssell, J. A. Montgomery, Jr., J. E. Peralta, 
 F. Ogliaro, M. J. Bearpark, J. J. Heyd, E. N. Brothers, K. N. Kudin, 
 V. N. Staroverov, T. A. Keith, R. Kobayashi, J. Normand, 
 K. Raghavachari, A. P. Rendell, J. C. Burant, S. S. Iyengar, 
 J. Tomasi, M. Cossi, J. M. Millam, M. Klene, C. Adamo, R. Cammi, 
 J. W. Ochterski, R. L. Martin, K. Morokuma, O. Farkas, 
 J. B. Foresman, and D. J. Fox, Gaussian, Inc., Wallingford CT, 2016.
 
 ******************************************
 Gaussian 16:  ES64L-G16RevB.01 20-Dec-2017
                 1-Oct-2025 
 ******************************************
 %nprocs=16
 Will use up to   16 processors via shared memory.
 %mem=40GB
 %chk=CIAC0020.chk
 ----------------------------------------------------------------------
 # opt freq=noraman M08HX/6-311++G** scf=xqc Empiricaldispersion=pfd In
 t(Grid=ultraFine)
 ----------------------------------------------------------------------
 1/18=20,19=15,26=4,38=1/1,3;
 2/9=110,12=2,17=6,18=5,40=1/2;
 3/5=4,6=6,7=1111,11=2,25=1,30=1,71=1,74=-74,75=-5,124=11/1,2,3;
 4//1;
 5/5=2,8=3,13=1,38=5/2,8;
 6/7=2,8=2,9=2,10=2,28=1/1;
 7//1,2,3,16;
 1/18=20,19=15,26=4/3(2);
 2/9=110/2;
 99//99;
 2/9=110/2;
 3/5=4,6=6,7=1111,11=2,25=1,30=1,71=1,74=-74,75=-5,124=11/1,2,3;
 4/5=5,16=3,69=1/1;
 5/5=2,8=3,13=1,38=5/2,8;
 7//1,2,3,16;
 1/18=20,19=15,26=4/3(-5);
 2/9=110/2;
 6/7=2,8=2,9=2,10=2,19=2,28=1/1;
 99/9=1/99;
 --------
 CIAC0020
 --------
 Symbolic Z-matrix:
 Charge =  0 Multiplicity = 1
 O                    -2.5486    1.7131   -1.3931 
 O                    -4.8343   -0.1528    0.0109 
 O                    -2.5496    2.1468    0.8473 
 O                    -3.7804   -2.1587    0.196 
 C                     2.492    -0.4622    0.0539 
 C                     2.7292    0.868     0.3611 
 C                     3.5256   -1.3172   -0.2932 
 C                     1.1123   -0.977     0.0965 
 C                     4.0353    1.3562    0.3205 
 C                     4.8316   -0.8288   -0.334 
 C                     0.0057   -0.2177    0.0363 
 C                     5.0867    0.5079   -0.0268 
 C                    -1.3318   -0.781     0.0828 
 C                    -2.5015   -0.1158    0.0302 
 C                    -2.534     1.3616   -0.0863 
 C                    -3.738    -0.9425    0.0979 
 H                     1.0196   -2.0585    0.177 
 H                     1.947     1.5588    0.659 
 H                     3.343    -2.3605   -0.5365 
 H                     4.235     2.3957    0.5646 
 H                     5.6503   -1.4892   -0.6048 
 H                     0.0663    0.8598   -0.0712 
 H                     6.1038    0.8877   -0.0572 
 H                    -1.3486   -1.8671    0.1706 
 H                    -2.571     2.6866   -1.5114 
 H                    -5.6654   -0.6731    0.0439 
 

 GradGradGradGradGradGradGradGradGradGradGradGradGradGradGradGradGradGrad
 Berny optimization.
 Initialization pass.
                           ----------------------------
                           !    Initial Parameters    !
                           ! (Angstroms and Degrees)  !
 --------------------------                            --------------------------
 ! Name  Definition              Value          Derivative Info.                !
 --------------------------------------------------------------------------------
 ! R1    R(1,15)                 1.3533         estimate D2E/DX2                !
 ! R2    R(1,25)                 0.9809         estimate D2E/DX2                !
 ! R3    R(2,16)                 1.3539         estimate D2E/DX2                !
 ! R4    R(2,26)                 0.9811         estimate D2E/DX2                !
 ! R5    R(3,15)                 1.22           estimate D2E/DX2                !
 ! R6    R(4,16)                 1.2209         estimate D2E/DX2                !
 ! R7    R(5,6)                  1.3857         estimate D2E/DX2                !
 ! R8    R(5,7)                  1.3856         estimate D2E/DX2                !
 ! R9    R(5,8)                  1.4732         estimate D2E/DX2                !
 ! R10   R(6,9)                  1.3949         estimate D2E/DX2                !
 ! R11   R(6,18)                 1.0853         estimate D2E/DX2                !
 ! R12   R(7,10)                 1.3949         estimate D2E/DX2                !
 ! R13   R(7,19)                 1.0867         estimate D2E/DX2                !
 ! R14   R(8,11)                 1.3434         estimate D2E/DX2                !
 ! R15   R(8,17)                 1.0884         estimate D2E/DX2                !
 ! R16   R(9,12)                 1.3949         estimate D2E/DX2                !
 ! R17   R(9,20)                 1.0863         estimate D2E/DX2                !
 ! R18   R(10,12)                1.3951         estimate D2E/DX2                !
 ! R19   R(10,21)                1.0862         estimate D2E/DX2                !
 ! R20   R(11,13)                1.452          estimate D2E/DX2                !
 ! R21   R(11,22)                1.0845         estimate D2E/DX2                !
 ! R22   R(12,23)                1.0861         estimate D2E/DX2                !
 ! R23   R(13,14)                1.3466         estimate D2E/DX2                !
 ! R24   R(13,24)                1.0898         estimate D2E/DX2                !
 ! R25   R(14,15)                1.4823         estimate D2E/DX2                !
 ! R26   R(14,16)                1.4889         estimate D2E/DX2                !
 ! A1    A(15,1,25)            111.9914         estimate D2E/DX2                !
 ! A2    A(16,2,26)            111.9904         estimate D2E/DX2                !
 ! A3    A(6,5,7)              121.3464         estimate D2E/DX2                !
 ! A4    A(6,5,8)              119.298          estimate D2E/DX2                !
 ! A5    A(7,5,8)              119.3555         estimate D2E/DX2                !
 ! A6    A(5,6,9)              119.327          estimate D2E/DX2                !
 ! A7    A(5,6,18)             123.2661         estimate D2E/DX2                !
 ! A8    A(9,6,18)             117.391          estimate D2E/DX2                !
 ! A9    A(5,7,10)             119.32           estimate D2E/DX2                !
 ! A10   A(5,7,19)             121.5434         estimate D2E/DX2                !
 ! A11   A(10,7,19)            119.1365         estimate D2E/DX2                !
 ! A12   A(5,8,11)             124.9342         estimate D2E/DX2                !
 ! A13   A(5,8,17)             115.4108         estimate D2E/DX2                !
 ! A14   A(11,8,17)            119.6539         estimate D2E/DX2                !
 ! A15   A(6,9,12)             120.0104         estimate D2E/DX2                !
 ! A16   A(6,9,20)             120.0324         estimate D2E/DX2                !
 ! A17   A(12,9,20)            119.9564         estimate D2E/DX2                !
 ! A18   A(7,10,12)            120.0156         estimate D2E/DX2                !
 ! A19   A(7,10,21)            120.0077         estimate D2E/DX2                !
 ! A20   A(12,10,21)           119.9767         estimate D2E/DX2                !
 ! A21   A(8,11,13)            122.5516         estimate D2E/DX2                !
 ! A22   A(8,11,22)            121.329          estimate D2E/DX2                !
 ! A23   A(13,11,22)           116.108          estimate D2E/DX2                !
 ! A24   A(9,12,10)            119.9806         estimate D2E/DX2                !
 ! A25   A(9,12,23)            120.0109         estimate D2E/DX2                !
 ! A26   A(10,12,23)           120.0085         estimate D2E/DX2                !
 ! A27   A(11,13,14)           127.3882         estimate D2E/DX2                !
 ! A28   A(11,13,24)           113.7918         estimate D2E/DX2                !
 ! A29   A(14,13,24)           118.82           estimate D2E/DX2                !
 ! A30   A(13,14,15)           120.9597         estimate D2E/DX2                !
 ! A31   A(13,14,16)           116.4422         estimate D2E/DX2                !
 ! A32   A(15,14,16)           122.598          estimate D2E/DX2                !
 ! A33   A(1,15,3)             124.8645         estimate D2E/DX2                !
 ! A34   A(1,15,14)            109.572          estimate D2E/DX2                !
 ! A35   A(3,15,14)            125.5632         estimate D2E/DX2                !
 ! A36   A(2,16,4)             123.9229         estimate D2E/DX2                !
 ! A37   A(2,16,14)            110.2229         estimate D2E/DX2                !
 ! A38   A(4,16,14)            125.8446         estimate D2E/DX2                !
 ! D1    D(25,1,15,3)            0.1622         estimate D2E/DX2                !
 ! D2    D(25,1,15,14)         179.952          estimate D2E/DX2                !
 ! D3    D(26,2,16,4)            0.4951         estimate D2E/DX2                !
 ! D4    D(26,2,16,14)         179.4302         estimate D2E/DX2                !
 ! D5    D(7,5,6,9)             -0.0208         estimate D2E/DX2                !
 ! D6    D(7,5,6,18)          -178.5336         estimate D2E/DX2                !
 ! D7    D(8,5,6,9)           -179.9777         estimate D2E/DX2                !
 ! D8    D(8,5,6,18)             1.5094         estimate D2E/DX2                !
 ! D9    D(6,5,7,10)             0.0089         estimate D2E/DX2                !
 ! D10   D(6,5,7,19)          -179.8855         estimate D2E/DX2                !
 ! D11   D(8,5,7,10)           179.9658         estimate D2E/DX2                !
 ! D12   D(8,5,7,19)             0.0714         estimate D2E/DX2                !
 ! D13   D(6,5,8,11)            19.9922         estimate D2E/DX2                !
 ! D14   D(6,5,8,17)          -160.3937         estimate D2E/DX2                !
 ! D15   D(7,5,8,11)          -159.9656         estimate D2E/DX2                !
 ! D16   D(7,5,8,17)            19.6485         estimate D2E/DX2                !
 ! D17   D(5,6,9,12)             0.0048         estimate D2E/DX2                !
 ! D18   D(5,6,9,20)          -179.6577         estimate D2E/DX2                !
 ! D19   D(18,6,9,12)          178.6043         estimate D2E/DX2                !
 ! D20   D(18,6,9,20)           -1.0582         estimate D2E/DX2                !
 ! D21   D(5,7,10,12)            0.0191         estimate D2E/DX2                !
 ! D22   D(5,7,10,21)         -179.9921         estimate D2E/DX2                !
 ! D23   D(19,7,10,12)         179.916          estimate D2E/DX2                !
 ! D24   D(19,7,10,21)          -0.0951         estimate D2E/DX2                !
 ! D25   D(5,8,11,13)         -179.9986         estimate D2E/DX2                !
 ! D26   D(5,8,11,22)            1.2765         estimate D2E/DX2                !
 ! D27   D(17,8,11,13)           0.4026         estimate D2E/DX2                !
 ! D28   D(17,8,11,22)        -178.3223         estimate D2E/DX2                !
 ! D29   D(6,9,12,10)            0.0228         estimate D2E/DX2                !
 ! D30   D(6,9,12,23)         -179.9231         estimate D2E/DX2                !
 ! D31   D(20,9,12,10)         179.6856         estimate D2E/DX2                !
 ! D32   D(20,9,12,23)          -0.2603         estimate D2E/DX2                !
 ! D33   D(7,10,12,9)           -0.0348         estimate D2E/DX2                !
 ! D34   D(7,10,12,23)         179.9111         estimate D2E/DX2                !
 ! D35   D(21,10,12,9)         179.9763         estimate D2E/DX2                !
 ! D36   D(21,10,12,23)         -0.0778         estimate D2E/DX2                !
 ! D37   D(8,11,13,14)        -179.9983         estimate D2E/DX2                !
 ! D38   D(8,11,13,24)           0.0187         estimate D2E/DX2                !
 ! D39   D(22,11,13,14)         -1.2113         estimate D2E/DX2                !
 ! D40   D(22,11,13,24)        178.8058         estimate D2E/DX2                !
 ! D41   D(11,13,14,15)         -0.1115         estimate D2E/DX2                !
 ! D42   D(11,13,14,16)       -179.9971         estimate D2E/DX2                !
 ! D43   D(24,13,14,15)        179.8707         estimate D2E/DX2                !
 ! D44   D(24,13,14,16)         -0.0149         estimate D2E/DX2                !
 ! D45   D(13,14,15,1)          90.2167         estimate D2E/DX2                !
 ! D46   D(13,14,15,3)         -89.9953         estimate D2E/DX2                !
 ! D47   D(16,14,15,1)         -89.9049         estimate D2E/DX2                !
 ! D48   D(16,14,15,3)          89.8832         estimate D2E/DX2                !
 ! D49   D(13,14,16,2)        -178.9075         estimate D2E/DX2                !
 ! D50   D(13,14,16,4)           0.0024         estimate D2E/DX2                !
 ! D51   D(15,14,16,2)           1.2089         estimate D2E/DX2                !
 ! D52   D(15,14,16,4)        -179.8812         estimate D2E/DX2                !
 --------------------------------------------------------------------------------
 Trust Radius=3.00D-01 FncErr=1.00D-07 GrdErr=1.00D-06 EigMax=2.50D+02 EigMin=1.00D-04
 Number of steps in this run=    126 maximum allowed number of steps=    156.
 GradGradGradGradGradGradGradGradGradGradGradGradGradGradGradGradGradGrad

                          Input orientation:                          
 ---------------------------------------------------------------------
 Center     Atomic      Atomic             Coordinates (Angstroms)
 Number     Number       Type             X           Y           Z
 ---------------------------------------------------------------------
      1          8           0       -2.548600    1.713100   -1.393100
      2          8           0       -4.834300   -0.152800    0.010900
      3          8           0       -2.549600    2.146800    0.847300
      4          8           0       -3.780400   -2.158700    0.196000
      5          6           0        2.492000   -0.462200    0.053900
      6          6           0        2.729200    0.868000    0.361100
      7          6           0        3.525600   -1.317200   -0.293200
      8          6           0        1.112300   -0.977000    0.096500
      9          6           0        4.035300    1.356200    0.320500
     10          6           0        4.831600   -0.828800   -0.334000
     11          6           0        0.005700   -0.217700    0.036300
     12          6           0        5.086700    0.507900   -0.026800
     13          6           0       -1.331800   -0.781000    0.082800
     14          6           0       -2.501500   -0.115800    0.030200
     15          6           0       -2.534000    1.361600   -0.086300
     16          6           0       -3.738000   -0.942500    0.097900
     17          1           0        1.019600   -2.058500    0.177000
     18          1           0        1.947000    1.558800    0.659000
     19          1           0        3.343000   -2.360500   -0.536500
     20          1           0        4.235000    2.395700    0.564600
     21          1           0        5.650300   -1.489200   -0.604800
     22          1           0        0.066300    0.859800   -0.071200
     23          1           0        6.103800    0.887700   -0.057200
     24          1           0       -1.348600   -1.867100    0.170600
     25          1           0       -2.571000    2.686600   -1.511400
     26          1           0       -5.665400   -0.673100    0.043900
 ---------------------------------------------------------------------
                    Distance matrix (angstroms):
                    1          2          3          4          5
     1  O    0.000000
     2  O    3.267602   0.000000
     3  O    2.281992   3.347772   0.000000
     4  O    4.362729   2.273456   4.525085   0.000000
     5  C    5.677446   7.332956   5.731849   6.499331   0.000000
     6  C    5.625530   7.640105   5.453205   7.180743   1.385665
     7  C    6.876656   8.446078   7.085767   7.370555   1.385580
     8  C    4.780976   6.004056   4.871482   5.034365   1.473230
     9  C    6.812602   9.002374   6.653080   8.570600   2.399881
    10  C    7.877201   9.695646   8.045606   8.730182   2.399706
    11  C    3.506511   4.840502   3.574652   4.257645   2.498355
    12  C    7.849655   9.943047   7.858952   9.262066   2.771295
    13  C    3.143154   3.559117   3.261826   2.811852   3.837175
    14  C    2.317947   2.333173   2.406102   2.415888   5.005557
    15  C    1.353326   2.755764   1.219996   3.745093   5.348512
    16  C    3.269551   1.353909   3.393769   1.220886   6.248642
    17  H    5.424226   6.158525   5.556351   4.801083   2.175153
    18  H    4.944223   7.023933   4.538790   6.843777   2.178902
    19  H    7.213801   8.487745   7.546747   7.163805   2.162479
    20  H    7.093360   9.436824   6.795047   9.226324   3.386216
    21  H    8.837313  10.587346   9.086663   9.488288   3.385775
    22  H    3.051761   5.004796   3.056623   4.896921   2.765385
    23  H    8.793744  10.987689   8.791177  10.346114   3.857418
    24  H    4.086929   3.887729   4.244021   2.449352   4.091158
    25  H    0.980917   3.937273   2.419774   5.277764   6.164339
    26  H    4.180115   0.981085   4.278492   2.404863   8.160132
                    6          7          8          9         10
     6  C    0.000000
     7  C    2.416084   0.000000
     8  C    2.467469   2.468121   0.000000
     9  C    1.394950   2.789891   3.746722   0.000000
    10  C    2.789692   1.394932   3.747064   2.415924   0.000000
    11  C    2.949863   3.702319   1.343400   4.335390   4.878512
    12  C    2.416184   2.416401   4.244524   1.394874   1.395068
    13  C    4.391853   4.901349   2.451985   5.781858   6.177662
    14  C    5.332690   6.154176   3.715590   6.706774   7.376677
    15  C    5.305194   6.628539   4.335663   6.581886   7.688385
    16  C    6.721001   7.283766   4.850423   8.109116   8.581230
    17  H    3.394264   2.655306   1.088447   4.557984   4.037899
    18  H    1.085258   3.416144   2.728262   2.125235   3.873964
    19  H    3.406706   1.086744   2.700145   3.876543   2.145470
    20  H    2.154696   3.876170   4.620117   1.086290   3.400120
    21  H    3.875846   2.154305   4.620348   3.400104   1.086154
    22  H    2.697774   4.093332   2.120395   4.019055   5.062462
    23  H    3.400484   3.400646   5.330647   2.154261   2.154410
    24  H    4.913809   4.927000   2.617976   6.276823   6.287095
    25  H    5.908103   7.394793   5.438199   6.983482   8.279058
    26  H    8.540779   9.219706   6.784714   9.914542  10.504954
                   11         12         13         14         15
    11  C    0.000000
    12  C    5.132937   0.000000
    13  C    1.452025   6.547551   0.000000
    14  C    2.509277   7.614002   1.346646   0.000000
    15  C    2.993208   7.668599   2.462644   1.482342   0.000000
    16  C    3.813715   8.943967   2.411661   1.488942   2.606228
    17  H    2.106261   4.813444   2.677678   4.024149   4.939077
    18  H    2.704136   3.381187   4.069054   4.794667   4.546836
    19  H    4.007151   3.395291   4.973139   6.286335   6.971071
    20  H    4.999594   2.153819   6.427505   7.209275   6.878401
    21  H    5.821446   2.154098   7.051529   8.291037   8.682089
    22  H    1.084544   5.032914   2.161163   2.748759   2.648319
    23  H    6.198183   1.086124   7.621831   8.664054   8.650839
    24  H    2.138384   6.862410   1.089773   2.101414   3.449011
    25  H    4.179679   8.098836   4.012648   3.199188   1.946254
    26  H    5.689360  10.816997   4.335118   3.212637   3.736659
                   16         17         18         19         20
    16  C    0.000000
    17  H    4.887379   0.000000
    18  H    6.236230   3.765269   0.000000
    19  H    7.249396   2.449178   4.328851   0.000000
    20  H    8.656218   5.507171   2.438085   4.962814   0.000000
    21  H    9.430421   4.730613   4.960033   2.467278   4.296861
    22  H    4.213025   3.080075   2.135141   4.617748   4.487905
    23  H   10.011729   5.880819   4.271101   4.289819   2.480547
    24  H    2.563085   2.375931   4.778735   4.770172   7.035857
    25  H    4.137886   6.185392   5.137596   7.835754   7.121519
    26  H    1.946885   6.828343   7.956655   9.183434  10.378178
                   21         22         23         24         25
    21  H    0.000000
    22  H    6.081413   0.000000
    23  H    2.480964   6.037581   0.000000
    24  H    7.051855   3.081622   7.948527   0.000000
    25  H    9.265474   3.516636   8.977911   5.005953   0.000000
    26  H   11.363622   5.934258  11.872674   4.480675   4.825127
                   26
    26  H    0.000000
 Stoichiometry    C12H10O4
 Framework group  C1[X(C12H10O4)]
 Deg. of freedom    72
 Full point group                 C1      NOp   1
 Largest Abelian subgroup         C1      NOp   1
 Largest concise Abelian subgroup C1      NOp   1
                         Standard orientation:                         
 ---------------------------------------------------------------------
 Center     Atomic      Atomic             Coordinates (Angstroms)
 Number     Number       Type             X           Y           Z
 ---------------------------------------------------------------------
      1          8           0        2.425899    1.701479    1.348015
      2          8           0        4.705462   -0.187839   -0.034480
      3          8           0        2.422848    2.103701   -0.898248
      4          8           0        3.647803   -2.194335   -0.189188
      5          6           0       -2.621422   -0.485291   -0.057679
      6          6           0       -2.857043    0.840872   -0.383015
      7          6           0       -3.655714   -1.333569    0.303566
      8          6           0       -1.242683   -1.002995   -0.095960
      9          6           0       -4.162232    1.331825   -0.346515
     10          6           0       -4.960802   -0.842414    0.340263
     11          6           0       -0.134683   -0.244818   -0.048756
     12          6           0       -5.214311    0.490279    0.014873
     13          6           0        1.201767   -0.811000   -0.090168
     14          6           0        2.372692   -0.147127   -0.049376
     15          6           0        2.407921    1.331704    0.046310
     16          6           0        3.607655   -0.976808   -0.108076
     17          1           0       -1.151971   -2.085675   -0.161471
     18          1           0       -2.074321    1.526086   -0.692229
     19          1           0       -3.474347   -2.373664    0.561097
     20          1           0       -4.360706    2.368137   -0.604756
     21          1           0       -5.780030   -1.497549    0.622030
     22          1           0       -0.193244    0.834187    0.043739
     23          1           0       -6.230705    0.872206    0.042086
     24          1           0        1.216556   -1.898252   -0.162753
     25          1           0        2.450186    2.676503    1.452594
     26          1           0        5.535615   -0.709971   -0.061928
 ---------------------------------------------------------------------
 Rotational constants (GHZ):           1.2656396           0.2058978           0.1838494
 Standard basis: 6-311++G(d,p) (5D, 7F)
 There are   438 symmetry adapted cartesian basis functions of A   symmetry.
 There are   422 symmetry adapted basis functions of A   symmetry.
   422 basis functions,   666 primitive gaussians,   438 cartesian basis functions
    57 alpha electrons       57 beta electrons
       nuclear repulsion energy       968.4871413525 Hartrees.
 NAtoms=   26 NActive=   26 NUniq=   26 SFac= 1.00D+00 NAtFMM=   60 NAOKFM=F Big=F
 Integral buffers will be    131072 words long.
 Raffenetti 2 integral format.
 Two-electron integral symmetry is turned on.
 R6APFD:  NTU= -4 IXU= 1 FactS= 1.050
 Nuclear repulsion after empirical dispersion term =      968.4683419629 Hartrees.
 One-electron integrals computed using PRISM.
 NBasis=   422 RedAO= T EigKep=  2.54D-06  NBF=   422
 NBsUse=   419 1.00D-06 EigRej=  9.90D-07 NBFU=   419
 ExpMin= 3.60D-02 ExpMax= 8.59D+03 ExpMxC= 1.30D+03 IAcc=3 IRadAn=         5 AccDes= 0.00D+00
 Harris functional with IExCor= 1009 and IRadAn=       5 diagonalized for initial guess.
 HarFok:  IExCor= 1009 AccDes= 0.00D+00 IRadAn=         5 IDoV= 1 UseB2=F ITyADJ=14
 ICtDFT=  3500011 ScaDFX=  1.000000  1.000000  1.000000  1.000000
 FoFCou: FMM=F IPFlag=           0 FMFlag=      100000 FMFlg1=           0
         NFxFlg=           0 DoJE=T BraDBF=F KetDBF=T FulRan=T
         wScrn=  0.000000 ICntrl=       500 IOpCl=  0 I1Cent=   200000004 NGrid=           0
         NMat0=    1 NMatS0=      1 NMatT0=    0 NMatD0=    1 NMtDS0=    0 NMtDT0=    0
 Petite list used in FoFCou.
 Requested convergence on RMS density matrix=1.00D-08 within  32 cycles.
 Requested convergence on MAX density matrix=1.00D-06.
 Requested convergence on             energy=1.00D-06.
 No special actions if energy rises.
 SCF Done:  E(RM08HX) =  -764.168600084     A.U. after   16 cycles
            NFock= 16  Conv=0.57D-08     -V/T= 2.0044
 QCSCF skips out because SCF is already converged.

 **********************************************************************

            Population analysis using the SCF Density.

 **********************************************************************

 Orbital symmetries:
       Occupied  (A) (A) (A) (A) (A) (A) (A) (A) (A) (A) (A) (A)
                 (A) (A) (A) (A) (A) (A) (A) (A) (A) (A) (A) (A)
                 (A) (A) (A) (A) (A) (A) (A) (A) (A) (A) (A) (A)
                 (A) (A) (A) (A) (A) (A) (A) (A) (A) (A) (A) (A)
                 (A) (A) (A) (A) (A) (A) (A) (A) (A)
       Virtual   (A) (A) (A) (A) (A) (A) (A) (A) (A) (A) (A) (A)
                 (A) (A) (A) (A) (A) (A) (A) (A) (A) (A) (A) (A)
                 (A) (A) (A) (A) (A) (A) (A) (A) (A) (A) (A) (A)
                 (A) (A) (A) (A) (A) (A) (A) (A) (A) (A) (A) (A)
                 (A) (A) (A) (A) (A) (A) (A) (A) (A) (A) (A) (A)
                 (A) (A) (A) (A) (A) (A) (A) (A) (A) (A) (A) (A)
                 (A) (A) (A) (A) (A) (A) (A) (A) (A) (A) (A) (A)
                 (A) (A) (A) (A) (A) (A) (A) (A) (A) (A) (A) (A)
                 (A) (A) (A) (A) (A) (A) (A) (A) (A) (A) (A) (A)
                 (A) (A) (A) (A) (A) (A) (A) (A) (A) (A) (A) (A)
                 (A) (A) (A) (A) (A) (A) (A) (A) (A) (A) (A) (A)
                 (A) (A) (A) (A) (A) (A) (A) (A) (A) (A) (A) (A)
                 (A) (A) (A) (A) (A) (A) (A) (A) (A) (A) (A) (A)
                 (A) (A) (A) (A) (A) (A) (A) (A) (A) (A) (A) (A)
                 (A) (A) (A) (A) (A) (A) (A) (A) (A) (A) (A) (A)
                 (A) (A) (A) (A) (A) (A) (A) (A) (A) (A) (A) (A)
                 (A) (A) (A) (A) (A) (A) (A) (A) (A) (A) (A) (A)
                 (A) (A) (A) (A) (A) (A) (A) (A) (A) (A) (A) (A)
                 (A) (A) (A) (A) (A) (A) (A) (A) (A) (A) (A) (A)
                 (A) (A) (A) (A) (A) (A) (A) (A) (A) (A) (A) (A)
                 (A) (A) (A) (A) (A) (A) (A) (A) (A) (A) (A) (A)
                 (A) (A) (A) (A) (A) (A) (A) (A) (A) (A) (A) (A)
                 (A) (A) (A) (A) (A) (A) (A) (A) (A) (A) (A) (A)
                 (A) (A) (A) (A) (A) (A) (A) (A) (A) (A) (A) (A)
                 (A) (A) (A) (A) (A) (A) (A) (A) (A) (A) (A) (A)
                 (A) (A) (A) (A) (A) (A) (A) (A) (A) (A) (A) (A)
                 (A) (A) (A) (A) (A) (A) (A) (A) (A) (A) (A) (A)
                 (A) (A) (A) (A) (A) (A) (A) (A) (A) (A) (A) (A)
                 (A) (A) (A) (A) (A) (A) (A) (A) (A) (A) (A) (A)
                 (A) (A) (A) (A) (A) (A) (A) (A) (A) (A) (A) (A)
                 (A) (A)
 The electronic state is 1-A.
 Alpha  occ. eigenvalues --  -19.67492 -19.66997 -19.62137 -19.61150 -10.69436
 Alpha  occ. eigenvalues --  -10.68970 -10.57632 -10.57383 -10.56859 -10.56211
 Alpha  occ. eigenvalues --  -10.55881 -10.55315 -10.55176 -10.55152 -10.55097
 Alpha  occ. eigenvalues --  -10.55040  -1.24717  -1.23843  -1.15057  -1.14403
 Alpha  occ. eigenvalues --   -0.99667  -0.96033  -0.91565  -0.86911  -0.85940
 Alpha  occ. eigenvalues --   -0.78787  -0.76692  -0.72792  -0.71215  -0.67393
 Alpha  occ. eigenvalues --   -0.65742  -0.62047  -0.61801  -0.59120  -0.58940
 Alpha  occ. eigenvalues --   -0.56828  -0.55428  -0.54320  -0.54298  -0.52640
 Alpha  occ. eigenvalues --   -0.51585  -0.51066  -0.50477  -0.48746  -0.48277
 Alpha  occ. eigenvalues --   -0.46761  -0.44874  -0.42718  -0.42420  -0.41945
 Alpha  occ. eigenvalues --   -0.40996  -0.40520  -0.38667  -0.36939  -0.35170
 Alpha  occ. eigenvalues --   -0.32811  -0.29070
 Alpha virt. eigenvalues --   -0.07006  -0.03372  -0.02714  -0.02364  -0.01545
 Alpha virt. eigenvalues --   -0.01071  -0.00815  -0.00004   0.00181   0.01074
 Alpha virt. eigenvalues --    0.01217   0.01667   0.02391   0.02773   0.03250
 Alpha virt. eigenvalues --    0.03609   0.04224   0.04661   0.05109   0.05335
 Alpha virt. eigenvalues --    0.06359   0.06823   0.07307   0.07921   0.08195
 Alpha virt. eigenvalues --    0.08862   0.09441   0.09914   0.10138   0.10604
 Alpha virt. eigenvalues --    0.10848   0.11096   0.11349   0.11462   0.11648
 Alpha virt. eigenvalues --    0.11959   0.12348   0.12888   0.13094   0.13275
 Alpha virt. eigenvalues --    0.13625   0.14213   0.15246   0.15649   0.15956
 Alpha virt. eigenvalues --    0.16196   0.16506   0.16765   0.17600   0.17895
 Alpha virt. eigenvalues --    0.18483   0.18691   0.19131   0.19352   0.20171
 Alpha virt. eigenvalues --    0.20788   0.21364   0.21623   0.21927   0.22433
 Alpha virt. eigenvalues --    0.22706   0.23377   0.24082   0.24610   0.25375
 Alpha virt. eigenvalues --    0.25628   0.26403   0.27408   0.27922   0.28177
 Alpha virt. eigenvalues --    0.28594   0.28798   0.29272   0.29472   0.30168
 Alpha virt. eigenvalues --    0.30397   0.30721   0.30885   0.31324   0.31517
 Alpha virt. eigenvalues --    0.32482   0.33430   0.34064   0.35383   0.36147
 Alpha virt. eigenvalues --    0.36337   0.36889   0.36927   0.37412   0.37957
 Alpha virt. eigenvalues --    0.37993   0.38812   0.39864   0.40529   0.41173
 Alpha virt. eigenvalues --    0.43555   0.45286   0.46127   0.47989   0.48422
 Alpha virt. eigenvalues --    0.49630   0.51065   0.53083   0.54303   0.55356
 Alpha virt. eigenvalues --    0.55626   0.56442   0.56673   0.57561   0.57613
 Alpha virt. eigenvalues --    0.57804   0.58293   0.58963   0.60789   0.61065
 Alpha virt. eigenvalues --    0.62355   0.63431   0.63998   0.64845   0.66272
 Alpha virt. eigenvalues --    0.66944   0.67221   0.68320   0.68985   0.69246
 Alpha virt. eigenvalues --    0.69514   0.71206   0.72194   0.72645   0.72919
 Alpha virt. eigenvalues --    0.73135   0.74203   0.74801   0.76436   0.77099
 Alpha virt. eigenvalues --    0.77490   0.78183   0.78584   0.82767   0.83955
 Alpha virt. eigenvalues --    0.84577   0.85587   0.86044   0.86465   0.86860
 Alpha virt. eigenvalues --    0.87539   0.89789   0.90885   0.91079   0.92635
 Alpha virt. eigenvalues --    0.93186   0.93760   0.94935   0.95122   0.95770
 Alpha virt. eigenvalues --    0.97952   1.00992   1.03234   1.04182   1.05090
 Alpha virt. eigenvalues --    1.06354   1.07930   1.08941   1.09176   1.10523
 Alpha virt. eigenvalues --    1.11122   1.12329   1.14127   1.14371   1.15767
 Alpha virt. eigenvalues --    1.16798   1.17852   1.19003   1.19554   1.20323
 Alpha virt. eigenvalues --    1.21758   1.23558   1.24913   1.25667   1.27713
 Alpha virt. eigenvalues --    1.29278   1.29632   1.30869   1.30972   1.37512
 Alpha virt. eigenvalues --    1.41014   1.41500   1.46064   1.48998   1.49734
 Alpha virt. eigenvalues --    1.51115   1.51130   1.52428   1.53312   1.53778
 Alpha virt. eigenvalues --    1.55645   1.55797   1.57295   1.58207   1.58735
 Alpha virt. eigenvalues --    1.59256   1.59775   1.60342   1.61134   1.63648
 Alpha virt. eigenvalues --    1.66121   1.66656   1.67085   1.69322   1.70251
 Alpha virt. eigenvalues --    1.73231   1.74232   1.75596   1.75865   1.77500
 Alpha virt. eigenvalues --    1.78941   1.80338   1.81981   1.82956   1.85021
 Alpha virt. eigenvalues --    1.85992   1.87235   1.89815   1.91142   1.94582
 Alpha virt. eigenvalues --    1.95794   1.95967   1.96681   1.96736   1.97883
 Alpha virt. eigenvalues --    1.99213   1.99572   2.00369   2.02541   2.04625
 Alpha virt. eigenvalues --    2.05609   2.06652   2.08164   2.08978   2.11362
 Alpha virt. eigenvalues --    2.11759   2.17691   2.18815   2.20846   2.23538
 Alpha virt. eigenvalues --    2.24971   2.30040   2.31173   2.32469   2.38338
 Alpha virt. eigenvalues --    2.38891   2.41203   2.42149   2.43837   2.46121
 Alpha virt. eigenvalues --    2.46541   2.48471   2.52415   2.58126   2.59638
 Alpha virt. eigenvalues --    2.60632   2.63495   2.66616   2.68344   2.69037
 Alpha virt. eigenvalues --    2.69378   2.70924   2.71202   2.72089   2.72224
 Alpha virt. eigenvalues --    2.73842   2.74349   2.74794   2.78431   2.80152
 Alpha virt. eigenvalues --    2.82406   2.84523   2.87686   2.88217   2.90156
 Alpha virt. eigenvalues --    2.91157   2.94207   2.94753   2.95051   2.96529
 Alpha virt. eigenvalues --    2.98604   2.99760   3.00111   3.02377   3.05188
 Alpha virt. eigenvalues --    3.06806   3.09494   3.10835   3.12252   3.15848
 Alpha virt. eigenvalues --    3.16334   3.18581   3.21892   3.24530   3.26630
 Alpha virt. eigenvalues --    3.28190   3.30193   3.32842   3.34316   3.36498
 Alpha virt. eigenvalues --    3.41212   3.42928   3.43566   3.44111   3.44488
 Alpha virt. eigenvalues --    3.54072   3.57854   3.59998   3.62952   3.65492
 Alpha virt. eigenvalues --    3.66635   3.68502   3.73163   3.74242   3.86276
 Alpha virt. eigenvalues --    3.88037   3.90801   3.96286   4.02989   4.07119
 Alpha virt. eigenvalues --    4.11255   4.13492   4.17163   4.20088   4.22249
 Alpha virt. eigenvalues --    4.31357   4.43402   4.64375   4.91496   5.07678
 Alpha virt. eigenvalues --    5.09337   5.14137   5.20390   5.29134   5.30849
 Alpha virt. eigenvalues --    5.48273   5.49927   5.69374   5.72706   5.92645
 Alpha virt. eigenvalues --    5.94915  23.64605  23.73957  23.84400  23.87105
 Alpha virt. eigenvalues --   23.88709  24.00802  24.02758  24.13902  24.14319
 Alpha virt. eigenvalues --   24.23256  24.24195  24.27137  49.87960  49.89652
 Alpha virt. eigenvalues --   49.98795  50.03224
          Condensed to atoms (all electrons):
               1          2          3          4          5          6
     1  O    7.975539  -0.005463  -0.156227   0.001911   0.027827  -0.019478
     2  O   -0.005463   8.047672  -0.005022  -0.119624  -0.007086   0.001067
     3  O   -0.156227  -0.005022   7.781939   0.000934   0.006712   0.002024
     4  O    0.001911  -0.119624   0.000934   8.016518   0.006244  -0.001463
     5  C    0.027827  -0.007086   0.006712   0.006244  16.820022  -3.895921
     6  C   -0.019478   0.001067   0.002024  -0.001463  -3.895921  21.601255
     7  C    0.006825  -0.000136  -0.000091   0.000914  -0.585961 -10.391352
     8  C    0.000781   0.007203  -0.003898   0.004422  -3.164708   2.744743
     9  C   -0.002008   0.000022   0.001907  -0.000006  -1.459483  -3.444929
    10  C    0.000280  -0.000001  -0.000270   0.000030  -0.633056   2.155967
    11  C    0.085637   0.038450   0.001452   0.151253  -4.997205  -1.012960
    12  C   -0.000088  -0.000000   0.000144   0.000001   0.397094   0.509968
    13  C    0.015711   0.065522  -0.008683   0.278315   2.260856  -1.644825
    14  C   -0.195960  -0.284965   0.099760  -0.012966   0.406077   0.044461
    15  C    0.073964  -0.136901   0.367802  -0.080909   0.006517  -0.013772
    16  C   -0.026263   0.332300   0.046710   0.051962  -0.554949   0.046586
    17  H   -0.001464   0.000679  -0.000328   0.003235  -0.093197   0.205988
    18  H   -0.006602   0.000037   0.000522  -0.000084  -0.403209   1.067935
    19  H    0.000005  -0.000004   0.000046   0.000008  -0.065261  -0.111375
    20  H    0.000117  -0.000001  -0.000028   0.000002   0.082247  -0.184194
    21  H    0.000001  -0.000001  -0.000002   0.000001  -0.013802   0.024104
    22  H    0.026310  -0.000561   0.001388   0.004227   0.289414  -0.492554
    23  H    0.000000  -0.000000   0.000006   0.000000   0.049715   0.012631
    24  H   -0.004071  -0.007079  -0.006146  -0.035835   0.091991  -0.045552
    25  H    0.231005   0.000572  -0.031003   0.000148  -0.001398   0.000630
    26  H   -0.000760   0.229027   0.000948  -0.029978  -0.001171  -0.000008
               7          8          9         10         11         12
     1  O    0.006825   0.000781  -0.002008   0.000280   0.085637  -0.000088
     2  O   -0.000136   0.007203   0.000022  -0.000001   0.038450  -0.000000
     3  O   -0.000091  -0.003898   0.001907  -0.000270   0.001452   0.000144
     4  O    0.000914   0.004422  -0.000006   0.000030   0.151253   0.000001
     5  C   -0.585961  -3.164708  -1.459483  -0.633056  -4.997205   0.397094
     6  C  -10.391352   2.744743  -3.444929   2.155967  -1.012960   0.509968
     7  C   17.337639  -1.865875   3.395326  -0.978173   0.007417  -2.144187
     8  C   -1.865875  15.454819  -0.462214  -0.605972   3.786917   0.319586
     9  C    3.395326  -0.462214   9.073098  -0.946772   0.353487  -0.183736
    10  C   -0.978173  -0.605972  -0.946772   7.098403  -0.376521   0.298460
    11  C    0.007417   3.786917   0.353487  -0.376521  15.855046  -0.128344
    12  C   -2.144187   0.319586  -0.183736   0.298460  -0.128344   7.148139
    13  C    0.740628  -6.762996  -0.031875   0.093542  -1.653739  -0.113479
    14  C   -0.062069  -1.713165  -0.050329   0.015047  -3.163299  -0.006473
    15  C   -0.057419  -1.552217   0.019059   0.008442  -3.183624  -0.003988
    16  C   -0.018812  -0.096045   0.006111  -0.000629   0.402461  -0.002501
    17  H   -0.188158   0.304549  -0.054533   0.043735  -0.008693   0.000861
    18  H   -0.312552   0.156951  -0.103810   0.078059  -0.114638   0.034376
    19  H    0.540837   0.004670   0.062696  -0.097471  -0.017807  -0.016164
    20  H    0.140764  -0.035402   0.395283  -0.006738  -0.000886  -0.112039
    21  H   -0.024441  -0.013416   0.001158   0.404898  -0.005157  -0.077058
    22  H    0.230735  -0.243842  -0.008154  -0.039613   0.615912  -0.001340
    23  H   -0.045748  -0.001047  -0.075364  -0.065308  -0.008089   0.457284
    24  H    0.037988  -0.146185   0.003728   0.000306  -0.359122   0.000604
    25  H   -0.000438  -0.010625  -0.000767   0.000092  -0.073518  -0.000054
    26  H    0.000014  -0.000447   0.000003   0.000008   0.000729  -0.000009
              13         14         15         16         17         18
     1  O    0.015711  -0.195960   0.073964  -0.026263  -0.001464  -0.006602
     2  O    0.065522  -0.284965  -0.136901   0.332300   0.000679   0.000037
     3  O   -0.008683   0.099760   0.367802   0.046710  -0.000328   0.000522
     4  O    0.278315  -0.012966  -0.080909   0.051962   0.003235  -0.000084
     5  C    2.260856   0.406077   0.006517  -0.554949  -0.093197  -0.403209
     6  C   -1.644825   0.044461  -0.013772   0.046586   0.205988   1.067935
     7  C    0.740628  -0.062069  -0.057419  -0.018812  -0.188158  -0.312552
     8  C   -6.762996  -1.713165  -1.552217  -0.096045   0.304549   0.156951
     9  C   -0.031875  -0.050329   0.019059   0.006111  -0.054533  -0.103810
    10  C    0.093542   0.015047   0.008442  -0.000629   0.043735   0.078059
    11  C   -1.653739  -3.163299  -3.183624   0.402461  -0.008693  -0.114638
    12  C   -0.113479  -0.006473  -0.003988  -0.002501   0.000861   0.034376
    13  C   13.728084  -0.290894   0.296449  -1.293630   0.077424  -0.106565
    14  C   -0.290894  19.280063  -1.556681  -6.999965   0.002727   0.022270
    15  C    0.296449  -1.556681  13.750132  -1.077527  -0.022439   0.024178
    16  C   -1.293630  -6.999965  -1.077527  15.226300   0.053680   0.005790
    17  H    0.077424   0.002727  -0.022439   0.053680   0.486392   0.015954
    18  H   -0.106565   0.022270   0.024178   0.005790   0.015954   0.533949
    19  H    0.013656   0.005423   0.000092  -0.002027  -0.009405  -0.003179
    20  H    0.013357  -0.000219   0.000264  -0.000054  -0.000994  -0.022087
    21  H    0.008417   0.000259   0.000370  -0.000032   0.002419   0.000998
    22  H    0.214169   0.057091  -0.327121  -0.018894  -0.018138  -0.085515
    23  H    0.001097   0.000310  -0.000173  -0.000064   0.000028   0.001994
    24  H    0.482556   0.240689   0.225803  -0.233396  -0.019439  -0.002412
    25  H   -0.009433  -0.199760   0.323022   0.007030   0.000139  -0.000324
    26  H    0.028076  -0.355802  -0.034237   0.377122   0.000182  -0.000012
              19         20         21         22         23         24
     1  O    0.000005   0.000117   0.000001   0.026310   0.000000  -0.004071
     2  O   -0.000004  -0.000001  -0.000001  -0.000561  -0.000000  -0.007079
     3  O    0.000046  -0.000028  -0.000002   0.001388   0.000006  -0.006146
     4  O    0.000008   0.000002   0.000001   0.004227   0.000000  -0.035835
     5  C   -0.065261   0.082247  -0.013802   0.289414   0.049715   0.091991
     6  C   -0.111375  -0.184194   0.024104  -0.492554   0.012631  -0.045552
     7  C    0.540837   0.140764  -0.024441   0.230735  -0.045748   0.037988
     8  C    0.004670  -0.035402  -0.013416  -0.243842  -0.001047  -0.146185
     9  C    0.062696   0.395283   0.001158  -0.008154  -0.075364   0.003728
    10  C   -0.097471  -0.006738   0.404898  -0.039613  -0.065308   0.000306
    11  C   -0.017807  -0.000886  -0.005157   0.615912  -0.008089  -0.359122
    12  C   -0.016164  -0.112039  -0.077058  -0.001340   0.457284   0.000604
    13  C    0.013656   0.013357   0.008417   0.214169   0.001097   0.482556
    14  C    0.005423  -0.000219   0.000259   0.057091   0.000310   0.240689
    15  C    0.000092   0.000264   0.000370  -0.327121  -0.000173   0.225803
    16  C   -0.002027  -0.000054  -0.000032  -0.018894  -0.000064  -0.233396
    17  H   -0.009405  -0.000994   0.002419  -0.018138   0.000028  -0.019439
    18  H   -0.003179  -0.022087   0.000998  -0.085515   0.001994  -0.002412
    19  H    0.429924   0.001600  -0.007660   0.003021   0.000437   0.003090
    20  H    0.001600   0.419229   0.001491   0.006865  -0.009524   0.000076
    21  H   -0.007660   0.001491   0.414076  -0.000414  -0.009856  -0.000100
    22  H    0.003021   0.006865  -0.000414   0.754252  -0.000229  -0.000663
    23  H    0.000437  -0.009524  -0.009856  -0.000229   0.425202   0.000024
    24  H    0.003090   0.000076  -0.000100  -0.000663   0.000024   0.450100
    25  H   -0.000013   0.000023   0.000003  -0.007848   0.000002   0.000446
    26  H   -0.000005   0.000001   0.000000   0.000275  -0.000000  -0.002380
              25         26
     1  O    0.231005  -0.000760
     2  O    0.000572   0.229027
     3  O   -0.031003   0.000948
     4  O    0.000148  -0.029978
     5  C   -0.001398  -0.001171
     6  C    0.000630  -0.000008
     7  C   -0.000438   0.000014
     8  C   -0.010625  -0.000447
     9  C   -0.000767   0.000003
    10  C    0.000092   0.000008
    11  C   -0.073518   0.000729
    12  C   -0.000054  -0.000009
    13  C   -0.009433   0.028076
    14  C   -0.199760  -0.355802
    15  C    0.323022  -0.034237
    16  C    0.007030   0.377122
    17  H    0.000139   0.000182
    18  H   -0.000324  -0.000012
    19  H   -0.000013  -0.000005
    20  H    0.000023   0.000001
    21  H    0.000003   0.000000
    22  H   -0.007848   0.000275
    23  H    0.000002  -0.000000
    24  H    0.000446  -0.002380
    25  H    0.455967  -0.000274
    26  H   -0.000274   0.452985
 Mulliken charges:
               1
     1  O   -0.027527
     2  O   -0.155708
     3  O   -0.100596
     4  O   -0.239260
     5  C    1.431691
     6  C   -1.158974
     7  C    0.236324
     8  C   -0.106582
     9  C   -0.487899
    10  C   -0.446742
    11  C   -0.195160
    12  C   -0.377056
    13  C   -0.401739
    14  C    0.718371
    15  C   -1.049086
    16  C   -0.231261
    17  H    0.218795
    18  H    0.217978
    19  H    0.264868
    20  H    0.310848
    21  H    0.293745
    22  H    0.041227
    23  H    0.266674
    24  H    0.324979
    25  H    0.316376
    26  H    0.335714
 Sum of Mulliken charges =  -0.00000
 Mulliken charges with hydrogens summed into heavy atoms:
               1
     1  O    0.288849
     2  O    0.180007
     3  O   -0.100596
     4  O   -0.239260
     5  C    1.431691
     6  C   -0.940997
     7  C    0.501192
     8  C    0.112213
     9  C   -0.177051
    10  C   -0.152998
    11  C   -0.153933
    12  C   -0.110383
    13  C   -0.076760
    14  C    0.718371
    15  C   -1.049086
    16  C   -0.231261
 Electronic spatial extent (au):  <R**2>=           5526.8947
 Charge=             -0.0000 electrons
 Dipole moment (field-independent basis, Debye):
    X=             -2.3779    Y=              0.7985    Z=              1.7023  Tot=              3.0315
 Quadrupole moment (field-independent basis, Debye-Ang):
   XX=            -75.3053   YY=            -90.5682   ZZ=            -99.6042
   XY=              3.4139   XZ=              3.5740   YZ=              4.0615
 Traceless Quadrupole moment (field-independent basis, Debye-Ang):
   XX=             13.1872   YY=             -2.0756   ZZ=            -11.1116
   XY=              3.4139   XZ=              3.5740   YZ=              4.0615
 Octapole moment (field-independent basis, Debye-Ang**2):
  XXX=             69.9076  YYY=             34.7566  ZZZ=              3.9670  XYY=            -22.1791
  XXY=              4.6355  XXZ=             18.6949  XZZ=             25.9652  YZZ=              3.1328
  YYZ=             23.0876  XYZ=             23.2748
 Hexadecapole moment (field-independent basis, Debye-Ang**3):
 XXXX=          -4957.1074 YYYY=           -916.5740 ZZZZ=           -232.1009 XXXY=            -72.9434
 XXXZ=            -31.2668 YYYX=            116.6215 YYYZ=             53.5874 ZZZX=              7.6525
 ZZZY=             18.3134 XXYY=          -1195.8678 XXZZ=          -1146.5865 YYZZ=           -187.8008
 XXYZ=             -5.7206 YYXZ=             60.0955 ZZXY=              2.0851
 N-N= 9.684683419629D+02 E-N=-3.721318062338D+03  KE= 7.608351353974D+02
 R6APFD:  NTU= -4 IXU= 1 FactS= 1.050
 Calling FoFJK, ICntrl=      2127 FMM=F ISym2X=0 I1Cent= 0 IOpClX= 0 NMat=1 NMatS=1 NMatT=0.
 ***** Axes restored to original set *****
 -------------------------------------------------------------------
 Center     Atomic                   Forces (Hartrees/Bohr)
 Number     Number              X              Y              Z
 -------------------------------------------------------------------
      1        8           0.001880413    0.012622953    0.005534528
      2        8          -0.007003699   -0.008769940    0.001032994
      3        8           0.003135533   -0.022144593   -0.031707245
      4        8           0.000632711    0.033722660   -0.001804736
      5        6          -0.028369539   -0.005663056    0.001091650
      6        6           0.021220209    0.015588218    0.001567324
      7        6           0.017523866    0.000975004   -0.000361496
      8        6           0.002715039    0.002733588   -0.000762327
      9        6          -0.002456959   -0.003475568   -0.001046265
     10        6          -0.002030942    0.001468764    0.000134625
     11        6          -0.010202264    0.001160067   -0.001221815
     12        6          -0.001235830   -0.001763059   -0.000754685
     13        6           0.009079954   -0.002988267    0.001114184
     14        6           0.011667035   -0.023367320    0.004799381
     15        6          -0.010672277    0.032914564    0.015304358
     16        6          -0.012035703   -0.018609277   -0.001397114
     17        1          -0.002955729   -0.003380097   -0.000741300
     18        1          -0.004887440   -0.003252810    0.000387179
     19        1          -0.003551658   -0.001124859    0.000392134
     20        1           0.000227609    0.001508475    0.000552276
     21        1           0.001235595   -0.001013525   -0.000452143
     22        1           0.003606812    0.005261723   -0.000424126
     23        1           0.001674854    0.000430337    0.000123457
     24        1          -0.007061981   -0.002248220    0.000582611
     25        1          -0.000390316   -0.014906840    0.007998592
     26        1           0.018254708    0.004321077    0.000057961
 -------------------------------------------------------------------
 Cartesian Forces:  Max     0.033722660 RMS     0.010436994

 GradGradGradGradGradGradGradGradGradGradGradGradGradGradGradGradGradGrad
 Berny optimization.
 FormGI is forming the generalized inverse of G from B-inverse, IUseBI=4.
 Internal  Forces:  Max     0.038556638 RMS     0.006848828
 Search for a local minimum.
 Step number   1 out of a maximum of  126
 All quantities printed in internal units (Hartrees-Bohrs-Radians)
 Mixed Optimization -- RFO/linear search
 Second derivative matrix not updated -- first step.
 ITU=  0
     Eigenvalues ---    0.00912   0.01000   0.01120   0.01363   0.01401
     Eigenvalues ---    0.01431   0.01538   0.01923   0.02012   0.02128
     Eigenvalues ---    0.02155   0.02155   0.02155   0.02156   0.02156
     Eigenvalues ---    0.02181   0.02216   0.02227   0.02265   0.02301
     Eigenvalues ---    0.02309   0.02795   0.02837   0.15995   0.15998
     Eigenvalues ---    0.16000   0.16000   0.16000   0.16000   0.16000
     Eigenvalues ---    0.16000   0.16000   0.16000   0.22000   0.22000
     Eigenvalues ---    0.22000   0.22000   0.22001   0.23500   0.24997
     Eigenvalues ---    0.25000   0.25000   0.25000   0.25000   0.25000
     Eigenvalues ---    0.25000   0.33566   0.34303   0.34839   0.34993
     Eigenvalues ---    0.35192   0.35245   0.35261   0.35264   0.35356
     Eigenvalues ---    0.35366   0.35451   0.37981   0.42310   0.42806
     Eigenvalues ---    0.46465   0.46469   0.47392   0.47881   0.51175
     Eigenvalues ---    0.51207   0.54198   0.54320   0.55741   0.56450
     Eigenvalues ---    0.94992   0.95385
 RFO step:  Lambda=-1.24584449D-02 EMin= 9.12222997D-03
 Linear search not attempted -- first point.
 Iteration  1 RMS(Cart)=  0.04598044 RMS(Int)=  0.00106612
 Iteration  2 RMS(Cart)=  0.00172555 RMS(Int)=  0.00022682
 Iteration  3 RMS(Cart)=  0.00000296 RMS(Int)=  0.00022681
 Iteration  4 RMS(Cart)=  0.00000000 RMS(Int)=  0.00022681
 Variable       Old X    -DE/DX   Delta X   Delta X   Delta X     New X
                                 (Linear)    (Quad)   (Total)
    R1        2.55742  -0.01368   0.00000  -0.02461  -0.02461   2.53280
    R2        1.85367  -0.01575   0.00000  -0.03003  -0.03003   1.82364
    R3        2.55852  -0.01177   0.00000  -0.02124  -0.02124   2.53728
    R4        1.85398  -0.01775   0.00000  -0.03387  -0.03387   1.82011
    R5        2.30546  -0.03856   0.00000  -0.03990  -0.03990   2.26556
    R6        2.30714  -0.03376   0.00000  -0.03508  -0.03508   2.27206
    R7        2.61853   0.01298   0.00000   0.02735   0.02741   2.64593
    R8        2.61837   0.01062   0.00000   0.02246   0.02252   2.64089
    R9        2.78400   0.00063   0.00000   0.00172   0.00172   2.78572
   R10        2.63607  -0.00206   0.00000  -0.00420  -0.00421   2.63186
   R11        2.05084   0.00156   0.00000   0.00426   0.00426   2.05510
   R12        2.63604  -0.00132   0.00000  -0.00287  -0.00286   2.63317
   R13        2.05365   0.00159   0.00000   0.00436   0.00436   2.05801
   R14        2.53866  -0.00244   0.00000  -0.00423  -0.00423   2.53443
   R15        2.05687   0.00356   0.00000   0.00981   0.00981   2.06668
   R16        2.63593   0.00041   0.00000  -0.00010  -0.00016   2.63576
   R17        2.05279   0.00161   0.00000   0.00441   0.00441   2.05720
   R18        2.63630  -0.00163   0.00000  -0.00449  -0.00455   2.63175
   R19        2.05253   0.00166   0.00000   0.00455   0.00455   2.05708
   R20        2.74393  -0.00318   0.00000  -0.00811  -0.00811   2.73582
   R21        2.04949   0.00547   0.00000   0.01491   0.01491   2.06440
   R22        2.05248   0.00172   0.00000   0.00470   0.00470   2.05717
   R23        2.54479  -0.00682   0.00000  -0.01198  -0.01198   2.53282
   R24        2.05937   0.00240   0.00000   0.00664   0.00664   2.06601
   R25        2.80122   0.00882   0.00000   0.02480   0.02480   2.82602
   R26        2.81369  -0.00589   0.00000  -0.01692  -0.01692   2.79677
    A1        1.95462  -0.01138   0.00000  -0.06599  -0.06599   1.88863
    A2        1.95460  -0.01123   0.00000  -0.06512  -0.06512   1.88948
    A3        2.11789  -0.01064   0.00000  -0.03758  -0.03748   2.08041
    A4        2.08214   0.01216   0.00000   0.04483   0.04477   2.12691
    A5        2.08315  -0.00151   0.00000  -0.00725  -0.00730   2.07584
    A6        2.08265   0.00325   0.00000   0.01561   0.01564   2.09829
    A7        2.15140  -0.00742   0.00000  -0.04142  -0.04144   2.10996
    A8        2.04886   0.00417   0.00000   0.02581   0.02579   2.07465
    A9        2.08253   0.00462   0.00000   0.02086   0.02090   2.10343
   A10        2.12133  -0.00579   0.00000  -0.03059  -0.03063   2.09071
   A11        2.07932   0.00116   0.00000   0.00972   0.00968   2.08901
   A12        2.18051   0.00364   0.00000   0.01563   0.01560   2.19612
   A13        2.01430   0.00092   0.00000   0.00804   0.00801   2.02231
   A14        2.08835  -0.00456   0.00000  -0.02374  -0.02376   2.06460
   A15        2.09458   0.00150   0.00000   0.00388   0.00380   2.09838
   A16        2.09496  -0.00085   0.00000  -0.00250  -0.00246   2.09250
   A17        2.09363  -0.00066   0.00000  -0.00140  -0.00137   2.09227
   A18        2.09467   0.00076   0.00000   0.00005  -0.00002   2.09465
   A19        2.09453  -0.00040   0.00000  -0.00013  -0.00010   2.09443
   A20        2.09399  -0.00036   0.00000   0.00008   0.00011   2.09410
   A21        2.13893  -0.00438   0.00000  -0.01880  -0.01881   2.12012
   A22        2.11759  -0.00120   0.00000  -0.01020  -0.01021   2.10738
   A23        2.02647   0.00558   0.00000   0.02915   0.02914   2.05561
   A24        2.09406   0.00051   0.00000  -0.00282  -0.00296   2.09109
   A25        2.09459  -0.00012   0.00000   0.00218   0.00223   2.09682
   A26        2.09454  -0.00039   0.00000   0.00063   0.00069   2.09523
   A27        2.22334  -0.00995   0.00000  -0.04280  -0.04280   2.18055
   A28        1.98604   0.01221   0.00000   0.06335   0.06335   2.04939
   A29        2.07380  -0.00226   0.00000  -0.02055  -0.02055   2.05325
   A30        2.11114   0.00097   0.00000   0.00371   0.00371   2.11485
   A31        2.03230   0.01102   0.00000   0.04199   0.04199   2.07429
   A32        2.13974  -0.01199   0.00000  -0.04570  -0.04570   2.09404
   A33        2.17930  -0.00750   0.00000  -0.02849  -0.02965   2.14964
   A34        1.91239   0.00715   0.00000   0.02734   0.02615   1.93854
   A35        2.19149   0.00036   0.00000   0.00146   0.00023   2.19172
   A36        2.16286  -0.00165   0.00000  -0.00604  -0.00631   2.15655
   A37        1.92375   0.00207   0.00000   0.00811   0.00784   1.93160
   A38        2.19640  -0.00041   0.00000  -0.00134  -0.00161   2.19479
    D1        0.00283  -0.00184   0.00000  -0.06226  -0.06164  -0.05881
    D2        3.14076   0.00052   0.00000   0.02529   0.02466  -3.11777
    D3        0.00864  -0.00041   0.00000  -0.01685  -0.01680  -0.00816
    D4        3.13165   0.00067   0.00000   0.02430   0.02425  -3.12728
    D5       -0.00036   0.00051   0.00000   0.01453   0.01440   0.01404
    D6       -3.11600   0.00044   0.00000   0.01456   0.01442  -3.10158
    D7       -3.14120   0.00027   0.00000   0.00675   0.00665  -3.13456
    D8        0.02634   0.00020   0.00000   0.00678   0.00667   0.03302
    D9        0.00015  -0.00063   0.00000  -0.01786  -0.01775  -0.01759
   D10       -3.13959  -0.00034   0.00000  -0.00974  -0.00963   3.13396
   D11        3.14100  -0.00038   0.00000  -0.01005  -0.01020   3.13079
   D12        0.00125  -0.00009   0.00000  -0.00192  -0.00209  -0.00084
   D13        0.34893   0.00022   0.00000   0.00573   0.00584   0.35477
   D14       -2.79940  -0.00021   0.00000  -0.00724  -0.00724  -2.80664
   D15       -2.79193  -0.00001   0.00000  -0.00188  -0.00188  -2.79381
   D16        0.34293  -0.00044   0.00000  -0.01485  -0.01496   0.32797
   D17        0.00008  -0.00008   0.00000  -0.00263  -0.00280  -0.00272
   D18       -3.13562   0.00004   0.00000   0.00059   0.00050  -3.13511
   D19        3.11723  -0.00019   0.00000  -0.00365  -0.00382   3.11342
   D20       -0.01847  -0.00007   0.00000  -0.00043  -0.00051  -0.01898
   D21        0.00033   0.00033   0.00000   0.00930   0.00946   0.00979
   D22       -3.14145   0.00022   0.00000   0.00617   0.00632  -3.13513
   D23        3.14013   0.00004   0.00000   0.00133   0.00130   3.14143
   D24       -0.00166  -0.00007   0.00000  -0.00180  -0.00183  -0.00349
   D25       -3.14157   0.00030   0.00000   0.00623   0.00625  -3.13532
   D26        0.02228  -0.00001   0.00000  -0.00211  -0.00202   0.02026
   D27        0.00703   0.00072   0.00000   0.01959   0.01949   0.02652
   D28       -3.11231   0.00041   0.00000   0.01124   0.01123  -3.10109
   D29        0.00040  -0.00020   0.00000  -0.00560  -0.00564  -0.00524
   D30       -3.14025   0.00009   0.00000   0.00272   0.00277  -3.13748
   D31        3.13610  -0.00032   0.00000  -0.00882  -0.00895   3.12715
   D32       -0.00454  -0.00003   0.00000  -0.00051  -0.00054  -0.00508
   D33       -0.00061   0.00008   0.00000   0.00225   0.00234   0.00173
   D34        3.14004  -0.00021   0.00000  -0.00607  -0.00606   3.13398
   D35        3.14118   0.00019   0.00000   0.00537   0.00548  -3.13653
   D36       -0.00136  -0.00011   0.00000  -0.00294  -0.00293  -0.00429
   D37       -3.14156   0.00007   0.00000   0.00307   0.00303  -3.13854
   D38        0.00033   0.00008   0.00000   0.00323   0.00319   0.00352
   D39       -0.02114   0.00029   0.00000   0.01057   0.01061  -0.01053
   D40        3.12075   0.00030   0.00000   0.01074   0.01078   3.13153
   D41       -0.00195  -0.00017   0.00000  -0.00406  -0.00406  -0.00600
   D42       -3.14154  -0.00017   0.00000  -0.00448  -0.00449   3.13716
   D43        3.13934  -0.00018   0.00000  -0.00422  -0.00421   3.13512
   D44       -0.00026  -0.00018   0.00000  -0.00463  -0.00464  -0.00490
   D45        1.57458  -0.00073   0.00000  -0.02386  -0.02411   1.55046
   D46       -1.57071   0.00163   0.00000   0.06437   0.06463  -1.50608
   D47       -1.56914  -0.00070   0.00000  -0.02332  -0.02358  -1.59272
   D48        1.56876   0.00165   0.00000   0.06491   0.06516   1.63392
   D49       -3.12252  -0.00042   0.00000  -0.01517  -0.01519  -3.13771
   D50        0.00004   0.00068   0.00000   0.02690   0.02691   0.02696
   D51        0.02110  -0.00043   0.00000  -0.01565  -0.01567   0.00543
   D52       -3.13952   0.00066   0.00000   0.02641   0.02643  -3.11309
         Item               Value     Threshold  Converged?
 Maximum Force            0.038557     0.000450     NO 
 RMS     Force            0.006849     0.000300     NO 
 Maximum Displacement     0.162369     0.001800     NO 
 RMS     Displacement     0.045773     0.001200     NO 
 Predicted change in Energy=-6.592041D-03
 GradGradGradGradGradGradGradGradGradGradGradGradGradGradGradGradGradGrad

                          Input orientation:                          
 ---------------------------------------------------------------------
 Center     Atomic      Atomic             Coordinates (Angstroms)
 Number     Number       Type             X           Y           Z
 ---------------------------------------------------------------------
      1          8           0       -2.517954    1.691396   -1.393172
      2          8           0       -4.824341   -0.122398   -0.004226
      3          8           0       -2.500108    2.093109    0.804584
      4          8           0       -3.856511   -2.135619    0.204311
      5          6           0        2.468961   -0.424305    0.061745
      6          6           0        2.757764    0.910731    0.369548
      7          6           0        3.514149   -1.286483   -0.280640
      8          6           0        1.092469   -0.950738    0.096682
      9          6           0        4.070116    1.374091    0.317513
     10          6           0        4.826216   -0.820674   -0.336407
     11          6           0       -0.029711   -0.219221    0.031027
     12          6           0        5.106068    0.510638   -0.038410
     13          6           0       -1.338340   -0.836373    0.081477
     14          6           0       -2.502077   -0.174436    0.018371
     15          6           0       -2.539428    1.315307   -0.106896
     16          6           0       -3.765157   -0.943576    0.076762
     17          1           0        0.999076   -2.038250    0.164797
     18          1           0        1.970709    1.596067    0.675388
     19          1           0        3.301257   -2.328525   -0.514859
     20          1           0        4.289317    2.411592    0.563770
     21          1           0        5.633171   -1.498153   -0.609921
     22          1           0        0.017163    0.866957   -0.075886
     23          1           0        6.131808    0.873400   -0.074898
     24          1           0       -1.378401   -1.924580    0.178831
     25          1           0       -2.521488    2.655877   -1.425478
     26          1           0       -5.624527   -0.655733    0.049989
 ---------------------------------------------------------------------
                    Distance matrix (angstroms):
                    1          2          3          4          5
     1  O    0.000000
     2  O    3.246297   0.000000
     3  O    2.234238   3.311299   0.000000
     4  O    4.357721   2.243489   4.481327   0.000000
     5  C    5.609126   7.299847   5.619682   6.554428   0.000000
     6  C    5.616922   7.661291   5.406708   7.283968   1.400168
     7  C    6.818486   8.423890   6.983597   7.435243   1.397497
     8  C    4.715473   5.975364   4.761589   5.089984   1.474138
     9  C    6.813940   9.025207   6.627372   8.669619   2.421433
    10  C    7.833523   9.681487   7.966618   8.798364   2.423280
    11  C    3.445309   4.795737   3.471040   4.283341   2.507263
    12  C    7.832961   9.950625   7.814650   9.348231   2.799729
    13  C    3.155265   3.559397   3.233334   2.836250   3.829587
    14  C    2.339665   2.322957   2.399978   2.390671   4.977503
    15  C    1.340302   2.701549   1.198882   3.706811   5.304588
    16  C    3.264859   1.342670   3.369203   1.202323   6.255726
    17  H    5.357894   6.132801   5.451764   4.856724   2.185407
    18  H    4.943290   7.041854   4.500216   6.935697   2.169497
    19  H    7.127020   8.435229   7.412665   7.196392   2.156674
    20  H    7.119497   9.476418   6.801155   9.335998   3.407057
    21  H    8.787921  10.564996   9.002678   9.545858   3.408300
    22  H    2.973510   4.942077   2.935188   4.909106   2.774457
    23  H    8.787795  11.001537   8.761915  10.435453   3.888336
    24  H    4.104273   3.893055   4.218011   2.487211   4.131190
    25  H    0.965028   3.878389   2.300074   5.234208   6.050118
    26  H    4.152412   0.963163   4.229367   2.310791   8.096805
                    6          7          8          9         10
     6  C    0.000000
     7  C    2.413009   0.000000
     8  C    2.512515   2.473789   0.000000
     9  C    1.392723   2.783081   3.784174   0.000000
    10  C    2.788302   1.393416   3.761030   2.411699   0.000000
    11  C    3.026782   3.714180   1.341162   4.407868   4.906810
    12  C    2.416823   2.412991   4.273505   1.394787   1.392663
    13  C    4.462446   4.886755   2.433546   5.847500   6.178724
    14  C    5.382085   6.125441   3.678252   6.758782   7.365281
    15  C    5.333941   6.591304   4.285683   6.623416   7.672535
    16  C    6.787686   7.296137   4.857673   8.174414   8.602181
    17  H    3.439680   2.662548   1.093638   4.593330   4.047308
    18  H    1.087511   3.406654   2.755435   2.141228   3.875343
    19  H    3.401520   1.089052   2.674140   3.872125   2.151967
    20  H    2.153128   3.871650   4.662968   1.088623   3.397959
    21  H    3.876861   2.154875   4.627843   3.398980   1.088561
    22  H    2.776909   4.111951   2.118980   4.103458   5.103230
    23  H    3.403395   3.399936   5.362076   2.157604   2.154726
    24  H    5.018289   4.955333   2.657125   6.370777   6.323081
    25  H    5.842786   7.299436   5.327788   6.937595   8.201294
    26  H    8.533389   9.166382   6.723633   9.908474  10.459184
                   11         12         13         14         15
    11  C    0.000000
    12  C    5.187846   0.000000
    13  C    1.447733   6.584771   0.000000
    14  C    2.472804   7.639137   1.340309   0.000000
    15  C    2.944907   7.688029   2.471401   1.495467   0.000000
    16  C    3.805304   8.990364   2.429188   1.479986   2.576567
    17  H    2.094078   4.837924   2.629632   3.969044   4.882742
    18  H    2.777076   3.393839   4.149615   4.855117   4.586080
    19  H    3.980264   3.397822   4.909989   6.213141   6.896198
    20  H    5.085174   2.154839   6.515551   7.287526   6.948625
    21  H    5.840781   2.153997   7.036899   8.266150   8.657943
    22  H    1.092433   5.101502   2.182541   2.727628   2.595792
    23  H    6.258543   1.088610   7.664913   8.697737   8.682548
    24  H    2.179233   6.930066   1.093287   2.086001   3.453475
    25  H    4.073886   8.043980   3.983286   3.177380   1.880454
    26  H    5.611850  10.794160   4.290107   3.159484   3.664348
                   16         17         18         19         20
    16  C    0.000000
    17  H    4.889169   0.000000
    18  H    6.301453   3.796451   0.000000
    19  H    7.225116   2.417898   4.311551   0.000000
    20  H    8.738929   5.548510   2.460383   4.960687   0.000000
    21  H    9.439686   4.729348   4.963854   2.477172   4.297628
    22  H    4.196103   3.076086   2.216383   4.603159   4.587631
    23  H   10.063515   5.905938   4.289513   4.296268   2.483688
    24  H    2.582516   2.380234   4.884471   4.748007   7.146579
    25  H    4.093837   6.079323   5.071160   7.718668   7.099566
    26  H    1.881708   6.767322   7.946656   9.098731  10.390224
                   21         22         23         24         25
    21  H    0.000000
    22  H    6.117065   0.000000
    23  H    2.481764   6.114649   0.000000
    24  H    7.068671   3.131319   8.018498   0.000000
    25  H    9.188012   3.386205   8.937607   4.986084   0.000000
    26  H   11.308445   5.844921  11.856022   4.433526   4.772066
                   26
    26  H    0.000000
 Stoichiometry    C12H10O4
 Framework group  C1[X(C12H10O4)]
 Deg. of freedom    72
 Full point group                 C1      NOp   1
 Largest Abelian subgroup         C1      NOp   1
 Largest concise Abelian subgroup C1      NOp   1
                         Standard orientation:                         
 ---------------------------------------------------------------------
 Center     Atomic      Atomic             Coordinates (Angstroms)
 Number     Number       Type             X           Y           Z
 ---------------------------------------------------------------------
      1          8           0        2.382335    1.706658    1.331173
      2          8           0        4.695205   -0.118821   -0.031438
      3          8           0        2.354188    2.066325   -0.873746
      4          8           0        3.739373   -2.141652   -0.198106
      5          6           0       -2.596234   -0.467466   -0.065012
      6          6           0       -2.894545    0.859636   -0.397096
      7          6           0       -3.634742   -1.329478    0.297527
      8          6           0       -1.216578   -0.985864   -0.094957
      9          6           0       -4.209603    1.315699   -0.349091
     10          6           0       -4.949518   -0.870894    0.349216
     11          6           0       -0.098813   -0.246236   -0.047328
     12          6           0       -5.238820    0.452728    0.026973
     13          6           0        1.213499   -0.856053   -0.090810
     14          6           0        2.373250   -0.185780   -0.044557
     15          6           0        2.401638    1.306282    0.052214
     16          6           0        3.640947   -0.947991   -0.092921
     17          1           0       -1.116562   -2.073871   -0.142715
     18          1           0       -2.112917    1.543925   -0.718789
     19          1           0       -3.414449   -2.365521    0.550745
     20          1           0       -4.436219    2.346933   -0.614235
     21          1           0       -5.751209   -1.548067    0.638512
     22          1           0       -0.152165    0.841467    0.039076
     23          1           0       -6.266695    0.809707    0.060302
     24          1           0        1.260085   -1.945645   -0.167593
     25          1           0        2.379894    2.671582    1.345114
     26          1           0        5.498545   -0.648085   -0.078421
 ---------------------------------------------------------------------
 Rotational constants (GHZ):           1.2940480           0.2053352           0.1837926
 Standard basis: 6-311++G(d,p) (5D, 7F)
 There are   438 symmetry adapted cartesian basis functions of A   symmetry.
 There are   422 symmetry adapted basis functions of A   symmetry.
   422 basis functions,   666 primitive gaussians,   438 cartesian basis functions
    57 alpha electrons       57 beta electrons
       nuclear repulsion energy       971.0681740171 Hartrees.
 NAtoms=   26 NActive=   26 NUniq=   26 SFac= 1.00D+00 NAtFMM=   60 NAOKFM=F Big=F
 Integral buffers will be    131072 words long.
 Raffenetti 2 integral format.
 Two-electron integral symmetry is turned on.
 R6APFD:  NTU= -4 IXU= 1 FactS= 1.050
 Nuclear repulsion after empirical dispersion term =      971.0495589054 Hartrees.
 One-electron integrals computed using PRISM.
 NBasis=   422 RedAO= T EigKep=  2.55D-06  NBF=   422
 NBsUse=   419 1.00D-06 EigRej=  9.85D-07 NBFU=   419
 Initial guess from the checkpoint file:  "CIAC0020.chk"
 B after Tr=     0.000000    0.000000    0.000000
         Rot=    0.999993    0.000527   -0.000060   -0.003755 Ang=   0.43 deg.
 ExpMin= 3.60D-02 ExpMax= 8.59D+03 ExpMxC= 1.30D+03 IAcc=3 IRadAn=         5 AccDes= 0.00D+00
 Harris functional with IExCor= 1009 and IRadAn=       5 diagonalized for initial guess.
 HarFok:  IExCor= 1009 AccDes= 0.00D+00 IRadAn=         5 IDoV= 1 UseB2=F ITyADJ=14
 ICtDFT=  3500011 ScaDFX=  1.000000  1.000000  1.000000  1.000000
 FoFCou: FMM=F IPFlag=           0 FMFlag=      100000 FMFlg1=           0
         NFxFlg=           0 DoJE=T BraDBF=F KetDBF=T FulRan=T
         wScrn=  0.000000 ICntrl=       500 IOpCl=  0 I1Cent=   200000004 NGrid=           0
         NMat0=    1 NMatS0=      1 NMatT0=    0 NMatD0=    1 NMtDS0=    0 NMtDT0=    0
 Petite list used in FoFCou.
 Requested convergence on RMS density matrix=1.00D-08 within  32 cycles.
 Requested convergence on MAX density matrix=1.00D-06.
 Requested convergence on             energy=1.00D-06.
 No special actions if energy rises.
 SCF Done:  E(RM08HX) =  -764.175034440     A.U. after   15 cycles
            NFock= 15  Conv=0.25D-08     -V/T= 2.0041
 QCSCF skips out because SCF is already converged.
 R6APFD:  NTU= -4 IXU= 1 FactS= 1.050
 Calling FoFJK, ICntrl=      2127 FMM=F ISym2X=0 I1Cent= 0 IOpClX= 0 NMat=1 NMatS=1 NMatT=0.
 ***** Axes restored to original set *****
 -------------------------------------------------------------------
 Center     Atomic                   Forces (Hartrees/Bohr)
 Number     Number              X              Y              Z
 -------------------------------------------------------------------
      1        8          -0.002160081   -0.000567845   -0.002475418
      2        8          -0.001918501    0.000965384   -0.001402979
      3        8          -0.002262959   -0.001674934    0.000523293
      4        8           0.000720014    0.001483454   -0.001544955
      5        6          -0.008445368   -0.001752590    0.000675142
      6        6           0.006063519    0.002880506   -0.000335474
      7        6           0.004832608    0.000819534   -0.000068580
      8        6           0.006394487    0.000748166   -0.000303599
      9        6          -0.002344079   -0.001204169   -0.000152131
     10        6          -0.001281088   -0.000510826   -0.000040950
     11        6          -0.002797651    0.001985981   -0.000216129
     12        6           0.000045590   -0.000320296   -0.000125792
     13        6           0.003373816   -0.000457627    0.000311011
     14        6           0.000682005   -0.006936409    0.000103189
     15        6           0.005609934    0.004624650    0.000828075
     16        6          -0.000008842    0.000893203    0.003322222
     17        1          -0.000034706   -0.000073330   -0.000306669
     18        1          -0.001873985   -0.000905562    0.000177190
     19        1          -0.001034054   -0.000378850    0.000209983
     20        1          -0.000350769    0.000003197    0.000116036
     21        1          -0.000238531   -0.000215362   -0.000016014
     22        1           0.000359616   -0.000211471    0.000317525
     23        1          -0.000081109    0.000106029    0.000002430
     24        1          -0.001670131    0.000361332    0.000158355
     25        1          -0.000523931    0.000497337    0.000214067
     26        1          -0.001055802   -0.000159501    0.000030171
 -------------------------------------------------------------------
 Cartesian Forces:  Max     0.008445368 RMS     0.002189654

 GradGradGradGradGradGradGradGradGradGradGradGradGradGradGradGradGradGrad
 Berny optimization.
 Using GEDIIS/GDIIS optimizer.
 FormGI is forming the generalized inverse of G from B-inverse, IUseBI=4.
 Internal  Forces:  Max     0.004935038 RMS     0.001184797
 Search for a local minimum.
 Step number   2 out of a maximum of  126
 All quantities printed in internal units (Hartrees-Bohrs-Radians)
 Mixed Optimization -- RFO/linear search
 Update second derivatives using D2CorX and points    1    2
 DE= -6.43D-03 DEPred=-6.59D-03 R= 9.76D-01
 TightC=F SS=  1.41D+00  RLast= 2.41D-01 DXNew= 5.0454D-01 7.2435D-01
 Trust test= 9.76D-01 RLast= 2.41D-01 DXMaxT set to 5.05D-01
 ITU=  1  0
 Use linear search instead of GDIIS.
     Eigenvalues ---    0.00912   0.00995   0.01119   0.01373   0.01400
     Eigenvalues ---    0.01570   0.01617   0.01911   0.02001   0.02099
     Eigenvalues ---    0.02140   0.02155   0.02155   0.02156   0.02156
     Eigenvalues ---    0.02181   0.02214   0.02225   0.02268   0.02302
     Eigenvalues ---    0.02307   0.02795   0.02841   0.14964   0.15997
     Eigenvalues ---    0.15999   0.15999   0.15999   0.15999   0.16000
     Eigenvalues ---    0.16000   0.16000   0.16394   0.21486   0.21999
     Eigenvalues ---    0.22000   0.22000   0.22101   0.22993   0.24143
     Eigenvalues ---    0.24975   0.24997   0.25000   0.25000   0.25000
     Eigenvalues ---    0.25528   0.33547   0.33969   0.34842   0.34975
     Eigenvalues ---    0.35176   0.35233   0.35253   0.35263   0.35342
     Eigenvalues ---    0.35383   0.35780   0.37977   0.42267   0.42802
     Eigenvalues ---    0.46241   0.46468   0.47281   0.47878   0.51191
     Eigenvalues ---    0.51589   0.54252   0.55397   0.55926   0.56901
     Eigenvalues ---    0.93833   0.95364
 RFO step:  Lambda=-2.38007209D-03 EMin= 9.12004193D-03
 Quartic linear search produced a step of  0.02317.
 Iteration  1 RMS(Cart)=  0.06628693 RMS(Int)=  0.00343460
 Iteration  2 RMS(Cart)=  0.00486948 RMS(Int)=  0.00121972
 Iteration  3 RMS(Cart)=  0.00001091 RMS(Int)=  0.00121966
 Iteration  4 RMS(Cart)=  0.00000003 RMS(Int)=  0.00121966
 Variable       Old X    -DE/DX   Delta X   Delta X   Delta X     New X
                                 (Linear)    (Quad)   (Total)
    R1        2.53280   0.00211  -0.00057  -0.00089  -0.00146   2.53134
    R2        1.82364   0.00049  -0.00070  -0.00494  -0.00563   1.81801
    R3        2.53728   0.00292  -0.00049   0.00133   0.00083   2.53811
    R4        1.82011   0.00097  -0.00078  -0.00474  -0.00553   1.81459
    R5        2.26556  -0.00076  -0.00092  -0.00872  -0.00964   2.25592
    R6        2.27206  -0.00169  -0.00081  -0.00877  -0.00958   2.26248
    R7        2.64593   0.00068   0.00064   0.00686   0.00750   2.65343
    R8        2.64089   0.00155   0.00052   0.00784   0.00836   2.64925
    R9        2.78572  -0.00494   0.00004  -0.01390  -0.01386   2.77186
   R10        2.63186  -0.00281  -0.00010  -0.00710  -0.00720   2.62467
   R11        2.05510   0.00083   0.00010   0.00324   0.00334   2.05844
   R12        2.63317  -0.00190  -0.00007  -0.00465  -0.00471   2.62846
[...]
 966,-0.07338476,-0.06235342,-0.00516756,0.00103453,0.00229580,0.000018
 54,-0.00125036,0.00045639,0.00004611,-0.00134395,-0.02991077,-0.002455
 64,0.00009052,-0.00037182,0.00001378,-0.00562746,-0.00106878,-0.000066
 59,-0.00013996,-0.00004869,-0.00002292,0.00017072,-0.00005509,0.000001
 95,-0.00002401,0.00021113,-0.00003046,-0.00018019,-0.00007894,0.000034
 45,-0.00103744,-0.00045754,0.00004443,0.00030002,0.00117844,0.00008856
 ,0.07546383,0.00000068,0.00002832,-0.00000009,-0.00003565,0.00001667,0
 .00001142,0.00003609,0.00007600,0.00001556,-0.00001886,0.00002571,0.00
 001100,-0.00801792,-0.01680599,-0.00161760,0.00415778,-0.00102030,-0.0
 0060441,-0.06170140,-0.31623015,-0.02238703,-0.00225502,0.00023365,0.0
 0036665,0.00055578,0.00063951,0.00015380,0.00098826,-0.00416843,-0.000
 71130,0.00048509,0.00050313,0.00003776,-0.00167770,0.00179172,-0.00043
 987,0.00002932,-0.00005169,-0.00001677,0.00001043,0.00003492,0.0000064
 1,-0.00003079,-0.00011629,-0.00001696,0.00005176,-0.00003480,-0.000016
 45,0.00122557,0.00053796,-0.00001193,-0.00050725,-0.00093108,-0.000115
 39,0.06720768,0.33523655,-0.00000932,-0.00000138,-0.00001155,0.0000103
 6,0.00000420,-0.00000889,-0.00002799,-0.00000095,-0.00002848,0.0000024
 8,0.00000115,-0.00002348,-0.00062815,-0.00173975,0.00358815,0.00032616
 ,-0.00068257,0.00649279,-0.00502060,-0.02249511,-0.03938356,-0.0002744
 0,0.00027382,-0.00428003,0.00004589,0.00013116,-0.00125609,0.00007969,
 -0.00053156,0.00384075,0.00001485,0.00007076,0.00005103,-0.00006138,-0
 .00047067,0.00744538,-0.00003705,-0.00000199,0.00026789,0.00001333,-0.
 00002524,-0.00005518,0.00001961,0.00003139,0.00005140,-0.00001339,0.00
 000242,-0.00002260,0.00013378,0.00012310,0.00028268,-0.00004398,-0.000
 09322,0.00031104,0.00553463,0.02495672,0.02751838,-0.00000907,0.000063
 84,-0.00001312,-0.00007428,0.00001010,0.00001737,0.00007225,0.00015788
 ,0.00002358,-0.00003789,-0.00004370,0.00000341,-0.00550759,-0.00105361
 ,-0.00010952,-0.00194473,-0.03010106,-0.00263296,-0.00141891,0.0004945
 8,0.00004263,0.00046507,-0.00152566,-0.00010058,-0.07357164,-0.0622665
 9,-0.00541744,-0.00292631,0.00352496,0.00031927,-0.00014376,0.00000763
 ,0.00002023,0.00974339,0.02283793,0.00198063,0.00017871,0.00007427,0.0
 0001167,-0.00019460,0.00006824,-0.00000509,-0.00004139,-0.00026232,-0.
 00001442,0.00014227,0.00007931,-0.00002330,-0.00042342,-0.00017941,-0.
 00000939,0.00056594,0.00027248,0.00000708,0.00007981,-0.00005807,-0.00
 000473,0.07420461,-0.00005152,0.00006897,-0.00003889,-0.00009431,0.000
 00627,0.00002050,0.00001586,0.00010129,0.00000796,-0.00005397,-0.00007
 729,-0.00000011,-0.00151127,0.00180791,-0.00059118,0.00085488,-0.00432
 891,-0.00065982,0.00062478,0.00080096,0.00017302,0.00037473,-0.0003318
 5,-0.00002063,-0.06260016,-0.32073332,-0.02450742,0.00400548,-0.001064
 41,-0.00073080,-0.00026345,-0.00002431,-0.00003019,-0.00820732,-0.0152
 2953,-0.00161582,0.00024555,0.00005235,0.00003186,-0.00022188,0.000057
 25,-0.00000772,0.00003363,-0.00021749,0.00003284,0.00019011,0.00011730
 ,-0.00002370,-0.00012010,-0.00003577,0.00001770,-0.00036045,0.00061254
 ,0.00043565,-0.00005366,-0.00008038,0.00007865,0.06717817,0.33887650,-
 0.00001707,0.00001447,-0.00002510,-0.00000458,-0.00000195,-0.00000620,
 -0.00000813,0.00000621,-0.00003222,-0.00000356,-0.00000399,-0.00000494
 ,-0.00002507,-0.00045354,0.00823769,0.00000986,-0.00073433,0.00353572,
 0.00012238,0.00016231,-0.00116622,-0.00003199,-0.00003670,0.00018479,-
 0.00532503,-0.02459526,-0.04074135,0.00031804,-0.00074442,0.00713437,-
 0.00003028,0.00000010,0.00002752,-0.00078555,-0.00154878,0.00334002,0.
 00002287,0.00000589,-0.00009044,-0.00001631,0.00000480,0.00002806,0.00
 002630,-0.00002046,0.00002897,0.00000719,0.00000580,0.00001356,-0.0000
 2008,0.00000355,-0.00028290,-0.00008014,0.00047549,-0.00429994,-0.0000
 0870,0.00006631,-0.00095043,0.00587305,0.02712292,0.02870753,-0.000073
 32,0.00007737,-0.00005298,-0.00011256,-0.00000784,0.00002115,-0.000006
 33,0.00009162,-0.00000275,-0.00006798,-0.00012751,-0.00000463,-0.00433
 786,-0.00321878,-0.00018416,-0.00022850,-0.00116074,-0.00009624,-0.015
 77171,0.02294735,0.00191778,-0.00039661,0.00139026,0.00012107,0.001071
 56,-0.00212834,-0.00015471,-0.20439483,0.13864065,0.01187159,-0.000635
 38,-0.00032939,-0.00002361,0.00907150,-0.00697593,-0.00055381,0.000220
 29,0.00017119,-0.00001477,-0.00029261,0.00002957,-0.00000833,0.0000669
 2,-0.00022265,0.00005723,0.00022840,0.00019055,-0.00001342,-0.00001296
 ,-0.00005190,-0.00000291,-0.00001148,0.00010614,0.00000594,0.00052923,
 -0.00041333,-0.00005040,0.00029038,-0.00041710,-0.00003951,0.21426797,
 0.00003198,-0.00002399,0.00002141,0.00003758,-0.00000255,-0.00000798,0
 .00001250,-0.00001475,0.00000658,0.00002370,0.00003423,0.00000190,-0.0
 0248950,0.00091098,-0.00058233,-0.00120254,-0.00043365,0.00006593,-0.0
 0817330,0.00983507,0.00056416,-0.00042798,0.00038832,0.00001929,-0.002
 65077,-0.00504305,-0.00103122,0.13875907,-0.19093034,-0.01278799,-0.00
 003659,-0.00010844,0.00001399,0.02405829,-0.01445820,-0.00153371,-0.00
 011760,0.00001228,-0.00000554,0.00007059,-0.00002437,-0.00000220,-0.00
 003612,0.00005632,-0.00002609,-0.00008197,-0.00004703,0.00000886,-0.00
 000189,-0.00000645,0.00000245,0.00008938,0.00001778,0.00008851,0.00036
 461,0.00055847,0.00037495,0.00117716,-0.00086502,-0.00008609,-0.148981
 75,0.19957113,-0.00000408,0.00000372,-0.00000737,0.00000605,-0.0000048
 2,-0.00000602,-0.00000202,-0.00000200,-0.00000893,0.00000163,0.0000001
 3,-0.00000396,-0.00015472,-0.00063356,0.00781107,-0.00008824,0.0001123
 1,-0.00116928,-0.00068303,0.00045462,0.00330435,-0.00003420,0.00000495
 ,0.00022538,-0.00018526,-0.00103505,0.00745885,0.01189315,-0.01272118,
 -0.03951698,-0.00000647,-0.00000789,-0.00008213,0.00199021,-0.00149906
 ,0.00348582,0.00001603,0.00000355,-0.00016299,-0.00000731,0.00001040,0
 .00006211,0.00000864,-0.00000141,-0.00000291,-0.00000708,0.00000179,0.
 00001611,0.00000122,0.00000639,-0.00000001,-0.00000037,0.00010044,-0.0
 0104801,0.00002574,0.00037095,-0.00402957,0.00008725,-0.00006873,0.000
 04484,-0.01281487,0.01451839,0.02761295,0.00138288,0.00029485,0.001174
 43,-0.00031226,0.00030536,0.00011529,0.00042875,0.00430470,0.00110837,
 -0.00048182,0.00057510,0.00013042,0.00035752,-0.00119828,0.00004398,-0
 .00128640,0.00110508,0.00002563,0.00007882,-0.00005314,0.00003030,0.00
 765194,0.02588220,0.00029722,0.00011673,-0.00036544,0.00003681,0.00011
 320,-0.00026195,-0.00001538,-0.05713198,-0.01856169,-0.00109915,0.0000
 0345,-0.00000849,0.00000133,0.00285023,-0.02997105,-0.00019958,0.00022
 337,0.00195552,0.00022908,-0.00573398,-0.00403485,-0.00239707,0.000417
 83,-0.00065723,-0.00043946,-0.00349977,0.00242545,-0.00027300,-0.00274
 618,-0.00144894,-0.00051029,0.00014625,-0.00018054,-0.00002502,-0.0000
 1667,0.00001126,-0.00000553,0.00001626,-0.00000133,-0.00000029,0.06177
 377,-0.00053302,0.00016444,-0.00012623,-0.00016841,0.00002437,0.000037
 83,0.00347780,-0.00382949,-0.00094466,-0.00028082,-0.00000326,-0.00003
 481,-0.00110597,-0.00060556,0.00031433,-0.00057920,-0.00002698,-0.0000
 8179,0.00007925,-0.00015319,-0.00003895,-0.00108310,-0.01227381,-0.000
 48602,0.00000133,0.00047350,0.00006246,-0.00000943,-0.00006006,-0.0000
 0785,-0.02133117,-0.33875044,-0.00389615,-0.00021291,-0.00004760,0.000
 01282,-0.00069313,-0.00915701,-0.00018946,0.00077601,-0.00034293,-0.00
 033744,0.00115229,0.00121294,0.00035545,0.00020984,-0.00017727,0.00001
 468,0.00157865,0.00009145,-0.00052997,-0.00145516,0.00068780,-0.000118
 25,-0.00000279,0.00009052,0.00001214,-0.00002121,-0.00003274,-0.000010
 87,-0.00000579,0.00001052,0.00000317,0.02121099,0.36204745,-0.00041320
 ,-0.00009135,-0.00036231,0.00009632,-0.00000945,0.00003966,0.00003460,
 -0.00082489,-0.00054034,0.00006491,-0.00007274,-0.00005390,-0.00014924
 ,-0.00007441,-0.00581855,-0.00037185,0.00013883,-0.00013127,0.00028253
 ,-0.00002599,-0.00008513,0.00052144,0.00098564,0.00607623,0.00028013,-
 0.00006912,-0.00048354,-0.00015869,-0.00016574,0.00003518,-0.00185953,
 -0.00550650,-0.04121657,-0.00005230,0.00021688,-0.00004566,-0.00017761
 ,-0.00060057,0.00362418,0.00012128,-0.00042940,-0.00156751,0.00075359,
 0.00094394,0.00092793,-0.00007265,0.00007532,-0.00031206,-0.00049457,0
 .00011406,0.00980771,-0.00045164,-0.00021203,0.00128342,0.00003442,-0.
 00003406,0.00013199,-0.00000525,-0.00000914,0.00004349,0.00000254,-0.0
 0000496,0.00001190,0.00215701,0.00568708,0.02495856,-0.00004632,0.0000
 3025,-0.00003733,-0.00004814,0.00000292,0.00001140,-0.00005191,0.00000
 702,-0.00001045,-0.00003238,-0.00002965,-0.00000071,0.00068002,0.00071
 507,0.00006188,-0.00153899,0.00402692,0.00038503,0.00173858,-0.0013121
 5,-0.00009461,-0.00003151,-0.00009749,-0.00000053,-0.01589987,-0.00968
 681,-0.00078527,-0.00275661,0.00101758,0.00009269,-0.00007318,0.000085
 78,-0.00001939,-0.31563258,-0.07631437,-0.00576707,0.00007377,-0.00004
 182,0.00000223,-0.00006165,0.00001078,-0.00000690,0.00007055,-0.000030
 94,0.00005160,0.00008425,0.00004117,-0.00000731,-0.00001227,-0.0000229
 8,0.00000002,-0.00088547,-0.00047536,-0.00004325,-0.00024981,0.0001088
 7,0.00000822,0.00054990,0.00040016,0.00002405,0.00054772,-0.00041218,-
 0.00004026,0.00004750,-0.00003954,0.00000459,0.33351657,0.00000368,0.0
 0000627,0.00000403,-0.00001047,0.00000133,0.00000243,0.00001860,0.0000
 1769,0.00000373,-0.00000555,-0.00000135,0.00000155,0.00058497,-0.00138
 941,-0.00002304,0.00361188,-0.00242799,-0.00083612,-0.00088935,-0.0056
 5818,-0.00109553,-0.00001572,0.00006163,0.00010842,0.02126247,0.010534
 40,0.00053526,-0.02994184,-0.00265252,-0.00049859,0.00001890,0.0000300
 2,0.00000394,-0.07628098,-0.08135077,-0.00344343,-0.00000378,0.0000395
 1,-0.00000255,-0.00002127,0.00000587,0.00000135,-0.00001721,-0.0000349
 0,-0.00000708,0.00001750,0.00000419,-0.00000222,0.00009345,0.00004498,
 -0.00000152,0.00108668,0.00031007,0.00003236,-0.00148277,-0.00033526,-
 0.00001436,-0.00043214,0.00053042,0.00037409,0.00040754,0.00055638,0.0
 0038140,-0.00005138,0.00002690,-0.00001723,0.08203008,0.08167529,-0.00
 000992,0.00000431,-0.00000782,-0.00000075,0.00000327,-0.00000257,-0.00
 000663,0.00000645,-0.00000542,0.00000038,-0.00000434,-0.00000561,0.000
 11425,-0.00006758,-0.00098965,0.00030207,-0.00082219,0.00710590,-0.000
 08831,-0.00104818,0.00756556,-0.00009205,0.00008476,-0.00114456,0.0018
 5160,0.00056127,0.00374317,-0.00242306,-0.00050111,0.00384933,0.000001
 18,-0.00003470,-0.00000104,-0.00578451,-0.00349073,-0.03873240,0.00000
 570,0.00000258,0.00004773,-0.00000237,-0.00000185,-0.00003645,0.000013
 99,-0.00000337,0.00000309,0.00000159,0.00001187,-0.00000607,0.00000233
 ,0.00002529,0.00000121,0.00011015,0.00003864,-0.00011055,-0.00011318,-
 0.00001799,-0.00000171,-0.00005117,0.00038172,-0.00374205,0.00001732,0
 .00038402,-0.00399977,-0.00001857,-0.00000886,0.00018057,0.00616872,0.
 00449906,0.02624419,-0.00041235,0.00203285,-0.00056600,0.00139915,-0.0
 0138682,-0.00087733,0.00074664,0.00035532,-0.00004135,-0.00100171,-0.0
 0276569,-0.00009907,0.00027111,0.00044728,0.00001337,0.00004203,-0.000
 30823,-0.00005286,-0.00006234,0.00002328,-0.00000581,0.00078788,-0.002
 21813,0.00005334,-0.00002352,0.00018003,0.00001456,0.00002408,0.000039
 01,-0.00000015,0.00068988,-0.02771989,-0.00038863,-0.00002904,-0.00003
 141,0.00000056,-0.05576800,-0.00989468,0.00062197,0.00340721,0.0290847
 5,0.00049062,-0.00502855,-0.00112318,-0.00014578,-0.00225854,0.0055633
 2,0.00152333,-0.00106020,0.00113210,-0.00003193,-0.00001917,0.00017814
 ,0.00003019,-0.00004932,0.00003588,0.00000521,0.00002184,0.00000569,0.
 00000119,0.00001070,0.00000063,0.00000173,-0.00425092,-0.00101033,-0.0
 0012866,-0.00000523,0.00001518,0.00000179,0.06291161,0.00006649,-0.000
 71233,0.00012234,0.00011537,0.00013225,-0.00014735,-0.00012117,0.00029
 463,-0.00015202,-0.00266666,0.00054490,0.00028172,-0.00021428,0.000294
 65,0.00000336,0.00025955,-0.00002049,-0.00001400,-0.00006829,-0.000035
 61,0.00000923,0.00184844,0.00127987,0.00006097,-0.00001815,0.00009992,
 0.00002404,0.00000109,0.00000074,-0.00000619,0.00019390,-0.01078084,-0
 .00015811,-0.00003440,-0.00002031,-0.00000074,-0.00504306,-0.32531504,
 -0.00224897,-0.00062806,-0.01304182,-0.00048556,0.00181767,0.00059810,
 0.00006536,-0.00047497,-0.00168638,-0.00027259,-0.00078831,0.00059390,
 -0.00001702,0.00001698,0.00004884,0.00000457,-0.00001313,0.00000769,-0
 .00000062,0.00000803,-0.00000005,-0.00000197,-0.00000295,0.00000212,0.
 00000072,-0.00150831,0.00068364,0.00000075,-0.00000408,0.00000420,-0.0
 0000100,0.00712809,0.34700382,0.00022034,-0.00132837,-0.00101054,0.001
 08990,-0.00018685,0.00011249,0.00155902,0.00134118,-0.00090061,-0.0003
 1033,-0.00050669,-0.00011820,-0.00003550,0.00003290,0.00013186,-0.0000
 2469,0.00003257,0.00004656,0.00001464,-0.00002073,0.00000342,0.0001200
 5,-0.00003783,-0.00214573,0.00002706,0.00000544,-0.00014699,-0.0000157
 8,-0.00001770,-0.00005160,-0.00022308,-0.00080631,0.00510669,-0.000014
 40,0.00002339,0.00001133,0.00119462,-0.00250214,-0.04547796,-0.0023406
 7,0.00326232,0.00815953,-0.00085430,-0.00141064,0.01079993,-0.00069015
 ,-0.00064207,-0.00685369,-0.00003388,0.00002993,0.00033400,0.00000310,
 -0.00002283,0.00011899,0.00000483,-0.00000496,0.00005226,-0.00000171,-
 0.00000226,0.00000208,-0.00000133,-0.00000029,-0.00000041,-0.00026723,
 0.00028982,0.00335433,0.00000029,-0.00000437,0.00003343,-0.00004405,0.
 00281871,0.02827523,-0.03552891,-0.02685291,-0.01720889,-0.00105874,-0
 .00055461,0.00055781,0.00038797,-0.00580132,0.00456971,-0.00013778,-0.
 00017686,0.00003730,-0.00000210,-0.00000452,-0.00002402,-0.00004490,0.
 00005069,0.00002809,0.00001709,0.00000244,-0.00000816,-0.00008558,-0.0
 0014466,0.00001903,0.00002336,-0.00003270,-0.00000444,-0.00000398,-0.0
 0001223,0.00000283,0.00001927,0.00013157,-0.00015861,0.00000551,0.0000
 1397,0.00000589,0.00056244,0.00055402,-0.00031819,-0.00270692,0.001157
 97,-0.00512615,0.00059503,0.04777019,-0.00237495,0.00009382,0.00087338
 ,-0.00023830,0.00003119,-0.00003946,0.00003499,-0.00001873,-0.00000658
 ,-0.00002458,-0.00000150,-0.00000319,-0.00000129,-0.00001126,0.0000020
 5,-0.00000310,0.00000728,-0.00000497,-0.00000152,-0.00019086,0.0000173
 8,-0.00003440,0.00000814,-0.00000009,-0.00000251,-0.00014208,0.0000471
 9,0.00052843,0.03790916,0.01159058,-0.51450107,-0.00442530,-0.00006349
 ,0.00023889,0.00003951,-0.00656882,0.00038621,-0.00454124,-0.00001161,
 0.00028426,0.00005069,-0.00002820,-0.00000651,-0.00001615,-0.00002548,
 0.00001541,0.00000298,-0.00000706,-0.00006137,0.00000802,0.00029614,0.
 00002466,-0.00003726,-0.00002240,0.00005452,0.00000176,-0.00000481,-0.
 00003808,-0.00001073,-0.00046408,0.00007351,0.00005698,-0.00005351,-0.
 00002051,0.00000405,0.00035080,-0.00050256,0.00038109,0.00159772,0.002
 09806,0.00129212,0.00964928,-0.02254050,0.00639024,0.00023742,-0.00013
 432,-0.00041675,-0.00003391,0.00001200,0.00001848,0.00003343,0.0000290
 2,-0.00000032,0.00001265,-0.00000498,0.00000093,-0.00001159,-0.0000124
 7,-0.00000380,-0.00001348,0.00000479,0.00000005,0.00023343,-0.00005323
 ,-0.00001440,-0.00000959,0.00000073,0.00000008,0.00016529,-0.00001094,
 -0.00018083,-0.01673084,0.53465383,-0.01600859,-0.03346191,-0.02811965
 ,0.00077024,-0.00002857,-0.00024088,0.00385938,-0.00455423,-0.00315753
 ,0.00006943,-0.00026293,-0.00019874,0.00007066,0.00001709,0.00003224,0
 .00001704,-0.00003537,-0.00002254,-0.00001146,0.00005233,-0.00001181,-
 0.00031061,0.00008455,-0.00007618,0.00002513,-0.00003520,-0.00001474,0
 .00000779,0.00004034,0.00000796,0.00070329,-0.00013803,-0.00001014,0.0
 0004668,0.00001399,-0.00001344,-0.00074723,0.00152540,0.00011024,-0.00
 456172,-0.00081208,0.00148083,-0.00246433,0.03601878,0.00335310,-0.000
 68507,-0.00002491,0.00012158,0.00002446,-0.00000916,0.00000477,-0.0000
 1852,-0.00001230,0.00003519,-0.00000811,0.00000144,0.00000684,0.000006
 41,0.00000919,0.00001140,0.00001032,-0.00000434,0.00000329,-0.00008113
 ,0.00002085,0.00010095,0.00000440,-0.00000078,0.00000651,-0.00035199,0
 .00017913,-0.00013729,0.01959095,0.00132762,0.02675333,0.00026958,0.00
 070594,-0.00038415,-0.29678042,-0.21231840,0.00559985,0.00017003,0.000
 25485,0.00012286,0.00842156,-0.00215515,-0.00337236,0.00004797,0.00005
 609,0.00008950,0.00003531,-0.00004591,0.00000808,-0.00000849,0.0000567
 5,-0.00001831,-0.00038718,0.00003492,-0.00004958,0.00003398,-0.0000412
 9,-0.00000476,0.00000394,0.00005066,0.00001526,0.00035369,0.00029926,-
 0.00042089,0.00005131,0.00001987,-0.00001089,-0.00146647,-0.00089891,0
 .00038654,-0.00150078,0.00430932,0.00240821,-0.00055781,-0.00008738,-0
 .00027303,-0.04714073,-0.02954885,0.00320472,-0.00001733,0.00002405,-0
 .00001796,-0.00001400,-0.00001715,0.00000129,-0.00001612,0.00000652,0.
 00000350,0.00000735,0.00001285,-0.00000027,0.00001392,-0.00000700,-0.0
 0000191,0.00004234,0.00002845,0.00001621,0.00000894,0.00000164,0.00000
 195,-0.00020117,0.00008302,0.00009484,0.00027309,-0.00011788,0.0000425
 8,0.33835749,-0.00008508,-0.00064279,0.00047535,-0.25829579,-0.2634754
 4,-0.01023357,0.00001002,-0.00005955,-0.00003610,-0.00158432,-0.005557
 48,0.00053987,0.00003928,-0.00000725,-0.00005584,0.00000066,-0.0000160
 7,-0.00002015,-0.00000481,0.00002989,0.00002706,-0.00009456,0.00009567
 ,-0.00001613,0.00000694,-0.00001377,0.00000640,0.00000150,0.00000809,-
 0.00001038,0.00030670,-0.00010852,0.00032688,0.00001164,0.00000238,0.0
 0001034,0.00017589,0.00039347,-0.00001336,0.00303955,-0.00100839,-0.00
 183575,0.00068299,0.00024396,-0.00014076,0.01667416,0.02399901,0.00102
 032,0.00000298,-0.00000565,0.00000993,-0.00000167,-0.00000222,-0.00000
 167,-0.00000050,-0.00000148,-0.00000397,0.00000078,0.00000178,0.000000
 20,0.00000524,-0.00000056,0.00000074,-0.00000134,0.00000008,-0.0000005
 1,0.00000036,0.00000055,-0.00000145,0.00007153,0.00003454,-0.00016140,
 -0.00025590,0.00001064,0.00008910,0.23929373,0.24607911,-0.00031384,0.
 00074286,-0.00046983,-0.00578393,-0.01967062,-0.01834952,-0.00013626,-
 0.00006199,-0.00023136,-0.00306413,-0.00009200,-0.00531398,-0.00005147
 ,-0.00003833,0.00009382,-0.00001378,0.00003672,-0.00001378,0.00001756,
 -0.00004017,-0.00000927,0.00027400,-0.00007094,-0.00005313,-0.00001714
 ,0.00002073,0.00000746,-0.00000441,-0.00002467,-0.00000683,-0.00032074
 ,-0.00012148,-0.00054741,-0.00002607,-0.00000662,-0.00001703,0.0013064
 8,0.00052638,0.00036420,0.00074965,-0.00233054,0.00402022,0.00024587,-
 0.00038586,0.00017150,0.01447282,0.01149570,0.00444202,0.00000056,-0.0
 0000692,-0.00001369,0.00000442,0.00000212,0.00001137,0.00000243,-0.000
 00320,0.00001098,-0.00000389,-0.00000557,0.00000171,-0.00000654,0.0000
 0231,0.00000168,-0.00001816,0.00000067,0.00004072,-0.00000204,-0.00000
 082,0.00000495,-0.00002425,-0.00006478,0.00030087,0.00015410,0.0000721
 7,-0.00002527,-0.00744125,0.01002485,0.01557958\\-0.00000092,-0.000000
 74,0.00000029,0.00000027,-0.00000266,0.00000008,-0.00000103,-0.0000010
 8,0.00000056,0.00000139,-0.00000222,-0.00000080,-0.00000002,0.00000067
 ,0.00000020,-0.00000018,0.00000113,0.00000034,0.00000058,0.00000134,-0
 .00000044,0.00000058,0.00000046,-0.00000066,-0.00000081,0.00000151,0.0
 0000047,0.00000043,0.00000196,-0.00000035,0.,-0.00000040,-0.00000059,-
 0.00000011,0.00000193,0.00000008,-0.00000007,-0.00000060,0.00000094,0.
 00000026,-0.00000178,0.00000002,-0.00000049,-0.00000169,0.00000068,-0.
 00000029,-0.00000129,-0.00000019,0.00000084,0.00000017,-0.00000063,-0.
 00000075,0.00000061,0.00000053,0.00000104,0.00000125,-0.00000082,-0.00
 000105,0.00000163,0.00000075,0.00000075,0.00000226,-0.00000060,-0.0000
 0042,-0.00000014,0.00000045,-0.00000032,0.00000245,0.00000023,0.000000
 90,-0.00000088,-0.00000099,-0.00000129,-0.00000140,0.00000085,0.000000
 72,-0.00000253,-0.00000040\\\@


 ANYONE WHO IS NOT SHOCKED BY QUANTUM THEORY HAS
 NOT UNDERSTOOD IT. -- NIELS BOHR(1885-1962)
 Job cpu time:       0 days  5 hours 45 minutes 31.2 seconds.
 Elapsed time:       0 days  0 hours 21 minutes 51.7 seconds.
 File lengths (MBytes):  RWF=    429 Int=      0 D2E=      0 Chk=     15 Scr=      1
 Normal termination of Gaussian 16 at Wed Oct  1 04:33:54 2025.
