 Entering Gaussian System, Link 0=g16
 Input=CIAC0023.gjf
 Output=CIAC0023.log
 Initial command:
 /usr/local/g16/l1.exe "/dados_01/scratch/Gau-2359294.inp" -scrdir="/dados_01/scratch/"
 Entering Link 1 = /usr/local/g16/l1.exe PID=   2359295.
  
 Copyright (c) 1988-2017, Gaussian, Inc.  All Rights Reserved.
  
 This is part of the Gaussian(R) 16 program.  It is based on
 the Gaussian(R) 09 system (copyright 2009, Gaussian, Inc.),
 the Gaussian(R) 03 system (copyright 2003, Gaussian, Inc.),
 the Gaussian(R) 98 system (copyright 1998, Gaussian, Inc.),
 the Gaussian(R) 94 system (copyright 1995, Gaussian, Inc.),
 the Gaussian 92(TM) system (copyright 1992, Gaussian, Inc.),
 the Gaussian 90(TM) system (copyright 1990, Gaussian, Inc.),
 the Gaussian 88(TM) system (copyright 1988, Gaussian, Inc.),
 the Gaussian 86(TM) system (copyright 1986, Carnegie Mellon
 University), and the Gaussian 82(TM) system (copyright 1983,
 Carnegie Mellon University). Gaussian is a federally registered
 trademark of Gaussian, Inc.
  
 This software contains proprietary and confidential information,
 including trade secrets, belonging to Gaussian, Inc.
  
 This software is provided under written license and may be
 used, copied, transmitted, or stored only in accord with that
 written license.
  
 The following legend is applicable only to US Government
 contracts under FAR:
  
                    RESTRICTED RIGHTS LEGEND
  
 Use, reproduction and disclosure by the US Government is
 subject to restrictions as set forth in subparagraphs (a)
 and (c) of the Commercial Computer Software - Restricted
 Rights clause in FAR 52.227-19.
  
 Gaussian, Inc.
 340 Quinnipiac St., Bldg. 40, Wallingford CT 06492
  
  
 ---------------------------------------------------------------
 Warning -- This program may not be used in any manner that
 competes with the business of Gaussian, Inc. or will provide
 assistance to any competitor of Gaussian, Inc.  The licensee
 of this program is prohibited from giving any competitor of
 Gaussian, Inc. access to this program.  By using this program,
 the user acknowledges that Gaussian, Inc. is engaged in the
 business of creating and licensing software in the field of
 computational chemistry and represents and warrants to the
 licensee that it is not a competitor of Gaussian, Inc. and that
 it will not use this program in any manner prohibited above.
 ---------------------------------------------------------------
  

 Cite this work as:
 Gaussian 16, Revision B.01,
 M. J. Frisch, G. W. Trucks, H. B. Schlegel, G. E. Scuseria, 
 M. A. Robb, J. R. Cheeseman, G. Scalmani, V. Barone, 
 G. A. Petersson, H. Nakatsuji, X. Li, M. Caricato, A. V. Marenich, 
 J. Bloino, B. G. Janesko, R. Gomperts, B. Mennucci, H. P. Hratchian, 
 J. V. Ortiz, A. F. Izmaylov, J. L. Sonnenberg, D. Williams-Young, 
 F. Ding, F. Lipparini, F. Egidi, J. Goings, B. Peng, A. Petrone, 
 T. Henderson, D. Ranasinghe, V. G. Zakrzewski, J. Gao, N. Rega, 
 G. Zheng, W. Liang, M. Hada, M. Ehara, K. Toyota, R. Fukuda, 
 J. Hasegawa, M. Ishida, T. Nakajima, Y. Honda, O. Kitao, H. Nakai, 
 T. Vreven, K. Throssell, J. A. Montgomery, Jr., J. E. Peralta, 
 F. Ogliaro, M. J. Bearpark, J. J. Heyd, E. N. Brothers, K. N. Kudin, 
 V. N. Staroverov, T. A. Keith, R. Kobayashi, J. Normand, 
 K. Raghavachari, A. P. Rendell, J. C. Burant, S. S. Iyengar, 
 J. Tomasi, M. Cossi, J. M. Millam, M. Klene, C. Adamo, R. Cammi, 
 J. W. Ochterski, R. L. Martin, K. Morokuma, O. Farkas, 
 J. B. Foresman, and D. J. Fox, Gaussian, Inc., Wallingford CT, 2016.
 
 ******************************************
 Gaussian 16:  ES64L-G16RevB.01 20-Dec-2017
                 1-Oct-2025 
 ******************************************
 %nprocs=16
 Will use up to   16 processors via shared memory.
 %mem=40GB
 %chk=CIAC0023.chk
 ----------------------------------------------------------------------
 # opt freq=noraman M08HX/6-311++G** scf=xqc Empiricaldispersion=pfd In
 t(Grid=ultraFine)
 ----------------------------------------------------------------------
 1/18=20,19=15,26=4,38=1/1,3;
 2/9=110,12=2,17=6,18=5,40=1/2;
 3/5=4,6=6,7=1111,11=2,25=1,30=1,71=1,74=-74,75=-5,124=11/1,2,3;
 4//1;
 5/5=2,8=3,13=1,38=5/2,8;
 6/7=2,8=2,9=2,10=2,28=1/1;
 7//1,2,3,16;
 1/18=20,19=15,26=4/3(2);
 2/9=110/2;
 99//99;
 2/9=110/2;
 3/5=4,6=6,7=1111,11=2,25=1,30=1,71=1,74=-74,75=-5,124=11/1,2,3;
 4/5=5,16=3,69=1/1;
 5/5=2,8=3,13=1,38=5/2,8;
 7//1,2,3,16;
 1/18=20,19=15,26=4/3(-5);
 2/9=110/2;
 6/7=2,8=2,9=2,10=2,19=2,28=1/1;
 99/9=1/99;
 --------
 CIAC0023
 --------
 Symbolic Z-matrix:
 Charge =  0 Multiplicity = 1
 O                     0.0296    0.2095    1.6069 
 O                    -0.8558    1.7979   -1.4962 
 O                    -1.3554    2.2689    0.6622 
 O                    -2.3908   -2.3046   -0.7871 
 O                     3.5351   -0.4033   -0.9273 
 O                    -2.5559   -0.6265    0.7317 
 O                     2.5438   -1.1245    0.9835 
 C                     0.1007    0.362     0.1941 
 C                    -0.4905   -0.8791   -0.4971 
 C                     1.5374    0.7096   -0.2266 
 C                    -0.765     1.5773   -0.1587 
 C                    -1.9098   -1.2305   -0.1154 
 C                     2.5767   -0.3568    0.03 
 H                     0.112    -1.7555   -0.2286 
 H                    -0.4574   -0.7614   -1.5866 
 H                     1.8842    1.608     0.3 
 H                     1.5589    0.9361   -1.3004 
 H                     0.462     0.9771    2.0186 
 H                    -1.4293    2.5669   -1.7015 
 H                    -3.3078   -2.5252   -0.5172 
 H                     4.1914   -1.1116   -0.7546 
 

 GradGradGradGradGradGradGradGradGradGradGradGradGradGradGradGradGradGrad
 Berny optimization.
 Initialization pass.
                           ----------------------------
                           !    Initial Parameters    !
                           ! (Angstroms and Degrees)  !
 --------------------------                            --------------------------
 ! Name  Definition              Value          Derivative Info.                !
 --------------------------------------------------------------------------------
 ! R1    R(1,8)                  1.4228         estimate D2E/DX2                !
 ! R2    R(1,18)                 0.9725         estimate D2E/DX2                !
 ! R3    R(2,11)                 1.3586         estimate D2E/DX2                !
 ! R4    R(2,19)                 0.981          estimate D2E/DX2                !
 ! R5    R(3,11)                 1.2251         estimate D2E/DX2                !
 ! R6    R(4,12)                 1.3551         estimate D2E/DX2                !
 ! R7    R(4,20)                 0.981          estimate D2E/DX2                !
 ! R8    R(5,13)                 1.3554         estimate D2E/DX2                !
 ! R9    R(5,21)                 0.9809         estimate D2E/DX2                !
 ! R10   R(6,12)                 1.2247         estimate D2E/DX2                !
 ! R11   R(7,13)                 1.2246         estimate D2E/DX2                !
 ! R12   R(8,9)                  1.5387         estimate D2E/DX2                !
 ! R13   R(8,10)                 1.5369         estimate D2E/DX2                !
 ! R14   R(8,11)                 1.5333         estimate D2E/DX2                !
 ! R15   R(9,12)                 1.5112         estimate D2E/DX2                !
 ! R16   R(9,14)                 1.0969         estimate D2E/DX2                !
 ! R17   R(9,15)                 1.0963         estimate D2E/DX2                !
 ! R18   R(10,13)                1.511          estimate D2E/DX2                !
 ! R19   R(10,16)                1.0976         estimate D2E/DX2                !
 ! R20   R(10,17)                1.0976         estimate D2E/DX2                !
 ! A1    A(8,1,18)             108.2742         estimate D2E/DX2                !
 ! A2    A(11,2,19)            111.8618         estimate D2E/DX2                !
 ! A3    A(12,4,20)            111.9417         estimate D2E/DX2                !
 ! A4    A(13,5,21)            111.9323         estimate D2E/DX2                !
 ! A5    A(1,8,9)              109.9015         estimate D2E/DX2                !
 ! A6    A(1,8,10)             110.0462         estimate D2E/DX2                !
 ! A7    A(1,8,11)             106.5724         estimate D2E/DX2                !
 ! A8    A(9,8,10)             114.7491         estimate D2E/DX2                !
 ! A9    A(9,8,11)             108.604          estimate D2E/DX2                !
 ! A10   A(10,8,11)            106.5924         estimate D2E/DX2                !
 ! A11   A(8,9,12)             115.7829         estimate D2E/DX2                !
 ! A12   A(8,9,14)             108.8716         estimate D2E/DX2                !
 ! A13   A(8,9,15)             110.3781         estimate D2E/DX2                !
 ! A14   A(12,9,14)            105.5612         estimate D2E/DX2                !
 ! A15   A(12,9,15)            107.7181         estimate D2E/DX2                !
 ! A16   A(14,9,15)            108.2068         estimate D2E/DX2                !
 ! A17   A(8,10,13)            115.9049         estimate D2E/DX2                !
 ! A18   A(8,10,16)            110.4365         estimate D2E/DX2                !
 ! A19   A(8,10,17)            109.4375         estimate D2E/DX2                !
 ! A20   A(13,10,16)           106.1927         estimate D2E/DX2                !
 ! A21   A(13,10,17)           107.3549         estimate D2E/DX2                !
 ! A22   A(16,10,17)           107.1136         estimate D2E/DX2                !
 ! A23   A(2,11,3)             122.3986         estimate D2E/DX2                !
 ! A24   A(2,11,8)             113.1388         estimate D2E/DX2                !
 ! A25   A(3,11,8)             124.43           estimate D2E/DX2                !
 ! A26   A(4,12,6)             123.129          estimate D2E/DX2                !
 ! A27   A(4,12,9)             113.1101         estimate D2E/DX2                !
 ! A28   A(6,12,9)             123.747          estimate D2E/DX2                !
 ! A29   A(5,13,7)             123.1905         estimate D2E/DX2                !
 ! A30   A(5,13,10)            112.9931         estimate D2E/DX2                !
 ! A31   A(7,13,10)            123.7923         estimate D2E/DX2                !
 ! D1    D(18,1,8,9)           176.2563         estimate D2E/DX2                !
 ! D2    D(18,1,8,10)           48.9522         estimate D2E/DX2                !
 ! D3    D(18,1,8,11)          -66.245          estimate D2E/DX2                !
 ! D4    D(19,2,11,3)            0.7331         estimate D2E/DX2                !
 ! D5    D(19,2,11,8)          178.74           estimate D2E/DX2                !
 ! D6    D(20,4,12,6)            0.4974         estimate D2E/DX2                !
 ! D7    D(20,4,12,9)          179.1894         estimate D2E/DX2                !
 ! D8    D(21,5,13,7)           -0.6254         estimate D2E/DX2                !
 ! D9    D(21,5,13,10)        -178.9009         estimate D2E/DX2                !
 ! D10   D(1,8,9,12)            56.2214         estimate D2E/DX2                !
 ! D11   D(1,8,9,14)           -62.462          estimate D2E/DX2                !
 ! D12   D(1,8,9,15)           178.9037         estimate D2E/DX2                !
 ! D13   D(10,8,9,12)         -179.1463         estimate D2E/DX2                !
 ! D14   D(10,8,9,14)           62.1703         estimate D2E/DX2                !
 ! D15   D(10,8,9,15)          -56.464          estimate D2E/DX2                !
 ! D16   D(11,8,9,12)          -60.0057         estimate D2E/DX2                !
 ! D17   D(11,8,9,14)         -178.6891         estimate D2E/DX2                !
 ! D18   D(11,8,9,15)           62.6766         estimate D2E/DX2                !
 ! D19   D(1,8,10,13)           64.8106         estimate D2E/DX2                !
 ! D20   D(1,8,10,16)          -55.9744         estimate D2E/DX2                !
 ! D21   D(1,8,10,17)         -173.6527         estimate D2E/DX2                !
 ! D22   D(9,8,10,13)          -59.7454         estimate D2E/DX2                !
 ! D23   D(9,8,10,16)          179.4696         estimate D2E/DX2                !
 ! D24   D(9,8,10,17)           61.7913         estimate D2E/DX2                !
 ! D25   D(11,8,10,13)         179.9952         estimate D2E/DX2                !
 ! D26   D(11,8,10,16)          59.2103         estimate D2E/DX2                !
 ! D27   D(11,8,10,17)         -58.4681         estimate D2E/DX2                !
 ! D28   D(1,8,11,2)          -176.3164         estimate D2E/DX2                !
 ! D29   D(1,8,11,3)             1.6433         estimate D2E/DX2                !
 ! D30   D(9,8,11,2)           -57.9628         estimate D2E/DX2                !
 ! D31   D(9,8,11,3)           119.9969         estimate D2E/DX2                !
 ! D32   D(10,8,11,2)           66.1774         estimate D2E/DX2                !
 ! D33   D(10,8,11,3)         -115.8629         estimate D2E/DX2                !
 ! D34   D(8,9,12,4)           177.9742         estimate D2E/DX2                !
 ! D35   D(8,9,12,6)            -3.3432         estimate D2E/DX2                !
 ! D36   D(14,9,12,4)          -61.5354         estimate D2E/DX2                !
 ! D37   D(14,9,12,6)          117.1472         estimate D2E/DX2                !
 ! D38   D(15,9,12,4)           53.8978         estimate D2E/DX2                !
 ! D39   D(15,9,12,6)         -127.4196         estimate D2E/DX2                !
 ! D40   D(8,10,13,5)          144.7161         estimate D2E/DX2                !
 ! D41   D(8,10,13,7)          -33.5473         estimate D2E/DX2                !
 ! D42   D(16,10,13,5)         -92.2425         estimate D2E/DX2                !
 ! D43   D(16,10,13,7)          89.494          estimate D2E/DX2                !
 ! D44   D(17,10,13,5)          22.0747         estimate D2E/DX2                !
 ! D45   D(17,10,13,7)        -156.1887         estimate D2E/DX2                !
 --------------------------------------------------------------------------------
 Trust Radius=3.00D-01 FncErr=1.00D-07 GrdErr=1.00D-06 EigMax=2.50D+02 EigMin=1.00D-04
 Number of steps in this run=    106 maximum allowed number of steps=    126.
 GradGradGradGradGradGradGradGradGradGradGradGradGradGradGradGradGradGrad

                          Input orientation:                          
 ---------------------------------------------------------------------
 Center     Atomic      Atomic             Coordinates (Angstroms)
 Number     Number       Type             X           Y           Z
 ---------------------------------------------------------------------
      1          8           0        0.029600    0.209500    1.606900
      2          8           0       -0.855800    1.797900   -1.496200
      3          8           0       -1.355400    2.268900    0.662200
      4          8           0       -2.390800   -2.304600   -0.787100
      5          8           0        3.535100   -0.403300   -0.927300
      6          8           0       -2.555900   -0.626500    0.731700
      7          8           0        2.543800   -1.124500    0.983500
      8          6           0        0.100700    0.362000    0.194100
      9          6           0       -0.490500   -0.879100   -0.497100
     10          6           0        1.537400    0.709600   -0.226600
     11          6           0       -0.765000    1.577300   -0.158700
     12          6           0       -1.909800   -1.230500   -0.115400
     13          6           0        2.576700   -0.356800    0.030000
     14          1           0        0.112000   -1.755500   -0.228600
     15          1           0       -0.457400   -0.761400   -1.586600
     16          1           0        1.884200    1.608000    0.300000
     17          1           0        1.558900    0.936100   -1.300400
     18          1           0        0.462000    0.977100    2.018600
     19          1           0       -1.429300    2.566900   -1.701500
     20          1           0       -3.307800   -2.525200   -0.517200
     21          1           0        4.191400   -1.111600   -0.754600
 ---------------------------------------------------------------------
                    Distance matrix (angstroms):
                    1          2          3          4          5
     1  O    0.000000
     2  O    3.596690   0.000000
     3  O    2.655525   2.264979   0.000000
     4  O    4.232053   4.437291   4.908098   0.000000
     5  O    4.368778   4.944586   5.795184   6.225021   0.000000
     6  O    2.854765   3.705617   3.135183   2.269368   6.316833
     7  O    2.913655   5.123145   5.179011   5.373820   2.270234
     8  C    1.422784   2.415329   2.444507   3.779032   3.693010
     9  C    2.425360   2.880620   3.464381   2.393176   4.076385
    10  C    2.425960   2.919535   3.404361   4.983003   2.391722
    11  C    2.370572   1.358608   1.225055   4.255263   4.796288
    12  C    2.966680   3.491236   3.627371   1.355077   5.566900
    13  C    3.048775   4.330598   4.770261   5.397929   1.355403
    14  H    2.690181   3.894881   4.375224   2.622488   3.746230
    15  H    3.373167   2.591700   3.878946   2.599750   4.062385
    16  H    2.665208   3.281767   3.326107   5.896257   2.876989
    17  H    3.364387   2.571345   3.757832   5.134758   2.416312
    18  H    0.972459   3.842412   2.609887   5.174937   4.475240
    19  H    4.316391   0.981026   2.383557   5.048972   5.836672
    20  H    4.809223   5.065564   5.309072   0.981020   7.176066
    21  H    4.964128   5.872767   6.648465   6.689519   0.980940
                    6          7          8          9         10
     6  O    0.000000
     7  O    5.130141   0.000000
     8  C    2.885077   2.966744   0.000000
     9  C    2.416533   3.385170   1.538702   0.000000
    10  C    4.411191   2.416838   1.536854   2.590273   0.000000
    11  C    2.976049   4.421821   1.533251   2.494748   2.461414
    12  C    1.224679   4.588395   2.583400   1.511155   3.957214
    13  C    5.187360   1.224585   2.583443   3.155685   1.511025
    14  H    3.051968   2.789444   2.159308   1.096894   2.847541
    15  H    3.129923   3.967929   2.178163   1.096339   2.827131
    16  H    4.989373   2.892888   2.178211   3.529906   1.097588
    17  H    4.847961   3.229907   2.165518   2.853118   1.097639
    18  H    3.651762   3.134014   1.959001   3.268254   2.503790
    19  H    4.169831   6.051544   3.285694   3.769196   3.798184
    20  H    2.393777   6.201232   4.523245   3.263009   5.833039
    21  H    6.926072   2.394941   4.450321   4.694736   3.261789
                   11         12         13         14         15
    11  C    0.000000
    12  C    3.032521   0.000000
    13  C    3.865658   4.573093   0.000000
    14  H    3.446965   2.091916   2.845695   0.000000
    15  H    2.757360   2.119894   3.461627   1.776687   0.000000
    16  H    2.688793   4.756477   2.100689   3.838391   3.828369
    17  H    2.667420   4.257964   2.116004   3.238362   2.651204
    18  H    2.570293   3.879805   3.194648   3.555209   4.106720
    19  H    1.949573   4.143289   5.253013   4.819562   3.469203
    20  H    4.839924   1.947330   6.295135   3.517209   3.518435
    21  H    5.670201   6.135744   1.947454   4.163266   4.735631
                   16         17         18         19         20
    16  H    0.000000
    17  H    1.765942   0.000000
    18  H    2.318248   3.495802   0.000000
    19  H    3.988079   3.427788   4.465828   0.000000
    20  H    6.686406   6.023186   5.736530   5.555251   0.000000
    21  H    3.719083   3.379501   5.095265   6.783823   7.634961
                   21
    21  H    0.000000
 Stoichiometry    C6H8O7
 Framework group  C1[X(C6H8O7)]
 Deg. of freedom    57
 Full point group                 C1      NOp   1
 Largest Abelian subgroup         C1      NOp   1
 Largest concise Abelian subgroup C1      NOp   1
                         Standard orientation:                         
 ---------------------------------------------------------------------
 Center     Atomic      Atomic             Coordinates (Angstroms)
 Number     Number       Type             X           Y           Z
 ---------------------------------------------------------------------
      1          8           0        0.024702    0.216218    1.628753
      2          8           0       -0.853892    1.806300   -1.475420
      3          8           0       -1.346432    2.284413    0.683038
      4          8           0       -2.418307   -2.283504   -0.757325
      5          8           0        3.521381   -0.426724   -0.910161
      6          8           0       -2.568394   -0.601830    0.759078
      7          8           0        2.527852   -1.137495    1.003387
      8          6           0        0.094627    0.365960    0.215599
      9          6           0       -0.506949   -0.871777   -0.472671
     10          6           0        1.533192    0.702161   -0.207984
     11          6           0       -0.762554    1.587133   -0.137721
     12          6           0       -1.928206   -1.211970   -0.088111
     13          6           0        2.564922   -0.371563    0.048619
     14          1           0        0.089431   -1.752228   -0.203761
     15          1           0       -0.474753   -0.756042   -1.562409
     16          1           0        1.887548    1.598775    0.316627
     17          1           0        1.554625    0.926805   -1.282175
     18          1           0        0.463491    0.981215    2.038532
     19          1           0       -1.421972    2.579237   -1.681008
     20          1           0       -3.336486   -2.496826   -0.485587
     21          1           0        4.172658   -1.139632   -0.737404
 ---------------------------------------------------------------------
 Rotational constants (GHZ):           1.0393210           0.5690648           0.4691618
 Standard basis: 6-311++G(d,p) (5D, 7F)
 There are   355 symmetry adapted cartesian basis functions of A   symmetry.
 There are   342 symmetry adapted basis functions of A   symmetry.
   342 basis functions,   540 primitive gaussians,   355 cartesian basis functions
    50 alpha electrons       50 beta electrons
       nuclear repulsion energy       862.0299193266 Hartrees.
 NAtoms=   21 NActive=   21 NUniq=   21 SFac= 1.00D+00 NAtFMM=   60 NAOKFM=F Big=F
 Integral buffers will be    131072 words long.
 Raffenetti 2 integral format.
 Two-electron integral symmetry is turned on.
 R6APFD:  NTU= -4 IXU= 1 FactS= 1.050
 Nuclear repulsion after empirical dispersion term =      862.0072184693 Hartrees.
 One-electron integrals computed using PRISM.
 NBasis=   342 RedAO= T EigKep=  4.33D-06  NBF=   342
 NBsUse=   342 1.00D-06 EigRej= -1.00D+00 NBFU=   342
 ExpMin= 3.60D-02 ExpMax= 8.59D+03 ExpMxC= 1.30D+03 IAcc=3 IRadAn=         5 AccDes= 0.00D+00
 Harris functional with IExCor= 1009 and IRadAn=       5 diagonalized for initial guess.
 HarFok:  IExCor= 1009 AccDes= 0.00D+00 IRadAn=         5 IDoV= 1 UseB2=F ITyADJ=14
 ICtDFT=  3500011 ScaDFX=  1.000000  1.000000  1.000000  1.000000
 FoFCou: FMM=F IPFlag=           0 FMFlag=      100000 FMFlg1=           0
         NFxFlg=           0 DoJE=T BraDBF=F KetDBF=T FulRan=T
         wScrn=  0.000000 ICntrl=       500 IOpCl=  0 I1Cent=   200000004 NGrid=           0
         NMat0=    1 NMatS0=      1 NMatT0=    0 NMatD0=    1 NMtDS0=    0 NMtDT0=    0
 Petite list used in FoFCou.
 Requested convergence on RMS density matrix=1.00D-08 within  32 cycles.
 Requested convergence on MAX density matrix=1.00D-06.
 Requested convergence on             energy=1.00D-06.
 No special actions if energy rises.
 SCF Done:  E(RM08HX) =  -760.032811795     A.U. after   16 cycles
            NFock= 16  Conv=0.20D-08     -V/T= 2.0042
 QCSCF skips out because SCF is already converged.

 **********************************************************************

            Population analysis using the SCF Density.

 **********************************************************************

 Orbital symmetries:
       Occupied  (A) (A) (A) (A) (A) (A) (A) (A) (A) (A) (A) (A)
                 (A) (A) (A) (A) (A) (A) (A) (A) (A) (A) (A) (A)
                 (A) (A) (A) (A) (A) (A) (A) (A) (A) (A) (A) (A)
                 (A) (A) (A) (A) (A) (A) (A) (A) (A) (A) (A) (A)
                 (A) (A)
       Virtual   (A) (A) (A) (A) (A) (A) (A) (A) (A) (A) (A) (A)
                 (A) (A) (A) (A) (A) (A) (A) (A) (A) (A) (A) (A)
                 (A) (A) (A) (A) (A) (A) (A) (A) (A) (A) (A) (A)
                 (A) (A) (A) (A) (A) (A) (A) (A) (A) (A) (A) (A)
                 (A) (A) (A) (A) (A) (A) (A) (A) (A) (A) (A) (A)
                 (A) (A) (A) (A) (A) (A) (A) (A) (A) (A) (A) (A)
                 (A) (A) (A) (A) (A) (A) (A) (A) (A) (A) (A) (A)
                 (A) (A) (A) (A) (A) (A) (A) (A) (A) (A) (A) (A)
                 (A) (A) (A) (A) (A) (A) (A) (A) (A) (A) (A) (A)
                 (A) (A) (A) (A) (A) (A) (A) (A) (A) (A) (A) (A)
                 (A) (A) (A) (A) (A) (A) (A) (A) (A) (A) (A) (A)
                 (A) (A) (A) (A) (A) (A) (A) (A) (A) (A) (A) (A)
                 (A) (A) (A) (A) (A) (A) (A) (A) (A) (A) (A) (A)
                 (A) (A) (A) (A) (A) (A) (A) (A) (A) (A) (A) (A)
                 (A) (A) (A) (A) (A) (A) (A) (A) (A) (A) (A) (A)
                 (A) (A) (A) (A) (A) (A) (A) (A) (A) (A) (A) (A)
                 (A) (A) (A) (A) (A) (A) (A) (A) (A) (A) (A) (A)
                 (A) (A) (A) (A) (A) (A) (A) (A) (A) (A) (A) (A)
                 (A) (A) (A) (A) (A) (A) (A) (A) (A) (A) (A) (A)
                 (A) (A) (A) (A) (A) (A) (A) (A) (A) (A) (A) (A)
                 (A) (A) (A) (A) (A) (A) (A) (A) (A) (A) (A) (A)
                 (A) (A) (A) (A) (A) (A) (A) (A) (A) (A) (A) (A)
                 (A) (A) (A) (A) (A) (A) (A) (A) (A) (A) (A) (A)
                 (A) (A) (A) (A) (A) (A) (A) (A) (A) (A) (A) (A)
                 (A) (A) (A) (A)
 The electronic state is 1-A.
 Alpha  occ. eigenvalues --  -19.68190 -19.68001 -19.67023 -19.62051 -19.61891
 Alpha  occ. eigenvalues --  -19.61811 -19.60845 -10.69741 -10.68777 -10.68651
 Alpha  occ. eigenvalues --  -10.64396 -10.58046 -10.57349  -1.25010  -1.24769
 Alpha  occ. eigenvalues --   -1.23796  -1.16675  -1.15080  -1.14050  -1.13769
 Alpha  occ. eigenvalues --   -0.94387  -0.88296  -0.81544  -0.74072  -0.73085
 Alpha  occ. eigenvalues --   -0.68579  -0.63594  -0.61610  -0.59839  -0.59049
 Alpha  occ. eigenvalues --   -0.58496  -0.58106  -0.56391  -0.56254  -0.55092
 Alpha  occ. eigenvalues --   -0.53480  -0.52202  -0.50284  -0.48910  -0.47833
 Alpha  occ. eigenvalues --   -0.47252  -0.46980  -0.43521  -0.41378  -0.41193
 Alpha  occ. eigenvalues --   -0.40146  -0.38766  -0.37738  -0.36726  -0.35149
 Alpha virt. eigenvalues --   -0.04237  -0.03082  -0.02507  -0.01821  -0.00483
 Alpha virt. eigenvalues --    0.00235   0.00506   0.01170   0.02021   0.02382
 Alpha virt. eigenvalues --    0.02856   0.03418   0.04048   0.04720   0.04987
 Alpha virt. eigenvalues --    0.05771   0.06062   0.07255   0.08269   0.08750
 Alpha virt. eigenvalues --    0.09022   0.09504   0.10177   0.11143   0.11212
 Alpha virt. eigenvalues --    0.11454   0.12172   0.12801   0.13179   0.13757
 Alpha virt. eigenvalues --    0.14158   0.14740   0.15006   0.15653   0.18295
 Alpha virt. eigenvalues --    0.18584   0.19418   0.20173   0.20638   0.21095
 Alpha virt. eigenvalues --    0.21487   0.22201   0.22741   0.23746   0.23900
 Alpha virt. eigenvalues --    0.24742   0.25158   0.25711   0.26492   0.26703
 Alpha virt. eigenvalues --    0.27277   0.27715   0.28275   0.28454   0.29740
 Alpha virt. eigenvalues --    0.30218   0.30970   0.31349   0.31695   0.32554
 Alpha virt. eigenvalues --    0.32719   0.33387   0.33827   0.34224   0.35340
 Alpha virt. eigenvalues --    0.35700   0.36675   0.36888   0.37731   0.38674
 Alpha virt. eigenvalues --    0.39070   0.39750   0.39890   0.40723   0.41030
 Alpha virt. eigenvalues --    0.41759   0.42783   0.44178   0.46143   0.47228
 Alpha virt. eigenvalues --    0.49521   0.51071   0.52949   0.53395   0.54105
 Alpha virt. eigenvalues --    0.55259   0.56453   0.56946   0.57846   0.59375
 Alpha virt. eigenvalues --    0.61232   0.62286   0.62973   0.65545   0.66067
 Alpha virt. eigenvalues --    0.68740   0.69624   0.71132   0.71289   0.72797
 Alpha virt. eigenvalues --    0.73299   0.75220   0.75908   0.76495   0.77453
 Alpha virt. eigenvalues --    0.79012   0.79099   0.86117   0.87025   0.91502
 Alpha virt. eigenvalues --    0.93155   0.97584   0.97938   1.00277   1.03027
 Alpha virt. eigenvalues --    1.05313   1.09761   1.10597   1.11267   1.12642
 Alpha virt. eigenvalues --    1.14399   1.16608   1.16924   1.18969   1.20604
 Alpha virt. eigenvalues --    1.20940   1.22111   1.22944   1.23118   1.24603
 Alpha virt. eigenvalues --    1.25279   1.25569   1.26501   1.27246   1.29121
 Alpha virt. eigenvalues --    1.29839   1.30390   1.31921   1.33227   1.34485
 Alpha virt. eigenvalues --    1.35070   1.38389   1.41603   1.43370   1.46175
 Alpha virt. eigenvalues --    1.47902   1.49818   1.50339   1.50906   1.52584
 Alpha virt. eigenvalues --    1.53245   1.55505   1.56156   1.58156   1.58583
 Alpha virt. eigenvalues --    1.59679   1.61091   1.62394   1.63431   1.63968
 Alpha virt. eigenvalues --    1.67446   1.68158   1.70323   1.74643   1.76623
 Alpha virt. eigenvalues --    1.77309   1.80166   1.81172   1.81875   1.84787
 Alpha virt. eigenvalues --    1.86395   1.89008   1.90652   1.92145   1.94899
 Alpha virt. eigenvalues --    1.95254   1.97944   2.00564   2.03073   2.03677
 Alpha virt. eigenvalues --    2.07901   2.09416   2.12573   2.13901   2.15978
 Alpha virt. eigenvalues --    2.17529   2.22395   2.24715   2.29897   2.30581
 Alpha virt. eigenvalues --    2.37086   2.41448   2.47317   2.54378   2.55185
 Alpha virt. eigenvalues --    2.56679   2.56931   2.58862   2.59517   2.61495
 Alpha virt. eigenvalues --    2.65123   2.66202   2.71899   2.78128   2.78662
 Alpha virt. eigenvalues --    2.83131   2.84560   2.87755   2.93389   2.94683
 Alpha virt. eigenvalues --    2.96031   2.96902   2.99088   3.00149   3.02798
 Alpha virt. eigenvalues --    3.04362   3.04767   3.07628   3.09070   3.09630
 Alpha virt. eigenvalues --    3.10945   3.14299   3.16407   3.19853   3.20686
 Alpha virt. eigenvalues --    3.21148   3.23705   3.24228   3.25158   3.25736
 Alpha virt. eigenvalues --    3.30363   3.34743   3.37784   3.41652   3.42923
 Alpha virt. eigenvalues --    3.43670   3.44454   3.55325   3.63446   3.64215
 Alpha virt. eigenvalues --    3.67013   3.69211   3.71382   3.76591   3.80470
 Alpha virt. eigenvalues --    3.82747   3.86984   3.88041   3.92216   3.93863
 Alpha virt. eigenvalues --    4.10983   4.12295   4.13225   4.14196   4.16098
 Alpha virt. eigenvalues --    4.23443   4.30801   4.44533   5.08312   5.09138
 Alpha virt. eigenvalues --    5.11258   5.15450   5.17769   5.20585   5.25516
 Alpha virt. eigenvalues --    5.31105   5.34048   5.36442   5.46149   5.46519
 Alpha virt. eigenvalues --    5.47648   5.57333   5.66445   5.67758   5.69358
 Alpha virt. eigenvalues --    5.80575   5.93065   5.94599   5.95897  23.76116
 Alpha virt. eigenvalues --   23.81208  23.83678  23.84260  23.93722  23.95962
 Alpha virt. eigenvalues --   49.87098  49.88195  49.89793  49.97244  49.99889
 Alpha virt. eigenvalues --   50.01793  50.03340
          Condensed to atoms (all electrons):
               1          2          3          4          5          6
     1  O    7.781172   0.021472   0.010505  -0.004676   0.000012  -0.026641
     2  O    0.021472   8.133289  -0.167478   0.000031  -0.000066  -0.015741
     3  O    0.010505  -0.167478   7.805804  -0.000549   0.000062  -0.003357
     4  O   -0.004676   0.000031  -0.000549   8.048458   0.000085  -0.122990
     5  O    0.000012  -0.000066   0.000062   0.000085   7.988649  -0.000072
     6  O   -0.026641  -0.015741  -0.003357  -0.122990  -0.000072   7.889054
     7  O   -0.005180  -0.000033  -0.000047   0.000339  -0.143600  -0.000008
     8  C    0.114949  -0.341859   0.088411   0.033758  -0.002501   0.109729
     9  C   -0.108843   0.056465  -0.029776  -0.280668  -0.022688  -0.102684
    10  C    0.209871  -0.029895  -0.010946  -0.012141  -0.329728   0.027385
    11  C    0.045448   0.073094   0.528743  -0.020055  -0.006959   0.118692
    12  C   -0.066344   0.101553  -0.042656   0.264368  -0.000184   0.344316
    13  C   -0.112589   0.061011   0.006506  -0.001287   0.377933  -0.014919
    14  H   -0.011309  -0.000987   0.000063   0.002645  -0.002339   0.004229
    15  H    0.005463   0.002973   0.000652  -0.002981   0.001645  -0.007227
    16  H   -0.030732   0.008220  -0.008406  -0.000247   0.012054  -0.002047
    17  H    0.011963  -0.003206   0.007063   0.000193  -0.025739   0.002433
    18  H    0.228897  -0.002480  -0.007170  -0.000739  -0.000928   0.001194
    19  H    0.002353   0.226479  -0.025841   0.000248  -0.000075   0.000962
    20  H   -0.001181   0.000937  -0.000571   0.260896  -0.000041  -0.015092
    21  H   -0.000367   0.000409  -0.000069   0.000040   0.270343  -0.000085
               7          8          9         10         11         12
     1  O   -0.005180   0.114949  -0.108843   0.209871   0.045448  -0.066344
     2  O   -0.000033  -0.341859   0.056465  -0.029895   0.073094   0.101553
     3  O   -0.000047   0.088411  -0.029776  -0.010946   0.528743  -0.042656
     4  O    0.000339   0.033758  -0.280668  -0.012141  -0.020055   0.264368
     5  O   -0.143600  -0.002501  -0.022688  -0.329728  -0.006959  -0.000184
     6  O   -0.000008   0.109729  -0.102684   0.027385   0.118692   0.344316
     7  O    7.873744   0.095776  -0.046459  -0.066571   0.032636   0.002587
     8  C    0.095776  23.083852  -3.261984  -5.771937  -7.290358  -0.593132
     9  C   -0.046459  -3.261984  11.807591   0.167959  -0.907881  -1.727337
    10  C   -0.066571  -5.771937   0.167959  13.212903   1.625855  -0.650610
    11  C    0.032636  -7.290358  -0.907881   1.625855  13.767230  -0.249968
    12  C    0.002587  -0.593132  -1.727337  -0.650610  -0.249968   8.392835
    13  C    0.456639  -0.399292   0.697070  -1.890759  -1.425751  -0.081943
    14  H    0.023624  -0.087458   0.438547  -0.091750   0.036978  -0.012772
    15  H    0.001065  -0.079505   0.422909  -0.012016  -0.077467   0.005240
    16  H    0.010766  -0.116739   0.110650   0.379710  -0.089894  -0.012059
    17  H   -0.009470   0.225815  -0.209526   0.344394   0.023201  -0.007302
    18  H   -0.011012   0.330186   0.016229  -0.096743  -0.197415  -0.022699
    19  H   -0.000031  -0.263014   0.008316   0.032074   0.258809  -0.000839
    20  H    0.000003  -0.006292  -0.126853  -0.008602  -0.008685   0.141422
    21  H   -0.016686  -0.036741   0.013634  -0.099170  -0.006470   0.002881
              13         14         15         16         17         18
     1  O   -0.112589  -0.011309   0.005463  -0.030732   0.011963   0.228897
     2  O    0.061011  -0.000987   0.002973   0.008220  -0.003206  -0.002480
     3  O    0.006506   0.000063   0.000652  -0.008406   0.007063  -0.007170
     4  O   -0.001287   0.002645  -0.002981  -0.000247   0.000193  -0.000739
     5  O    0.377933  -0.002339   0.001645   0.012054  -0.025739  -0.000928
     6  O   -0.014919   0.004229  -0.007227  -0.002047   0.002433   0.001194
     7  O    0.456639   0.023624   0.001065   0.010766  -0.009470  -0.011012
     8  C   -0.399292  -0.087458  -0.079505  -0.116739   0.225815   0.330186
     9  C    0.697070   0.438547   0.422909   0.110650  -0.209526   0.016229
    10  C   -1.890759  -0.091750  -0.012016   0.379710   0.344394  -0.096743
    11  C   -1.425751   0.036978  -0.077467  -0.089894   0.023201  -0.197415
    12  C   -0.081943  -0.012772   0.005240  -0.012059  -0.007302  -0.022699
    13  C    8.147208  -0.042228   0.051137   0.035945  -0.078572   0.024177
    14  H   -0.042228   0.430380  -0.019978  -0.005384   0.005315   0.000882
    15  H    0.051137  -0.019978   0.399811   0.004109  -0.008424  -0.000314
    16  H    0.035945  -0.005384   0.004109   0.446401  -0.053618  -0.003732
    17  H   -0.078572   0.005315  -0.008424  -0.053618   0.450394   0.004385
    18  H    0.024177   0.000882  -0.000314  -0.003732   0.004385   0.423605
    19  H   -0.011166  -0.001241  -0.001174   0.004816  -0.007698  -0.002659
    20  H   -0.001050   0.002681   0.002330  -0.000196  -0.000113  -0.000406
    21  H    0.110015  -0.001668   0.000319  -0.001997   0.005777  -0.000167
              19         20         21
     1  O    0.002353  -0.001181  -0.000367
     2  O    0.226479   0.000937   0.000409
     3  O   -0.025841  -0.000571  -0.000069
     4  O    0.000248   0.260896   0.000040
     5  O   -0.000075  -0.000041   0.270343
     6  O    0.000962  -0.015092  -0.000085
     7  O   -0.000031   0.000003  -0.016686
     8  C   -0.263014  -0.006292  -0.036741
     9  C    0.008316  -0.126853   0.013634
    10  C    0.032074  -0.008602  -0.099170
    11  C    0.258809  -0.008685  -0.006470
    12  C   -0.000839   0.141422   0.002881
    13  C   -0.011166  -0.001050   0.110015
    14  H   -0.001241   0.002681  -0.001668
    15  H   -0.001174   0.002330   0.000319
    16  H    0.004816  -0.000196  -0.001997
    17  H   -0.007698  -0.000113   0.005777
    18  H   -0.002659  -0.000406  -0.000167
    19  H    0.435624   0.000071   0.000036
    20  H    0.000071   0.426617  -0.000003
    21  H    0.000036  -0.000003   0.427255
 Mulliken charges:
               1
     1  O   -0.064243
     2  O   -0.124187
     3  O   -0.150943
     4  O   -0.164727
     5  O   -0.115863
     6  O   -0.187131
     7  O   -0.198081
     8  C    0.168334
     9  C   -0.914671
    10  C   -0.929283
    11  C   -0.229782
    12  C    0.212643
    13  C    0.091916
    14  H    0.331772
    15  H    0.311433
    16  H    0.312379
    17  H    0.322733
    18  H    0.316909
    19  H    0.343947
    20  H    0.334128
    21  H    0.332715
 Sum of Mulliken charges =  -0.00000
 Mulliken charges with hydrogens summed into heavy atoms:
               1
     1  O    0.252666
     2  O    0.219761
     3  O   -0.150943
     4  O    0.169402
     5  O    0.216852
     6  O   -0.187131
     7  O   -0.198081
     8  C    0.168334
     9  C   -0.271466
    10  C   -0.294171
    11  C   -0.229782
    12  C    0.212643
    13  C    0.091916
 Electronic spatial extent (au):  <R**2>=           2476.0534
 Charge=              0.0000 electrons
 Dipole moment (field-independent basis, Debye):
    X=              2.2319    Y=              0.2974    Z=             -4.4160  Tot=              4.9569
 Quadrupole moment (field-independent basis, Debye-Ang):
   XX=            -65.8863   YY=            -69.9150   ZZ=            -80.1705
   XY=              5.8399   XZ=              5.6498   YZ=             -0.4183
 Traceless Quadrupole moment (field-independent basis, Debye-Ang):
   XX=              6.1043   YY=              2.0756   ZZ=             -8.1799
   XY=              5.8399   XZ=              5.6498   YZ=             -0.4183
 Octapole moment (field-independent basis, Debye-Ang**2):
  XXX=             20.5055  YYY=             -0.6298  ZZZ=              0.9632  XYY=            -11.3649
  XXY=            -38.9990  XXZ=            -28.2426  XZZ=             -3.0633  YZZ=             15.0717
  YYZ=            -15.9382  XYZ=             25.5838
 Hexadecapole moment (field-independent basis, Debye-Ang**3):
 XXXX=          -1391.7566 YYYY=           -813.4445 ZZZZ=           -394.0679 XXXY=              6.3808
 XXXZ=             15.1464 YYYX=             28.0225 YYYZ=            -59.8425 ZZZX=             15.2264
 ZZZY=              1.5174 XXYY=           -322.6236 XXZZ=           -388.2705 YYZZ=           -193.8142
 XXYZ=             28.3110 YYXZ=             19.4795 ZZXY=             -9.7226
 N-N= 8.620072184693D+02 E-N=-3.509629568761D+03  KE= 7.568756652687D+02
 R6APFD:  NTU= -4 IXU= 1 FactS= 1.050
 Calling FoFJK, ICntrl=      2127 FMM=F ISym2X=0 I1Cent= 0 IOpClX= 0 NMat=1 NMatS=1 NMatT=0.
 ***** Axes restored to original set *****
 -------------------------------------------------------------------
 Center     Atomic                   Forces (Hartrees/Bohr)
 Number     Number              X              Y              Z
 -------------------------------------------------------------------
      1        8           0.006748522    0.000195736   -0.010006182
      2        8          -0.001376337    0.002813462    0.000488070
      3        8           0.030614275   -0.025238790   -0.033206088
      4        8          -0.001358451    0.001926364    0.001339356
      5        8           0.000697036   -0.002658087    0.004542844
      6        8           0.018664496   -0.021870964   -0.034281809
      7        8           0.005768541    0.024521954   -0.033971948
      8        6          -0.005998190    0.006159310    0.029438438
      9        6           0.009291441   -0.008363403   -0.003196351
     10        6           0.005786189   -0.002080386   -0.022201604
     11        6          -0.041716599    0.038408379    0.020370634
     12        6          -0.033575002    0.023190781    0.039088599
     13        6           0.000129040   -0.041233320    0.031755735
     14        1           0.004190373   -0.000443892   -0.001007016
     15        1           0.002948299    0.000208450   -0.000812625
     16        1          -0.003139991    0.002738968    0.000965279
     17        1           0.000004974    0.003284997    0.000142457
     18        1          -0.008868319   -0.009485689   -0.004391868
     19        1           0.008758534   -0.012922462    0.010620221
     20        1           0.016858471    0.009903990    0.000581046
     21        1          -0.014427301    0.010944604    0.003742810
 -------------------------------------------------------------------
 Cartesian Forces:  Max     0.041716599 RMS     0.017436911

 GradGradGradGradGradGradGradGradGradGradGradGradGradGradGradGradGradGrad
 Berny optimization.
 FormGI is forming the generalized inverse of G from B-inverse, IUseBI=4.
 Internal  Forces:  Max     0.051253017 RMS     0.010597026
 Search for a local minimum.
 Step number   1 out of a maximum of  106
 All quantities printed in internal units (Hartrees-Bohrs-Radians)
 Mixed Optimization -- RFO/linear search
 Second derivative matrix not updated -- first step.
 ITU=  0
     Eigenvalues ---    0.00254   0.00278   0.00326   0.00618   0.00620
     Eigenvalues ---    0.00792   0.01033   0.01034   0.01390   0.02239
     Eigenvalues ---    0.02282   0.02286   0.03746   0.03775   0.04518
     Eigenvalues ---    0.05215   0.05251   0.05872   0.07947   0.09884
     Eigenvalues ---    0.09945   0.13128   0.13159   0.16000   0.16000
     Eigenvalues ---    0.16000   0.16000   0.16715   0.16986   0.22021
     Eigenvalues ---    0.22067   0.24991   0.24993   0.24996   0.25000
     Eigenvalues ---    0.25000   0.25000   0.28634   0.28799   0.29125
     Eigenvalues ---    0.31235   0.31248   0.33945   0.33950   0.34028
     Eigenvalues ---    0.34090   0.42044   0.51186   0.51187   0.51203
     Eigenvalues ---    0.52878   0.53230   0.53888   0.53955   0.93178
     Eigenvalues ---    0.93340   0.93380
 RFO step:  Lambda=-2.63105229D-02 EMin= 2.53993208D-03
 Linear search not attempted -- first point.
 Iteration  1 RMS(Cart)=  0.08911594 RMS(Int)=  0.00305339
 Iteration  2 RMS(Cart)=  0.00405196 RMS(Int)=  0.00064067
 Iteration  3 RMS(Cart)=  0.00000746 RMS(Int)=  0.00064064
 Iteration  4 RMS(Cart)=  0.00000000 RMS(Int)=  0.00064064
 Variable       Old X    -DE/DX   Delta X   Delta X   Delta X     New X
                                 (Linear)    (Quad)   (Total)
    R1        2.68867  -0.01320   0.00000  -0.02954  -0.02954   2.65914
    R2        1.83768  -0.01329   0.00000  -0.02394  -0.02394   1.81374
    R3        2.56740  -0.01307   0.00000  -0.02340  -0.02340   2.54399
    R4        1.85387  -0.01747   0.00000  -0.03246  -0.03246   1.82140
    R5        2.31502  -0.05125   0.00000  -0.05349  -0.05349   2.26152
    R6        2.56072  -0.01583   0.00000  -0.02798  -0.02798   2.53274
    R7        1.85386  -0.01782   0.00000  -0.03312  -0.03312   1.82074
    R8        2.56134  -0.01584   0.00000  -0.02803  -0.02803   2.53331
    R9        1.85371  -0.01690   0.00000  -0.03139  -0.03139   1.82232
   R10        2.31431  -0.04434   0.00000  -0.04621  -0.04621   2.26810
   R11        2.31413  -0.04198   0.00000  -0.04372  -0.04372   2.27041
   R12        2.90773  -0.01099   0.00000  -0.03514  -0.03514   2.87259
   R13        2.90423  -0.00174   0.00000  -0.00555  -0.00555   2.89869
   R14        2.89742   0.00492   0.00000   0.01550   0.01550   2.91293
   R15        2.85567  -0.00191   0.00000  -0.00563  -0.00563   2.85003
   R16        2.07283   0.00241   0.00000   0.00657   0.00657   2.07940
   R17        2.07178   0.00092   0.00000   0.00250   0.00250   2.07428
   R18        2.85542   0.00159   0.00000   0.00470   0.00470   2.86012
   R19        2.07414   0.00171   0.00000   0.00468   0.00468   2.07882
   R20        2.07424   0.00054   0.00000   0.00147   0.00147   2.07571
    A1        1.88974   0.00245   0.00000   0.01315   0.01315   1.90289
    A2        1.95236  -0.01325   0.00000  -0.07114  -0.07114   1.88122
    A3        1.95375  -0.01492   0.00000  -0.08008  -0.08008   1.87368
    A4        1.95359  -0.01380   0.00000  -0.07409  -0.07409   1.87950
    A5        1.91814  -0.00454   0.00000  -0.03404  -0.03365   1.88449
    A6        1.92067   0.00975   0.00000   0.05715   0.05485   1.97552
    A7        1.86004   0.00125   0.00000   0.04316   0.04253   1.90257
    A8        2.00275  -0.01110   0.00000  -0.08169  -0.08135   1.92140
    A9        1.89550   0.00695   0.00000   0.02709   0.02669   1.92219
   A10        1.86039  -0.00135   0.00000  -0.00165  -0.00274   1.85764
   A11        2.02079  -0.01032   0.00000  -0.04115  -0.04109   1.97971
   A12        1.90017  -0.00014   0.00000  -0.00496  -0.00445   1.89572
   A13        1.92646   0.00250   0.00000   0.00077   0.00066   1.92712
   A14        1.84239   0.00726   0.00000   0.04804   0.04798   1.89037
   A15        1.88003   0.00319   0.00000   0.00912   0.00867   1.88870
   A16        1.88857  -0.00202   0.00000  -0.00880  -0.00916   1.87941
   A17        2.02292  -0.01093   0.00000  -0.04400  -0.04393   1.97899
   A18        1.92748  -0.00136   0.00000  -0.02105  -0.02079   1.90669
   A19        1.91005   0.00430   0.00000   0.02029   0.02063   1.93068
   A20        1.85341   0.00715   0.00000   0.03589   0.03519   1.88861
   A21        1.87370   0.00342   0.00000   0.01910   0.01916   1.89285
   A22        1.86948  -0.00200   0.00000  -0.00724  -0.00753   1.86196
   A23        2.13626   0.00523   0.00000   0.01991   0.01843   2.15469
   A24        1.97465  -0.00837   0.00000  -0.02937  -0.03084   1.94381
   A25        2.17171   0.00325   0.00000   0.01262   0.01116   2.18287
   A26        2.14901   0.00163   0.00000   0.00626   0.00580   2.15480
   A27        1.97414  -0.01300   0.00000  -0.04672  -0.04719   1.92695
   A28        2.15979   0.01141   0.00000   0.04163   0.04115   2.20094
   A29        2.15008  -0.00138   0.00000  -0.00455  -0.00498   2.14510
   A30        1.97210  -0.00899   0.00000  -0.03209  -0.03253   1.93957
   A31        2.16058   0.01042   0.00000   0.03813   0.03769   2.19827
    D1        3.07625  -0.00391   0.00000   0.00214   0.00201   3.07826
    D2        0.85438   0.00663   0.00000   0.09084   0.09238   0.94676
    D3       -1.15619   0.00265   0.00000   0.04073   0.03932  -1.11687
    D4        0.01279  -0.00195   0.00000  -0.05469  -0.05482  -0.04203
    D5        3.11960   0.00132   0.00000   0.04168   0.04181  -3.12178
    D6        0.00868  -0.00142   0.00000  -0.03498  -0.03447  -0.02578
    D7        3.12745   0.00071   0.00000   0.02054   0.02003  -3.13571
    D8       -0.01092   0.00022   0.00000   0.00976   0.00918  -0.00174
    D9       -3.12241  -0.00191   0.00000  -0.04412  -0.04353   3.11724
   D10        0.98125   0.00348   0.00000   0.08881   0.08758   1.06883
   D11       -1.09017   0.00097   0.00000   0.05746   0.05619  -1.03398
   D12        3.12246   0.00203   0.00000   0.07076   0.06964  -3.09109
   D13       -3.12669   0.00442   0.00000   0.07568   0.07682  -3.04987
   D14        1.08508   0.00191   0.00000   0.04433   0.04542   1.13050
   D15       -0.98548   0.00297   0.00000   0.05763   0.05887  -0.92661
   D16       -1.04730   0.00054   0.00000   0.04048   0.04052  -1.00678
   D17       -3.11871  -0.00197   0.00000   0.00913   0.00912  -3.10960
   D18        1.09391  -0.00091   0.00000   0.02243   0.02257   1.11648
   D19        1.13116  -0.00304   0.00000  -0.01906  -0.01964   1.11152
   D20       -0.97694  -0.00356   0.00000  -0.01827  -0.01939  -0.99632
   D21       -3.03081  -0.00292   0.00000  -0.00922  -0.01006  -3.04087
   D22       -1.04275   0.00357   0.00000   0.04227   0.04352  -0.99924
   D23        3.13234   0.00305   0.00000   0.04306   0.04377  -3.10708
   D24        1.07846   0.00369   0.00000   0.05211   0.05310   1.13156
   D25        3.14151   0.00258   0.00000   0.05944   0.05957  -3.08211
   D26        1.03341   0.00206   0.00000   0.06023   0.05982   1.09323
   D27       -1.02046   0.00271   0.00000   0.06928   0.06914  -0.95132
   D28       -3.07730   0.00447   0.00000   0.05063   0.04996  -3.02735
   D29        0.02868   0.00786   0.00000   0.14943   0.14861   0.17729
   D30       -1.01164   0.00342   0.00000   0.04811   0.04882  -0.96282
   D31        2.09434   0.00681   0.00000   0.14691   0.14748   2.24182
   D32        1.15501  -0.00673   0.00000  -0.03565  -0.03547   1.11954
   D33       -2.02219  -0.00334   0.00000   0.06315   0.06318  -1.95901
   D34        3.10623   0.00009   0.00000   0.00080   0.00087   3.10711
   D35       -0.05835   0.00208   0.00000   0.05617   0.05656  -0.00179
   D36       -1.07400  -0.00110   0.00000   0.00433   0.00375  -1.07024
   D37        2.04461   0.00090   0.00000   0.05970   0.05944   2.10405
   D38        0.94069   0.00159   0.00000   0.02180   0.02182   0.96251
   D39       -2.22389   0.00359   0.00000   0.07717   0.07751  -2.14638
   D40        2.52577   0.00302   0.00000   0.05928   0.05965   2.58543
   D41       -0.58551   0.00111   0.00000   0.00589   0.00590  -0.57962
   D42       -1.60994  -0.00048   0.00000   0.03047   0.03020  -1.57974
   D43        1.56197  -0.00239   0.00000  -0.02292  -0.02356   1.53841
   D44        0.38528   0.00220   0.00000   0.04799   0.04844   0.43371
   D45       -2.72601   0.00029   0.00000  -0.00540  -0.00532  -2.73133
         Item               Value     Threshold  Converged?
 Maximum Force            0.051253     0.000450     NO 
 RMS     Force            0.010597     0.000300     NO 
 Maximum Displacement     0.277926     0.001800     NO 
 RMS     Displacement     0.090616     0.001200     NO 
 Predicted change in Energy=-1.588727D-02
 GradGradGradGradGradGradGradGradGradGradGradGradGradGradGradGradGradGrad

                          Input orientation:                          
 ---------------------------------------------------------------------
 Center     Atomic      Atomic             Coordinates (Angstroms)
 Number     Number       Type             X           Y           Z
 ---------------------------------------------------------------------
      1          8           0        0.011260    0.185757    1.631738
      2          8           0       -0.872828    1.735607   -1.478573
      3          8           0       -1.302084    2.345924    0.634264
      4          8           0       -2.251476   -2.293303   -0.778268
      5          8           0        3.431224   -0.425271   -0.977263
      6          8           0       -2.575900   -0.566707    0.608956
      7          8           0        2.483388   -1.182229    0.898681
      8          6           0        0.086877    0.385275    0.240854
      9          6           0       -0.419740   -0.874796   -0.441999
     10          6           0        1.503660    0.714996   -0.245886
     11          6           0       -0.797046    1.588504   -0.142559
     12          6           0       -1.855396   -1.199259   -0.113056
     13          6           0        2.493092   -0.407780   -0.019802
     14          1           0        0.207309   -1.721973   -0.125904
     15          1           0       -0.330020   -0.782065   -1.532052
     16          1           0        1.870015    1.607616    0.282466
     17          1           0        1.497211    0.962485   -1.316041
     18          1           0        0.380816    0.950831    2.078153
     19          1           0       -1.419628    2.508530   -1.659122
     20          1           0       -3.170963   -2.456614   -0.541213
     21          1           0        4.044328   -1.141225   -0.773674
 ---------------------------------------------------------------------
                    Distance matrix (angstroms):
                    1          2          3          4          5
     1  O    0.000000
     2  O    3.585761   0.000000
     3  O    2.717747   2.240721   0.000000
     4  O    4.132051   4.315462   4.941561   0.000000
     5  O    4.344698   4.842062   5.716708   5.985168   0.000000
     6  O    2.881957   3.543851   3.179098   2.238476   6.214631
     7  O    2.918934   5.042745   5.181465   5.144471   2.233952
     8  C    1.407155   2.387646   2.434774   3.698822   3.650405
     9  C    2.368738   2.844991   3.508548   2.341046   3.913887
    10  C    2.456181   2.865111   3.362557   4.840903   2.355976
    11  C    2.401913   1.346223   1.196747   4.193795   4.757130
    12  C    2.906368   3.382827   3.665101   1.340268   5.412418
    13  C    3.039632   4.248710   4.734348   5.161530   1.340571
    14  H    2.601380   3.866687   4.404987   2.607225   3.577692
    15  H    3.326067   2.576077   3.927104   2.558129   3.818645
    16  H    2.701331   3.262028   3.275832   5.773129   2.856032
    17  H    3.391277   2.498243   3.681528   4.994198   2.404380
    18  H    0.959790   3.851986   2.619781   5.060880   4.531469
    19  H    4.274631   0.963846   2.302146   4.952320   5.709894
    20  H    4.672299   4.871835   5.285718   0.963494   6.921370
    21  H    4.879809   5.740336   6.536560   6.400348   0.964332
                    6          7          8          9         10
     6  O    0.000000
     7  O    5.104821   0.000000
     8  C    2.851692   2.938209   0.000000
     9  C    2.418356   3.212490   1.520108   0.000000
    10  C    4.360771   2.422676   1.533919   2.503072   0.000000
    11  C    2.893792   4.418414   1.541455   2.509954   2.463116
    12  C    1.200228   4.455216   2.531486   1.508173   3.868498
    13  C    5.110310   1.201447   2.546910   2.980092   1.513511
    14  H    3.101759   2.553749   2.142315   1.100371   2.762923
    15  H    3.110349   3.739499   2.163257   1.097663   2.694030
    16  H    4.959882   2.922187   2.162274   3.454012   1.100065
    17  H    4.757549   3.236871   2.178563   2.795399   1.098419
    18  H    3.633680   3.218992   1.944716   3.213249   2.591824
    19  H    3.992270   5.949587   3.222991   3.732031   3.709396
    20  H    2.291012   5.972356   4.393345   3.175093   5.656715
    21  H    6.787426   2.288009   4.361295   4.484295   3.190472
                   11         12         13         14         15
    11  C    0.000000
    12  C    2.982046   0.000000
    13  C    3.850354   4.420914   0.000000
    14  H    3.459518   2.127944   2.638781   0.000000
    15  H    2.787185   2.124705   3.224430   1.774656   0.000000
    16  H    2.700782   4.681204   2.131059   3.743998   3.720646
    17  H    2.651900   4.166567   2.132989   3.207271   2.535525
    18  H    2.593366   3.798016   3.272453   3.468696   4.067161
    19  H    1.879899   4.040781   5.147972   4.784855   3.468632
    20  H    4.707163   1.869485   6.045751   3.482082   3.443375
    21  H    5.593624   5.936879   1.874192   3.934411   4.454105
                   16         17         18         19         20
    16  H    0.000000
    17  H    1.763633   0.000000
    18  H    2.423545   3.573098   0.000000
    19  H    3.924686   3.319023   4.431168   0.000000
    20  H    6.527470   5.838017   5.575562   5.382336   0.000000
    21  H    3.660491   3.347770   5.092243   6.630200   7.337895
                   21
    21  H    0.000000
 Stoichiometry    C6H8O7
 Framework group  C1[X(C6H8O7)]
 Deg. of freedom    57
 Full point group                 C1      NOp   1
 Largest Abelian subgroup         C1      NOp   1
 Largest concise Abelian subgroup C1      NOp   1
                         Standard orientation:                         
 ---------------------------------------------------------------------
 Center     Atomic      Atomic             Coordinates (Angstroms)
 Number     Number       Type             X           Y           Z
 ---------------------------------------------------------------------
      1          8           0       -0.013018    0.222848    1.663694
      2          8           0       -0.921298    1.682673   -1.482989
      3          8           0       -1.385912    2.320437    0.614204
      4          8           0       -2.177876   -2.373296   -0.712703
      5          8           0        3.444602   -0.330811   -0.908216
      6          8           0       -2.567212   -0.630944    0.637630
      7          8           0        2.506540   -1.080416    0.975576
      8          6           0        0.067064    0.397339    0.269699
      9          6           0       -0.394344   -0.891269   -0.391605
     10          6           0        1.476501    0.762074   -0.213376
     11          6           0       -0.851284    1.564271   -0.143813
     12          6           0       -1.821586   -1.254441   -0.066530
     13          6           0        2.498990   -0.324211    0.041996
     14          1           0        0.256583   -1.711837   -0.054294
     15          1           0       -0.299139   -0.817145   -1.482616
     16          1           0        1.810480    1.676021    0.299754
     17          1           0        1.470564    0.988199   -1.288251
     18          1           0        0.328810    1.007831    2.097460
     19          1           0       -1.490733    2.434234   -1.682737
     20          1           0       -3.093578   -2.560912   -0.479015
     21          1           0        4.078334   -1.022895   -0.686092
 ---------------------------------------------------------------------
 Rotational constants (GHZ):           1.0462077           0.5974942           0.4855509
 Standard basis: 6-311++G(d,p) (5D, 7F)
 There are   355 symmetry adapted cartesian basis functions of A   symmetry.
 There are   342 symmetry adapted basis functions of A   symmetry.
   342 basis functions,   540 primitive gaussians,   355 cartesian basis functions
    50 alpha electrons       50 beta electrons
       nuclear repulsion energy       872.8823283756 Hartrees.
 NAtoms=   21 NActive=   21 NUniq=   21 SFac= 1.00D+00 NAtFMM=   60 NAOKFM=F Big=F
 Integral buffers will be    131072 words long.
 Raffenetti 2 integral format.
 Two-electron integral symmetry is turned on.
 R6APFD:  NTU= -4 IXU= 1 FactS= 1.050
 Nuclear repulsion after empirical dispersion term =      872.8594878973 Hartrees.
 One-electron integrals computed using PRISM.
 NBasis=   342 RedAO= T EigKep=  4.42D-06  NBF=   342
 NBsUse=   342 1.00D-06 EigRej= -1.00D+00 NBFU=   342
 Initial guess from the checkpoint file:  "CIAC0023.chk"
 B after Tr=    -0.000000   -0.000000   -0.000000
         Rot=    0.999808    0.008529    0.003487   -0.017296 Ang=   2.25 deg.
 ExpMin= 3.60D-02 ExpMax= 8.59D+03 ExpMxC= 1.30D+03 IAcc=3 IRadAn=         5 AccDes= 0.00D+00
 Harris functional with IExCor= 1009 and IRadAn=       5 diagonalized for initial guess.
 HarFok:  IExCor= 1009 AccDes= 0.00D+00 IRadAn=         5 IDoV= 1 UseB2=F ITyADJ=14
 ICtDFT=  3500011 ScaDFX=  1.000000  1.000000  1.000000  1.000000
 FoFCou: FMM=F IPFlag=           0 FMFlag=      100000 FMFlg1=           0
         NFxFlg=           0 DoJE=T BraDBF=F KetDBF=T FulRan=T
         wScrn=  0.000000 ICntrl=       500 IOpCl=  0 I1Cent=   200000004 NGrid=           0
         NMat0=    1 NMatS0=      1 NMatT0=    0 NMatD0=    1 NMtDS0=    0 NMtDT0=    0
 Petite list used in FoFCou.
 Requested convergence on RMS density matrix=1.00D-08 within  32 cycles.
 Requested convergence on MAX density matrix=1.00D-06.
 Requested convergence on             energy=1.00D-06.
 No special actions if energy rises.
 SCF Done:  E(RM08HX) =  -760.047656827     A.U. after   14 cycles
            NFock= 14  Conv=0.51D-08     -V/T= 2.0034
 QCSCF skips out because SCF is already converged.
 R6APFD:  NTU= -4 IXU= 1 FactS= 1.050
 Calling FoFJK, ICntrl=      2127 FMM=F ISym2X=0 I1Cent= 0 IOpClX= 0 NMat=1 NMatS=1 NMatT=0.
 ***** Axes restored to original set *****
 -------------------------------------------------------------------
 Center     Atomic                   Forces (Hartrees/Bohr)
 Number     Number              X              Y              Z
 -------------------------------------------------------------------
      1        8           0.004872224   -0.002518480   -0.008544367
      2        8          -0.001878004   -0.002796522   -0.001788525
      3        8           0.004910509   -0.003098200   -0.002521474
      4        8          -0.000917186   -0.003882076   -0.000276537
      5        8           0.001260524    0.000534107   -0.003352603
      6        8           0.002140762   -0.001406660   -0.004603716
      7        8          -0.000336749    0.001684477   -0.005379249
      8        6          -0.006904070    0.002650338    0.011133878
      9        6           0.004154635   -0.005439146   -0.000306313
     10        6           0.002784790    0.002053968   -0.006191271
     11        6          -0.002121776    0.006354151    0.005554774
     12        6          -0.002545781    0.008278233    0.003139370
     13        6          -0.000607359   -0.002814258    0.010777299
     14        1          -0.001148240    0.000680491   -0.000101098
     15        1           0.000107713   -0.000247604    0.000012483
     16        1           0.001388763   -0.000300978    0.000550839
     17        1          -0.001061946    0.000453368    0.001596708
     18        1          -0.003261886    0.000926639    0.001140271
     19        1          -0.000678388    0.000454655   -0.000703461
     20        1          -0.001311325   -0.001261204   -0.000229478
     21        1           0.001152788   -0.000305299    0.000092469
 -------------------------------------------------------------------
 Cartesian Forces:  Max     0.011133878 RMS     0.003638876

 GradGradGradGradGradGradGradGradGradGradGradGradGradGradGradGradGradGrad
 Berny optimization.
 Using GEDIIS/GDIIS optimizer.
 FormGI is forming the generalized inverse of G from B-inverse, IUseBI=4.
 Internal  Forces:  Max     0.007176981 RMS     0.001984446
 Search for a local minimum.
 Step number   2 out of a maximum of  106
 All quantities printed in internal units (Hartrees-Bohrs-Radians)
 Mixed Optimization -- RFO/linear search
 Update second derivatives using D2CorX and points    1    2
 DE= -1.48D-02 DEPred=-1.59D-02 R= 9.34D-01
 TightC=F SS=  1.41D+00  RLast= 4.52D-01 DXNew= 5.0454D-01 1.3548D+00
 Trust test= 9.34D-01 RLast= 4.52D-01 DXMaxT set to 5.05D-01
 ITU=  1  0
 Use linear search instead of GDIIS.
     Eigenvalues ---    0.00251   0.00281   0.00323   0.00612   0.00620
     Eigenvalues ---    0.00843   0.01017   0.01061   0.01378   0.02239
     Eigenvalues ---    0.02282   0.02286   0.03962   0.03984   0.05209
     Eigenvalues ---    0.05303   0.05334   0.06177   0.07137   0.09510
     Eigenvalues ---    0.09580   0.12799   0.12983   0.15816   0.16000
     Eigenvalues ---    0.16000   0.16041   0.16729   0.17442   0.21808
     Eigenvalues ---    0.22183   0.24496   0.24981   0.24992   0.24997
     Eigenvalues ---    0.25000   0.25340   0.28666   0.29081   0.29492
     Eigenvalues ---    0.31230   0.31307   0.33939   0.33958   0.34069
     Eigenvalues ---    0.34094   0.41250   0.51180   0.51198   0.51416
     Eigenvalues ---    0.52817   0.53313   0.53912   0.56110   0.86092
     Eigenvalues ---    0.93252   0.93366
 RFO step:  Lambda=-7.38751867D-03 EMin= 2.51412401D-03
 Quartic linear search produced a step of  0.10720.
 Iteration  1 RMS(Cart)=  0.13884227 RMS(Int)=  0.01260394
 Iteration  2 RMS(Cart)=  0.01929395 RMS(Int)=  0.00033181
 Iteration  3 RMS(Cart)=  0.00035846 RMS(Int)=  0.00023943
 Iteration  4 RMS(Cart)=  0.00000022 RMS(Int)=  0.00023943
 Variable       Old X    -DE/DX   Delta X   Delta X   Delta X     New X
                                 (Linear)    (Quad)   (Total)
    R1        2.65914  -0.00718  -0.00317  -0.01793  -0.02110   2.63804
    R2        1.81374   0.00001  -0.00257  -0.00025  -0.00282   1.81092
    R3        2.54399   0.00235  -0.00251   0.00432   0.00181   2.54580
    R4        1.82140   0.00088  -0.00348   0.00142  -0.00206   1.81935
    R5        2.26152  -0.00567  -0.00573  -0.00706  -0.01280   2.24873
    R6        2.53274   0.00511  -0.00300   0.00949   0.00649   2.53923
    R7        1.82074   0.00141  -0.00355   0.00248  -0.00107   1.81967
    R8        2.53331   0.00402  -0.00300   0.00741   0.00440   2.53771
    R9        1.82232   0.00098  -0.00336   0.00163  -0.00174   1.82059
   R10        2.26810  -0.00480  -0.00495  -0.00598  -0.01093   2.25717
   R11        2.27041  -0.00520  -0.00469  -0.00639  -0.01108   2.25933
   R12        2.87259   0.00362  -0.00377   0.01269   0.00893   2.88151
   R13        2.89869   0.00512  -0.00059   0.01816   0.01757   2.91625
   R14        2.91293   0.00044   0.00166   0.00168   0.00334   2.91627
   R15        2.85003   0.00171  -0.00060   0.00556   0.00496   2.85499
   R16        2.07940  -0.00121   0.00070  -0.00359  -0.00289   2.07651
   R17        2.07428  -0.00002   0.00027  -0.00005   0.00022   2.07450
   R18        2.86012   0.00195   0.00050   0.00644   0.00695   2.86707
   R19        2.07882   0.00048   0.00050   0.00150   0.00201   2.08083
   R20        2.07571  -0.00145   0.00016  -0.00437  -0.00422   2.07149
    A1        1.90289   0.00224   0.00141   0.01409   0.01550   1.91839
    A2        1.88122   0.00098  -0.00763   0.00610  -0.00152   1.87970
    A3        1.87368   0.00212  -0.00858   0.01324   0.00466   1.87833
    A4        1.87950   0.00086  -0.00794   0.00533  -0.00261   1.87689
    A5        1.88449  -0.00159  -0.00361  -0.01364  -0.01724   1.86726
    A6        1.97552   0.00075   0.00588   0.00104   0.00652   1.98203
    A7        1.90257   0.00049   0.00456   0.00447   0.00901   1.91158
    A8        1.92140   0.00001  -0.00872  -0.00105  -0.00975   1.91165
    A9        1.92219   0.00144   0.00286   0.01241   0.01526   1.93744
   A10        1.85764  -0.00100  -0.00029  -0.00227  -0.00266   1.85499
   A11        1.97971  -0.00184  -0.00440  -0.00969  -0.01413   1.96558
   A12        1.89572  -0.00055  -0.00048  -0.00116  -0.00154   1.89418
   A13        1.92712   0.00191   0.00007   0.00941   0.00929   1.93640
   A14        1.89037   0.00207   0.00514   0.01784   0.02304   1.91341
   A15        1.88870  -0.00127   0.00093  -0.01752  -0.01664   1.87207
   A16        1.87941  -0.00023  -0.00098   0.00193   0.00098   1.88038
   A17        1.97899   0.00123  -0.00471   0.00583   0.00111   1.98010
   A18        1.90669   0.00024  -0.00223   0.00107  -0.00114   1.90554
   A19        1.93068  -0.00089   0.00221  -0.00330  -0.00107   1.92961
   A20        1.88861  -0.00123   0.00377  -0.01081  -0.00711   1.88149
   A21        1.89285   0.00040   0.00205   0.00702   0.00907   1.90193
   A22        1.86196   0.00019  -0.00081  -0.00032  -0.00115   1.86081
   A23        2.15469   0.00215   0.00198   0.01064   0.01152   2.16621
   A24        1.94381  -0.00048  -0.00331  -0.00051  -0.00491   1.93890
   A25        2.18287  -0.00161   0.00120  -0.00501  -0.00490   2.17797
   A26        2.15480  -0.00058   0.00062  -0.00213  -0.00159   2.15322
   A27        1.92695   0.00092  -0.00506   0.00363  -0.00151   1.92545
   A28        2.20094  -0.00033   0.00441  -0.00094   0.00340   2.20434
   A29        2.14510   0.00006  -0.00053   0.00063  -0.00040   2.14469
   A30        1.93957  -0.00225  -0.00349  -0.00899  -0.01299   1.92658
   A31        2.19827   0.00221   0.00404   0.00965   0.01318   2.21145
    D1        3.07826   0.00135   0.00022   0.08335   0.08357  -3.12136
    D2        0.94676   0.00197   0.00990   0.09368   0.10379   1.05055
    D3       -1.11687   0.00244   0.00422   0.09288   0.09689  -1.01998
    D4       -0.04203   0.00021  -0.00588   0.03472   0.02914  -0.01289
    D5       -3.12178  -0.00073   0.00448  -0.05209  -0.04791   3.11349
    D6       -0.02578  -0.00004  -0.00369   0.00500   0.00135  -0.02444
    D7       -3.13571  -0.00023   0.00215  -0.01317  -0.01106   3.13641
    D8       -0.00174  -0.00088   0.00098  -0.04345  -0.04232  -0.04406
    D9        3.11724   0.00002  -0.00467   0.01566   0.01085   3.12809
   D10        1.06883   0.00263   0.00939   0.17121   0.18040   1.24923
   D11       -1.03398   0.00159   0.00602   0.15568   0.16148  -0.87250
   D12       -3.09109   0.00109   0.00746   0.14860   0.15583  -2.93527
   D13       -3.04987   0.00252   0.00823   0.16283   0.17129  -2.87859
   D14        1.13050   0.00147   0.00487   0.14730   0.15237   1.28286
   D15       -0.92661   0.00098   0.00631   0.14022   0.14671  -0.77990
   D16       -1.00678   0.00216   0.00434   0.16685   0.17123  -0.83555
   D17       -3.10960   0.00112   0.00098   0.15132   0.15231  -2.95728
   D18        1.11648   0.00063   0.00242   0.14424   0.14666   1.26314
   D19        1.11152  -0.00063  -0.00211   0.02379   0.02159   1.13311
   D20       -0.99632  -0.00005  -0.00208   0.03297   0.03073  -0.96559
   D21       -3.04087   0.00010  -0.00108   0.03465   0.03344  -3.00743
   D22       -0.99924   0.00089   0.00467   0.04136   0.04619  -0.95304
   D23       -3.10708   0.00147   0.00469   0.05053   0.05533  -3.05175
   D24        1.13156   0.00162   0.00569   0.05221   0.05804   1.18960
   D25       -3.08211  -0.00026   0.00639   0.02842   0.03482  -3.04729
   D26        1.09323   0.00033   0.00641   0.03759   0.04396   1.13719
   D27       -0.95132   0.00047   0.00741   0.03927   0.04666  -0.90465
   D28       -3.02735   0.00310   0.00536   0.23700   0.24210  -2.78524
   D29        0.17729   0.00197   0.01593   0.14783   0.16373   0.34102
   D30       -0.96282   0.00231   0.00523   0.23040   0.23563  -0.72719
   D31        2.24182   0.00119   0.01581   0.14123   0.15725   2.39907
   D32        1.11954   0.00252  -0.00380   0.23456   0.23069   1.35024
   D33       -1.95901   0.00140   0.00677   0.14540   0.15231  -1.80669
   D34        3.10711   0.00174   0.00009   0.10796   0.10817  -3.06791
   D35       -0.00179   0.00155   0.00606   0.08922   0.09543   0.09364
   D36       -1.07024   0.00131   0.00040   0.11275   0.11311  -0.95713
   D37        2.10405   0.00112   0.00637   0.09401   0.10037   2.20442
   D38        0.96251   0.00146   0.00234   0.11519   0.11741   1.07992
   D39       -2.14638   0.00127   0.00831   0.09645   0.10467  -2.04171
   D40        2.58543  -0.00004   0.00639   0.00661   0.01299   2.59842
   D41       -0.57962   0.00086   0.00063   0.06775   0.06845  -0.51116
   D42       -1.57974   0.00019   0.00324   0.00409   0.00725  -1.57248
   D43        1.53841   0.00109  -0.00253   0.06524   0.06272   1.60112
   D44        0.43371  -0.00002   0.00519   0.00170   0.00686   0.44058
   D45       -2.73133   0.00087  -0.00057   0.06284   0.06232  -2.66900
         Item               Value     Threshold  Converged?
 Maximum Force            0.007177     0.000450     NO 
 RMS     Force            0.001984     0.000300     NO 
 Maximum Displacement     0.652006     0.001800     NO 
 RMS     Displacement     0.147880     0.001200     NO 
 Predicted change in Energy=-6.148297D-03
 GradGradGradGradGradGradGradGradGradGradGradGradGradGradGradGradGradGrad

                          Input orientation:                          
 ---------------------------------------------------------------------
 Center     Atomic      Atomic             Coordinates (Angstroms)
 Number     Number       Type             X           Y           Z
 ---------------------------------------------------------------------
      1          8           0        0.050964    0.181885    1.663199
      2          8           0       -1.096761    1.549531   -1.410221
      3          8           0       -1.148528    2.425485    0.653553
      4          8           0       -2.231410   -2.280786   -0.744600
      5          8           0        3.446602   -0.391539   -1.018328
      6          8           0       -2.634818   -0.326815    0.263929
      7          8           0        2.501188   -1.253462    0.809081
      8          6           0        0.115694    0.386345    0.283779
      9          6           0       -0.374866   -0.895743   -0.380083
     10          6           0        1.534012    0.720390   -0.224455
     11          6           0       -0.775841    1.585360   -0.102314
     12          6           0       -1.864108   -1.097282   -0.225030
     13          6           0        2.523376   -0.415497   -0.043413
     14          1           0        0.160955   -1.746065    0.064102
     15          1           0       -0.157402   -0.888583   -1.456084
     16          1           0        1.919143    1.593140    0.325509
     17          1           0        1.506753    1.003951   -1.282981
     18          1           0        0.334555    0.972768    2.124087
     19          1           0       -1.670955    2.300783   -1.591389
     20          1           0       -3.182150   -2.370822   -0.621249
     21          1           0        4.057696   -1.118745   -0.857391
 ---------------------------------------------------------------------
                    Distance matrix (angstroms):
                    1          2          3          4          5
     1  O    0.000000
     2  O    3.554382   0.000000
     3  O    2.737134   2.242574   0.000000
     4  O    4.131764   4.049914   5.027569   0.000000
     5  O    4.364602   4.956156   5.643229   5.990325   0.000000
     6  O    3.070856   2.947723   3.152146   2.235592   6.215468
     7  O    2.965355   5.072209   5.184521   5.085942   2.230726
     8  C    1.395991   2.385935   2.427567   3.698655   3.659991
     9  C    2.348960   2.749850   3.563357   2.344776   3.907070
    10  C    2.460214   3.002412   3.297615   4.843140   2.350451
    11  C    2.402162   1.347180   1.189975   4.180706   4.751446
    12  C    2.978117   2.999853   3.700521   1.343705   5.415814
    13  C    3.063039   4.339918   4.694658   5.155478   1.342899
    14  H    2.507229   3.823144   4.411805   2.581344   3.715087
    15  H    3.304428   2.613215   4.051659   2.597296   3.664359
    16  H    2.696506   3.479991   3.195468   5.777501   2.842179
    17  H    3.387490   2.663106   3.580704   5.005318   2.404257
    18  H    0.958299   3.856508   2.544089   5.039757   4.628277
    19  H    4.248184   0.962756   2.308299   4.692753   5.810885
    20  H    4.710419   4.510043   5.363329   0.962927   6.929328
    21  H    4.909064   5.830415   6.476826   6.396555   0.963412
                    6          7          8          9         10
     6  O    0.000000
     7  O    5.247325   0.000000
     8  C    2.841533   2.942021   0.000000
     9  C    2.417812   3.132692   1.524832   0.000000
    10  C    4.326003   2.428933   1.543215   2.505976   0.000000
    11  C    2.691904   4.430403   1.543224   2.528598   2.469517
    12  C    1.194443   4.488830   2.525798   1.510795   3.853719
    13  C    5.168103   1.195585   2.558698   2.956990   1.517187
    14  H    3.141743   2.504864   2.144173   1.098842   2.837595
    15  H    3.067836   3.511725   2.174200   1.097779   2.639428
    16  H    4.942528   2.945464   2.170373   3.457582   1.101126
    17  H    4.616978   3.234430   2.184312   2.822154   1.096188
    18  H    3.737149   3.373372   1.943843   3.203979   2.649159
    19  H    3.357903   5.983451   3.220783   3.655801   3.825959
    20  H    2.293704   5.966127   4.392815   3.180387   5.652894
    21  H    6.831856   2.284293   4.371149   4.463760   3.186221
                   11         12         13         14         15
    11  C    0.000000
    12  C    2.897578   0.000000
    13  C    3.858981   4.443854   0.000000
    14  H    3.464632   2.146019   2.713486   0.000000
    15  H    2.887136   2.114686   3.066924   1.774146   0.000000
    16  H    2.728741   4.674875   2.129747   3.782835   3.693922
    17  H    2.634815   4.110615   2.141234   3.344906   2.526076
    18  H    2.562247   3.825909   3.378798   3.415513   4.065006
    19  H    1.878937   3.667573   5.231330   4.740624   3.532874
    20  H    4.659506   1.875133   6.058896   3.469348   3.470314
    21  H    5.589759   5.955511   1.873834   4.053057   4.263620
                   16         17         18         19         20
    16  H    0.000000
    17  H    1.761945   0.000000
    18  H    2.476018   3.603212   0.000000
    19  H    4.130866   3.445971   4.426111   0.000000
    20  H    6.529359   5.814877   5.575274   5.004875   0.000000
    21  H    3.650613   3.345784   5.208207   6.711882   7.351111
                   21
    21  H    0.000000
 Stoichiometry    C6H8O7
 Framework group  C1[X(C6H8O7)]
 Deg. of freedom    57
 Full point group                 C1      NOp   1
 Largest Abelian subgroup         C1      NOp   1
 Largest concise Abelian subgroup C1      NOp   1
                         Standard orientation:                         
 ---------------------------------------------------------------------
 Center     Atomic      Atomic             Coordinates (Angstroms)
 Number     Number       Type             X           Y           Z
 ---------------------------------------------------------------------
      1          8           0        0.055324    0.336638    1.695703
      2          8           0       -1.221474    1.339551   -1.466193
      3          8           0       -1.297368    2.399049    0.508862
      4          8           0       -2.103697   -2.474253   -0.427738
      5          8           0        3.439983   -0.275569   -0.991125
      6          8           0       -2.613787   -0.463161    0.404841
      7          8           0        2.577753   -1.019711    0.926935
      8          6           0        0.086586    0.415346    0.302283
      9          6           0       -0.332437   -0.950531   -0.230551
     10          6           0        1.473453    0.786588   -0.263662
     11          6           0       -0.884018    1.516526   -0.174025
     12          6           0       -1.803641   -1.227307   -0.026943
     13          6           0        2.534676   -0.264974    0.000684
     14          1           0        0.262193   -1.721496    0.278843
     15          1           0       -0.131875   -1.030321   -1.306900
     16          1           0        1.811238    1.728631    0.195615
     17          1           0        1.412730    0.968167   -1.342999
     18          1           0        0.295589    1.182829    2.075927
     19          1           0       -1.844274    2.034207   -1.703835
     20          1           0       -3.044981   -2.610292   -0.277052
     21          1           0        4.097797   -0.945958   -0.776598
 ---------------------------------------------------------------------
 Rotational constants (GHZ):           1.0892878           0.5954945           0.4838176
 Standard basis: 6-311++G(d,p) (5D, 7F)
 There are   355 symmetry adapted cartesian basis functions of A   symmetry.
[...]
 487,0.56174083,0.03479859,0.01205558,-0.05063573,0.00005442,0.00065193
 ,-0.00172018,-0.00029797,0.00209308,0.00135484,-0.00137541,-0.00068961
 ,0.00038655,-0.02696995,0.01359735,-0.00174825,-0.00035838,-0.00022597
 ,0.00035652,0.00290112,-0.01470620,0.01764956,0.02482304,0.00424234,-0
 .07412760,-0.00794927,0.00097002,0.00669928,0.05684686,0.03922097,0.58
 557295,0.00221936,-0.00602375,0.00302742,-0.11720600,0.04597622,-0.071
 56181,-0.10092333,0.08201057,0.05745009,-0.00180111,0.00417568,0.00234
 868,0.00128567,-0.00019744,0.00016476,-0.00719471,0.00655132,0.0011766
 8,0.00152784,-0.00125641,-0.00050231,-0.11204185,0.04300626,-0.0097369
 0,0.01511816,-0.01064832,0.00774168,-0.03009472,0.02190773,0.00549849,
 0.35817172,-0.00303016,0.00233738,-0.00941318,0.03851710,-0.12324422,0
 .01050197,0.07714489,-0.42325691,-0.33688473,0.00313483,0.00314512,-0.
 00026067,-0.00353276,0.00095301,-0.00327782,0.00310646,-0.00110439,-0.
 00184953,-0.00102054,0.00306049,-0.00101123,0.04310109,-0.14894083,0.0
 1998508,0.01084252,-0.02745350,-0.00467096,-0.00022691,0.01346426,-0.0
 0739671,-0.17909511,0.71337503,-0.01331377,0.01311894,-0.01880617,-0.0
 8556316,0.03020315,-0.25643958,0.05079265,-0.32363929,-0.44849630,0.00
 017132,-0.00235125,-0.00064197,-0.00014760,-0.00057604,-0.00011498,-0.
 00125308,-0.00195395,-0.00597802,-0.00061896,-0.00155809,-0.00025441,-
 0.00345032,0.00948606,-0.06651595,0.00920040,-0.01236024,0.00270866,0.
 01249625,-0.01177899,0.00329801,0.04855015,0.27785759,0.80200519,-0.00
 159426,0.00284881,0.00626658,-0.00444754,0.00116896,0.00020424,-0.0052
 1960,0.00355787,0.00234802,-0.15500115,-0.06152547,0.01723160,0.002098
 25,0.00062154,0.00161111,-0.31486901,0.25047411,0.17891404,0.00262203,
 0.00100202,0.00058283,-0.02203953,-0.01540480,-0.00328107,-0.18538996,
 -0.01384474,0.03160095,0.00053537,0.00143554,-0.00046256,0.01034115,-0
 .00548809,-0.00206740,0.70227537,0.00630876,0.00006300,-0.00084228,0.0
 0334798,0.00167378,-0.00160839,0.00307573,0.00094240,-0.00056791,-0.08
 305273,-0.25343613,-0.02350409,0.00079393,-0.00022689,0.00044765,0.237
 02947,-0.42352143,-0.21026057,0.00189677,-0.00114177,0.00002508,-0.030
 17505,-0.00601647,0.01514656,-0.01984852,-0.08585942,0.01081124,-0.000
 86139,-0.00644117,-0.00242814,-0.01266670,-0.00740998,0.00208078,-0.11
 271842,0.78141571,0.00326182,0.00002760,-0.00466513,0.00195678,0.00004
 132,-0.00223247,0.00289838,-0.00170661,-0.00258526,0.00995665,-0.03379
 957,-0.08209736,-0.00089981,-0.00059466,-0.00120592,0.17474003,-0.2141
 5363,-0.22222127,-0.00162882,-0.00140825,-0.00016445,-0.01285721,0.004
 74215,0.01187526,0.03198357,0.00995218,-0.10411510,-0.00084258,-0.0041
 2069,-0.00131724,-0.00609758,0.00175554,0.00463178,-0.23373383,0.22032
 904,0.40519640,-0.00043976,-0.00013792,-0.00707410,0.00139787,-0.00066
 264,0.00000865,0.00122570,-0.00160814,-0.00112943,0.00189279,0.0016426
 3,-0.00040745,-0.20510209,-0.01087675,-0.10344137,0.00183873,-0.000160
 92,-0.00094995,-0.10675181,0.00230736,-0.01834055,-0.03704817,0.020350
 31,0.00227523,0.00014643,0.00031703,-0.00124441,-0.13274905,0.06133035
 ,-0.01701288,-0.00510046,0.00077441,0.00274709,-0.00336754,-0.00087637
 ,0.00188891,0.50726887,-0.00101508,-0.00384744,0.00275498,-0.00205968,
 0.00137119,-0.00219763,-0.00062217,0.00322456,0.00072405,-0.00074404,-
 0.00198199,-0.00016308,-0.02897133,-0.13513239,-0.04234488,0.00145029,
 -0.00275906,-0.00192391,-0.00706648,-0.70505638,-0.19042538,0.00512336
 ,0.01721000,-0.01310774,0.00010644,0.00291717,0.00030008,0.04200087,-0
 .13879015,0.02383408,0.00057141,-0.00755688,0.00310800,-0.00183790,0.0
 0117611,0.00198398,-0.05178673,0.97011235,-0.00416194,-0.00075297,-0.0
 0523027,-0.00007669,-0.00097397,0.00093418,0.00019429,-0.00344427,-0.0
 0165526,0.00089310,0.00066014,-0.00029210,-0.10604064,-0.02652282,-0.1
 4961619,0.00159726,-0.00030515,-0.00122811,-0.02107130,-0.18571357,-0.
 14991765,0.01377404,-0.01719472,0.01291432,-0.00001515,0.00059622,-0.0
 0087356,-0.01666387,0.02901433,-0.09569097,0.00155583,0.00742225,-0.00
 282022,-0.00213995,-0.00081534,0.00143859,0.16473541,0.18487250,0.4034
 9778,-0.00003263,0.00093584,0.00109972,0.00058577,-0.00020512,0.000362
 99,0.00158222,-0.00148476,-0.00064442,0.00118019,-0.00171775,0.0008569
 8,0.00083340,0.00101577,0.00090165,-0.00425602,-0.00165156,0.00444368,
 -0.00342021,0.00281710,0.00028317,0.01054197,-0.01399892,0.00403438,-0
 .12988840,0.12097290,-0.03031909,0.00016976,0.00109977,0.00041594,-0.0
 0387351,-0.00127286,-0.00186434,-0.01455941,0.02808652,-0.00888583,-0.
 00156508,-0.00529403,-0.00120313,0.14336627,-0.00017087,0.00237560,0.0
 0155868,0.00059260,0.00002784,0.00030314,0.00147664,-0.00173743,-0.000
 94029,-0.00162056,-0.00119117,0.00079883,0.00026737,0.00036047,0.00048
 814,-0.00158924,0.00122300,0.00286059,0.00182670,0.00073204,-0.0001198
 3,0.01372097,-0.02393200,0.00532894,0.12068864,-0.22844934,0.04056283,
 0.00054121,0.00079050,-0.00005433,-0.00467428,-0.00001061,-0.00194911,
 -0.00059200,0.00502935,-0.00465979,-0.00140076,-0.00174359,-0.00048261
 ,-0.12997009,0.24770851,0.00060777,0.00081540,0.00105936,0.00020176,0.
 00077103,0.00061300,0.00104171,-0.00077810,0.00007810,-0.00109244,-0.0
 0009643,-0.00023286,-0.00035943,-0.00040274,-0.00059247,0.00336251,0.0
 0043322,-0.00236418,-0.00029227,-0.00050262,-0.00078810,0.00735865,-0.
 01289567,0.00182125,-0.02946624,0.04217011,-0.05127088,0.00024571,0.00
 064655,0.00011566,-0.00283125,-0.00085335,-0.00247972,0.00846411,-0.01
 266682,0.00171375,0.00000426,0.00085666,0.00115912,0.03016587,-0.04297
 877,0.05585747,0.00001678,-0.00360249,-0.00355414,-0.00049478,0.000403
 39,-0.00020143,0.00012797,-0.00018169,-0.00020170,-0.00150113,-0.00057
 627,-0.00244317,0.00021154,0.00018778,0.00026830,-0.00555962,0.0021351
 2,-0.00275083,0.00043404,0.00018543,0.00067820,-0.00127662,0.00532728,
 -0.01250680,-0.04680209,-0.00297222,-0.01511782,-0.00008759,0.00035354
 ,-0.00054997,0.00026079,0.00004050,0.00082365,0.00747479,-0.00299254,0
 .03472949,-0.00026843,-0.00061189,-0.00056938,-0.00096288,0.00061812,-
 0.01756484,0.05029789,-0.00176829,-0.00453471,-0.00485603,0.00077703,-
 0.00168488,0.00097707,0.00019796,0.00025798,0.00091769,-0.00149310,-0.
 00096590,-0.00068355,-0.00004875,-0.00023073,-0.00006467,0.00049401,-0
 .00012524,0.00006579,-0.00026355,-0.00031734,-0.00044940,0.00024600,0.
 00520058,-0.02372820,-0.00205835,-0.04639551,0.03021388,0.00037212,0.0
 0099824,0.00007604,-0.00054733,0.00069448,-0.00219684,0.00320841,-0.00
 119088,0.00317802,-0.00008214,0.00053066,0.00022564,0.00034460,-0.0016
 7401,0.02548509,0.00207669,0.04944371,-0.00054249,-0.00287980,-0.00121
 542,-0.00006729,0.00117069,0.00051298,0.00022842,0.00003977,0.00064512
 ,0.00007640,-0.00046808,0.00069741,0.00017701,0.00000684,0.00018015,0.
 00111818,0.00100762,0.00137046,0.00000722,-0.00004702,0.00015348,0.000
 23941,0.00353635,-0.01101523,-0.02038429,0.02518520,-0.30651195,0.0006
 2860,0.00062708,0.00028121,-0.00086271,0.00000474,-0.00179602,-0.00031
 429,0.00018690,-0.01332171,-0.00023032,0.00003749,-0.00030773,0.000147
 64,-0.00024118,-0.00455839,0.01999301,-0.02847099,0.33380093,0.0016961
 3,0.00234902,-0.00060402,0.00045029,0.00044766,0.00040467,0.00076357,0
 .00110335,0.00051097,-0.00099166,-0.00026649,0.00035770,-0.00170567,0.
 00022822,-0.00068413,-0.00036861,0.00057642,0.00034367,-0.00439270,0.0
 0627469,-0.00156429,-0.01222884,-0.02591369,-0.01107338,-0.00495797,0.
 00045512,0.00354072,-0.07493116,-0.07926315,-0.02967223,-0.00148906,-0
 .00348504,-0.00169900,0.00096755,-0.00186800,-0.00127455,0.01097973,0.
 01938079,0.00983274,-0.00003930,0.00004595,0.00009379,0.00013429,0.000
 30620,0.00018589,0.08775215,0.00084492,0.00091393,0.00062096,-0.000265
 83,0.00012467,-0.00005969,-0.00013371,0.00042723,0.00035793,-0.0001593
 0,-0.00000809,0.00007829,0.00008855,0.00207468,0.00038690,-0.00014170,
 0.00017145,0.00016588,0.00519627,-0.00425216,0.00167369,-0.00207475,-0
 .00421899,-0.00206759,-0.00049981,0.00105865,0.00053864,-0.07394177,-0
 .25991077,-0.07534897,0.00072131,0.00007905,0.00002631,0.00041946,-0.0
 0024946,-0.00044950,-0.01336704,-0.01992688,-0.01090828,0.00026256,0.0
 0016628,-0.00002254,0.00006688,-0.00002949,-0.00006629,0.08220218,0.28
 015231,-0.00142156,-0.00103801,0.00110525,0.00006529,0.00025868,-0.000
 71212,-0.00061066,0.00002177,-0.00044891,0.00026409,0.00008140,-0.0001
 3985,-0.00069949,0.00081557,-0.00037710,-0.00008367,-0.00003110,-0.000
 10272,-0.00174950,0.00188482,0.00160953,0.00540076,0.01416181,0.004467
 95,0.00214397,-0.00017619,-0.00111740,-0.02988139,-0.08025504,-0.07983
 440,-0.00011346,0.00024902,0.00191429,0.00016014,0.00053350,0.00074466
 ,0.00422874,0.00691461,0.00088089,-0.00006930,-0.00009329,-0.00008551,
 0.00020535,0.00007762,0.00022248,0.03078239,0.08373080,0.07828822,-0.0
 0504298,-0.00119964,0.00638823,-0.00055075,0.00016075,-0.00082233,-0.0
 0027791,-0.00013742,-0.00064763,0.00024214,0.00011899,-0.00005654,-0.0
 0400397,0.00298488,-0.00059744,0.00016265,-0.00008083,-0.00020136,-0.0
 0001786,-0.00152142,0.00241433,0.00664991,-0.00012547,0.02559812,0.001
 28555,0.00005973,0.00001896,-0.04796895,0.00196601,-0.03694222,0.00109
 243,0.00019429,0.00174660,-0.00024674,0.00030160,0.00011109,-0.0022058
 2,-0.00110720,-0.02486203,0.00001976,-0.00012343,-0.00006706,-0.000839
 62,-0.00078688,-0.00020741,-0.00154195,0.00159244,-0.00911238,0.054909
 52,-0.00120643,0.00118939,0.00181171,0.00016152,-0.00062536,0.00085417
 ,0.00039776,0.00007483,0.00028130,0.00017309,0.00008748,-0.00004022,0.
 00264127,-0.00151625,0.00028183,0.00025579,-0.00016270,-0.00008557,0.0
 0065556,0.00027531,-0.00308508,0.00112344,-0.00159605,0.00656503,0.000
 11865,-0.00003548,0.00029049,0.00132855,-0.04976565,0.00378492,-0.0005
 6505,0.00025660,-0.00162338,-0.00038636,0.00011171,0.00008021,-0.00104
 305,0.00074934,0.02491783,0.00015219,-0.00002532,0.00008138,-0.0008730
 7,-0.00035661,-0.00000246,-0.00182085,0.00337063,-0.02726971,-0.001471
 37,0.04797937,0.00314738,0.00050704,-0.00179347,-0.00050470,0.00008684
 ,0.00068375,0.00019061,0.00006135,0.00062769,-0.00019591,-0.00005295,0
 .00002516,-0.00018413,0.00132192,0.00003731,-0.00016688,0.00017702,0.0
 0023005,0.00019168,-0.00040996,0.00134088,-0.00347224,-0.00013108,-0.0
 1298811,-0.00125934,-0.00057209,0.00049855,-0.03460412,0.00628878,-0.3
 1073232,-0.00023557,0.00022436,-0.00192260,0.00048603,-0.00035544,-0.0
 0003625,-0.00031437,-0.00193124,-0.00624942,0.00006491,-0.00000715,-0.
 00008029,0.00022341,0.00024313,0.00053884,-0.00012029,0.00130550,-0.00
 641807,0.03680801,-0.00717121,0.33625005,-0.04597790,0.12996413,0.0755
 7436,0.00106890,0.00057281,0.00245801,-0.00335143,-0.00021154,0.002978
 60,-0.00027582,0.00119683,0.00042399,-0.00032840,-0.00032161,-0.000976
 63,-0.00058551,0.00197884,0.00220544,-0.00026457,-0.00075633,-0.000332
 68,-0.00064967,-0.00836185,-0.00304915,-0.00165859,0.00046501,-0.00538
 344,-0.00040185,0.00088583,0.00198822,0.00143663,-0.00100044,-0.008385
 54,0.00254163,-0.00294273,-0.00251084,0.00112098,0.00101103,0.00142132
 ,0.00006226,0.00036782,0.00013401,-0.00092770,-0.00116132,-0.00084780,
 -0.00017986,-0.00051541,0.00039514,-0.00028186,-0.00056236,0.00009081,
 0.04894371,0.12377122,-0.35002882,-0.21373639,-0.00082110,-0.00191531,
 -0.00448454,-0.00084320,-0.00330362,-0.00473342,0.00018123,0.00018862,
 0.00004581,-0.00026176,-0.00010471,0.00006980,0.00037759,-0.00039525,0
 .00091752,-0.00009992,-0.00003436,0.00005907,-0.00504904,0.00886548,0.
 00082984,0.00084274,-0.00051844,0.00016853,0.00021276,-0.00089601,0.00
 304876,0.00274020,0.00574709,0.01285128,-0.00034786,-0.00063062,-0.000
 83510,0.00084068,-0.00033938,-0.00026745,-0.00004801,-0.00002064,0.000
 07610,0.00002402,0.00041290,0.00023651,-0.00040707,-0.00025770,0.00012
 026,-0.00086269,-0.00045193,0.00059066,-0.12055945,0.34376453,0.055894
 41,-0.17035237,-0.16120431,0.00146155,-0.00121900,0.00204298,0.0019727
 5,-0.00111361,0.00200237,0.00025289,0.00052582,0.00001907,-0.00064501,
 -0.00000639,-0.00041834,0.00047533,0.00069685,-0.00008265,-0.00041194,
 0.00022794,0.00015738,0.00979002,-0.03330347,-0.02963826,-0.00023407,0
 .00159113,-0.00455035,-0.00067889,0.00018031,-0.00247046,-0.00300047,-
 0.00066345,-0.00613304,-0.00030536,-0.00096569,-0.00030111,0.00091598,
 -0.00008035,-0.00004709,0.00013128,0.00017687,0.00002067,-0.00060556,-
 0.00092272,-0.00019704,0.00046844,0.00021578,-0.00010001,0.00042902,0.
 00040797,-0.00008562,-0.06593981,0.20450898,0.20075772,-0.00037104,0.0
 0037945,-0.00007956,-0.16028897,0.21853495,-0.02060706,-0.00177240,-0.
 00336218,0.00587783,-0.00027887,0.00010519,0.00008760,0.00019273,-0.00
 013046,0.00014377,-0.00113487,0.00034653,0.00020474,0.00012316,-0.0004
 2765,0.00003202,0.00378238,0.00040611,-0.00366247,0.00002193,-0.000213
 85,0.00039864,0.00075568,-0.00070496,0.00027510,-0.01095382,0.02127922
 ,-0.00811498,0.00119448,-0.00027366,-0.00062780,-0.00022689,0.00050420
 ,-0.00028119,-0.00006629,-0.00008092,0.00019622,0.00001008,0.00014270,
 0.00021748,-0.00025545,-0.00009443,-0.00008563,-0.00009021,0.00015063,
 -0.00001608,-0.00003276,0.00030777,-0.00005041,0.16938540,0.00006287,0
 .00042056,-0.00009183,0.23016244,-0.37249982,0.01573288,-0.00325483,-0
 .00336834,-0.00482330,0.00007815,0.00074204,0.00022235,-0.00024916,0.0
 0001933,-0.00011582,-0.00056271,0.00129911,-0.00015433,-0.00014115,0.0
 0001733,0.00000592,0.00067035,0.00246734,0.00000117,-0.00022943,0.0004
 0646,-0.00003735,0.00019166,-0.00008224,-0.00022564,0.00868318,-0.0041
 2488,0.01112156,0.00088150,-0.00157866,-0.00065027,0.00031445,-0.00011
 618,-0.00003966,0.00000214,0.00006063,0.00002276,0.00005308,-0.0000684
 1,0.00013338,0.00000887,-0.00002960,-0.00000551,0.00014197,0.00004597,
 -0.00011806,0.00007042,-0.00008035,0.00014816,-0.23681005,0.37661474,-
 0.00091141,0.00093234,-0.00123371,0.00354336,-0.02146065,-0.04530056,0
 .00577296,-0.00462761,0.00288826,-0.00025997,-0.00076287,-0.00026400,0
 .00020698,-0.00004725,0.00008044,0.00016702,-0.00103710,-0.00020586,0.
 00016871,-0.00009590,-0.00003713,-0.00161386,-0.00197606,-0.00510991,0
 .00035807,-0.00075471,-0.00020475,-0.00001117,-0.00000214,0.00009294,-
 0.03256904,0.04864220,-0.00300686,-0.00008599,0.00128842,0.00051158,-0
 .00031085,0.00017815,-0.00000445,-0.00007053,-0.00006252,0.00015171,0.
 00003631,0.00029093,0.00033037,-0.00003164,-0.00001240,0.00009392,-0.0
 0026493,-0.00007507,0.00018190,-0.00026118,0.00065341,0.00003052,0.026
 06552,-0.02116836,0.05096312,0.00032992,0.00025455,-0.00017831,0.00010
 536,0.00020605,-0.00021099,0.00013616,0.00020144,-0.00006956,-0.440553
 81,-0.02900386,0.16877213,0.00014814,0.00004318,0.00007855,0.00040790,
 0.00800303,-0.00034534,0.00013573,0.00006914,-0.00000175,-0.00024886,-
 0.00007786,0.00110976,0.00194927,-0.00304801,-0.00060193,0.00002171,-0
 .00026777,-0.00012388,-0.00047567,-0.00038011,0.00022237,-0.02286356,-
 0.01235543,0.00767322,-0.00017855,-0.00008156,-0.00010806,0.00052089,0
 .00017609,-0.00020614,-0.00025197,-0.00000170,0.00040593,-0.00005674,0
 .00001029,0.00001750,0.00001148,-0.00000309,-0.00001939,-0.00013700,-0
 .00010009,-0.00006156,0.00002665,-0.00009797,0.00010050,0.46102407,0.0
 0042166,0.00011155,-0.00005246,0.00030979,0.00012216,-0.00005288,0.000
 29839,0.00015086,0.00000903,0.01213948,-0.04692544,-0.01470387,0.00013
 618,0.00001674,0.00008632,0.00728324,0.00334381,-0.00011538,0.00015513
 ,0.00000382,0.00002765,-0.00155736,0.00020085,0.00093930,-0.00100289,-
 0.00540900,-0.00312692,-0.00009482,-0.00051073,-0.00021879,-0.00072717
 ,-0.00009790,0.00013745,-0.05352354,-0.00287127,0.02029320,-0.00015365
 ,-0.00003610,-0.00011701,-0.00006761,0.00027305,-0.00013211,0.00033107
 ,0.00003324,0.00000954,-0.00013933,-0.00002110,0.00006647,0.00001271,-
 0.00000210,-0.00000543,-0.00017377,-0.00001398,-0.00007136,-0.00007313
 ,-0.00014269,0.00009085,0.03645906,0.05176110,0.00001408,0.00006472,-0
 .00024265,-0.00020136,0.00005814,-0.00034475,-0.00002476,-0.00003220,-
 0.00024493,0.18226226,0.00246455,-0.09281687,-0.00004741,-0.00000210,-
 0.00007655,-0.00050247,-0.00047490,-0.00599368,-0.00004022,-0.00002812
 ,-0.00007125,0.00025935,-0.00023302,0.00038235,0.00022436,-0.00120032,
 0.00452866,-0.00003368,0.00006257,-0.00000566,0.00019321,-0.00004208,0
 .00047933,-0.00521730,0.00320944,0.00794673,0.00005483,0.00003664,0.00
 009920,0.00027130,-0.00041624,-0.00023560,-0.00081828,-0.00038572,0.00
 020925,-0.00000534,-0.00000265,-0.00003055,0.00003768,0.00000744,-0.00
 004205,-0.00000274,-0.00006965,0.00006648,0.00004332,0.00003968,0.0000
 3808,-0.17645335,-0.00304713,0.08632356,0.00055897,-0.00029715,0.00036
 052,0.00013513,-0.00018374,0.00028445,0.00016948,-0.00027311,0.0000915
 3,0.00021213,0.00017210,-0.00000101,-0.19526980,0.19616082,-0.07740057
 ,0.00027663,-0.00001650,-0.00008891,0.00422770,0.00034012,0.00740713,0
 .00006804,0.00012183,-0.00058225,0.00013260,0.00010218,-0.00007273,-0.
 00008038,-0.00245467,-0.00588707,-0.00029951,0.00039670,-0.00027233,-0
 .00045233,-0.00020922,0.00015893,-0.03086746,0.03104972,-0.01681066,-0
 .00019877,-0.00009996,0.00000330,0.00000426,0.00004570,0.00003140,0.00
 039529,-0.00021112,0.00016367,-0.00130482,0.00077317,-0.00010984,-0.00
 012118,0.00010197,0.00014140,-0.00002094,0.00002420,-0.00002884,-0.000
 05112,-0.00003342,-0.00001349,0.22248610,-0.00022209,-0.00009361,-0.00
 002734,-0.00003479,-0.00002008,0.00001598,-0.00002264,-0.00002851,-0.0
 0000667,-0.00002724,-0.00008951,0.00001093,0.23325825,-0.33357029,0.08
 645923,-0.00001787,-0.00006605,-0.00000283,-0.00067299,-0.00603815,-0.
 00033564,0.00033885,-0.00009329,0.00030826,0.00002353,0.00000651,-0.00
 003713,-0.00126084,0.00070200,-0.00228071,0.00005768,0.00008759,-0.000
 00392,0.00005095,0.00016208,-0.00000515,-0.00572114,0.01999506,-0.0001
 7109,0.00002132,0.00003684,-0.00002914,0.00000724,0.00000193,-0.000006
 29,-0.00021483,0.00036535,-0.00004748,-0.00011702,0.00039683,-0.000052
 01,0.00005409,0.00001251,0.00001859,0.00001455,-0.00000234,0.00000633,
 -0.00000539,0.00001312,-0.00000906,-0.22550963,0.31822198,0.00022521,0
 .00009711,-0.00060523,-0.00002867,0.00008216,-0.00020458,0.00004164,0.
 00009890,-0.00009824,0.00006656,0.00003444,-0.00006254,-0.06825057,0.0
 5963903,-0.05138111,0.00015882,-0.00007790,-0.00015510,0.00733504,-0.0
 0000074,-0.00073540,-0.00121497,0.00108672,-0.00049913,0.00022258,0.00
 011412,-0.00010347,-0.00456351,-0.00317474,0.00247528,-0.00019590,-0.0
 0031904,0.00036856,-0.00026190,-0.00004394,0.00020451,-0.02640342,0.02
 657299,-0.00699104,-0.00012286,-0.00007291,0.00009790,-0.00007378,0.00
 000723,-0.00001919,0.00020789,-0.00016277,0.00003945,0.00022930,-0.000
 01160,-0.00006596,0.00001992,-0.00004996,0.00013105,-0.00001707,0.0000
 0228,0.00000438,0.00000031,-0.00001648,0.00003092,0.09262537,-0.083804
 89,0.05756892\\0.00001326,0.00000627,-0.00000143,0.00000621,-0.0000006
 5,0.00001447,-0.00000158,0.00000693,0.00000372,0.00000038,-0.00000689,
 -0.00000571,-0.00000300,-0.00000145,-0.00000407,0.00000294,0.00000287,
 0.00000047,0.00000304,-0.00000998,-0.00000298,-0.00000381,-0.00000239,
 -0.00000310,-0.00000439,0.00000129,-0.00000061,-0.00000419,0.00000363,
 0.00000824,-0.00000464,-0.00000702,-0.00001579,0.00000106,0.00001076,-
 0.00000283,0.00001405,0.00000280,0.00001140,-0.00000396,0.00000232,-0.
 00000144,-0.00000280,-0.00000283,-0.00000379,-0.00000137,0.00000046,-0
 .00000055,-0.00000015,-0.00000125,0.00000377,-0.00000484,-0.00000609,0
 .00000228,-0.00000099,0.00000315,-0.00000188,-0.00000312,-0.00000003,-
 0.00000117,-0.00000211,-0.00000190,0.00000100\\\@


 WHAT, THEN, IS TIME?  IF NO ONE ASKS ME, I KNOW WHAT IT IS.
 IF I WISH TO EXPLAIN WHAT IT IS TO HIM WHO ASKS ME, I DO NOT KNOW.
                                   -- ST. AUGUSTINE (FIFTH CENTURY)
 Job cpu time:       0 days  3 hours 25 minutes 16.1 seconds.
 Elapsed time:       0 days  0 hours 12 minutes 53.8 seconds.
 File lengths (MBytes):  RWF=    242 Int=      0 D2E=      0 Chk=     11 Scr=      1
 Normal termination of Gaussian 16 at Wed Oct  1 05:35:12 2025.
