 Entering Gaussian System, Link 0=g16
 Input=CICY0021.gjf
 Output=CICY0021.log
 Initial command:
 /usr/local/g16/l1.exe "/dados_01/scratch/Gau-2365556.inp" -scrdir="/dados_01/scratch/"
 Entering Link 1 = /usr/local/g16/l1.exe PID=   2365557.
  
 Copyright (c) 1988-2017, Gaussian, Inc.  All Rights Reserved.
  
 This is part of the Gaussian(R) 16 program.  It is based on
 the Gaussian(R) 09 system (copyright 2009, Gaussian, Inc.),
 the Gaussian(R) 03 system (copyright 2003, Gaussian, Inc.),
 the Gaussian(R) 98 system (copyright 1998, Gaussian, Inc.),
 the Gaussian(R) 94 system (copyright 1995, Gaussian, Inc.),
 the Gaussian 92(TM) system (copyright 1992, Gaussian, Inc.),
 the Gaussian 90(TM) system (copyright 1990, Gaussian, Inc.),
 the Gaussian 88(TM) system (copyright 1988, Gaussian, Inc.),
 the Gaussian 86(TM) system (copyright 1986, Carnegie Mellon
 University), and the Gaussian 82(TM) system (copyright 1983,
 Carnegie Mellon University). Gaussian is a federally registered
 trademark of Gaussian, Inc.
  
 This software contains proprietary and confidential information,
 including trade secrets, belonging to Gaussian, Inc.
  
 This software is provided under written license and may be
 used, copied, transmitted, or stored only in accord with that
 written license.
  
 The following legend is applicable only to US Government
 contracts under FAR:
  
                    RESTRICTED RIGHTS LEGEND
  
 Use, reproduction and disclosure by the US Government is
 subject to restrictions as set forth in subparagraphs (a)
 and (c) of the Commercial Computer Software - Restricted
 Rights clause in FAR 52.227-19.
  
 Gaussian, Inc.
 340 Quinnipiac St., Bldg. 40, Wallingford CT 06492
  
  
 ---------------------------------------------------------------
 Warning -- This program may not be used in any manner that
 competes with the business of Gaussian, Inc. or will provide
 assistance to any competitor of Gaussian, Inc.  The licensee
 of this program is prohibited from giving any competitor of
 Gaussian, Inc. access to this program.  By using this program,
 the user acknowledges that Gaussian, Inc. is engaged in the
 business of creating and licensing software in the field of
 computational chemistry and represents and warrants to the
 licensee that it is not a competitor of Gaussian, Inc. and that
 it will not use this program in any manner prohibited above.
 ---------------------------------------------------------------
  

 Cite this work as:
 Gaussian 16, Revision B.01,
 M. J. Frisch, G. W. Trucks, H. B. Schlegel, G. E. Scuseria, 
 M. A. Robb, J. R. Cheeseman, G. Scalmani, V. Barone, 
 G. A. Petersson, H. Nakatsuji, X. Li, M. Caricato, A. V. Marenich, 
 J. Bloino, B. G. Janesko, R. Gomperts, B. Mennucci, H. P. Hratchian, 
 J. V. Ortiz, A. F. Izmaylov, J. L. Sonnenberg, D. Williams-Young, 
 F. Ding, F. Lipparini, F. Egidi, J. Goings, B. Peng, A. Petrone, 
 T. Henderson, D. Ranasinghe, V. G. Zakrzewski, J. Gao, N. Rega, 
 G. Zheng, W. Liang, M. Hada, M. Ehara, K. Toyota, R. Fukuda, 
 J. Hasegawa, M. Ishida, T. Nakajima, Y. Honda, O. Kitao, H. Nakai, 
 T. Vreven, K. Throssell, J. A. Montgomery, Jr., J. E. Peralta, 
 F. Ogliaro, M. J. Bearpark, J. J. Heyd, E. N. Brothers, K. N. Kudin, 
 V. N. Staroverov, T. A. Keith, R. Kobayashi, J. Normand, 
 K. Raghavachari, A. P. Rendell, J. C. Burant, S. S. Iyengar, 
 J. Tomasi, M. Cossi, J. M. Millam, M. Klene, C. Adamo, R. Cammi, 
 J. W. Ochterski, R. L. Martin, K. Morokuma, O. Farkas, 
 J. B. Foresman, and D. J. Fox, Gaussian, Inc., Wallingford CT, 2016.
 
 ******************************************
 Gaussian 16:  ES64L-G16RevB.01 20-Dec-2017
                 1-Oct-2025 
 ******************************************
 %nprocs=16
 Will use up to   16 processors via shared memory.
 %mem=40GB
 %chk=CICY0021.chk
 ----------------------------------------------------------------------
 # opt freq=noraman M08HX/6-311++G** scf=xqc Empiricaldispersion=pfd In
 t(Grid=ultraFine)
 ----------------------------------------------------------------------
 1/18=20,19=15,26=4,38=1/1,3;
 2/9=110,12=2,17=6,18=5,40=1/2;
 3/5=4,6=6,7=1111,11=2,25=1,30=1,71=1,74=-74,75=-5,124=11/1,2,3;
 4//1;
 5/5=2,8=3,13=1,38=5/2,8;
 6/7=2,8=2,9=2,10=2,28=1/1;
 7//1,2,3,16;
 1/18=20,19=15,26=4/3(2);
 2/9=110/2;
 99//99;
 2/9=110/2;
 3/5=4,6=6,7=1111,11=2,25=1,30=1,71=1,74=-74,75=-5,124=11/1,2,3;
 4/5=5,16=3,69=1/1;
 5/5=2,8=3,13=1,38=5/2,8;
 7//1,2,3,16;
 1/18=20,19=15,26=4/3(-5);
 2/9=110/2;
 6/7=2,8=2,9=2,10=2,19=2,28=1/1;
 99/9=1/99;
 --------
 CICY0021
 --------
 Symbolic Z-matrix:
 Charge =  0 Multiplicity = 1
 O                    -0.2455    1.562    -0.7906 
 O                    -2.0775   -0.3613    0.0585 
 C                    -0.0178    0.8971    0.4478 
 C                    -0.7337   -0.4473    0.4866 
 C                     1.4473    0.4872    0.522 
 C                     0.0951   -1.3159   -0.4502 
 C                     1.5321   -0.8219   -0.2742 
 H                    -0.3163    1.5673    1.2589 
 H                    -0.7105   -0.8668    1.4998 
 H                     1.7325    0.2956    1.5631 
 H                     2.1232    1.243     0.1098 
 H                    -0.2295   -1.1951   -1.491 
 H                    -0.0058   -2.3795   -0.2106 
 H                     1.9976   -0.6568   -1.2521 
 H                     2.1441   -1.5564    0.2602 
 H                    -1.2039    1.7074   -0.8678 
 H                    -2.5296    0.2708    0.6431 
 

 GradGradGradGradGradGradGradGradGradGradGradGradGradGradGradGradGradGrad
 Berny optimization.
 Initialization pass.
                           ----------------------------
                           !    Initial Parameters    !
                           ! (Angstroms and Degrees)  !
 --------------------------                            --------------------------
 ! Name  Definition              Value          Derivative Info.                !
 --------------------------------------------------------------------------------
 ! R1    R(1,3)                  1.4239         estimate D2E/DX2                !
 ! R2    R(1,16)                 0.9724         estimate D2E/DX2                !
 ! R3    R(2,4)                  1.413          estimate D2E/DX2                !
 ! R4    R(2,17)                 0.9725         estimate D2E/DX2                !
 ! R5    R(3,4)                  1.5236         estimate D2E/DX2                !
 ! R6    R(3,5)                  1.5232         estimate D2E/DX2                !
 ! R7    R(3,8)                  1.0937         estimate D2E/DX2                !
 ! R8    R(4,6)                  1.5228         estimate D2E/DX2                !
 ! R9    R(4,9)                  1.0969         estimate D2E/DX2                !
 ! R10   R(5,7)                  1.5346         estimate D2E/DX2                !
 ! R11   R(5,10)                 1.0963         estimate D2E/DX2                !
 ! R12   R(5,11)                 1.0945         estimate D2E/DX2                !
 ! R13   R(6,7)                  1.5297         estimate D2E/DX2                !
 ! R14   R(6,12)                 1.0969         estimate D2E/DX2                !
 ! R15   R(6,13)                 1.0949         estimate D2E/DX2                !
 ! R16   R(7,14)                 1.0956         estimate D2E/DX2                !
 ! R17   R(7,15)                 1.0953         estimate D2E/DX2                !
 ! A1    A(3,1,16)             107.2454         estimate D2E/DX2                !
 ! A2    A(4,2,17)             107.4316         estimate D2E/DX2                !
 ! A3    A(1,3,4)              111.0407         estimate D2E/DX2                !
 ! A4    A(1,3,5)              108.7743         estimate D2E/DX2                !
 ! A5    A(1,3,8)              108.3733         estimate D2E/DX2                !
 ! A6    A(4,3,5)              102.3134         estimate D2E/DX2                !
 ! A7    A(4,3,8)              113.1775         estimate D2E/DX2                !
 ! A8    A(5,3,8)              113.0357         estimate D2E/DX2                !
 ! A9    A(2,4,3)              112.6714         estimate D2E/DX2                !
 ! A10   A(2,4,6)              111.4657         estimate D2E/DX2                !
 ! A11   A(2,4,9)              108.8606         estimate D2E/DX2                !
 ! A12   A(3,4,6)              103.4091         estimate D2E/DX2                !
 ! A13   A(3,4,9)              110.5518         estimate D2E/DX2                !
 ! A14   A(6,4,9)              109.7913         estimate D2E/DX2                !
 ! A15   A(3,5,7)              104.9188         estimate D2E/DX2                !
 ! A16   A(3,5,10)             110.0911         estimate D2E/DX2                !
 ! A17   A(3,5,11)             112.9428         estimate D2E/DX2                !
 ! A18   A(7,5,10)             109.2229         estimate D2E/DX2                !
 ! A19   A(7,5,11)             111.0727         estimate D2E/DX2                !
 ! A20   A(10,5,11)            108.5218         estimate D2E/DX2                !
 ! A21   A(4,6,7)              104.8502         estimate D2E/DX2                !
 ! A22   A(4,6,12)             111.09           estimate D2E/DX2                !
 ! A23   A(4,6,13)             111.6727         estimate D2E/DX2                !
 ! A24   A(7,6,12)             110.5848         estimate D2E/DX2                !
 ! A25   A(7,6,13)             112.0302         estimate D2E/DX2                !
 ! A26   A(12,6,13)            106.6989         estimate D2E/DX2                !
 ! A27   A(5,7,6)              106.4559         estimate D2E/DX2                !
 ! A28   A(5,7,14)             110.9803         estimate D2E/DX2                !
 ! A29   A(5,7,15)             110.4756         estimate D2E/DX2                !
 ! A30   A(6,7,14)             110.189          estimate D2E/DX2                !
 ! A31   A(6,7,15)             111.3753         estimate D2E/DX2                !
 ! A32   A(14,7,15)            107.4071         estimate D2E/DX2                !
 ! D1    D(16,1,3,4)            60.7478         estimate D2E/DX2                !
 ! D2    D(16,1,3,5)           172.5928         estimate D2E/DX2                !
 ! D3    D(16,1,3,8)           -64.15           estimate D2E/DX2                !
 ! D4    D(17,2,4,3)           -58.8604         estimate D2E/DX2                !
 ! D5    D(17,2,4,6)          -174.6019         estimate D2E/DX2                !
 ! D6    D(17,2,4,9)            64.1461         estimate D2E/DX2                !
 ! D7    D(1,3,4,2)            -47.4485         estimate D2E/DX2                !
 ! D8    D(1,3,4,6)             73.035          estimate D2E/DX2                !
 ! D9    D(1,3,4,9)           -169.5053         estimate D2E/DX2                !
 ! D10   D(5,3,4,2)           -163.356          estimate D2E/DX2                !
 ! D11   D(5,3,4,6)            -42.8725         estimate D2E/DX2                !
 ! D12   D(5,3,4,9)             74.5872         estimate D2E/DX2                !
 ! D13   D(8,3,4,2)             74.697          estimate D2E/DX2                !
 ! D14   D(8,3,4,6)           -164.8196         estimate D2E/DX2                !
 ! D15   D(8,3,4,9)            -47.3599         estimate D2E/DX2                !
 ! D16   D(1,3,5,7)            -82.0256         estimate D2E/DX2                !
 ! D17   D(1,3,5,10)           160.5704         estimate D2E/DX2                !
 ! D18   D(1,3,5,11)            39.0948         estimate D2E/DX2                !
 ! D19   D(4,3,5,7)             35.5124         estimate D2E/DX2                !
 ! D20   D(4,3,5,10)           -81.8916         estimate D2E/DX2                !
 ! D21   D(4,3,5,11)           156.6328         estimate D2E/DX2                !
 ! D22   D(8,3,5,7)            157.5562         estimate D2E/DX2                !
 ! D23   D(8,3,5,10)            40.1523         estimate D2E/DX2                !
 ! D24   D(8,3,5,11)           -81.3234         estimate D2E/DX2                !
 ! D25   D(2,4,6,7)            154.9339         estimate D2E/DX2                !
 ! D26   D(2,4,6,12)            35.4542         estimate D2E/DX2                !
 ! D27   D(2,4,6,13)           -83.5361         estimate D2E/DX2                !
 ! D28   D(3,4,6,7)             33.6334         estimate D2E/DX2                !
 ! D29   D(3,4,6,12)           -85.8463         estimate D2E/DX2                !
 ! D30   D(3,4,6,13)           155.1634         estimate D2E/DX2                !
 ! D31   D(9,4,6,7)            -84.3578         estimate D2E/DX2                !
 ! D32   D(9,4,6,12)           156.1625         estimate D2E/DX2                !
 ! D33   D(9,4,6,13)            37.1722         estimate D2E/DX2                !
 ! D34   D(3,5,7,6)            -14.9803         estimate D2E/DX2                !
 ! D35   D(3,5,7,14)           104.9323         estimate D2E/DX2                !
 ! D36   D(3,5,7,15)          -136.0424         estimate D2E/DX2                !
 ! D37   D(10,5,7,6)           103.0144         estimate D2E/DX2                !
 ! D38   D(10,5,7,14)         -137.073          estimate D2E/DX2                !
 ! D39   D(10,5,7,15)          -18.0477         estimate D2E/DX2                !
 ! D40   D(11,5,7,6)          -137.3232         estimate D2E/DX2                !
 ! D41   D(11,5,7,14)          -17.4106         estimate D2E/DX2                !
 ! D42   D(11,5,7,15)          101.6148         estimate D2E/DX2                !
 ! D43   D(4,6,7,5)            -11.4838         estimate D2E/DX2                !
 ! D44   D(4,6,7,14)          -131.9077         estimate D2E/DX2                !
 ! D45   D(4,6,7,15)           109.0005         estimate D2E/DX2                !
 ! D46   D(12,6,7,5)           108.3337         estimate D2E/DX2                !
 ! D47   D(12,6,7,14)          -12.0902         estimate D2E/DX2                !
 ! D48   D(12,6,7,15)         -131.182          estimate D2E/DX2                !
 ! D49   D(13,6,7,5)          -132.7791         estimate D2E/DX2                !
 ! D50   D(13,6,7,14)          106.797          estimate D2E/DX2                !
 ! D51   D(13,6,7,15)          -12.2947         estimate D2E/DX2                !
 --------------------------------------------------------------------------------
 Trust Radius=3.00D-01 FncErr=1.00D-07 GrdErr=1.00D-06 EigMax=2.50D+02 EigMin=1.00D-04
 Number of steps in this run=    102 maximum allowed number of steps=    102.
 GradGradGradGradGradGradGradGradGradGradGradGradGradGradGradGradGradGrad

                          Input orientation:                          
 ---------------------------------------------------------------------
 Center     Atomic      Atomic             Coordinates (Angstroms)
 Number     Number       Type             X           Y           Z
 ---------------------------------------------------------------------
      1          8           0       -0.245500    1.562000   -0.790600
      2          8           0       -2.077500   -0.361300    0.058500
      3          6           0       -0.017800    0.897100    0.447800
      4          6           0       -0.733700   -0.447300    0.486600
      5          6           0        1.447300    0.487200    0.522000
      6          6           0        0.095100   -1.315900   -0.450200
      7          6           0        1.532100   -0.821900   -0.274200
      8          1           0       -0.316300    1.567300    1.258900
      9          1           0       -0.710500   -0.866800    1.499800
     10          1           0        1.732500    0.295600    1.563100
     11          1           0        2.123200    1.243000    0.109800
     12          1           0       -0.229500   -1.195100   -1.491000
     13          1           0       -0.005800   -2.379500   -0.210600
     14          1           0        1.997600   -0.656800   -1.252100
     15          1           0        2.144100   -1.556400    0.260200
     16          1           0       -1.203900    1.707400   -0.867800
     17          1           0       -2.529600    0.270800    0.643100
 ---------------------------------------------------------------------
                    Distance matrix (angstroms):
                    1          2          3          4          5
     1  O    0.000000
     2  O    2.788598   0.000000
     3  C    1.423929   2.444890   0.000000
     4  C    2.430404   1.412963   1.523624   0.000000
     5  C    2.396599   3.654997   1.523168   2.373037   0.000000
     6  C    2.917908   2.426979   2.390924   1.522816   2.454544
     7  C    3.018196   3.654046   2.424548   2.419296   1.534558
     8  H    2.050729   2.874419   1.093688   2.197563   2.195432
     9  H    3.370642   2.049772   2.167459   1.096856   2.728646
    10  H    3.325080   4.148667   2.160844   2.791576   1.096330
    11  H    2.554060   4.496920   2.194942   3.340804   1.094524
    12  H    2.844717   2.551720   2.860256   2.173551   3.113513
    13  H    3.991150   2.904735   3.342116   2.179294   3.296388
    14  H    3.188660   4.290855   3.060409   3.244529   2.181513
    15  H    4.066791   4.392135   3.275464   3.092425   2.174941
    16  H    0.972436   2.429141   1.947876   2.588092   3.232537
    17  H    2.989951   0.972472   2.596061   1.940468   3.984624
                    6          7          8          9         10
     6  C    0.000000
     7  C    1.529700   0.000000
     8  H    3.376850   3.387515   0.000000
     9  H    2.157124   2.859781   2.477553   0.000000
    10  H    3.054732   2.159777   2.430502   2.706184   0.000000
    11  H    3.312817   2.181895   2.716019   3.796474   1.778284
    12  H    1.096915   2.173273   3.898761   3.046970   3.924176
    13  H    1.094913   2.189817   4.222922   2.389630   3.650186
    14  H    2.167248   1.095553   4.075031   3.866634   2.983738
    15  H    2.181951   1.095271   4.099814   3.187616   2.301492
    16  H    3.316946   3.772985   2.308747   3.532064   4.065083
    17  H    3.256067   4.304978   2.637957   2.310237   4.360334
                   11         12         13         14         15
    11  H    0.000000
    12  H    3.747278   0.000000
    13  H    4.214001   1.758485   0.000000
    14  H    2.340894   2.303652   2.840076   0.000000
    15  H    2.803515   2.971736   2.349727   1.765728   0.000000
    16  H    3.498709   3.124474   4.309305   3.998341   4.809769
    17  H    4.783109   3.463193   3.757986   4.994774   5.032767
                   16         17
    16  H    0.000000
    17  H    2.470652   0.000000
 Stoichiometry    C5H10O2
 Framework group  C1[X(C5H10O2)]
 Deg. of freedom    45
 Full point group                 C1      NOp   1
 Largest Abelian subgroup         C1      NOp   1
 Largest concise Abelian subgroup C1      NOp   1
                         Standard orientation:                         
 ---------------------------------------------------------------------
 Center     Atomic      Atomic             Coordinates (Angstroms)
 Number     Number       Type             X           Y           Z
 ---------------------------------------------------------------------
      1          8           0       -0.367983    1.514609   -0.798392
      2          8           0       -1.998794   -0.585413    0.042227
      3          6           0       -0.083335    0.879867    0.444046
      4          6           0       -0.656956   -0.531155    0.481534
      5          6           0        1.415569    0.623595    0.531542
      6          6           0        0.264945   -1.311892   -0.445568
      7          6           0        1.641747   -0.671743   -0.259541
      8          1           0       -0.456248    1.517697    1.250434
      9          1           0       -0.599135   -0.943483    1.496292
     10          1           0        1.710223    0.465066    1.575565
     11          1           0        2.013307    1.444101    0.122319
     12          1           0       -0.061593   -1.227850   -1.489375
     13          1           0        0.272341   -2.379623   -0.203226
     14          1           0        2.095958   -0.461914   -1.234170
     15          1           0        2.321755   -1.337799    0.282285
     16          1           0       -1.335585    1.560098   -0.883876
     17          1           0       -2.518637   -0.001904    0.621002
 ---------------------------------------------------------------------
 Rotational constants (GHZ):           3.7172745           2.6933999           1.9658400
 Standard basis: 6-311++G(d,p) (5D, 7F)
 There are   231 symmetry adapted cartesian basis functions of A   symmetry.
 There are   224 symmetry adapted basis functions of A   symmetry.
   224 basis functions,   342 primitive gaussians,   231 cartesian basis functions
    28 alpha electrons       28 beta electrons
       nuclear repulsion energy       338.0226370977 Hartrees.
 NAtoms=   17 NActive=   17 NUniq=   17 SFac= 1.00D+00 NAtFMM=   60 NAOKFM=F Big=F
 Integral buffers will be    131072 words long.
 Raffenetti 2 integral format.
 Two-electron integral symmetry is turned on.
 R6APFD:  NTU= -4 IXU= 1 FactS= 1.050
 Nuclear repulsion after empirical dispersion term =      338.0110009853 Hartrees.
 One-electron integrals computed using PRISM.
 NBasis=   224 RedAO= T EigKep=  7.64D-06  NBF=   224
 NBsUse=   224 1.00D-06 EigRej= -1.00D+00 NBFU=   224
 ExpMin= 3.60D-02 ExpMax= 8.59D+03 ExpMxC= 1.30D+03 IAcc=3 IRadAn=         5 AccDes= 0.00D+00
 Harris functional with IExCor= 1009 and IRadAn=       5 diagonalized for initial guess.
 HarFok:  IExCor= 1009 AccDes= 0.00D+00 IRadAn=         5 IDoV= 1 UseB2=F ITyADJ=14
 ICtDFT=  3500011 ScaDFX=  1.000000  1.000000  1.000000  1.000000
 FoFCou: FMM=F IPFlag=           0 FMFlag=      100000 FMFlg1=           0
         NFxFlg=           0 DoJE=T BraDBF=F KetDBF=T FulRan=T
         wScrn=  0.000000 ICntrl=       500 IOpCl=  0 I1Cent=   200000004 NGrid=           0
         NMat0=    1 NMatS0=      1 NMatT0=    0 NMatD0=    1 NMtDS0=    0 NMtDT0=    0
 Petite list used in FoFCou.
 Requested convergence on RMS density matrix=1.00D-08 within  32 cycles.
 Requested convergence on MAX density matrix=1.00D-06.
 Requested convergence on             energy=1.00D-06.
 No special actions if energy rises.
 SCF Done:  E(RM08HX) =  -346.997156148     A.U. after   12 cycles
            NFock= 12  Conv=0.72D-08     -V/T= 2.0042
 QCSCF skips out because SCF is already converged.

 **********************************************************************

            Population analysis using the SCF Density.

 **********************************************************************

 Orbital symmetries:
       Occupied  (A) (A) (A) (A) (A) (A) (A) (A) (A) (A) (A) (A)
                 (A) (A) (A) (A) (A) (A) (A) (A) (A) (A) (A) (A)
                 (A) (A) (A) (A)
       Virtual   (A) (A) (A) (A) (A) (A) (A) (A) (A) (A) (A) (A)
                 (A) (A) (A) (A) (A) (A) (A) (A) (A) (A) (A) (A)
                 (A) (A) (A) (A) (A) (A) (A) (A) (A) (A) (A) (A)
                 (A) (A) (A) (A) (A) (A) (A) (A) (A) (A) (A) (A)
                 (A) (A) (A) (A) (A) (A) (A) (A) (A) (A) (A) (A)
                 (A) (A) (A) (A) (A) (A) (A) (A) (A) (A) (A) (A)
                 (A) (A) (A) (A) (A) (A) (A) (A) (A) (A) (A) (A)
                 (A) (A) (A) (A) (A) (A) (A) (A) (A) (A) (A) (A)
                 (A) (A) (A) (A) (A) (A) (A) (A) (A) (A) (A) (A)
                 (A) (A) (A) (A) (A) (A) (A) (A) (A) (A) (A) (A)
                 (A) (A) (A) (A) (A) (A) (A) (A) (A) (A) (A) (A)
                 (A) (A) (A) (A) (A) (A) (A) (A) (A) (A) (A) (A)
                 (A) (A) (A) (A) (A) (A) (A) (A) (A) (A) (A) (A)
                 (A) (A) (A) (A) (A) (A) (A) (A) (A) (A) (A) (A)
                 (A) (A) (A) (A) (A) (A) (A) (A) (A) (A) (A) (A)
                 (A) (A) (A) (A) (A) (A) (A) (A) (A) (A) (A) (A)
                 (A) (A) (A) (A)
 The electronic state is 1-A.
 Alpha  occ. eigenvalues --  -19.62082 -19.60914 -10.58108 -10.57971 -10.52482
 Alpha  occ. eigenvalues --  -10.52069 -10.51851  -1.16560  -1.13416  -0.94144
 Alpha  occ. eigenvalues --   -0.81417  -0.80145  -0.67136  -0.65601  -0.61769
 Alpha  occ. eigenvalues --   -0.58749  -0.57375  -0.52542  -0.50401  -0.47173
 Alpha  occ. eigenvalues --   -0.44468  -0.44253  -0.42539  -0.40470  -0.38804
 Alpha  occ. eigenvalues --   -0.38313  -0.36651  -0.34277
 Alpha virt. eigenvalues --   -0.03841  -0.02008  -0.00994  -0.00605   0.01315
 Alpha virt. eigenvalues --    0.01358   0.01671   0.02497   0.02720   0.05749
 Alpha virt. eigenvalues --    0.06590   0.06943   0.07357   0.08071   0.08444
 Alpha virt. eigenvalues --    0.09054   0.09586   0.11079   0.11860   0.12693
 Alpha virt. eigenvalues --    0.12811   0.13298   0.13613   0.14339   0.14381
 Alpha virt. eigenvalues --    0.14990   0.15403   0.15670   0.16422   0.17969
 Alpha virt. eigenvalues --    0.19604   0.19932   0.21828   0.22774   0.23835
 Alpha virt. eigenvalues --    0.25087   0.25413   0.26502   0.27711   0.28691
 Alpha virt. eigenvalues --    0.29319   0.30947   0.31789   0.32199   0.32867
 Alpha virt. eigenvalues --    0.33577   0.34429   0.34896   0.35809   0.37545
 Alpha virt. eigenvalues --    0.38540   0.39294   0.39640   0.40919   0.42189
 Alpha virt. eigenvalues --    0.49928   0.50303   0.51825   0.53495   0.54517
 Alpha virt. eigenvalues --    0.54662   0.57174   0.59477   0.61182   0.63743
 Alpha virt. eigenvalues --    0.67355   0.68359   0.69381   0.69766   0.71407
 Alpha virt. eigenvalues --    0.71953   0.73760   0.74342   0.75875   0.76645
 Alpha virt. eigenvalues --    0.77129   0.78511   0.78637   0.80014   0.84900
 Alpha virt. eigenvalues --    0.89210   0.97103   0.98958   1.02760   1.05341
 Alpha virt. eigenvalues --    1.12540   1.15810   1.18736   1.19815   1.23482
 Alpha virt. eigenvalues --    1.24460   1.27467   1.28099   1.30556   1.33669
 Alpha virt. eigenvalues --    1.37134   1.38625   1.43913   1.45064   1.47461
 Alpha virt. eigenvalues --    1.51079   1.56252   1.57021   1.59052   1.60072
 Alpha virt. eigenvalues --    1.61339   1.63941   1.65073   1.65291   1.67918
 Alpha virt. eigenvalues --    1.69598   1.72351   1.74846   1.75145   1.76062
 Alpha virt. eigenvalues --    1.78215   1.78811   1.83332   1.85759   1.88206
 Alpha virt. eigenvalues --    1.89066   1.90275   1.92838   1.98963   2.01467
 Alpha virt. eigenvalues --    2.02221   2.06761   2.08426   2.11910   2.14735
 Alpha virt. eigenvalues --    2.16514   2.19504   2.21567   2.25692   2.30007
 Alpha virt. eigenvalues --    2.33014   2.36024   2.39744   2.44775   2.49101
 Alpha virt. eigenvalues --    2.52196   2.52391   2.55756   2.58761   2.60061
 Alpha virt. eigenvalues --    2.62468   2.67869   2.68736   2.71690   2.73072
 Alpha virt. eigenvalues --    2.74675   2.77991   2.79380   2.81521   2.84815
 Alpha virt. eigenvalues --    2.87281   2.90544   2.94400   3.00026   3.06677
 Alpha virt. eigenvalues --    3.12004   3.16619   3.19887   3.22144   3.25991
 Alpha virt. eigenvalues --    3.30160   3.33136   3.36334   3.38955   3.45855
 Alpha virt. eigenvalues --    3.47892   3.61839   3.83482   3.90609   3.91751
 Alpha virt. eigenvalues --    4.00244   4.07090   4.11387   4.17355   4.19924
 Alpha virt. eigenvalues --    4.32932   4.42428   4.49046   5.20385   5.25967
 Alpha virt. eigenvalues --    5.53623   5.56337   5.73199   5.78448  23.86478
 Alpha virt. eigenvalues --   23.88864  23.95986  23.98615  24.00002  49.95485
 Alpha virt. eigenvalues --   49.97399
          Condensed to atoms (all electrons):
               1          2          3          4          5          6
     1  O    7.869026  -0.043916   0.323296   0.000610  -0.103907  -0.022474
     2  O   -0.043916   7.969923  -0.116159   0.414802  -0.010930  -0.330230
     3  C    0.323296  -0.116159   7.732029   0.122336  -1.850659  -1.091065
     4  C    0.000610   0.414802   0.122336   7.431102  -0.838819  -1.449356
     5  C   -0.103907  -0.010930  -1.850659  -0.838819   8.632926   1.693468
     6  C   -0.022474  -0.330230  -1.091065  -1.449356   1.693468   9.014225
     7  C   -0.077090   0.083142   0.749179   0.409482  -1.464107  -1.756763
     8  H   -0.043954  -0.019953   0.510660   0.031511  -0.249158  -0.039474
     9  H   -0.002181   0.013586   0.013366   0.520172  -0.086666  -0.341608
    10  H    0.015760  -0.007042  -0.084883   0.008399   0.507927   0.061822
    11  H   -0.022809   0.002350  -0.153671  -0.004075   0.567774   0.033729
    12  H   -0.018110   0.011084  -0.006806  -0.101540   0.012193   0.446205
    13  H    0.003597  -0.002862  -0.021980  -0.124337   0.066323   0.604699
    14  H    0.010633  -0.003759  -0.002728   0.072895  -0.086387  -0.098610
    15  H   -0.001761   0.002229   0.024675  -0.009073  -0.099731  -0.084400
    16  H    0.232499   0.040297  -0.024265  -0.031166   0.037136  -0.011587
    17  H   -0.017575   0.223490   0.061605  -0.045994  -0.024038   0.012016
               7          8          9         10         11         12
     1  O   -0.077090  -0.043954  -0.002181   0.015760  -0.022809  -0.018110
     2  O    0.083142  -0.019953   0.013586  -0.007042   0.002350   0.011084
     3  C    0.749179   0.510660   0.013366  -0.084883  -0.153671  -0.006806
     4  C    0.409482   0.031511   0.520172   0.008399  -0.004075  -0.101540
     5  C   -1.464107  -0.249158  -0.086666   0.507927   0.567774   0.012193
     6  C   -1.756763  -0.039474  -0.341608   0.061822   0.033729   0.446205
     7  C    7.587888  -0.011060   0.115677  -0.132094  -0.100673  -0.031148
     8  H   -0.011060   0.627902  -0.031401   0.015469  -0.023199  -0.009583
     9  H    0.115677  -0.031401   0.597262  -0.024286   0.004404   0.012825
    10  H   -0.132094   0.015469  -0.024286   0.452943  -0.009683  -0.003808
    11  H   -0.100673  -0.023199   0.004404  -0.009683   0.413082   0.001651
    12  H   -0.031148  -0.009583   0.012825  -0.003808   0.001651   0.404412
    13  H   -0.150389   0.002783  -0.028400   0.003049   0.000562  -0.015821
    14  H    0.482274   0.007633  -0.002243   0.003997  -0.006115  -0.013704
    15  H    0.513730  -0.002571   0.006121  -0.010125  -0.000259   0.001067
    16  H    0.019767  -0.035977   0.014273  -0.006416   0.008053   0.007217
    17  H    0.013720  -0.000436  -0.021953  -0.000108  -0.000116   0.004765
              13         14         15         16         17
     1  O    0.003597   0.010633  -0.001761   0.232499  -0.017575
     2  O   -0.002862  -0.003759   0.002229   0.040297   0.223490
     3  C   -0.021980  -0.002728   0.024675  -0.024265   0.061605
     4  C   -0.124337   0.072895  -0.009073  -0.031166  -0.045994
     5  C    0.066323  -0.086387  -0.099731   0.037136  -0.024038
     6  C    0.604699  -0.098610  -0.084400  -0.011587   0.012016
     7  C   -0.150389   0.482274   0.513730   0.019767   0.013720
     8  H    0.002783   0.007633  -0.002571  -0.035977  -0.000436
     9  H   -0.028400  -0.002243   0.006121   0.014273  -0.021953
    10  H    0.003049   0.003997  -0.010125  -0.006416  -0.000108
    11  H    0.000562  -0.006115  -0.000259   0.008053  -0.000116
    12  H   -0.015821  -0.013704   0.001067   0.007217   0.004765
    13  H    0.443384   0.001249  -0.004657  -0.001847  -0.003139
    14  H    0.001249   0.444613  -0.015799  -0.002421  -0.000796
    15  H   -0.004657  -0.015799   0.462709   0.001244   0.000135
    16  H   -0.001847  -0.002421   0.001244   0.490643  -0.006331
    17  H   -0.003139  -0.000796   0.000135  -0.006331   0.521141
 Mulliken charges:
               1
     1  O   -0.101644
     2  O   -0.226052
     3  C   -0.184928
     4  C   -0.406950
     5  C   -0.703344
     6  C   -0.640598
     7  C   -0.251534
     8  H    0.270808
     9  H    0.241053
    10  H    0.209078
    11  H    0.288996
    12  H    0.299101
    13  H    0.227784
    14  H    0.209268
    15  H    0.216464
    16  H    0.268881
    17  H    0.283615
 Sum of Mulliken charges =  -0.00000
 Mulliken charges with hydrogens summed into heavy atoms:
               1
     1  O    0.167238
     2  O    0.057563
     3  C    0.085880
     4  C   -0.165896
     5  C   -0.205270
     6  C   -0.113712
     7  C    0.174198
 Electronic spatial extent (au):  <R**2>=            712.0038
 Charge=              0.0000 electrons
 Dipole moment (field-independent basis, Debye):
    X=             -0.3337    Y=              0.2272    Z=              2.2445  Tot=              2.2805
 Quadrupole moment (field-independent basis, Debye-Ang):
   XX=            -41.2084   YY=            -46.4613   ZZ=            -43.6789
   XY=             -5.1719   XZ=             -2.0405   YZ=              1.2400
 Traceless Quadrupole moment (field-independent basis, Debye-Ang):
   XX=              2.5745   YY=             -2.6784   ZZ=              0.1040
   XY=             -5.1719   XZ=             -2.0405   YZ=              1.2400
 Octapole moment (field-independent basis, Debye-Ang**2):
  XXX=            -17.6985  YYY=             -0.8832  ZZZ=             -1.0227  XYY=             -3.8549
  XXY=             14.9847  XXZ=              4.2894  XZZ=             -5.5156  YZZ=             -0.5649
  YYZ=              2.1480  XYZ=              1.3378
 Hexadecapole moment (field-independent basis, Debye-Ang**3):
 XXXX=           -430.5769 YYYY=           -333.9060 ZZZZ=           -147.1025 XXXY=            -23.4582
 XXXZ=            -15.8251 YYYX=             -7.9469 YYYZ=             -1.8742 ZZZX=             -0.5168
 ZZZY=             -3.3422 XXYY=           -128.0511 XXZZ=            -93.2305 YYZZ=            -81.1052
 XXYZ=             -7.8617 YYXZ=              3.5346 ZZXY=             -2.9786
 N-N= 3.380110009853D+02 E-N=-1.486940464388D+03  KE= 3.455318735890D+02
 R6APFD:  NTU= -4 IXU= 1 FactS= 1.050
 Calling FoFJK, ICntrl=      2127 FMM=F ISym2X=0 I1Cent= 0 IOpClX= 0 NMat=1 NMatS=1 NMatT=0.
 ***** Axes restored to original set *****
 -------------------------------------------------------------------
 Center     Atomic                   Forces (Hartrees/Bohr)
 Number     Number              X              Y              Z
 -------------------------------------------------------------------
      1        8          -0.010316538   -0.001088084    0.001601939
      2        8          -0.010991120    0.011751951    0.005256546
      3        6           0.007815104    0.009049055   -0.003495677
      4        6          -0.006523210   -0.002708863   -0.005578934
      5        6           0.003920608    0.002400270    0.000866823
      6        6          -0.003013270   -0.010799722   -0.003842220
      7        6           0.007610545   -0.004825965   -0.004974324
      8        1          -0.001493842    0.002025017    0.007391424
      9        1           0.003861514    0.000626756    0.005875648
     10        1          -0.000906825    0.003420206    0.002056796
     11        1          -0.002396724    0.003925387    0.002871340
     12        1          -0.003936181    0.003849618    0.002015483
     13        1          -0.001743871   -0.000819447   -0.000110136
     14        1           0.001169386   -0.000587467    0.000613687
     15        1           0.001740835   -0.000660062   -0.001121641
     16        1           0.012388249   -0.004481106   -0.002824613
     17        1           0.002815340   -0.011077544   -0.006602140
 -------------------------------------------------------------------
 Cartesian Forces:  Max     0.012388249 RMS     0.005348344

 GradGradGradGradGradGradGradGradGradGradGradGradGradGradGradGradGradGrad
 Berny optimization.
 FormGI is forming the generalized inverse of G from B-inverse, IUseBI=4.
 Internal  Forces:  Max     0.012701039 RMS     0.003412630
 Search for a local minimum.
 Step number   1 out of a maximum of  102
 All quantities printed in internal units (Hartrees-Bohrs-Radians)
 Mixed Optimization -- RFO/linear search
 Second derivative matrix not updated -- first step.
 ITU=  0
     Eigenvalues ---    0.00401   0.00652   0.01375   0.01520   0.02228
     Eigenvalues ---    0.02290   0.04265   0.04634   0.04871   0.04931
     Eigenvalues ---    0.05179   0.05252   0.05628   0.05791   0.06306
     Eigenvalues ---    0.06801   0.07019   0.07085   0.07145   0.07317
     Eigenvalues ---    0.09270   0.10270   0.11901   0.14202   0.16000
     Eigenvalues ---    0.16000   0.19231   0.20387   0.27084   0.27512
     Eigenvalues ---    0.28812   0.29547   0.29812   0.34026   0.34032
     Eigenvalues ---    0.34091   0.34179   0.34211   0.34251   0.34295
     Eigenvalues ---    0.34390   0.41874   0.43538   0.52875   0.52882
 RFO step:  Lambda=-7.07019755D-03 EMin= 4.01160636D-03
 Linear search not attempted -- first point.
 Iteration  1 RMS(Cart)=  0.05833822 RMS(Int)=  0.00220105
 Iteration  2 RMS(Cart)=  0.00242167 RMS(Int)=  0.00023900
 Iteration  3 RMS(Cart)=  0.00000661 RMS(Int)=  0.00023896
 Iteration  4 RMS(Cart)=  0.00000000 RMS(Int)=  0.00023896
 Variable       Old X    -DE/DX   Delta X   Delta X   Delta X     New X
                                 (Linear)    (Quad)   (Total)
    R1        2.69084  -0.00187   0.00000  -0.00438  -0.00438   2.68645
    R2        1.83764  -0.01266   0.00000  -0.02362  -0.02362   1.81402
    R3        2.67011   0.00822   0.00000   0.01858   0.01858   2.68870
    R4        1.83771  -0.01247   0.00000  -0.02328  -0.02328   1.81443
    R5        2.87923   0.00771   0.00000   0.02520   0.02522   2.90445
    R6        2.87837   0.00014   0.00000  -0.00209  -0.00208   2.87629
    R7        2.06677   0.00713   0.00000   0.02031   0.02031   2.08708
    R8        2.87771   0.00354   0.00000   0.01169   0.01176   2.88947
    R9        2.07276   0.00527   0.00000   0.01517   0.01517   2.08793
   R10        2.89989   0.01270   0.00000   0.04302   0.04295   2.94285
   R11        2.07176   0.00112   0.00000   0.00321   0.00321   2.07498
   R12        2.06835   0.00015   0.00000   0.00043   0.00043   2.06878
   R13        2.89071   0.01226   0.00000   0.04267   0.04264   2.93336
   R14        2.07287  -0.00032   0.00000  -0.00093  -0.00093   2.07194
   R15        2.06909   0.00093   0.00000   0.00267   0.00267   2.07176
   R16        2.07030  -0.00014   0.00000  -0.00040  -0.00040   2.06989
   R17        2.06976   0.00087   0.00000   0.00249   0.00249   2.07225
    A1        1.87179   0.00411   0.00000   0.02460   0.02460   1.89639
    A2        1.87504   0.00459   0.00000   0.02748   0.02748   1.90252
    A3        1.93803  -0.00227   0.00000  -0.02002  -0.02012   1.91791
    A4        1.89847  -0.00319   0.00000  -0.02867  -0.02873   1.86974
    A5        1.89147   0.00428   0.00000   0.04696   0.04706   1.93853
    A6        1.78571   0.00389   0.00000   0.00360   0.00301   1.78871
    A7        1.97532  -0.00218   0.00000  -0.01283  -0.01269   1.96262
    A8        1.97285  -0.00090   0.00000   0.00587   0.00606   1.97890
    A9        1.96649   0.00277   0.00000   0.01619   0.01634   1.98282
   A10        1.94544  -0.00170   0.00000  -0.00059  -0.00062   1.94483
   A11        1.89998   0.00068   0.00000   0.01411   0.01422   1.91419
   A12        1.80483  -0.00055   0.00000  -0.00822  -0.00826   1.79657
   A13        1.92949  -0.00264   0.00000  -0.02393  -0.02413   1.90536
   A14        1.91622   0.00134   0.00000   0.00066   0.00042   1.91664
   A15        1.83118  -0.00140   0.00000  -0.01201  -0.01202   1.81916
   A16        1.92145  -0.00093   0.00000  -0.01186  -0.01185   1.90960
   A17        1.97122  -0.00238   0.00000  -0.03442  -0.03421   1.93701
   A18        1.90630   0.00282   0.00000   0.03953   0.03935   1.94565
   A19        1.93858   0.00311   0.00000   0.03244   0.03199   1.97057
   A20        1.89406  -0.00102   0.00000  -0.01092  -0.01246   1.88160
   A21        1.82998   0.00051   0.00000  -0.00402  -0.00405   1.82593
   A22        1.93889  -0.00411   0.00000  -0.05061  -0.05043   1.88846
   A23        1.94906   0.00009   0.00000   0.00386   0.00375   1.95281
   A24        1.93007   0.00170   0.00000   0.02045   0.01980   1.94987
   A25        1.95530   0.00099   0.00000   0.01871   0.01865   1.97394
   A26        1.86225   0.00075   0.00000   0.01064   0.01005   1.87230
   A27        1.85801  -0.00174   0.00000  -0.00716  -0.00741   1.85060
   A28        1.93697  -0.00005   0.00000  -0.00144  -0.00141   1.93556
   A29        1.92816   0.00130   0.00000   0.00884   0.00900   1.93716
   A30        1.92316   0.00101   0.00000   0.00795   0.00798   1.93114
   A31        1.94387   0.00075   0.00000   0.00588   0.00601   1.94987
   A32        1.87461  -0.00121   0.00000  -0.01360  -0.01365   1.86096
    D1        1.06025  -0.00336   0.00000  -0.10529  -0.10550   0.95475
    D2        3.01231  -0.00166   0.00000  -0.12721  -0.12699   2.88532
    D3       -1.11963  -0.00208   0.00000  -0.10848  -0.10849  -1.22812
    D4       -1.02731  -0.00172   0.00000  -0.08882  -0.08883  -1.11614
    D5       -3.04738  -0.00169   0.00000  -0.08842  -0.08848  -3.13586
    D6        1.11956  -0.00273   0.00000  -0.09828  -0.09821   1.02135
    D7       -0.82813  -0.00218   0.00000  -0.07802  -0.07806  -0.90619
    D8        1.27470  -0.00312   0.00000  -0.07541  -0.07548   1.19922
    D9       -2.95843  -0.00309   0.00000  -0.09023  -0.09012  -3.04854
   D10       -2.85110   0.00040   0.00000  -0.03825  -0.03837  -2.88947
   D11       -0.74827  -0.00054   0.00000  -0.03564  -0.03579  -0.78406
   D12        1.30179  -0.00051   0.00000  -0.05046  -0.05043   1.25136
   D13        1.30371   0.00014   0.00000  -0.04092  -0.04094   1.26277
   D14       -2.87664  -0.00080   0.00000  -0.03831  -0.03836  -2.91500
   D15       -0.82659  -0.00077   0.00000  -0.05313  -0.05300  -0.87958
   D16       -1.43162   0.00213   0.00000   0.06934   0.06925  -1.36237
   D17        2.80248   0.00006   0.00000   0.03542   0.03561   2.83809
   D18        0.68233   0.00367   0.00000   0.08169   0.08153   0.76386
   D19        0.61981   0.00013   0.00000   0.03621   0.03626   0.65607
   D20       -1.42928  -0.00194   0.00000   0.00229   0.00262  -1.42666
   D21        2.73376   0.00167   0.00000   0.04856   0.04854   2.78230
   D22        2.74988  -0.00048   0.00000   0.02610   0.02603   2.77590
   D23        0.70079  -0.00256   0.00000  -0.00781  -0.00761   0.69318
   D24       -1.41936   0.00106   0.00000   0.03845   0.03831  -1.38105
   D25        2.70411  -0.00006   0.00000   0.02379   0.02381   2.72792
   D26        0.61879  -0.00024   0.00000   0.02824   0.02814   0.64693
   D27       -1.45798   0.00151   0.00000   0.04606   0.04599  -1.41199
   D28        0.58701  -0.00216   0.00000   0.00976   0.00965   0.59667
   D29       -1.49830  -0.00233   0.00000   0.01421   0.01398  -1.48432
   D30        2.70811  -0.00059   0.00000   0.03203   0.03183   2.73995
   D31       -1.47232   0.00058   0.00000   0.04158   0.04161  -1.43071
   D32        2.72555   0.00041   0.00000   0.04603   0.04594   2.77149
   D33        0.64878   0.00215   0.00000   0.06385   0.06379   0.71257
   D34       -0.26146  -0.00043   0.00000  -0.02713  -0.02709  -0.28855
   D35        1.83141  -0.00031   0.00000  -0.02271  -0.02277   1.80864
   D36       -2.37439  -0.00101   0.00000  -0.03489  -0.03491  -2.40930
   D37        1.79794  -0.00090   0.00000  -0.02814  -0.02838   1.76956
   D38       -2.39238  -0.00077   0.00000  -0.02372  -0.02406  -2.41644
   D39       -0.31499  -0.00148   0.00000  -0.03590  -0.03621  -0.35120
   D40       -2.39674   0.00158   0.00000   0.00385   0.00431  -2.39244
   D41       -0.30387   0.00171   0.00000   0.00827   0.00863  -0.29525
   D42        1.77351   0.00100   0.00000  -0.00392  -0.00352   1.76999
   D43       -0.20043   0.00082   0.00000   0.00810   0.00805  -0.19238
   D44       -2.30222   0.00136   0.00000   0.00969   0.00978  -2.29245
   D45        1.90242   0.00174   0.00000   0.01774   0.01778   1.92019
   D46        1.89078  -0.00288   0.00000  -0.04375  -0.04408   1.84670
   D47       -0.21101  -0.00234   0.00000  -0.04216  -0.04235  -0.25337
   D48       -2.28956  -0.00196   0.00000  -0.03411  -0.03435  -2.32391
   D49       -2.31743  -0.00016   0.00000  -0.00444  -0.00444  -2.32187
   D50        1.86396   0.00038   0.00000  -0.00285  -0.00272   1.86124
   D51       -0.21458   0.00076   0.00000   0.00520   0.00528  -0.20930
         Item               Value     Threshold  Converged?
 Maximum Force            0.012701     0.000450     NO 
 RMS     Force            0.003413     0.000300     NO 
 Maximum Displacement     0.256661     0.001800     NO 
 RMS     Displacement     0.058336     0.001200     NO 
 Predicted change in Energy=-4.097676D-03
 GradGradGradGradGradGradGradGradGradGradGradGradGradGradGradGradGradGrad

                          Input orientation:                          
 ---------------------------------------------------------------------
 Center     Atomic      Atomic             Coordinates (Angstroms)
 Number     Number       Type             X           Y           Z
 ---------------------------------------------------------------------
      1          8           0       -0.177564    1.517347   -0.821221
      2          8           0       -2.102322   -0.353203    0.097114
      3          6           0       -0.001801    0.911490    0.452755
      4          6           0       -0.739417   -0.436189    0.497057
      5          6           0        1.457734    0.491190    0.551726
      6          6           0        0.073380   -1.303055   -0.465165
      7          6           0        1.537121   -0.817373   -0.288811
      8          1           0       -0.317853    1.592111    1.263094
      9          1           0       -0.676269   -0.850910    1.519205
     10          1           0        1.714652    0.309499    1.603701
     11          1           0        2.118869    1.279148    0.176892
     12          1           0       -0.294186   -1.122750   -1.482281
     13          1           0       -0.052929   -2.372215   -0.258105
     14          1           0        2.001400   -0.628609   -1.262765
     15          1           0        2.156654   -1.569937    0.213511
     16          1           0       -1.117827    1.581512   -1.003619
     17          1           0       -2.577841    0.201344    0.720213
 ---------------------------------------------------------------------
                    Distance matrix (angstroms):
                    1          2          3          4          5
     1  O    0.000000
     2  O    2.836721   0.000000
     3  C    1.421609   2.477522   0.000000
     4  C    2.422775   1.422797   1.536970   0.000000
     5  C    2.369004   3.686960   1.522067   2.385475   0.000000
     6  C    2.853842   2.439683   2.398424   1.529041   2.483912
     7  C    2.945254   3.689165   2.430466   2.438343   1.557287
     8  H    2.090368   2.885842   1.104438   2.208739   2.206984
     9  H    3.366740   2.074532   2.167550   1.104883   2.700225
    10  H    3.304486   4.156715   2.152506   2.793415   1.098030
    11  H    2.515268   4.526521   2.169912   3.348834   1.094750
    12  H    2.724099   2.521120   2.822762   2.141816   3.132285
    13  H    3.932089   2.898724   3.360156   2.188546   3.337217
    14  H    3.089979   4.331934   3.054133   3.262832   2.200432
    15  H    4.006316   4.430900   3.297522   3.122982   2.202527
    16  H    0.959938   2.433920   1.953323   2.542900   3.200221
    17  H    3.141530   0.960153   2.685483   1.958583   4.049477
                    6          7          8          9         10
     6  C    0.000000
     7  C    1.552265   0.000000
     8  H    3.394396   3.413935   0.000000
     9  H    2.168901   2.858171   2.482420   0.000000
    10  H    3.094239   2.209742   2.427383   2.658983   0.000000
    11  H    3.356194   2.225019   2.686149   3.761881   1.771834
    12  H    1.096421   2.207105   3.861102   3.037894   3.950956
    13  H    1.096326   2.224125   4.254422   2.421105   3.712446
    14  H    2.192785   1.095341   4.085400   3.867645   3.029670
    15  H    2.207229   1.096587   4.150104   3.201139   2.379133
    16  H    3.166960   3.648883   2.403759   3.532180   4.054513
    17  H    3.270674   4.357617   2.708597   2.315514   4.383805
                   11         12         13         14         15
    11  H    0.000000
    12  H    3.787454   0.000000
    13  H    4.270642   1.765778   0.000000
    14  H    2.392895   2.358406   2.875720   0.000000
    15  H    2.849571   3.013686   2.397567   1.757724   0.000000
    16  H    3.458502   2.867148   4.161941   3.831627   4.704813
    17  H    4.849324   3.437918   3.735705   5.058702   5.080318
                   16         17
    16  H    0.000000
    17  H    2.647282   0.000000
 Stoichiometry    C5H10O2
 Framework group  C1[X(C5H10O2)]
 Deg. of freedom    45
 Full point group                 C1      NOp   1
 Largest Abelian subgroup         C1      NOp   1
 Largest concise Abelian subgroup C1      NOp   1
                         Standard orientation:                         
 ---------------------------------------------------------------------
 Center     Atomic      Atomic             Coordinates (Angstroms)
 Number     Number       Type             X           Y           Z
 ---------------------------------------------------------------------
      1          8           0       -0.195629    1.488769   -0.841121
      2          8           0       -2.064199   -0.448418    0.054835
      3          6           0       -0.022684    0.900918    0.441647
      4          6           0       -0.707667   -0.474344    0.483205
      5          6           0        1.449840    0.539253    0.574165
      6          6           0        0.158244   -1.316505   -0.454308
      7          6           0        1.597855   -0.772113   -0.252606
      8          1           0       -0.381891    1.575282    1.239134
      9          1           0       -0.649501   -0.877743    1.510168
     10          1           0        1.691834    0.376574    1.632770
     11          1           0        2.087206    1.349489    0.205705
     12          1           0       -0.194956   -1.159279   -1.480304
     13          1           0        0.069678   -2.388051   -0.240118
     14          1           0        2.074456   -0.573321   -1.218580
     15          1           0        2.235871   -1.495496    0.269080
     16          1           0       -1.133703    1.514342   -1.043217
     17          1           0       -2.573896    0.092137    0.663031
 ---------------------------------------------------------------------
 Rotational constants (GHZ):           3.7363849           2.6352535           1.9743533
 Standard basis: 6-311++G(d,p) (5D, 7F)
 There are   231 symmetry adapted cartesian basis functions of A   symmetry.
 There are   224 symmetry adapted basis functions of A   symmetry.
   224 basis functions,   342 primitive gaussians,   231 cartesian basis functions
    28 alpha electrons       28 beta electrons
       nuclear repulsion energy       337.0653652568 Hartrees.
 NAtoms=   17 NActive=   17 NUniq=   17 SFac= 1.00D+00 NAtFMM=   60 NAOKFM=F Big=F
 Integral buffers will be    131072 words long.
 Raffenetti 2 integral format.
 Two-electron integral symmetry is turned on.
 R6APFD:  NTU= -4 IXU= 1 FactS= 1.050
 Nuclear repulsion after empirical dispersion term =      337.0534196584 Hartrees.
 One-electron integrals computed using PRISM.
 NBasis=   224 RedAO= T EigKep=  7.76D-06  NBF=   224
 NBsUse=   224 1.00D-06 EigRej= -1.00D+00 NBFU=   224
 Initial guess from the checkpoint file:  "CICY0021.chk"
 B after Tr=     0.000000    0.000000   -0.000000
         Rot=    0.999335    0.005381    0.005809    0.035584 Ang=   4.18 deg.
 ExpMin= 3.60D-02 ExpMax= 8.59D+03 ExpMxC= 1.30D+03 IAcc=3 IRadAn=         5 AccDes= 0.00D+00
 Harris functional with IExCor= 1009 and IRadAn=       5 diagonalized for initial guess.
 HarFok:  IExCor= 1009 AccDes= 0.00D+00 IRadAn=         5 IDoV= 1 UseB2=F ITyADJ=14
 ICtDFT=  3500011 ScaDFX=  1.000000  1.000000  1.000000  1.000000
 FoFCou: FMM=F IPFlag=           0 FMFlag=      100000 FMFlg1=           0
         NFxFlg=           0 DoJE=T BraDBF=F KetDBF=T FulRan=T
         wScrn=  0.000000 ICntrl=       500 IOpCl=  0 I1Cent=   200000004 NGrid=           0
         NMat0=    1 NMatS0=      1 NMatT0=    0 NMatD0=    1 NMtDS0=    0 NMtDT0=    0
 Petite list used in FoFCou.
 Requested convergence on RMS density matrix=1.00D-08 within  32 cycles.
 Requested convergence on MAX density matrix=1.00D-06.
 Requested convergence on             energy=1.00D-06.
 No special actions if energy rises.
 SCF Done:  E(RM08HX) =  -347.001112656     A.U. after   12 cycles
            NFock= 12  Conv=0.35D-08     -V/T= 2.0046
 QCSCF skips out because SCF is already converged.
 R6APFD:  NTU= -4 IXU= 1 FactS= 1.050
 Calling FoFJK, ICntrl=      2127 FMM=F ISym2X=0 I1Cent= 0 IOpClX= 0 NMat=1 NMatS=1 NMatT=0.
 ***** Axes restored to original set *****
 -------------------------------------------------------------------
 Center     Atomic                   Forces (Hartrees/Bohr)
 Number     Number              X              Y              Z
 -------------------------------------------------------------------
      1        8           0.000844695    0.001546489    0.003523048
      2        8           0.002771936    0.003082725   -0.002282703
      3        6           0.000358388    0.000719465   -0.003329134
      4        6          -0.002917049   -0.000922189    0.002177516
      5        6          -0.000514364   -0.001967396   -0.001151827
      6        6           0.000019683   -0.002376408    0.000268932
      7        6          -0.000681848    0.000392432    0.000177072
      8        1          -0.000087114    0.000861840   -0.000480975
      9        1           0.000957014    0.001312020    0.000831524
     10        1           0.000287557   -0.000822155   -0.000071867
     11        1          -0.000238970    0.000480473    0.000218420
     12        1           0.000620295    0.001454825   -0.000188433
     13        1          -0.000007055    0.000646035    0.000036512
     14        1          -0.000598086    0.000541373    0.000159661
     15        1          -0.000413377    0.000141816    0.000164817
     16        1          -0.000808956   -0.002628954   -0.000776038
     17        1           0.000407252   -0.002462392    0.000723475
 -------------------------------------------------------------------
 Cartesian Forces:  Max     0.003523048 RMS     0.001398583

 GradGradGradGradGradGradGradGradGradGradGradGradGradGradGradGradGradGrad
 Berny optimization.
 Using GEDIIS/GDIIS optimizer.
 FormGI is forming the generalized inverse of G from B-inverse, IUseBI=4.
 Internal  Forces:  Max     0.002926433 RMS     0.000707226
 Search for a local minimum.
 Step number   2 out of a maximum of  102
 All quantities printed in internal units (Hartrees-Bohrs-Radians)
 Mixed Optimization -- En-DIIS/RFO-DIIS
 Update second derivatives using D2CorX and points    1    2
 DE= -3.96D-03 DEPred=-4.10D-03 R= 9.66D-01
 TightC=F SS=  1.41D+00  RLast= 3.98D-01 DXNew= 5.0454D-01 1.1935D+00
 Trust test= 9.66D-01 RLast= 3.98D-01 DXMaxT set to 5.05D-01
 ITU=  1  0
 Use linear search instead of GDIIS.
     Eigenvalues ---    0.00405   0.00718   0.01212   0.01477   0.02247
     Eigenvalues ---    0.02309   0.04277   0.04649   0.04852   0.04895
     Eigenvalues ---    0.05192   0.05273   0.05633   0.05781   0.06200
     Eigenvalues ---    0.06712   0.07065   0.07227   0.07281   0.07433
     Eigenvalues ---    0.09243   0.10202   0.11851   0.14071   0.15996
     Eigenvalues ---    0.16245   0.19363   0.20299   0.27321   0.27511
     Eigenvalues ---    0.28924   0.29558   0.30731   0.33934   0.34031
     Eigenvalues ---    0.34089   0.34178   0.34215   0.34257   0.34294
     Eigenvalues ---    0.34398   0.41794   0.44483   0.52433   0.53294
 RFO step:  Lambda=-1.19638990D-03 EMin= 4.04644951D-03
 Quartic linear search produced a step of  0.13095.
 Iteration  1 RMS(Cart)=  0.03200603 RMS(Int)=  0.00143182
 Iteration  2 RMS(Cart)=  0.00135772 RMS(Int)=  0.00004895
 Iteration  3 RMS(Cart)=  0.00000151 RMS(Int)=  0.00004894
 Iteration  4 RMS(Cart)=  0.00000000 RMS(Int)=  0.00004894
 Variable       Old X    -DE/DX   Delta X   Delta X   Delta X     New X
                                 (Linear)    (Quad)   (Total)
    R1        2.68645  -0.00293  -0.00057  -0.00770  -0.00827   2.67818
    R2        1.81402   0.00077  -0.00309   0.00206  -0.00104   1.81298
    R3        2.68870  -0.00257   0.00243  -0.00694  -0.00450   2.68419
    R4        1.81443  -0.00115  -0.00305  -0.00199  -0.00504   1.80938
    R5        2.90445  -0.00080   0.00330  -0.00378  -0.00046   2.90399
    R6        2.87629  -0.00025  -0.00027  -0.00121  -0.00152   2.87477
    R7        2.08708   0.00020   0.00266   0.00026   0.00292   2.09000
    R8        2.88947  -0.00037   0.00154   0.00016   0.00174   2.89121
    R9        2.08793   0.00033   0.00199   0.00079   0.00277   2.09070
   R10        2.94285  -0.00119   0.00562  -0.00680  -0.00121   2.94164
   R11        2.07498   0.00013   0.00042   0.00037   0.00079   2.07577
   R12        2.06878   0.00013   0.00006   0.00041   0.00046   2.06924
   R13        2.93336  -0.00146   0.00558  -0.00615  -0.00055   2.93280
   R14        2.07194   0.00020  -0.00012   0.00069   0.00057   2.07250
   R15        2.07176  -0.00062   0.00035  -0.00207  -0.00172   2.07003
   R16        2.06989  -0.00030  -0.00005  -0.00098  -0.00103   2.06887
   R17        2.07225  -0.00026   0.00033  -0.00088  -0.00055   2.07169
    A1        1.89639  -0.00109   0.00322  -0.00811  -0.00489   1.89150
    A2        1.90252  -0.00070   0.00360  -0.00544  -0.00184   1.90068
    A3        1.91791  -0.00020  -0.00263  -0.00585  -0.00849   1.90942
    A4        1.86974   0.00031  -0.00376   0.00495   0.00114   1.87088
    A5        1.93853  -0.00031   0.00616  -0.00502   0.00110   1.93963
    A6        1.78871  -0.00056   0.00039  -0.00510  -0.00483   1.78388
    A7        1.96262  -0.00001  -0.00166   0.00115  -0.00048   1.96214
    A8        1.97890   0.00076   0.00079   0.00990   0.01073   1.98963
    A9        1.98282  -0.00063   0.00214  -0.01007  -0.00805   1.97477
   A10        1.94483  -0.00079  -0.00008  -0.01264  -0.01283   1.93200
   A11        1.91419   0.00099   0.00186   0.01620   0.01813   1.93232
   A12        1.79657   0.00030  -0.00108  -0.00454  -0.00572   1.79085
   A13        1.90536  -0.00025  -0.00316  -0.00097  -0.00411   1.90125
   A14        1.91664   0.00034   0.00006   0.01136   0.01139   1.92804
   A15        1.81916  -0.00002  -0.00157  -0.00202  -0.00368   1.81548
   A16        1.90960   0.00050  -0.00155   0.00691   0.00538   1.91497
   A17        1.93701  -0.00041  -0.00448  -0.00321  -0.00761   1.92941
   A18        1.94565  -0.00032   0.00515  -0.00660  -0.00143   1.94422
   A19        1.97057   0.00018   0.00419   0.00301   0.00714   1.97771
   A20        1.88160   0.00007  -0.00163   0.00194   0.00009   1.88169
   A21        1.82593  -0.00042  -0.00053  -0.00079  -0.00135   1.82458
   A22        1.88846  -0.00007  -0.00660  -0.00476  -0.01143   1.87703
   A23        1.95281   0.00022   0.00049   0.00393   0.00439   1.95720
   A24        1.94987  -0.00043   0.00259  -0.01285  -0.01042   1.93945
   A25        1.97394   0.00026   0.00244   0.00527   0.00769   1.98164
   A26        1.87230   0.00040   0.00132   0.00827   0.00956   1.88186
   A27        1.85060   0.00045  -0.00097  -0.00073  -0.00177   1.84883
   A28        1.93556  -0.00038  -0.00018  -0.00452  -0.00470   1.93086
   A29        1.93716  -0.00009   0.00118   0.00102   0.00222   1.93938
   A30        1.93114  -0.00020   0.00104  -0.00184  -0.00081   1.93032
   A31        1.94987  -0.00020   0.00079  -0.00083  -0.00001   1.94986
   A32        1.86096   0.00039  -0.00179   0.00666   0.00487   1.86583
    D1        0.95475  -0.00147  -0.01382  -0.10671  -0.12053   0.83422
    D2        2.88532  -0.00206  -0.01663  -0.11286  -0.12948   2.75584
    D3       -1.22812  -0.00110  -0.01421  -0.10037  -0.11458  -1.34270
    D4       -1.11614  -0.00149  -0.01163  -0.09129  -0.10286  -1.21899
    D5       -3.13586  -0.00093  -0.01159  -0.07051  -0.08216   3.06516
    D6        1.02135  -0.00152  -0.01286  -0.08754  -0.10039   0.92096
    D7       -0.90619   0.00090  -0.01022   0.01159   0.00135  -0.90484
    D8        1.19922  -0.00019  -0.00988  -0.01193  -0.02180   1.17742
    D9       -3.04854   0.00024  -0.01180  -0.00165  -0.01342  -3.06197
   D10       -2.88947   0.00091  -0.00502   0.01082   0.00575  -2.88371
   D11       -0.78406  -0.00019  -0.00469  -0.01271  -0.01740  -0.80146
   D12        1.25136   0.00025  -0.00660  -0.00243  -0.00903   1.24234
   D13        1.26277   0.00034  -0.00536   0.00153  -0.00384   1.25893
   D14       -2.91500  -0.00075  -0.00502  -0.02199  -0.02700  -2.94200
   D15       -0.87958  -0.00031  -0.00694  -0.01172  -0.01862  -0.89821
   D16       -1.36237   0.00050   0.00907   0.02229   0.03136  -1.33101
   D17        2.83809   0.00064   0.00466   0.02772   0.03243   2.87052
   D18        0.76386   0.00049   0.01068   0.02294   0.03361   0.79748
   D19        0.65607   0.00015   0.00475   0.01541   0.02018   0.67624
   D20       -1.42666   0.00029   0.00034   0.02084   0.02125  -1.40541
   D21        2.78230   0.00014   0.00636   0.01606   0.02243   2.80473
   D22        2.77590   0.00018   0.00341   0.01872   0.02209   2.79800
   D23        0.69318   0.00032  -0.00100   0.02415   0.02317   0.71635
   D24       -1.38105   0.00017   0.00502   0.01936   0.02435  -1.35670
   D25        2.72792  -0.00076   0.00312  -0.01434  -0.01116   2.71675
   D26        0.64693  -0.00001   0.00369   0.00326   0.00694   0.65388
   D27       -1.41199  -0.00059   0.00602  -0.00619  -0.00012  -1.41211
   D28        0.59667   0.00021   0.00126   0.00697   0.00820   0.60486
   D29       -1.48432   0.00096   0.00183   0.02456   0.02630  -1.45801
   D30        2.73995   0.00039   0.00417   0.01512   0.01924   2.75918
   D31       -1.43071   0.00019   0.00545   0.00550   0.01097  -1.41974
   D32        2.77149   0.00094   0.00602   0.02310   0.02908   2.80057
   D33        0.71257   0.00037   0.00835   0.01365   0.02201   0.73458
   D34       -0.28855  -0.00023  -0.00355  -0.01090  -0.01443  -0.30298
   D35        1.80864  -0.00041  -0.00298  -0.01608  -0.01906   1.78959
   D36       -2.40930  -0.00022  -0.00457  -0.01001  -0.01458  -2.42388
   D37        1.76956   0.00019  -0.00372  -0.00717  -0.01091   1.75864
   D38       -2.41644   0.00002  -0.00315  -0.01234  -0.01554  -2.43198
   D39       -0.35120   0.00020  -0.00474  -0.00628  -0.01106  -0.36226
   D40       -2.39244   0.00017   0.00056  -0.00734  -0.00669  -2.39913
   D41       -0.29525  -0.00000   0.00113  -0.01252  -0.01132  -0.30656
   D42        1.76999   0.00019  -0.00046  -0.00645  -0.00684   1.76315
   D43       -0.19238   0.00012   0.00105   0.00243   0.00347  -0.18891
   D44       -2.29245   0.00041   0.00128   0.00934   0.01062  -2.28183
   D45        1.92019   0.00019   0.00233   0.00272   0.00505   1.92524
   D46        1.84670  -0.00042  -0.00577  -0.01001  -0.01580   1.83090
   D47       -0.25337  -0.00012  -0.00555  -0.00311  -0.00865  -0.26202
   D48       -2.32391  -0.00035  -0.00450  -0.00972  -0.01423  -2.33814
   D49       -2.32187  -0.00003  -0.00058  -0.00490  -0.00550  -2.32737
   D50        1.86124   0.00027  -0.00036   0.00200   0.00166   1.86290
   D51       -0.20930   0.00004   0.00069  -0.00461  -0.00392  -0.21322
         Item               Value     Threshold  Converged?
 Maximum Force            0.002926     0.000450     NO 
 RMS     Force            0.000707     0.000300     NO 
 Maximum Displacement     0.219831     0.001800     NO 
 RMS     Displacement     0.032067     0.001200     NO 
 Predicted change in Energy=-6.941169D-04
 GradGradGradGradGradGradGradGradGradGradGradGradGradGradGradGradGradGrad

                          Input orientation:                          
 ---------------------------------------------------------------------
 Center     Atomic      Atomic             Coordinates (Angstroms)
 Number     Number       Type             X           Y           Z
 ---------------------------------------------------------------------
      1          8           0       -0.163325    1.503447   -0.825407
      2          8           0       -2.093260   -0.327014    0.093182
      3          6           0        0.006102    0.920647    0.455289
      4          6           0       -0.737917   -0.422955    0.507204
      5          6           0        1.460376    0.487469    0.563398
      6          6           0        0.065118   -1.287249   -0.466921
      7          6           0        1.531799   -0.810703   -0.292641
      8          1           0       -0.317534    1.613234    1.254524
      9          1           0       -0.670124   -0.831436    1.533149
     10          1           0        1.710778    0.288761    1.614304
     11          1           0        2.125182    1.280201    0.204756
     12          1           0       -0.302180   -1.074116   -1.478090
     13          1           0       -0.072365   -2.357621   -0.278947
     14          1           0        1.988588   -0.606052   -1.266316
     15          1           0        2.150532   -1.572483    0.195948
     16          1           0       -1.094213    1.465183   -1.054341
     17          1           0       -2.585758    0.160087    0.754208
 ---------------------------------------------------------------------
                    Distance matrix (angstroms):
                    1          2          3          4          5
     1  O    0.000000
     2  O    2.814079   0.000000
     3  C    1.417230   2.468826   0.000000
     4  C    2.411853   1.420414   1.536726   0.000000
     5  C    2.365881   3.675978   1.521264   2.380026   0.000000
     6  C    2.822885   2.427831   2.393482   1.529964   2.481516
     7  C    2.917631   3.677481   2.425844   2.437562   1.556648
     8  H    2.088527   2.875149   1.105981   2.209361   2.214941
     9  H    3.357277   2.086448   2.165377   1.106352   2.686812
    10  H    3.307554   4.142910   2.156042   2.779985   1.098449
    11  H    2.519591   4.515622   2.163919   3.345079   1.094995
    12  H    2.662538   2.497003   2.795008   2.134308   3.116540
    13  H    3.900607   2.888920   3.360402   2.191785   3.339667
    14  H    3.045507   4.311331   3.037265   3.257718   2.196053
    15  H    3.982266   4.423972   3.298717   3.124329   2.203347
    16  H    0.959390   2.350930   1.945815   2.475972   3.177881
    17  H    3.188726   0.957485   2.717635   1.953322   4.063838
                    6          7          8          9         10
     6  C    0.000000
     7  C    1.551973   0.000000
     8  H    3.394495   3.418950   0.000000
     9  H    2.179135   2.860490   2.485631   0.000000
    10  H    3.086017   2.208460   2.449025   2.632513   0.000000
    11  H    3.359585   2.229661   2.679512   3.746649   1.772431
    12  H    1.096721   2.199580   3.832657   3.043327   3.933489
    13  H    1.095414   2.228561   4.263722   2.443409   3.710436
    14  H    2.191528   1.094797   4.074072   3.867370   3.029165
    15  H    2.206741   1.096293   4.166620   3.208326   2.381038
    16  H    3.043845   3.557496   2.440493   3.485601   4.046432
    17  H    3.257772   4.358049   2.739852   2.293364   4.383668
                   11         12         13         14         15
    11  H    0.000000
    12  H    3.777150   0.000000
    13  H    4.277491   1.771481   0.000000
    14  H    2.395967   2.347668   2.879308   0.000000
    15  H    2.852810   3.011074   2.404837   1.760236   0.000000
    16  H    3.461799   2.693495   4.032274   3.720028   4.617251
    17  H    4.873347   3.423615   3.704512   5.059063   5.074041
                   16         17
    16  H    0.000000
    17  H    2.683063   0.000000
 Stoichiometry    C5H10O2
 Framework group  C1[X(C5H10O2)]
 Deg. of freedom    45
 Full point group                 C1      NOp   1
 Largest Abelian subgroup         C1      NOp   1
 Largest concise Abelian subgroup C1      NOp   1
                         Standard orientation:                         
 ---------------------------------------------------------------------
 Center     Atomic      Atomic             Coordinates (Angstroms)
 Number     Number       Type             X           Y           Z
 ---------------------------------------------------------------------
      1          8           0       -0.175447    1.466837   -0.852841
      2          8           0       -2.061043   -0.415075    0.053787
      3          6           0       -0.012198    0.907394    0.439024
      4          6           0       -0.711774   -0.459697    0.495438
      5          6           0        1.453299    0.524968    0.581545
      6          6           0        0.138964   -1.309489   -0.450547
      7          6           0        1.585129   -0.781480   -0.254498
      8          1           0       -0.374673    1.599391    1.221932
      9          1           0       -0.650830   -0.851794    1.528182
     10          1           0        1.689205    0.348995    1.639832
     11          1           0        2.098252    1.334747    0.224741
     12          1           0       -0.215022   -1.122504   -1.471589
     13          1           0        0.033618   -2.381255   -0.250168
     14          1           0        2.054141   -0.574695   -1.221890
     15          1           0        2.219118   -1.515321    0.256770
     16          1           0       -1.099787    1.394141   -1.099294
     17          1           0       -2.582628    0.064019    0.698144
 ---------------------------------------------------------------------
 Rotational constants (GHZ):           3.7772932           2.6377637           1.9980379
 Standard basis: 6-311++G(d,p) (5D, 7F)
 There are   231 symmetry adapted cartesian basis functions of A   symmetry.
 There are   224 symmetry adapted basis functions of A   symmetry.
   224 basis functions,   342 primitive gaussians,   231 cartesian basis functions
    28 alpha electrons       28 beta electrons
       nuclear repulsion energy       337.9843415018 Hartrees.
 NAtoms=   17 NActive=   17 NUniq=   17 SFac= 1.00D+00 NAtFMM=   60 NAOKFM=F Big=F
 Integral buffers will be    131072 words long.
 Raffenetti 2 integral format.
 Two-electron integral symmetry is turned on.
 R6APFD:  NTU= -4 IXU= 1 FactS= 1.050
 Nuclear repulsion after empirical dispersion term =      337.9723789619 Hartrees.
 One-electron integrals computed using PRISM.
 NBasis=   224 RedAO= T EigKep=  7.62D-06  NBF=   224
 NBsUse=   224 1.00D-06 EigRej= -1.00D+00 NBFU=   224
 Initial guess from the checkpoint file:  "CICY0021.chk"
 B after Tr=    -0.000000   -0.000000    0.000000
         Rot=    0.999983    0.002936    0.000127    0.004994 Ang=   0.66 deg.
 ExpMin= 3.60D-02 ExpMax= 8.59D+03 ExpMxC= 1.30D+03 IAcc=3 IRadAn=         5 AccDes= 0.00D+00
 Harris functional with IExCor= 1009 and IRadAn=       5 diagonalized for initial guess.
 HarFok:  IExCor= 1009 AccDes= 0.00D+00 IRadAn=         5 IDoV= 1 UseB2=F ITyADJ=14
 ICtDFT=  3500011 ScaDFX=  1.000000  1.000000  1.000000  1.000000
 FoFCou: FMM=F IPFlag=           0 FMFlag=      100000 FMFlg1=           0
         NFxFlg=           0 DoJE=T BraDBF=F KetDBF=T FulRan=T
         wScrn=  0.000000 ICntrl=       500 IOpCl=  0 I1Cent=   200000004 NGrid=           0
         NMat0=    1 NMatS0=      1 NMatT0=    0 NMatD0=    1 NMtDS0=    0 NMtDT0=    0
 Petite list used in FoFCou.
 Requested convergence on RMS density matrix=1.00D-08 within  32 cycles.
 Requested convergence on MAX density matrix=1.00D-06.
 Requested convergence on             energy=1.00D-06.
 No special actions if energy rises.
 SCF Done:  E(RM08HX) =  -347.002018476     A.U. after   11 cycles
            NFock= 11  Conv=0.39D-08     -V/T= 2.0045
 QCSCF skips out because SCF is already converged.
 R6APFD:  NTU= -4 IXU= 1 FactS= 1.050
 Calling FoFJK, ICntrl=      2127 FMM=F ISym2X=0 I1Cent= 0 IOpClX= 0 NMat=1 NMatS=1 NMatT=0.
 ***** Axes restored to original set *****
 -------------------------------------------------------------------
 Center     Atomic                   Forces (Hartrees/Bohr)
 Number     Number              X              Y              Z
 -------------------------------------------------------------------
      1        8           0.001639879    0.003244824    0.001464507
      2        8           0.001523093    0.001232070   -0.001870133
      3        6          -0.000360843   -0.000885768   -0.000859566
      4        6          -0.000620068   -0.001077937    0.001294586
      5        6          -0.000098436   -0.000560614   -0.000463786
      6        6           0.001054177   -0.000708924    0.000938683
      7        6          -0.000514383    0.000485466    0.000363020
      8        1           0.000841126    0.000176354   -0.000997977
      9        1          -0.000387128    0.000578747   -0.000574522
     10        1          -0.000057485   -0.000425809   -0.000083426
     11        1           0.000523545   -0.000332394   -0.000047230
     12        1           0.000300202   -0.000150590   -0.000154335
     13        1           0.000073684    0.000290546   -0.000102426
     14        1          -0.000281574    0.000083253   -0.000119583
     15        1          -0.000058625    0.000227418    0.000137778
     16        1          -0.002239630   -0.001681657   -0.000572245
     17        1          -0.001337533   -0.000494988    0.001646655
 -------------------------------------------------------------------
 Cartesian Forces:  Max     0.003244824 RMS     0.000967071

 GradGradGradGradGradGradGradGradGradGradGradGradGradGradGradGradGradGrad
 Berny optimization.
 Using GEDIIS/GDIIS optimizer.
 FormGI is forming the generalized inverse of G from B-inverse, IUseBI=4.
 Internal  Forces:  Max     0.002377468 RMS     0.000499415
 Search for a local minimum.
 Step number   3 out of a maximum of  102
 All quantities printed in internal units (Hartrees-Bohrs-Radians)
 Mixed Optimization -- En-DIIS/RFO-DIIS
 Swapping is turned off.
 Update second derivatives using D2CorX and points    2    3
 DE= -9.06D-04 DEPred=-6.94D-04 R= 1.30D+00
 TightC=F SS=  1.41D+00  RLast= 2.95D-01 DXNew= 8.4853D-01 8.8409D-01
 Trust test= 1.30D+00 RLast= 2.95D-01 DXMaxT set to 8.49D-01
 ITU=  1  1  0
     Eigenvalues ---    0.00394   0.00590   0.00878   0.01463   0.02253
     Eigenvalues ---    0.02324   0.04309   0.04633   0.04853   0.05188
     Eigenvalues ---    0.05199   0.05387   0.05646   0.05820   0.06269
     Eigenvalues ---    0.06757   0.07041   0.07255   0.07329   0.07705
     Eigenvalues ---    0.09240   0.10130   0.11780   0.14133   0.16070
     Eigenvalues ---    0.16254   0.19180   0.20294   0.27354   0.27498
     Eigenvalues ---    0.28859   0.29561   0.30705   0.34029   0.34088
     Eigenvalues ---    0.34100   0.34185   0.34215   0.34261   0.34294
     Eigenvalues ---    0.34508   0.41976   0.44873   0.52839   0.53829
 En-DIIS/RFO-DIIS/Sim-DIIS IScMMF=       -3 using points:     3    2
 RFO step:  Lambda=-8.46330240D-04.
 DidBck=F Rises=F RFO-DIIS coefs:    2.07639   -1.07639
 Iteration  1 RMS(Cart)=  0.02764484 RMS(Int)=  0.00219940
 Iteration  2 RMS(Cart)=  0.00219123 RMS(Int)=  0.00004753
 Iteration  3 RMS(Cart)=  0.00000966 RMS(Int)=  0.00004698
 Iteration  4 RMS(Cart)=  0.00000000 RMS(Int)=  0.00004698
 Variable       Old X    -DE/DX   Delta X   Delta X   Delta X     New X
                                 (Linear)    (Quad)   (Total)
    R1        2.67818  -0.00009  -0.00891   0.00439  -0.00452   2.67366
    R2        1.81298   0.00238  -0.00111   0.00541   0.00429   1.81728
    R3        2.68419  -0.00006  -0.00485   0.00439  -0.00046   2.68374
    R4        1.80938   0.00157  -0.00543   0.00554   0.00012   1.80950
    R5        2.90399   0.00045  -0.00050   0.00648   0.00600   2.90999
    R6        2.87477   0.00055  -0.00163   0.00368   0.00201   2.87678
    R7        2.09000  -0.00086   0.00314  -0.00375  -0.00061   2.08939
    R8        2.89121   0.00040   0.00188   0.00337   0.00528   2.89650
    R9        2.09070  -0.00077   0.00299  -0.00380  -0.00081   2.08989
   R10        2.94164  -0.00107  -0.00130  -0.00261  -0.00394   2.93770
   R11        2.07577  -0.00002   0.00085  -0.00025   0.00060   2.07637
   R12        2.06924   0.00009   0.00050   0.00018   0.00068   2.06992
   R13        2.93280  -0.00088  -0.00059  -0.00115  -0.00174   2.93107
   R14        2.07250   0.00001   0.00061  -0.00039   0.00022   2.07272
   R15        2.07003  -0.00031  -0.00185  -0.00009  -0.00194   2.06809
   R16        2.06887   0.00000  -0.00111   0.00062  -0.00049   2.06838
   R17        2.07169  -0.00013  -0.00060  -0.00000  -0.00060   2.07109
    A1        1.89150  -0.00125  -0.00526  -0.00677  -0.01203   1.87947
    A2        1.90068   0.00049  -0.00198   0.00861   0.00663   1.90731
    A3        1.90942   0.00030  -0.00913   0.00993   0.00074   1.91016
    A4        1.87088   0.00081   0.00122   0.01105   0.01224   1.88312
    A5        1.93963  -0.00090   0.00119  -0.01424  -0.01311   1.92652
    A6        1.78388  -0.00054  -0.00520   0.00736   0.00206   1.78593
    A7        1.96214   0.00038  -0.00052   0.00046  -0.00003   1.96211
    A8        1.98963   0.00005   0.01155  -0.01162  -0.00004   1.98959
    A9        1.97477  -0.00044  -0.00867   0.00122  -0.00759   1.96718
   A10        1.93200   0.00049  -0.01381   0.00827  -0.00565   1.92634
   A11        1.93232   0.00003   0.01952  -0.01012   0.00944   1.94177
   A12        1.79085  -0.00004  -0.00615   0.00818   0.00184   1.79270
   A13        1.90125   0.00029  -0.00443   0.00194  -0.00242   1.89883
   A14        1.92804  -0.00034   0.01226  -0.00849   0.00381   1.93185
   A15        1.81548   0.00028  -0.00397   0.00618   0.00209   1.81756
   A16        1.91497   0.00006   0.00579  -0.00675  -0.00094   1.91404
   A17        1.92941   0.00019  -0.00819   0.01105   0.00292   1.93232
   A18        1.94422  -0.00039  -0.00154  -0.00533  -0.00685   1.93737
   A19        1.97771  -0.00024   0.00768  -0.00367   0.00402   1.98173
   A20        1.88169   0.00011   0.00010  -0.00132  -0.00123   1.88047
   A21        1.82458  -0.00003  -0.00146   0.00701   0.00541   1.82999
   A22        1.87703   0.00028  -0.01230   0.00297  -0.00942   1.86761
   A23        1.95720  -0.00003   0.00473  -0.00067   0.00401   1.96121
   A24        1.93945  -0.00023  -0.01121   0.00010  -0.01118   1.92828
   A25        1.98164   0.00006   0.00828  -0.00152   0.00673   1.98836
   A26        1.88186  -0.00004   0.01030  -0.00722   0.00316   1.88503
   A27        1.84883   0.00035  -0.00190   0.00316   0.00116   1.84999
   A28        1.93086  -0.00005  -0.00506   0.00386  -0.00116   1.92971
   A29        1.93938  -0.00024   0.00239  -0.00486  -0.00245   1.93693
   A30        1.93032  -0.00012  -0.00088  -0.00149  -0.00237   1.92795
   A31        1.94986  -0.00012  -0.00001   0.00105   0.00108   1.95094
   A32        1.86583   0.00018   0.00524  -0.00166   0.00357   1.86941
    D1        0.83422  -0.00077  -0.12974  -0.03118  -0.16087   0.67335
    D2        2.75584  -0.00087  -0.13937  -0.01273  -0.15210   2.60374
    D3       -1.34270  -0.00083  -0.12333  -0.02895  -0.15233  -1.49503
    D4       -1.21899  -0.00088  -0.11071  -0.02617  -0.13681  -1.35580
    D5        3.06516  -0.00087  -0.08844  -0.04244  -0.13094   2.93422
    D6        0.92096  -0.00079  -0.10806  -0.03034  -0.13842   0.78253
    D7       -0.90484   0.00067   0.00146   0.03942   0.04087  -0.86397
    D8        1.17742   0.00101  -0.02346   0.05496   0.03152   1.20894
    D9       -3.06197   0.00072  -0.01445   0.05019   0.03575  -3.02622
   D10       -2.88371  -0.00009   0.00619   0.01958   0.02575  -2.85797
   D11       -0.80146   0.00024  -0.01873   0.03512   0.01640  -0.78506
   D12        1.24234  -0.00004  -0.00972   0.03036   0.02063   1.26297
[...]
   yy         0.649530D+02      0.962504D+01      0.107093D+02
   zx        -0.198087D+01     -0.293535D+00     -0.326602D+00
   zy         0.101310D+01      0.150127D+00      0.167038D+00
   zz         0.614590D+02      0.910728D+01      0.101332D+02

 ----------------------------------------------------------------------
 1\1\GINC-PITOMBA\Freq\RM08HX\6-311++G(d,p)\C5H10O2\VALTER\01-Oct-2025\
 0\\#N Geom=AllCheck Guess=TCheck SCRF=Check GenChk RM08HX/6-311++G(d,p
 ) Freq\\CICY0021\\0,1\O,-0.1327525546,1.5436607478,-0.8021394244\O,-2.
 0731686039,-0.248431799,-0.0010365766\C,0.0319503247,0.9383060459,0.46
 76228099\C,-0.750720853,-0.3864182764,0.5062120633\C,1.4718466295,0.46
 10493816,0.588047041\C,0.0722932025,-1.3133911206,-0.402514249\C,1.523
 5078289,-0.7685209951,-0.349894328\H,-0.2718722963,1.6339830718,1.2691
 060962\H,-0.7712894504,-0.7651418587,1.5420660758\H,1.6722609319,0.172
 7930335,1.6301642474\H,2.1831039925,1.2472468168,0.3129852185\H,-0.341
 7608455,-1.240929601,-1.4158692749\H,-0.0103258724,-2.3603357638,-0.09
 17243031\H,1.843914453,-0.4569557112,-1.3497118177\H,2.2401151409,-1.5
 183407707,0.0031882824\H,-1.0420339714,1.3910506819,-1.0792048027\H,-2
 .6432680565,0.0997761172,0.6860029419\\Version=ES64L-G16RevB.01\State=
 1-A\HF=-347.002766\RMSD=1.537e-09\RMSF=3.007e-06\ZeroPoint=0.150214\Th
 ermal=0.157285\Dipole=-0.2552967,-0.2648638,0.9035532\DipoleDeriv=-0.4
 234871,0.0991405,-0.0959044,0.0881195,-0.6910265,0.1964041,-0.1225774,
 0.1851343,-0.7918997,-1.1053068,-0.0452477,-0.075035,-0.0213038,-0.536
 3654,0.090305,-0.1292137,0.0854162,-0.3323082,0.2021786,-0.1073992,0.0
 762082,-0.1492339,0.3645986,-0.0885166,0.0540657,-0.122896,0.6263588,0
 .8201913,-0.036643,0.0793499,-0.0379638,0.2385361,-0.018633,0.0350667,
 -0.0489499,0.292478,-0.0502513,0.0649918,-0.0387419,0.0165234,0.046754
 ,-0.0383402,0.0430432,-0.0199064,0.1136906,-0.0124279,0.0089481,0.0337
 194,0.0378586,0.0651438,-0.0781633,0.0776673,-0.0737216,0.0179233,0.08
 34279,-0.046592,0.0043025,-0.0168679,0.0770633,-0.0566122,-0.0067051,-
 0.0489487,0.0834943,-0.0143763,0.0655366,0.067187,0.0576482,-0.0949217
 ,-0.1108212,0.041148,-0.077225,-0.1508265,-0.0304688,0.0096109,0.01568
 22,0.0142862,-0.0016276,0.0540764,-0.0127636,0.057674,-0.1666682,0.054
 3996,0.0140123,-0.0042632,0.0295359,0.0231077,0.0480991,-0.0427564,0.0
 142908,-0.1410462,-0.0375147,-0.0804307,0.0011163,-0.0990409,-0.047241
 1,-0.0040893,0.0456841,0.0233086,0.0568475,0.004215,-0.0140523,-0.0511
 921,0.0093424,0.0537968,0.0329592,-0.0583603,-0.018377,-0.0676345,0.02
 47422,-0.014163,0.0080854,-0.0319112,-0.1425281,0.0167242,0.0127533,0.
 063173,0.0484279,0.012568,-0.0122326,0.0238746,-0.0447528,0.0353454,0.
 0405236,0.0728423,0.0073681,-0.0928616,-0.0679648,0.0820443,-0.0225555
 ,0.1127489,-0.0603996,0.012518,-0.0585746,0.0425325,0.0399255,0.223655
 9,-0.009633,-0.0058213,-0.0219931,0.3656125,-0.0335415,0.026612,-0.004
 8899,0.2837791,0.3164194,0.0221092,-0.0160122,0.0570043,0.304152,-0.06
 28923,0.0220685,-0.063983,0.1803198\Polar=69.7620833,-0.8803281,64.188
 6434,-0.0150939,1.6823166,61.6851301\Quadrupole=1.69307,-2.4158984,0.7
 228283,-2.5251534,-1.7171198,0.9222322\PG=C01 [X(C5H10O2)]\NImag=0\\0.
 55436023,0.09447900,0.13001368,0.14679844,-0.09244847,0.32640232,0.000
 71852,0.00027235,-0.00226194,0.50769020,-0.00487323,0.00322924,-0.0028
 4404,-0.13604238,0.12959727,0.00503030,0.00048434,0.00368862,-0.139553
 74,0.14812269,0.41930765,-0.09175092,-0.01335291,0.00464322,-0.0381082
 4,-0.02768805,-0.00994945,0.50673410,0.00909585,-0.09531577,0.06984664
 ,0.00281019,0.00618830,0.00440194,-0.05062459,0.54315306,-0.02937747,0
 .05138343,-0.20431613,-0.01089085,-0.00708055,-0.00358874,-0.01537563,
 0.06962454,0.54873087,-0.00085595,0.00363215,-0.00214967,-0.20352486,0
 .02180225,-0.03386670,-0.08506415,-0.04502863,0.00889590,0.50773840,-0
 .00579135,-0.01748274,0.01483399,0.00904632,-0.06423989,-0.01049372,-0
 .03275282,-0.15569476,0.00138337,-0.00308688,0.45838273,0.01486036,0.0
 3902650,-0.02051862,-0.07162274,0.00204932,-0.11801599,-0.00148855,-0.
 01012384,-0.07814984,-0.01299263,-0.03795345,0.60538069,0.00459368,-0.
 00313336,0.00111842,-0.00201640,-0.00276758,0.00012794,-0.18901375,0.0
 3167194,-0.00740759,-0.03539007,-0.00600383,-0.00464934,0.52311270,0.0
 1222661,0.00110121,0.00451035,-0.00684160,-0.00576609,-0.00303483,0.03
 367701,-0.08489961,0.00170870,-0.02038510,0.00828989,-0.00463360,0.088
 01634,0.50131331,-0.03341892,0.00531209,-0.00874103,0.00196781,0.00127
 880,-0.00004799,0.00855381,0.00161112,-0.07335960,0.00246587,-0.004690
 02,0.00540932,0.00324993,-0.05270090,0.54872628,-0.00038219,-0.0006991
 5,0.00064609,-0.04378579,0.02891521,0.02305068,0.00621073,0.00127206,-
 0.00440284,-0.08873196,0.02659629,0.02619866,-0.00516323,-0.01254882,-
 0.00507952,0.45288074,-0.00007624,0.00084623,-0.00110280,0.00852067,-0
 .00107130,-0.00155730,0.00545821,-0.03526034,-0.02608932,0.03412791,-0
 .11857080,-0.03960758,-0.02018128,-0.01850026,-0.00447488,0.00884855,0
 .59165499,0.00039816,-0.00055262,0.00038114,-0.00410079,0.00689901,0.0
 1019831,-0.00303371,-0.00769219,0.00132794,0.03691198,-0.04005545,-0.1
 2631251,-0.01614893,-0.00975409,0.00025756,0.05090661,-0.02762472,0.54
 658709,0.00013365,-0.00041742,0.00011665,-0.00116336,0.00047438,0.0033
 7067,-0.01069340,0.02437158,0.01959469,-0.02842691,0.00403044,0.004139
 79,-0.07040802,0.00077759,0.00258309,-0.16245464,-0.02991165,-0.005344
 25,0.51455762,-0.00052912,0.00003846,-0.00137763,0.00347168,-0.0032641
 5,-0.00226482,0.01585297,-0.02260831,-0.01437207,0.00820441,0.00804725
 ,0.00326325,0.00587473,-0.13527888,-0.04707435,-0.03483602,-0.08489474
 ,0.00031307,-0.07700518,0.49277251,-0.00027731,-0.00073289,0.00018885,
 0.00103719,-0.00225335,-0.00182138,0.00686003,-0.00484138,0.00100777,0
 .01465998,0.00734301,0.00170968,0.00238118,-0.04719853,-0.11760187,-0.
 00057740,0.00316486,-0.07572444,-0.02375462,-0.06456704,0.54742654,0.0
 0594193,-0.00327616,-0.00464597,0.00146983,0.00145497,0.00076678,-0.07
 291412,0.04306897,0.04646890,0.00612705,-0.01309977,-0.01335256,-0.004
 61825,0.02105840,0.02081095,-0.00246964,-0.00300171,0.00023688,-0.0053
 0338,0.00188324,-0.00080660,0.07029011,-0.00457841,0.01283041,0.017639
 13,-0.00107132,0.00171014,0.00089408,0.04347566,-0.15401577,-0.1124494
 8,0.01197875,-0.01491347,-0.01799866,-0.00061852,-0.00360024,-0.003952
 85,-0.00106251,-0.00379594,0.00062249,-0.00006368,-0.00110773,-0.00006
 368,-0.04908419,0.16470969,0.00257263,-0.00571738,-0.03279284,-0.00100
 812,0.00014061,0.00026491,0.04759134,-0.11296508,-0.16148202,0.0011072
 2,0.00105359,0.00239396,-0.00086451,0.00135561,0.00329602,-0.00008296,
 0.00067072,0.00100167,-0.00070047,0.00074485,0.00096920,-0.04995870,0.
 11638185,0.18706923,-0.00094235,-0.00450762,0.00148780,-0.01105299,0.0
 1315597,-0.03468194,0.00317721,-0.00169132,0.01393073,-0.05150750,-0.0
 0822771,0.01851050,0.00021464,0.00023206,-0.00033704,0.00235558,-0.004
 18613,0.01483854,0.00036362,0.00028872,-0.00076642,0.00031312,-0.00012
 955,-0.00063891,0.05777164,-0.00373824,-0.00662555,0.00218859,0.001477
 54,0.00155988,-0.00042957,-0.00029084,-0.00680724,0.02872222,-0.006375
 35,-0.07928187,0.07979919,0.00073528,0.00032872,0.00026513,0.00077902,
 0.00589519,-0.02098988,-0.00019204,-0.00044125,-0.00027399,0.00116755,
 0.00014182,-0.00070177,0.00474350,0.08440650,-0.00005838,0.00044684,0.
 00165909,-0.00412730,0.00310442,-0.00363563,-0.00039925,-0.00162335,-0
 .00164213,0.01198219,0.08085374,-0.26301979,0.00005121,-0.00005668,-0.
 00059362,0.00125126,0.00539190,-0.01556735,0.00042279,-0.00039618,-0.0
 0056923,0.00034934,0.00064609,0.00057960,-0.01177794,-0.08528768,0.281
 24828,-0.00799703,0.00089998,-0.00190628,0.00044205,-0.00005555,0.0006
 6898,0.00000886,0.00737358,-0.02998754,0.00007044,-0.00010581,-0.00063
 754,-0.05839012,0.01057613,-0.04322190,-0.00012011,-0.00007197,0.00034
 094,-0.00042369,0.00015853,0.00481129,0.00088816,0.00054342,0.00069342
 ,-0.00082360,-0.00066501,0.00022651,0.06053058,0.00427801,0.00025991,0
 .00125382,0.00021895,0.00007067,-0.00030819,-0.00123799,-0.00445961,0.
 01113452,-0.00048056,-0.00021217,0.00046464,0.01141645,-0.06510659,0.0
 6599557,0.00046160,-0.00006374,0.00038791,-0.00338510,0.00654829,-0.02
 626079,-0.00004286,-0.00032066,-0.00022234,-0.00048737,0.00040977,0.00
 000148,-0.01625139,0.07139773,-0.00089448,-0.00001849,0.00077493,-0.00
 026970,-0.00038094,0.00052140,0.00161716,-0.00027637,-0.00265899,0.000
 41715,0.00033481,-0.00097645,-0.04510931,0.06775431,-0.27500537,0.0000
 3006,-0.00007217,-0.00019792,-0.00156394,0.00451567,-0.01687504,-0.000
 66149,0.00011690,0.00052906,-0.00015482,-0.00023732,0.00056173,0.04901
 316,-0.07041939,0.30014246,0.00351143,0.00034229,0.00089885,-0.0024476
 3,-0.00162376,-0.00068658,-0.02010840,-0.02486150,0.00879288,-0.003338
 67,0.00413463,-0.00108915,-0.15820909,-0.12358688,0.04490810,-0.000366
 61,0.00076947,0.00034089,0.00280978,0.00353711,-0.00110933,0.00020550,
 0.00042859,0.00008260,0.00024071,0.00001813,0.00035042,0.00497431,0.00
 577412,-0.00201847,0.17172409,-0.00142034,0.00049235,-0.00086121,0.001
 03069,0.00125429,0.00058352,0.00926686,0.01002517,-0.00373033,0.001891
 43,-0.00202747,0.00000951,-0.12584412,-0.18482970,0.05111747,0.0011625
 6,-0.00243378,-0.00203632,-0.01488500,-0.01415927,0.00644921,-0.000803
 70,0.00018258,-0.00014336,0.00007690,-0.00005626,-0.00003874,-0.005172
 17,-0.00576491,0.00168688,0.13603768,0.19737619,0.00016306,-0.00080267
 ,0.00047174,-0.00025028,0.00020134,0.00053132,-0.00206143,-0.00094215,
 -0.00062458,-0.00020285,-0.00077401,-0.00094821,0.04785357,0.05234072,
 -0.06388161,-0.00034086,-0.00333901,-0.00173798,-0.01421843,-0.0134755
 3,0.00457056,0.00024642,0.00007702,-0.00017670,-0.00014092,-0.00039211
 ,0.00025538,0.02022032,0.02039062,-0.00724451,-0.04983957,-0.05242573,
 0.06830260,0.00012715,0.00083029,0.00020872,0.00107279,-0.00103413,-0.
 00019750,-0.00047561,-0.00007641,-0.00044222,0.00483525,-0.00130638,0.
 01965354,-0.00285399,-0.00038282,0.00029955,-0.07839160,0.00840586,-0.
 09223826,-0.01261216,0.00122180,-0.02544708,0.00020993,0.00001003,-0.0
 0004572,-0.00203621,0.00259825,0.00206716,-0.00001055,-0.00003498,-0.0
 0011506,0.00003602,-0.00057371,-0.00048359,0.09109392,0.00001941,-0.00
 030144,0.00154350,-0.00156280,0.00122323,0.00121746,-0.00044022,0.0004
 4275,-0.00112078,-0.00650911,0.00188878,-0.02017778,-0.00106977,-0.001
 39810,0.00011743,0.00909552,-0.04884855,0.01904481,-0.00381409,0.00000
 857,-0.00947312,-0.00006837,-0.00023390,0.00023526,0.00149023,-0.00178
 105,-0.00154916,0.00004810,-0.00000579,-0.00000930,-0.00011188,-0.0003
 3404,-0.00027817,-0.00759918,0.05050838,0.00029193,0.00073967,0.001381
 97,-0.00082628,0.00074621,0.00214664,-0.00006842,0.00065700,-0.0012857
 8,-0.00622873,0.00201809,-0.02260019,0.00039488,-0.00025731,0.00019748
 ,-0.09081713,0.01752124,-0.27333789,0.00196968,0.00061164,0.00318335,0
 .00000180,-0.00025875,0.00019590,0.00178876,-0.00303032,-0.00100736,0.
 00006407,0.00005203,0.00009489,-0.00006952,0.00000087,-0.00005421,0.09
 580471,-0.01825978,0.29638651,0.00031283,0.00015650,0.00029659,-0.0002
 0793,-0.00050395,0.00072311,-0.00263654,0.00141592,0.00184472,0.002031
 07,0.01802868,-0.00706966,-0.00258771,-0.00146270,0.00043651,-0.046870
 22,-0.01743925,0.00477359,-0.00176994,-0.02682368,0.00958947,0.0005648
 9,0.00056587,0.00000770,0.00066202,-0.00078661,-0.00025030,0.00002052,
 -0.00022094,-0.00024594,0.00016053,-0.00068533,-0.00072055,0.00068599,
 0.01126871,-0.00275859,0.05167628,0.00010994,0.00034878,-0.00022029,0.
 00128754,0.00030941,-0.00067898,0.00138735,-0.00120710,-0.00253238,-0.
 00336066,-0.01594651,0.00646489,-0.00009560,-0.00045214,0.00029042,-0.
 01696431,-0.29012697,0.07589572,0.00092462,-0.00534045,0.00246549,-0.0
 0045648,-0.00091524,0.00001955,-0.00005907,0.00117940,-0.00036225,-0.0
 0005142,-0.00011006,-0.00017730,-0.00008653,-0.00015825,-0.00023414,-0
 .00021416,-0.00149964,0.00024168,0.01835891,0.31305588,0.00010769,0.00
 107582,0.00101023,-0.00025270,0.00038992,-0.00022484,0.00181532,-0.002
 58771,-0.00363669,-0.00183535,-0.02243612,0.00509448,-0.00006976,-0.00
 081632,-0.00056684,0.00456958,0.07879787,-0.06928312,0.00039713,-0.002
 18796,-0.00050689,-0.00062865,-0.00100328,-0.00001148,-0.00053042,0.00
 013954,0.00102861,-0.00004431,-0.00008802,-0.00009698,-0.00015280,-0.0
 0003711,-0.00010832,0.00202616,0.02953642,-0.00758547,-0.00646617,-0.0
 8020354,0.07363947,0.00030753,-0.00017986,-0.00105926,-0.00073942,0.00
 082371,0.00048850,-0.00030122,-0.00045527,0.00097788,-0.00206156,-0.00
 221654,-0.00069505,-0.00020191,-0.00055109,-0.00133023,-0.01158645,-0.
 00932899,0.02553619,-0.06680884,-0.01957873,0.06973408,0.00000410,0.00
 021749,-0.00014333,0.00013853,0.00008867,0.00016208,0.00056004,-0.0004
 5656,-0.00070306,0.00067779,-0.00002429,-0.00042062,0.00110747,-0.0002
 4662,0.00021724,-0.00327122,-0.00070129,0.00051321,0.07605720,0.000133
 38,-0.00026894,0.00095786,-0.00013856,0.00029016,0.00020398,-0.0003526
 4,0.00030402,-0.00135614,-0.00015678,-0.00164353,-0.00048456,0.0063525
 5,0.00684027,-0.02667305,-0.00462755,-0.00417431,0.00947587,-0.0204770
 0,-0.06846595,0.07397733,0.00027520,-0.00009410,0.00020678,0.00002476,
 -0.00004205,0.00007871,0.00125230,-0.00361505,-0.00327281,-0.00052198,
 0.00150466,0.00019857,0.00030051,0.00117525,-0.00003902,-0.00189964,-0
 .00019212,0.00014035,0.02675802,0.07483145,-0.00028361,0.00026347,0.00
 087889,0.00022089,0.00005433,0.00003389,-0.00039052,0.00032995,-0.0014
 6182,-0.00058749,-0.00058216,0.00022138,0.00345465,0.00451467,-0.01863
 560,-0.00292726,-0.00097675,0.00394383,0.07108619,0.07234882,-0.270555
 79,0.00018339,-0.00016126,0.00017931,-0.00009771,0.00005992,0.00011260
 ,0.00082299,-0.00328407,-0.00100245,-0.00033744,0.00003389,0.00089632,
 -0.00026990,-0.00027833,0.00158972,-0.00021034,-0.00069626,0.00030284,
 -0.07337930,-0.07420161,0.29219064,0.00039434,0.00001132,0.00004448,-0
 .00142224,0.00070602,0.00096199,-0.00026690,-0.00045902,0.00016941,-0.
 00176938,-0.00113011,-0.00168343,0.00096216,-0.00103126,0.00062243,-0.
 01626128,0.01862264,-0.00957865,-0.15726074,0.11747984,-0.05676026,-0.
 00005567,0.00020475,-0.00002640,-0.00018749,0.00014716,0.00038954,0.00
 056980,0.00023668,0.00042493,-0.00033310,0.00004240,0.00024955,-0.0032
 2501,-0.00065475,0.00060887,0.00154258,-0.00017784,0.00016671,0.006503
 13,-0.00684725,0.00267937,0.17109054,0.00006459,0.00022782,-0.00018794
 ,-0.00025666,0.00059340,0.00037391,-0.00093214,-0.00333814,-0.00275437
 ,-0.00143621,-0.00107386,-0.00064141,0.01539470,-0.01523984,0.00862068
 ,-0.01021839,0.00899662,-0.00488602,0.11924657,-0.17158522,0.06246121,
 0.00121690,-0.00023026,0.00009206,0.00001751,0.00012190,0.00005321,-0.
 00007406,0.00160356,-0.00009688,0.00013336,-0.00112276,-0.00047464,-0.
 00193400,-0.00011423,-0.00037013,0.00043906,0.00120511,-0.00022451,0.0
 0581602,-0.00634415,0.00255839,-0.12710237,0.18630187,-0.00055454,0.00
 071934,0.00080277,0.00020856,0.00014663,0.00005224,0.00016534,-0.00327
 053,-0.00341830,0.00042648,-0.00071504,-0.00058975,0.01508118,-0.01502
 033,0.00596117,0.00006796,-0.00084406,-0.00122704,-0.05795837,0.063848
 12,-0.07616152,0.00113248,-0.00025485,0.00002403,0.00005215,0.00000536
 ,-0.00009166,0.00027471,0.00029332,0.00113140,-0.00014122,-0.00045202,
 -0.00014994,-0.00074891,-0.00027611,0.00033521,-0.00004183,-0.00027886
 ,0.00103014,-0.01985222,0.02067331,-0.00882021,0.06177331,-0.06448979,
 0.08109748,-0.46887354,-0.07540597,-0.14373279,-0.00120744,0.00243498,
 -0.00062013,-0.00450839,0.00250132,-0.00375732,0.00302644,-0.00292272,
 0.00201767,0.00006906,-0.00036764,-0.00232368,-0.00055024,0.00027305,-
 0.00029122,0.00001443,-0.00003487,-0.00013266,-0.00038167,-0.00010525,
 0.00165782,-0.00121173,-0.00027911,-0.00017341,-0.00020840,0.00019423,
 0.00027457,0.00029027,0.00002040,0.00009026,0.00027309,0.00047495,0.00
 005977,0.00005006,-0.00013670,0.00016690,-0.00018074,-0.00003733,0.000
 06719,-0.00002478,-0.00015085,0.00010860,0.47401327,-0.09921848,-0.027
 88625,-0.01332289,0.00071987,-0.00045452,-0.00204506,0.01964471,0.0017
 6261,0.00630018,0.00354469,-0.00208763,0.00442502,0.00062051,-0.002561
 70,0.00527539,0.00047705,-0.00013552,0.00028415,0.00017231,0.00052357,
 0.00014996,-0.00038750,0.00011564,-0.00058927,-0.00005669,0.00058832,-
 0.00070235,0.00151666,-0.00061318,0.00045612,-0.00031930,0.00006972,-0
 .00006767,0.00002452,-0.00091142,-0.00081625,-0.00033983,0.00014219,-0
 .00038835,-0.00003573,-0.00011666,0.00000339,-0.00020493,-0.00005465,-
 0.00009805,0.07440738,0.03043524,-0.10523525,0.00001571,-0.07083122,0.
 00071653,-0.00392336,0.00042278,-0.03810809,-0.00272821,-0.01571239,-0
 .00320766,0.00245625,0.00008993,0.00061235,0.00155025,-0.00544288,0.00
 021410,0.00042040,0.00062843,0.00026397,-0.00004718,0.00011089,-0.0003
 4027,0.00010244,-0.00174966,-0.00015441,-0.00067657,0.00004942,-0.0012
 8818,0.00057650,0.00035539,0.00021065,-0.00019915,-0.00009300,-0.00010
 210,-0.00037195,-0.00026547,-0.00007566,-0.00004575,-0.00023942,0.0001
 2792,0.00015763,0.00012181,0.00003946,-0.00008234,0.00000029,0.1454580
 4,0.00164609,0.09335100,0.00040070,0.00034857,-0.00050333,-0.20571709,
 0.10482115,0.18436708,-0.00028924,-0.00038465,0.00096634,-0.02315765,0
 .01480754,0.02990014,-0.00009969,0.00059374,-0.00018677,-0.00431309,-0
 .00082914,-0.00354798,-0.00055403,0.00083456,0.00055845,-0.00027188,-0
 .00071113,-0.00024361,0.00252481,0.00057209,-0.00046592,-0.00009125,0.
 00001769,-0.00004076,0.00017309,-0.00012026,-0.00014409,0.00016353,-0.
 00032013,-0.00043305,-0.00036321,0.00023572,0.00021746,-0.00020442,-0.
 00003797,-0.00003112,-0.00025595,-0.00022404,0.00000632,-0.00058971,-0
 .00056525,0.00086861,0.23264508,-0.00018138,-0.00150743,-0.00040860,0.
 11705752,-0.07123006,-0.13546945,-0.00109057,0.00173074,0.00122846,0.0
 0163767,-0.00343394,-0.00388143,-0.00036845,-0.00024028,-0.00031804,0.
 00334889,0.00048321,0.00066826,0.00015367,-0.00079269,-0.00034631,0.00
 009551,-0.00046298,-0.00056168,-0.00068419,0.00040378,-0.00055999,0.00
 007867,-0.00001818,0.00009628,-0.00006355,-0.00001853,-0.00000246,-0.0
 0023549,0.00018119,0.00044312,-0.00007174,-0.00029229,-0.00010701,0.00
 007106,0.00001104,0.00001363,0.00015672,0.00005281,0.00001357,-0.00086
 586,0.00118425,0.00114924,-0.11903849,0.07394936,-0.00012261,0.0008053
 1,-0.00044071,0.23101345,-0.14665104,-0.30983319,-0.00037117,0.0005796
 2,0.00027042,-0.01579569,0.00742311,0.01083192,-0.00007588,-0.00026202
 ,0.00002858,-0.00270703,-0.00027840,-0.00093773,-0.00040456,0.00011735
 ,0.00064930,0.00019731,-0.00033719,-0.00029020,-0.00132797,0.00083924,
 0.00063204,-0.00005066,0.00003239,-0.00005355,-0.00014032,0.00004262,-
 0.00000886,0.00003049,0.00009960,0.00062471,0.00016733,0.00005203,0.00
 015428,-0.00017404,-0.00004320,0.00000465,-0.00008129,0.00004857,0.000
 02367,0.00113040,-0.00051042,-0.00079589,-0.21128776,0.13804241,0.2991
 4054\\-0.00000142,0.00000047,-0.00000699,0.00000538,-0.00000498,0.,-0.
 00000208,-0.00000060,0.00000278,-0.00000695,0.00000105,-0.00000284,-0.
 00000074,0.00000327,-0.00000027,0.00000593,-0.00000158,0.00000080,-0.0
 0000033,0.00000003,0.00000209,-0.00000433,0.00000219,-0.00000304,0.000
 00006,-0.00000040,0.00000105,-0.00000424,0.00000451,0.00000225,-0.0000
 0248,0.00000310,0.00000190,0.00000340,-0.00000207,0.00000036,0.0000026
 1,-0.00000099,0.00000181,0.00000245,0.00000009,0.00000257,0.00000218,0
 .00000265,0.00000509,0.00000126,-0.00000342,-0.00000229,-0.00000071,-0
 .00000334,-0.00000528\\\@


 "TIGER, TIGER BURNING BRIGHT
 IN THE FOREST OF THE NIGHT.
 WHAT IMMORTAL HAND OR EYE
 CAN FRAME THY FEARFUL SYMMETRYE?"
                     - WILLIAM BLAKE
 Job cpu time:       0 days  1 hours 23 minutes 57.9 seconds.
 Elapsed time:       0 days  0 hours  5 minutes 17.6 seconds.
 File lengths (MBytes):  RWF=     82 Int=      0 D2E=      0 Chk=      5 Scr=      1
 Normal termination of Gaussian 16 at Wed Oct  1 05:47:10 2025.
