 Entering Gaussian System, Link 0=g16
 Input=CNAC0094.gjf
 Output=CNAC0094.log
 Initial command:
 /usr/local/g16/l1.exe "/dados_01/scratch/Gau-1950170.inp" -scrdir="/dados_01/scratch/"
 Entering Link 1 = /usr/local/g16/l1.exe PID=   1950172.
  
 Copyright (c) 1988-2017, Gaussian, Inc.  All Rights Reserved.
  
 This is part of the Gaussian(R) 16 program.  It is based on
 the Gaussian(R) 09 system (copyright 2009, Gaussian, Inc.),
 the Gaussian(R) 03 system (copyright 2003, Gaussian, Inc.),
 the Gaussian(R) 98 system (copyright 1998, Gaussian, Inc.),
 the Gaussian(R) 94 system (copyright 1995, Gaussian, Inc.),
 the Gaussian 92(TM) system (copyright 1992, Gaussian, Inc.),
 the Gaussian 90(TM) system (copyright 1990, Gaussian, Inc.),
 the Gaussian 88(TM) system (copyright 1988, Gaussian, Inc.),
 the Gaussian 86(TM) system (copyright 1986, Carnegie Mellon
 University), and the Gaussian 82(TM) system (copyright 1983,
 Carnegie Mellon University). Gaussian is a federally registered
 trademark of Gaussian, Inc.
  
 This software contains proprietary and confidential information,
 including trade secrets, belonging to Gaussian, Inc.
  
 This software is provided under written license and may be
 used, copied, transmitted, or stored only in accord with that
 written license.
  
 The following legend is applicable only to US Government
 contracts under FAR:
  
                    RESTRICTED RIGHTS LEGEND
  
 Use, reproduction and disclosure by the US Government is
 subject to restrictions as set forth in subparagraphs (a)
 and (c) of the Commercial Computer Software - Restricted
 Rights clause in FAR 52.227-19.
  
 Gaussian, Inc.
 340 Quinnipiac St., Bldg. 40, Wallingford CT 06492
  
  
 ---------------------------------------------------------------
 Warning -- This program may not be used in any manner that
 competes with the business of Gaussian, Inc. or will provide
 assistance to any competitor of Gaussian, Inc.  The licensee
 of this program is prohibited from giving any competitor of
 Gaussian, Inc. access to this program.  By using this program,
 the user acknowledges that Gaussian, Inc. is engaged in the
 business of creating and licensing software in the field of
 computational chemistry and represents and warrants to the
 licensee that it is not a competitor of Gaussian, Inc. and that
 it will not use this program in any manner prohibited above.
 ---------------------------------------------------------------
  

 Cite this work as:
 Gaussian 16, Revision B.01,
 M. J. Frisch, G. W. Trucks, H. B. Schlegel, G. E. Scuseria, 
 M. A. Robb, J. R. Cheeseman, G. Scalmani, V. Barone, 
 G. A. Petersson, H. Nakatsuji, X. Li, M. Caricato, A. V. Marenich, 
 J. Bloino, B. G. Janesko, R. Gomperts, B. Mennucci, H. P. Hratchian, 
 J. V. Ortiz, A. F. Izmaylov, J. L. Sonnenberg, D. Williams-Young, 
 F. Ding, F. Lipparini, F. Egidi, J. Goings, B. Peng, A. Petrone, 
 T. Henderson, D. Ranasinghe, V. G. Zakrzewski, J. Gao, N. Rega, 
 G. Zheng, W. Liang, M. Hada, M. Ehara, K. Toyota, R. Fukuda, 
 J. Hasegawa, M. Ishida, T. Nakajima, Y. Honda, O. Kitao, H. Nakai, 
 T. Vreven, K. Throssell, J. A. Montgomery, Jr., J. E. Peralta, 
 F. Ogliaro, M. J. Bearpark, J. J. Heyd, E. N. Brothers, K. N. Kudin, 
 V. N. Staroverov, T. A. Keith, R. Kobayashi, J. Normand, 
 K. Raghavachari, A. P. Rendell, J. C. Burant, S. S. Iyengar, 
 J. Tomasi, M. Cossi, J. M. Millam, M. Klene, C. Adamo, R. Cammi, 
 J. W. Ochterski, R. L. Martin, K. Morokuma, O. Farkas, 
 J. B. Foresman, and D. J. Fox, Gaussian, Inc., Wallingford CT, 2016.
 
 ******************************************
 Gaussian 16:  ES64L-G16RevB.01 20-Dec-2017
                18-Sep-2025 
 ******************************************
 %nprocs=16
 Will use up to   16 processors via shared memory.
 %mem=40GB
 %chk=CNAC0094.chk
 ----------------------------------------------------------------------
 # opt freq=noraman M08HX/6-311++G** scf=xqc Empiricaldispersion=pfd In
 t(Grid=ultraFine)
 ----------------------------------------------------------------------
 1/18=20,19=15,26=4,38=1/1,3;
 2/9=110,12=2,17=6,18=5,40=1/2;
 3/5=4,6=6,7=1111,11=2,25=1,30=1,71=1,74=-74,75=-5,124=11/1,2,3;
 4//1;
 5/5=2,8=3,13=1,38=5/2,8;
 6/7=2,8=2,9=2,10=2,28=1/1;
 7//1,2,3,16;
 1/18=20,19=15,26=4/3(2);
 2/9=110/2;
 99//99;
 2/9=110/2;
 3/5=4,6=6,7=1111,11=2,25=1,30=1,71=1,74=-74,75=-5,124=11/1,2,3;
 4/5=5,16=3,69=1/1;
 5/5=2,8=3,13=1,38=5/2,8;
 7//1,2,3,16;
 1/18=20,19=15,26=4/3(-5);
 2/9=110/2;
 6/7=2,8=2,9=2,10=2,19=2,28=1/1;
 99/9=1/99;
 --------
 CNAC0094
 --------
 Symbolic Z-matrix:
 Charge =  0 Multiplicity = 1
 O                    -0.0003   -0.6563   -0.0011 
 O                     1.3115   -2.5744   -0.0126 
 O                    -1.3116   -2.5748    0.013 
 C                     4.7214    0.0811   -0.0254 
 C                    -4.7214    0.0807    0.0258 
 C                     4.5852    1.396    -0.4403 
 C                    -4.584     1.396     0.4392 
 C                     5.9445   -0.4214    0.3881 
 C                    -5.9453   -0.4215   -0.3861 
 C                     3.541    -0.801    -0.0242 
 C                    -3.5417   -0.8021    0.0242 
 C                     5.7025    2.231    -0.4419 
 C                    -5.7008    2.2318    0.441 
 C                     7.0617    0.4137    0.3867 
 C                    -7.0621    0.4144   -0.3843 
 C                     6.9406    1.7399   -0.0283 
 C                    -6.9397    1.741     0.0292 
 C                     2.2701   -0.374    -0.0247 
 C                    -2.2709   -0.3746    0.0229 
 C                     1.1652   -1.3626   -0.012 
 C                    -1.1657   -1.3629    0.0108 
 H                     3.6472    1.8148   -0.7907 
 H                    -3.6455    1.8147    0.7883 
 H                     6.0546   -1.4519    0.7154 
 H                    -6.0565   -1.4521   -0.7122 
 H                     3.7583   -1.8668   -0.0115 
 H                    -3.7591   -1.8678    0.0132 
 H                     5.61      3.2624   -0.7698 
 H                    -5.6075    3.2634    0.7677 
 H                     8.0261    0.0315    0.7087 
 H                    -8.027     0.0326   -0.7049 
 H                     7.8108    2.3897   -0.0306 
 H                    -7.8096    2.3913    0.0317 
 H                     1.9929    0.6738   -0.0099 
 H                    -1.9937    0.6731    0.0064 
 

 GradGradGradGradGradGradGradGradGradGradGradGradGradGradGradGradGradGrad
 Berny optimization.
 Initialization pass.
                           ----------------------------
                           !    Initial Parameters    !
                           ! (Angstroms and Degrees)  !
 --------------------------                            --------------------------
 ! Name  Definition              Value          Derivative Info.                !
 --------------------------------------------------------------------------------
 ! R1    R(1,20)                 1.3629         estimate D2E/DX2                !
 ! R2    R(1,21)                 1.3629         estimate D2E/DX2                !
 ! R3    R(2,20)                 1.2206         estimate D2E/DX2                !
 ! R4    R(3,21)                 1.2207         estimate D2E/DX2                !
 ! R5    R(4,6)                  1.3855         estimate D2E/DX2                !
 ! R6    R(4,8)                  1.3854         estimate D2E/DX2                !
 ! R7    R(4,10)                 1.4736         estimate D2E/DX2                !
 ! R8    R(5,7)                  1.3856         estimate D2E/DX2                !
 ! R9    R(5,9)                  1.3856         estimate D2E/DX2                !
 ! R10   R(5,11)                 1.4734         estimate D2E/DX2                !
 ! R11   R(6,12)                 1.3948         estimate D2E/DX2                !
 ! R12   R(6,22)                 1.0854         estimate D2E/DX2                !
 ! R13   R(7,13)                 1.3949         estimate D2E/DX2                !
 ! R14   R(7,23)                 1.0853         estimate D2E/DX2                !
 ! R15   R(8,14)                 1.3948         estimate D2E/DX2                !
 ! R16   R(8,24)                 1.0868         estimate D2E/DX2                !
 ! R17   R(9,15)                 1.395          estimate D2E/DX2                !
 ! R18   R(9,25)                 1.0867         estimate D2E/DX2                !
 ! R19   R(10,18)                1.3407         estimate D2E/DX2                !
 ! R20   R(10,26)                1.0878         estimate D2E/DX2                !
 ! R21   R(11,19)                1.3408         estimate D2E/DX2                !
 ! R22   R(11,27)                1.0877         estimate D2E/DX2                !
 ! R23   R(12,16)                1.3947         estimate D2E/DX2                !
 ! R24   R(12,28)                1.0862         estimate D2E/DX2                !
 ! R25   R(13,17)                1.3948         estimate D2E/DX2                !
 ! R26   R(13,29)                1.0861         estimate D2E/DX2                !
 ! R27   R(14,16)                1.3949         estimate D2E/DX2                !
 ! R28   R(14,30)                1.0862         estimate D2E/DX2                !
 ! R29   R(15,17)                1.3949         estimate D2E/DX2                !
 ! R30   R(15,31)                1.0861         estimate D2E/DX2                !
 ! R31   R(16,32)                1.086          estimate D2E/DX2                !
 ! R32   R(17,33)                1.0861         estimate D2E/DX2                !
 ! R33   R(18,20)                1.4827         estimate D2E/DX2                !
 ! R34   R(18,34)                1.0839         estimate D2E/DX2                !
 ! R35   R(19,21)                1.4827         estimate D2E/DX2                !
 ! R36   R(19,35)                1.0839         estimate D2E/DX2                !
 ! A1    A(20,1,21)            117.5572         estimate D2E/DX2                !
 ! A2    A(6,4,8)              121.3572         estimate D2E/DX2                !
 ! A3    A(6,4,10)             119.3142         estimate D2E/DX2                !
 ! A4    A(8,4,10)             119.3286         estimate D2E/DX2                !
 ! A5    A(7,5,9)              121.3565         estimate D2E/DX2                !
 ! A6    A(7,5,11)             119.3199         estimate D2E/DX2                !
 ! A7    A(9,5,11)             119.3236         estimate D2E/DX2                !
 ! A8    A(4,6,12)             119.3224         estimate D2E/DX2                !
 ! A9    A(4,6,22)             123.218          estimate D2E/DX2                !
 ! A10   A(12,6,22)            117.4454         estimate D2E/DX2                !
 ! A11   A(5,7,13)             119.3261         estimate D2E/DX2                !
 ! A12   A(5,7,23)             123.2252         estimate D2E/DX2                !
 ! A13   A(13,7,23)            117.4347         estimate D2E/DX2                !
 ! A14   A(4,8,14)             119.3178         estimate D2E/DX2                !
 ! A15   A(4,8,24)             121.5485         estimate D2E/DX2                !
 ! A16   A(14,8,24)            119.1337         estimate D2E/DX2                !
 ! A17   A(5,9,15)             119.3144         estimate D2E/DX2                !
 ! A18   A(5,9,25)             121.5574         estimate D2E/DX2                !
 ! A19   A(15,9,25)            119.1282         estimate D2E/DX2                !
 ! A20   A(4,10,18)            124.6582         estimate D2E/DX2                !
 ! A21   A(4,10,26)            115.2453         estimate D2E/DX2                !
 ! A22   A(18,10,26)           120.0932         estimate D2E/DX2                !
 ! A23   A(5,11,19)            124.5985         estimate D2E/DX2                !
 ! A24   A(5,11,27)            115.2778         estimate D2E/DX2                !
 ! A25   A(19,11,27)           120.1207         estimate D2E/DX2                !
 ! A26   A(6,12,16)            119.9972         estimate D2E/DX2                !
 ! A27   A(6,12,28)            120.0369         estimate D2E/DX2                !
 ! A28   A(16,12,28)           119.9652         estimate D2E/DX2                !
 ! A29   A(7,13,17)            119.9954         estimate D2E/DX2                !
 ! A30   A(7,13,29)            120.0473         estimate D2E/DX2                !
 ! A31   A(17,13,29)           119.9566         estimate D2E/DX2                !
 ! A32   A(8,14,16)            119.9997         estimate D2E/DX2                !
 ! A33   A(8,14,30)            120.012          estimate D2E/DX2                !
 ! A34   A(16,14,30)           119.9883         estimate D2E/DX2                !
 ! A35   A(9,15,17)            120.0            estimate D2E/DX2                !
 ! A36   A(9,15,31)            120.0148         estimate D2E/DX2                !
 ! A37   A(17,15,31)           119.9851         estimate D2E/DX2                !
 ! A38   A(12,16,14)           120.0057         estimate D2E/DX2                !
 ! A39   A(12,16,32)           119.9993         estimate D2E/DX2                !
 ! A40   A(14,16,32)           119.995          estimate D2E/DX2                !
 ! A41   A(13,17,15)           120.0076         estimate D2E/DX2                !
 ! A42   A(13,17,33)           120.0043         estimate D2E/DX2                !
 ! A43   A(15,17,33)           119.988          estimate D2E/DX2                !
 ! A44   A(10,18,20)           119.6068         estimate D2E/DX2                !
 ! A45   A(10,18,34)           123.3859         estimate D2E/DX2                !
 ! A46   A(20,18,34)           116.9906         estimate D2E/DX2                !
 ! A47   A(11,19,21)           119.6024         estimate D2E/DX2                !
 ! A48   A(11,19,35)           123.4094         estimate D2E/DX2                !
 ! A49   A(21,19,35)           116.9719         estimate D2E/DX2                !
 ! A50   A(1,20,2)             128.0989         estimate D2E/DX2                !
 ! A51   A(1,20,18)            106.9665         estimate D2E/DX2                !
 ! A52   A(2,20,18)            124.9346         estimate D2E/DX2                !
 ! A53   A(1,21,3)             128.0932         estimate D2E/DX2                !
 ! A54   A(1,21,19)            106.97           estimate D2E/DX2                !
 ! A55   A(3,21,19)            124.9368         estimate D2E/DX2                !
 ! D1    D(21,1,20,2)            0.0016         estimate D2E/DX2                !
 ! D2    D(21,1,20,18)         179.9518         estimate D2E/DX2                !
 ! D3    D(20,1,21,3)           -0.0051         estimate D2E/DX2                !
 ! D4    D(20,1,21,19)         179.9196         estimate D2E/DX2                !
 ! D5    D(8,4,6,12)             0.0087         estimate D2E/DX2                !
 ! D6    D(8,4,6,22)           178.6075         estimate D2E/DX2                !
 ! D7    D(10,4,6,12)         -179.9802         estimate D2E/DX2                !
 ! D8    D(10,4,6,22)           -1.3814         estimate D2E/DX2                !
 ! D9    D(6,4,8,14)             0.0024         estimate D2E/DX2                !
 ! D10   D(6,4,8,24)           179.9182         estimate D2E/DX2                !
 ! D11   D(10,4,8,14)          179.9913         estimate D2E/DX2                !
 ! D12   D(10,4,8,24)           -0.0929         estimate D2E/DX2                !
 ! D13   D(6,4,10,18)          -20.0            estimate D2E/DX2                !
 ! D14   D(6,4,10,26)          160.6593         estimate D2E/DX2                !
 ! D15   D(8,4,10,18)          160.0109         estimate D2E/DX2                !
 ! D16   D(8,4,10,26)          -19.3298         estimate D2E/DX2                !
 ! D17   D(9,5,7,13)             0.0111         estimate D2E/DX2                !
 ! D18   D(9,5,7,23)           178.6091         estimate D2E/DX2                !
 ! D19   D(11,5,7,13)         -179.9883         estimate D2E/DX2                !
 ! D20   D(11,5,7,23)           -1.3903         estimate D2E/DX2                !
 ! D21   D(7,5,9,15)            -0.0098         estimate D2E/DX2                !
 ! D22   D(7,5,9,25)           179.9178         estimate D2E/DX2                !
 ! D23   D(11,5,9,15)          179.9896         estimate D2E/DX2                !
 ! D24   D(11,5,9,25)           -0.0828         estimate D2E/DX2                !
 ! D25   D(7,5,11,19)          -19.9982         estimate D2E/DX2                !
 ! D26   D(7,5,11,27)          160.6378         estimate D2E/DX2                !
 ! D27   D(9,5,11,19)          160.0024         estimate D2E/DX2                !
 ! D28   D(9,5,11,27)          -19.3616         estimate D2E/DX2                !
 ! D29   D(4,6,12,16)           -0.0164         estimate D2E/DX2                !
 ! D30   D(4,6,12,28)          179.681          estimate D2E/DX2                !
 ! D31   D(22,6,12,16)        -178.6955         estimate D2E/DX2                !
 ! D32   D(22,6,12,28)           1.0019         estimate D2E/DX2                !
 ! D33   D(5,7,13,17)           -0.0098         estimate D2E/DX2                !
 ! D34   D(5,7,13,29)          179.6792         estimate D2E/DX2                !
 ! D35   D(23,7,13,17)        -178.6883         estimate D2E/DX2                !
 ! D36   D(23,7,13,29)           1.0006         estimate D2E/DX2                !
 ! D37   D(4,8,14,16)           -0.0058         estimate D2E/DX2                !
 ! D38   D(4,8,14,30)          179.9962         estimate D2E/DX2                !
 ! D39   D(24,8,14,16)        -179.9236         estimate D2E/DX2                !
 ! D40   D(24,8,14,30)           0.0784         estimate D2E/DX2                !
 ! D41   D(5,9,15,17)            0.0072         estimate D2E/DX2                !
 ! D42   D(5,9,15,31)         -179.9993         estimate D2E/DX2                !
 ! D43   D(25,9,15,17)        -179.9222         estimate D2E/DX2                !
 ! D44   D(25,9,15,31)           0.0713         estimate D2E/DX2                !
 ! D45   D(4,10,18,20)        -179.4949         estimate D2E/DX2                !
 ! D46   D(4,10,18,34)          -1.0225         estimate D2E/DX2                !
 ! D47   D(26,10,18,20)         -0.1841         estimate D2E/DX2                !
 ! D48   D(26,10,18,34)        178.2882         estimate D2E/DX2                !
 ! D49   D(5,11,19,21)        -179.531          estimate D2E/DX2                !
 ! D50   D(5,11,19,35)          -1.0456         estimate D2E/DX2                !
 ! D51   D(27,11,19,21)         -0.1959         estimate D2E/DX2                !
 ! D52   D(27,11,19,35)        178.2896         estimate D2E/DX2                !
 ! D53   D(6,12,16,14)           0.0131         estimate D2E/DX2                !
 ! D54   D(6,12,16,32)         179.9308         estimate D2E/DX2                !
 ! D55   D(28,12,16,14)       -179.6845         estimate D2E/DX2                !
 ! D56   D(28,12,16,32)          0.2331         estimate D2E/DX2                !
 ! D57   D(7,13,17,15)           0.0074         estimate D2E/DX2                !
 ! D58   D(7,13,17,33)         179.9251         estimate D2E/DX2                !
 ! D59   D(29,13,17,15)       -179.6819         estimate D2E/DX2                !
 ! D60   D(29,13,17,33)          0.2358         estimate D2E/DX2                !
 ! D61   D(8,14,16,12)          -0.0019         estimate D2E/DX2                !
 ! D62   D(8,14,16,32)        -179.9196         estimate D2E/DX2                !
 ! D63   D(30,14,16,12)        179.996          estimate D2E/DX2                !
 ! D64   D(30,14,16,32)          0.0784         estimate D2E/DX2                !
 ! D65   D(9,15,17,13)          -0.0061         estimate D2E/DX2                !
 ! D66   D(9,15,17,33)        -179.9238         estimate D2E/DX2                !
 ! D67   D(31,15,17,13)       -179.9996         estimate D2E/DX2                !
 ! D68   D(31,15,17,33)          0.0827         estimate D2E/DX2                !
 ! D69   D(10,18,20,1)         179.3672         estimate D2E/DX2                !
 ! D70   D(10,18,20,2)          -0.6806         estimate D2E/DX2                !
 ! D71   D(34,18,20,1)           0.7986         estimate D2E/DX2                !
 ! D72   D(34,18,20,2)        -179.2492         estimate D2E/DX2                !
 ! D73   D(11,19,21,1)         179.4179         estimate D2E/DX2                !
 ! D74   D(11,19,21,3)          -0.6544         estimate D2E/DX2                !
 ! D75   D(35,19,21,1)           0.8364         estimate D2E/DX2                !
 ! D76   D(35,19,21,3)        -179.2359         estimate D2E/DX2                !
 --------------------------------------------------------------------------------
 Trust Radius=3.00D-01 FncErr=1.00D-07 GrdErr=1.00D-06 EigMax=2.50D+02 EigMin=1.00D-04
 Number of steps in this run=    177 maximum allowed number of steps=    210.
 GradGradGradGradGradGradGradGradGradGradGradGradGradGradGradGradGradGrad

                          Input orientation:                          
 ---------------------------------------------------------------------
 Center     Atomic      Atomic             Coordinates (Angstroms)
 Number     Number       Type             X           Y           Z
 ---------------------------------------------------------------------
      1          8           0       -0.000300   -0.656300   -0.001100
      2          8           0        1.311500   -2.574400   -0.012600
      3          8           0       -1.311600   -2.574800    0.013000
      4          6           0        4.721400    0.081100   -0.025400
      5          6           0       -4.721400    0.080700    0.025800
      6          6           0        4.585200    1.396000   -0.440300
      7          6           0       -4.584000    1.396000    0.439200
      8          6           0        5.944500   -0.421400    0.388100
      9          6           0       -5.945300   -0.421500   -0.386100
     10          6           0        3.541000   -0.801000   -0.024200
     11          6           0       -3.541700   -0.802100    0.024200
     12          6           0        5.702500    2.231000   -0.441900
     13          6           0       -5.700800    2.231800    0.441000
     14          6           0        7.061700    0.413700    0.386700
     15          6           0       -7.062100    0.414400   -0.384300
     16          6           0        6.940600    1.739900   -0.028300
     17          6           0       -6.939700    1.741000    0.029200
     18          6           0        2.270100   -0.374000   -0.024700
     19          6           0       -2.270900   -0.374600    0.022900
     20          6           0        1.165200   -1.362600   -0.012000
     21          6           0       -1.165700   -1.362900    0.010800
     22          1           0        3.647200    1.814800   -0.790700
     23          1           0       -3.645500    1.814700    0.788300
     24          1           0        6.054600   -1.451900    0.715400
     25          1           0       -6.056500   -1.452100   -0.712200
     26          1           0        3.758300   -1.866800   -0.011500
     27          1           0       -3.759100   -1.867800    0.013200
     28          1           0        5.610000    3.262400   -0.769800
     29          1           0       -5.607500    3.263400    0.767700
     30          1           0        8.026100    0.031500    0.708700
     31          1           0       -8.027000    0.032600   -0.704900
     32          1           0        7.810800    2.389700   -0.030600
     33          1           0       -7.809600    2.391300    0.031700
     34          1           0        1.992900    0.673800   -0.009900
     35          1           0       -1.993700    0.673100    0.006400
 ---------------------------------------------------------------------
                    Distance matrix (angstroms):
                    1          2          3          4          5
     1  O    0.000000
     2  O    2.323803   0.000000
     3  O    2.323865   2.623225   0.000000
     4  C    4.778996   4.321951   6.591841   0.000000
     5  C    4.778355   6.591427   4.321872   9.442939   0.000000
     6  C    5.042979   5.163731   7.123551   1.385516   9.410636
     7  C    5.041439   7.122157   5.163090   9.409319   1.385566
     8  C    5.962156   5.124515   7.578180   1.385447  10.683856
     9  C    5.962079   7.578630   5.125149  10.684624   1.385568
    10  C    3.544330   2.848816   5.166767   1.473583   8.309461
    11  C    3.544490   5.166813   2.848848   8.310314   1.473442
    12  C    6.407241   6.523576   8.514708   2.399604  10.653648
    13  C    6.405644   8.513381   6.523164  10.652009   2.399760
    14  C    7.153120   6.492533   8.898479   2.399469  11.793328
    15  C    7.152780   8.898779   6.493182  11.793675   2.399670
    16  C    7.342929   7.092263   9.312204   2.770645  11.779563
    17  C    7.341882   9.311645   7.092383  11.778773   2.770823
    18  C    2.288005   2.400171   4.203988   2.493188   7.006452
    19  C    2.288134   4.204042   2.400257   7.007300   2.492440
    20  C    1.362853   1.220600   2.757642   3.838099   6.061073
    21  C    1.362932   2.757680   1.220653   6.061715   3.837605
    22  H    4.475942   5.032495   6.671148   2.178372   8.585292
    23  H    4.473978   6.669145   5.031490   8.583268   2.178468
    24  H    6.148834   4.928183   7.484328   2.162474  10.906264
    25  H    6.149514   7.485748   4.929548  10.908049   2.162548
    26  H    3.948733   2.547063   5.119155   2.173032   8.700544
    27  H    3.949242   5.119661   2.547569   8.701642   2.173208
    28  H    6.886405   7.288257   9.088137   3.385914  10.839466
    29  H    6.884460   9.086327   7.287586  10.837076   3.386025
    30  H    8.087026   7.238566   9.719539   3.385617  12.765874
    31  H    8.086893   9.720253   7.239511  12.766588   3.385739
    32  H    8.384049   8.178234  10.385872   3.856689  12.743261
    33  H    8.382965  10.385307   8.178417  12.742301   3.856927
    34  H    2.396266   3.318903   4.633967   2.792176   6.740539
    35  H    2.396039   4.633677   3.318759   6.741220   2.791355
                    6          7          8          9         10
     6  C    0.000000
     7  C    9.211284   0.000000
     8  C    2.415965  10.684328   0.000000
     9  C   10.686331   2.416105  11.914979   0.000000
    10  C    2.467854   8.429542   2.467975   9.500783   0.000000
    11  C    8.431720   2.467845   9.500808   2.467893   7.082865
    12  C    1.394843  10.357878   2.789747  11.946134   3.746943
    13  C   10.357463   1.394922  11.943839   2.789960   9.737821
    14  C    2.789605  11.687172   1.394823  13.056678   3.746954
    15  C   11.688724   2.789744  13.056294   1.394982  10.678605
    16  C    2.415765  11.539204   2.415952  13.070811   4.244228
    17  C   11.539618   2.415874  13.069330   2.416136  10.784697
    18  C    2.943690   7.094138   3.697819   8.223482   1.340715
    19  C    7.096174   2.942577   8.223646   3.697390   5.827711
    20  C    4.414716   6.392711   4.887499   7.182258   2.441305
    21  C    6.394362   4.413596   7.182181   4.887570   4.740251
    22  H    1.085365   8.333109   3.415808   9.858032   2.727858
    23  H    8.332418   1.085340   9.855374   3.415975   7.690762
    24  H    3.406657  11.016652   1.086820  12.094322   2.699790
    25  H   11.019591   3.406707  12.095330   1.086666   9.644132
    26  H    3.393154   8.969000   2.651100   9.817794   1.087801
    27  H    8.971365   3.393277   9.817967   2.651546   7.377731
    28  H    2.154584  10.433732   3.875952  12.134385   4.620379
    29  H   10.432525   2.154680  12.131387   3.876061  10.041987
    30  H    3.875804  12.686572   2.154289  14.021548   4.620208
    31  H   12.688438   3.875832  14.021540   2.154371  11.617954
    32  H    3.399969  12.443441   3.400098  14.044911   5.330272
    33  H   12.443652   3.400173  14.043275   3.400296  11.791099
    34  H    2.725222   6.631657   4.119831   8.022233   2.138189
    35  H    6.633555   2.723886   8.022384   4.119144   5.727723
                   11         12         13         14         15
    11  C    0.000000
    12  C    9.740235   0.000000
    13  C    3.746997  11.437428   0.000000
    14  C   10.679029   2.415902  12.891464   0.000000
    15  C    3.746994  12.893346   2.416030  14.144828   0.000000
    16  C   10.786247   1.394681  12.659668   1.394882  14.069801
    17  C    4.244265  12.660460   1.394753  14.068715   1.394931
    18  C    5.827751   4.329140   8.398947   4.873310   9.372345
    19  C    1.340780   8.401208   4.328088   9.372897   4.872774
    20  C    4.740293   5.803953   7.763174   6.171136   8.425248
    21  C    2.441322   7.764871   5.802937   8.425421   6.171097
    22  H    7.693667   2.125827   9.438012   3.874037  10.808117
    23  H    2.728052   9.437786   2.125758  10.805934   3.874143
    24  H    9.643079   3.876477  12.322109   2.145404  13.294369
    25  H    2.699816  12.325274   3.876533  13.295712   2.145361
    26  H    7.377321   4.555999  10.318811   4.033819  11.064534
    27  H    1.087704  10.321296   4.556307  11.065010   4.034384
    28  H   10.045109   1.086214  11.422013   3.400002  12.993915
    29  H    4.620456  11.421256   1.086111  12.991327   3.399966
    30  H   11.617979   3.400117  13.904703   1.086199  15.132582
    31  H    4.620198  13.906880   3.400114  15.132934   1.086088
    32  H   11.792788   2.153899  13.520750   2.154035  15.007667
    33  H    5.330369  13.521348   2.154067  15.006415   2.154053
    34  H    5.728110   4.046310   7.862804   5.090941   9.066449
    35  H    2.138419   7.865082   4.044875   9.067094   5.090015
                   16         17         18         19         20
    16  C    0.000000
    17  C   13.880419   0.000000
    18  C    5.126613   9.449685   0.000000
    19  C    9.451215   5.125768   4.541250   0.000000
    20  C    6.555991   8.678907   1.482665   3.575492   0.000000
    21  C    8.679919   6.555426   3.575459   1.482683   2.331012
    22  H    3.381323  10.618857   2.697036   6.362336   4.106406
    23  H   10.617813   3.381334   6.359693   2.695996   5.820528
    24  H    3.394948  13.398407   4.004005   8.423425   4.944018
    25  H   13.400791   3.394938   8.424205   4.004016   7.256118
    26  H    4.809948  11.290043   2.107929   6.211207   2.641663
    27  H   11.291625   4.810396   6.211612   2.108193   4.950211
    28  H    2.153677  12.666808   4.993347   8.715775   6.459190
    29  H   12.665286   2.153565   8.712931   4.992261   8.238766
    30  H    2.154091  15.078438   5.816686  10.327800   7.038101
    31  H   15.079845   2.154009  10.327549   5.816201   9.323263
    32  H    1.086045  14.764879   6.191723  10.453941   7.631782
    33  H   14.764699   1.086104  10.452292   6.190919   9.728346
    34  H    5.061289   8.996210   1.083948   4.390923   2.198185
    35  H    8.997832   5.060024   4.390601   1.083876   3.758066
                   21         22         23         24         25
    21  C    0.000000
    22  H    5.822730   0.000000
    23  H    4.105004   7.461683   0.000000
    24  H    7.255144   4.328422  10.235621   0.000000
    25  H    4.944756  10.239169   4.328557  12.194949   0.000000
    26  H    4.949767   3.764794   8.307188   2.444078   9.848515
    27  H    2.642093   8.310299   3.764903   9.847577   2.444802
    28  H    8.240925   2.438968   9.496725   4.962672  12.583205
    29  H    6.457951   9.496132   2.438975  12.579402   4.962625
    30  H    9.323122   4.960154  11.807302   2.467252  14.231643
    31  H    7.038259  11.809765   4.960148  14.230687   2.467237
    32  H    9.729402   4.271279  11.499914   4.289364  14.405763
    33  H    7.631242  11.500737   4.271374  14.403252   4.289344
    34  H    3.758368   2.155977   5.807782   4.641343   8.354970
    35  H    2.197931   5.810215   2.154776   8.354247   4.641035
                   26         27         28         29         30
    26  H    0.000000
    27  H    7.517441   0.000000
    28  H    5.505679  10.710372   0.000000
    29  H   10.707209   5.505912  11.322377   0.000000
    30  H    4.726135  11.957508   4.296768  14.011556   0.000000
    31  H   11.957501   4.726749  14.014406   4.296580  16.115219
    32  H    5.877152  12.328455   2.480230  13.470390   2.480731
    33  H   12.326784   5.877655  13.471707   2.480222  16.024868
    34  H    3.093750   6.288543   4.512395   8.067017   6.109700
    35  H    6.287839   3.094003   8.069896   4.510962  10.064853
                   31         32         33         34         35
    31  H    0.000000
    32  H   16.026432   0.000000
    33  H    2.480586  15.620524   0.000000
    34  H   10.064420   6.065699   9.951912   0.000000
    35  H    6.108756   9.953708   6.064449   3.986633   0.000000
 Stoichiometry    C18H14O3
 Framework group  C1[X(C18H14O3)]
 Deg. of freedom    99
 Full point group                 C1      NOp   1
 Largest Abelian subgroup         C1      NOp   1
 Largest concise Abelian subgroup C1      NOp   1
                         Standard orientation:                         
 ---------------------------------------------------------------------
 Center     Atomic      Atomic             Coordinates (Angstroms)
 Number     Number       Type             X           Y           Z
 ---------------------------------------------------------------------
      1          8           0       -0.000312   -0.643270   -0.001139
      2          8           0        1.311466   -2.561371   -0.014770
      3          8           0       -1.311591   -2.561770    0.014871
      4          6           0        4.721346    0.094125   -0.032671
      5          6           0       -4.721364    0.093733    0.033076
      6          6           0        4.584508    1.409049   -0.447285
      7          6           0       -4.583326    1.409010    0.446339
      8          6           0        5.945081   -0.408400    0.378916
      9          6           0       -5.945898   -0.408442   -0.376967
     10          6           0        3.540948   -0.787973   -0.029703
     11          6           0       -3.541669   -0.789068    0.029608
     12          6           0        5.701806    2.244048   -0.450559
     13          6           0       -5.700121    2.244811    0.449907
     14          6           0        7.062278    0.426699    0.375843
     15          6           0       -7.062693    0.427460   -0.373399
     16          6           0        6.940541    1.752923   -0.038894
     17          6           0       -6.939654    1.754036    0.039988
     18          6           0        2.270049   -0.360972   -0.028220
     19          6           0       -2.270872   -0.361569    0.026375
     20          6           0        1.165169   -1.349571   -0.013875
     21          6           0       -1.165693   -1.349870    0.012516
     22          1           0        3.645970    1.827870   -0.796216
     23          1           0       -3.644289    1.827689    0.794017
     24          1           0        6.055684   -1.438918    0.705987
     25          1           0       -6.057601   -1.439023   -0.702954
     26          1           0        3.758266   -1.853774   -0.017398
     27          1           0       -3.759087   -1.854767    0.018882
     28          1           0        5.608802    3.275467   -0.778257
     29          1           0       -5.606316    3.276392    0.776522
     30          1           0        8.027173    0.044480    0.696335
     31          1           0       -8.028086    0.045679   -0.692534
     32          1           0        7.810737    2.402722   -0.042498
     33          1           0       -7.809548    2.404337    0.043866
     34          1           0        1.992874    0.686828   -0.012933
     35          1           0       -1.993697    0.686131    0.009508
 ---------------------------------------------------------------------
 Rotational constants (GHZ):           0.8395134           0.0841244           0.0769521
 Standard basis: 6-311++G(d,p) (5D, 7F)
 There are   581 symmetry adapted cartesian basis functions of A   symmetry.
 There are   560 symmetry adapted basis functions of A   symmetry.
   560 basis functions,   882 primitive gaussians,   581 cartesian basis functions
    73 alpha electrons       73 beta electrons
       nuclear repulsion energy      1364.3840332393 Hartrees.
 NAtoms=   35 NActive=   35 NUniq=   35 SFac= 1.00D+00 NAtFMM=   60 NAOKFM=F Big=F
 Integral buffers will be    131072 words long.
 Raffenetti 2 integral format.
 Two-electron integral symmetry is turned on.
 R6APFD:  NTU= -4 IXU= 1 FactS= 1.050
 Nuclear repulsion after empirical dispersion term =     1364.3598342038 Hartrees.
 One-electron integrals computed using PRISM.
 NBasis=   560 RedAO= T EigKep=  1.11D-06  NBF=   560
 NBsUse=   557 1.00D-06 EigRej=  8.41D-07 NBFU=   557
 ExpMin= 3.60D-02 ExpMax= 8.59D+03 ExpMxC= 1.30D+03 IAcc=3 IRadAn=         5 AccDes= 0.00D+00
 Harris functional with IExCor= 1009 and IRadAn=       5 diagonalized for initial guess.
 HarFok:  IExCor= 1009 AccDes= 0.00D+00 IRadAn=         5 IDoV= 1 UseB2=F ITyADJ=14
 ICtDFT=  3500011 ScaDFX=  1.000000  1.000000  1.000000  1.000000
 FoFCou: FMM=F IPFlag=           0 FMFlag=      100000 FMFlg1=           0
         NFxFlg=           0 DoJE=T BraDBF=F KetDBF=T FulRan=T
         wScrn=  0.000000 ICntrl=       500 IOpCl=  0 I1Cent=   200000004 NGrid=           0
         NMat0=    1 NMatS0=      1 NMatT0=    0 NMatD0=    1 NMtDS0=    0 NMtDT0=    0
 Petite list used in FoFCou.
 Requested convergence on RMS density matrix=1.00D-08 within  32 cycles.
 Requested convergence on MAX density matrix=1.00D-06.
 Requested convergence on             energy=1.00D-06.
 No special actions if energy rises.
 SCF Done:  E(RM08HX) =  -919.973139329     A.U. after   15 cycles
            NFock= 15  Conv=0.64D-08     -V/T= 2.0045
 QCSCF skips out because SCF is already converged.

 **********************************************************************

            Population analysis using the SCF Density.

 **********************************************************************

 Orbital symmetries:
       Occupied  (A) (A) (A) (A) (A) (A) (A) (A) (A) (A) (A) (A)
                 (A) (A) (A) (A) (A) (A) (A) (A) (A) (A) (A) (A)
                 (A) (A) (A) (A) (A) (A) (A) (A) (A) (A) (A) (A)
                 (A) (A) (A) (A) (A) (A) (A) (A) (A) (A) (A) (A)
                 (A) (A) (A) (A) (A) (A) (A) (A) (A) (A) (A) (A)
                 (A) (A) (A) (A) (A) (A) (A) (A) (A) (A) (A) (A)
                 (A)
       Virtual   (A) (A) (A) (A) (A) (A) (A) (A) (A) (A) (A) (A)
                 (A) (A) (A) (A) (A) (A) (A) (A) (A) (A) (A) (A)
                 (A) (A) (A) (A) (A) (A) (A) (A) (A) (A) (A) (A)
                 (A) (A) (A) (A) (A) (A) (A) (A) (A) (A) (A) (A)
                 (A) (A) (A) (A) (A) (A) (A) (A) (A) (A) (A) (A)
                 (A) (A) (A) (A) (A) (A) (A) (A) (A) (A) (A) (A)
                 (A) (A) (A) (A) (A) (A) (A) (A) (A) (A) (A) (A)
                 (A) (A) (A) (A) (A) (A) (A) (A) (A) (A) (A) (A)
                 (A) (A) (A) (A) (A) (A) (A) (A) (A) (A) (A) (A)
                 (A) (A) (A) (A) (A) (A) (A) (A) (A) (A) (A) (A)
                 (A) (A) (A) (A) (A) (A) (A) (A) (A) (A) (A) (A)
                 (A) (A) (A) (A) (A) (A) (A) (A) (A) (A) (A) (A)
                 (A) (A) (A) (A) (A) (A) (A) (A) (A) (A) (A) (A)
                 (A) (A) (A) (A) (A) (A) (A) (A) (A) (A) (A) (A)
                 (A) (A) (A) (A) (A) (A) (A) (A) (A) (A) (A) (A)
                 (A) (A) (A) (A) (A) (A) (A) (A) (A) (A) (A) (A)
                 (A) (A) (A) (A) (A) (A) (A) (A) (A) (A) (A) (A)
                 (A) (A) (A) (A) (A) (A) (A) (A) (A) (A) (A) (A)
                 (A) (A) (A) (A) (A) (A) (A) (A) (A) (A) (A) (A)
                 (A) (A) (A) (A) (A) (A) (A) (A) (A) (A) (A) (A)
                 (A) (A) (A) (A) (A) (A) (A) (A) (A) (A) (A) (A)
                 (A) (A) (A) (A) (A) (A) (A) (A) (A) (A) (A) (A)
                 (A) (A) (A) (A) (A) (A) (A) (A) (A) (A) (A) (A)
                 (A) (A) (A) (A) (A) (A) (A) (A) (A) (A) (A) (A)
                 (A) (A) (A) (A) (A) (A) (A) (A) (A) (A) (A) (A)
                 (A) (A) (A) (A) (A) (A) (A) (A) (A) (A) (A) (A)
                 (A) (A) (A) (A) (A) (A) (A) (A) (A) (A) (A) (A)
                 (A) (A) (A) (A) (A) (A) (A) (A) (A) (A) (A) (A)
                 (A) (A) (A) (A) (A) (A) (A) (A) (A) (A) (A) (A)
                 (A) (A) (A) (A) (A) (A) (A) (A) (A) (A) (A) (A)
                 (A) (A) (A) (A) (A) (A) (A) (A) (A) (A) (A) (A)
                 (A) (A) (A) (A) (A) (A) (A) (A) (A) (A) (A) (A)
                 (A) (A) (A) (A) (A) (A) (A) (A) (A) (A) (A) (A)
                 (A) (A) (A) (A) (A) (A) (A) (A) (A) (A) (A) (A)
                 (A) (A) (A) (A) (A) (A) (A) (A) (A) (A) (A) (A)
                 (A) (A) (A) (A) (A) (A) (A) (A) (A) (A) (A) (A)
                 (A) (A) (A) (A) (A) (A) (A) (A) (A) (A) (A) (A)
                 (A) (A) (A) (A) (A) (A) (A) (A) (A) (A) (A) (A)
                 (A) (A) (A) (A) (A) (A) (A) (A) (A) (A) (A) (A)
                 (A) (A) (A) (A) (A) (A) (A) (A) (A) (A) (A) (A)
                 (A) (A) (A) (A)
 The electronic state is 1-A.
 Alpha  occ. eigenvalues --  -19.69492 -19.60938 -19.60937 -10.68303 -10.68302
 Alpha  occ. eigenvalues --  -10.56705 -10.56703 -10.56084 -10.56083 -10.55292
 Alpha  occ. eigenvalues --  -10.55291 -10.55256 -10.55254 -10.55194 -10.55192
 Alpha  occ. eigenvalues --  -10.55155 -10.55153 -10.55092 -10.55091 -10.55051
 Alpha  occ. eigenvalues --  -10.55049  -1.27933  -1.17073  -1.14771  -0.99560
 Alpha  occ. eigenvalues --   -0.99549  -0.93227  -0.92479  -0.88012  -0.86896
 Alpha  occ. eigenvalues --   -0.86828  -0.85653  -0.81567  -0.74717  -0.72292
 Alpha  occ. eigenvalues --   -0.71476  -0.70923  -0.67537  -0.65122  -0.62255
 Alpha  occ. eigenvalues --   -0.61594  -0.60997  -0.60549  -0.58346  -0.58286
 Alpha  occ. eigenvalues --   -0.55451  -0.54888  -0.54514  -0.54203  -0.53057
 Alpha  occ. eigenvalues --   -0.51382  -0.50812  -0.50722  -0.50176  -0.49504
 Alpha  occ. eigenvalues --   -0.48124  -0.47050  -0.46740  -0.46251  -0.46117
 Alpha  occ. eigenvalues --   -0.42515  -0.42455  -0.42058  -0.41976  -0.40854
 Alpha  occ. eigenvalues --   -0.39333  -0.37943  -0.37733  -0.34023  -0.32795
 Alpha  occ. eigenvalues --   -0.32790  -0.30405  -0.30370
 Alpha virt. eigenvalues --   -0.06637  -0.04812  -0.03426  -0.02769  -0.02222
 Alpha virt. eigenvalues --   -0.01452  -0.01300  -0.00785  -0.00756  -0.00529
 Alpha virt. eigenvalues --    0.00149   0.00424   0.00711   0.00945   0.01124
 Alpha virt. eigenvalues --    0.02067   0.02518   0.02648   0.03461   0.03543
 Alpha virt. eigenvalues --    0.03861   0.04201   0.04344   0.04558   0.04646
 Alpha virt. eigenvalues --    0.05160   0.05498   0.06586   0.07077   0.07553
 Alpha virt. eigenvalues --    0.07830   0.08039   0.08519   0.09104   0.09334
 Alpha virt. eigenvalues --    0.09939   0.10030   0.10361   0.10469   0.10775
 Alpha virt. eigenvalues --    0.10815   0.11126   0.11296   0.11438   0.11481
 Alpha virt. eigenvalues --    0.11645   0.11669   0.11904   0.11956   0.12006
 Alpha virt. eigenvalues --    0.12381   0.12874   0.13137   0.13300   0.13644
 Alpha virt. eigenvalues --    0.13771   0.13791   0.14122   0.14934   0.15162
 Alpha virt. eigenvalues --    0.15833   0.15845   0.16253   0.16267   0.16825
 Alpha virt. eigenvalues --    0.17390   0.17400   0.17610   0.17630   0.18163
 Alpha virt. eigenvalues --    0.18773   0.18824   0.19496   0.19508   0.20100
 Alpha virt. eigenvalues --    0.20280   0.20357   0.20529   0.21243   0.21378
 Alpha virt. eigenvalues --    0.21543   0.21929   0.22119   0.23006   0.23069
 Alpha virt. eigenvalues --    0.23657   0.23963   0.24334   0.24660   0.25049
 Alpha virt. eigenvalues --    0.25134   0.25927   0.26676   0.27508   0.28111
 Alpha virt. eigenvalues --    0.28440   0.28461   0.28772   0.28892   0.29281
 Alpha virt. eigenvalues --    0.29444   0.30125   0.30641   0.30813   0.31022
 Alpha virt. eigenvalues --    0.31550   0.31799   0.32172   0.32882   0.32900
 Alpha virt. eigenvalues --    0.33158   0.34039   0.34142   0.34720   0.35212
 Alpha virt. eigenvalues --    0.35371   0.36612   0.37125   0.37546   0.37622
 Alpha virt. eigenvalues --    0.38221   0.38348   0.39725   0.39889   0.40111
 Alpha virt. eigenvalues --    0.40787   0.41185   0.42273   0.43602   0.44946
 Alpha virt. eigenvalues --    0.46431   0.46891   0.47484   0.48770   0.50605
 Alpha virt. eigenvalues --    0.50758   0.51174   0.51790   0.54198   0.54598
 Alpha virt. eigenvalues --    0.54869   0.55839   0.56010   0.56179   0.56876
 Alpha virt. eigenvalues --    0.57307   0.57596   0.57909   0.57927   0.58422
 Alpha virt. eigenvalues --    0.58591   0.58870   0.59945   0.59971   0.61381
 Alpha virt. eigenvalues --    0.61665   0.62469   0.62663   0.63337   0.63856
 Alpha virt. eigenvalues --    0.64672   0.64732   0.65623   0.66257   0.66473
 Alpha virt. eigenvalues --    0.67636   0.67676   0.68133   0.68213   0.69663
 Alpha virt. eigenvalues --    0.69751   0.70102   0.71061   0.71918   0.72005
 Alpha virt. eigenvalues --    0.72681   0.72889   0.73253   0.74656   0.75343
 Alpha virt. eigenvalues --    0.75685   0.76290   0.76528   0.76704   0.77905
 Alpha virt. eigenvalues --    0.78288   0.78440   0.79270   0.80695   0.81500
 Alpha virt. eigenvalues --    0.83835   0.84143   0.84634   0.85289   0.85294
 Alpha virt. eigenvalues --    0.85605   0.86273   0.86378   0.86925   0.87521
 Alpha virt. eigenvalues --    0.87723   0.87995   0.90255   0.90379   0.92058
 Alpha virt. eigenvalues --    0.92320   0.92400   0.93213   0.93829   0.93858
 Alpha virt. eigenvalues --    0.94335   0.95419   0.95821   0.95968   0.98431
 Alpha virt. eigenvalues --    0.98839   1.01960   1.02231   1.02653   1.03210
 Alpha virt. eigenvalues --    1.04400   1.04837   1.06098   1.06419   1.07495
 Alpha virt. eigenvalues --    1.08778   1.09821   1.09921   1.10845   1.11288
 Alpha virt. eigenvalues --    1.12116   1.12202   1.13869   1.14335   1.15767
 Alpha virt. eigenvalues --    1.16296   1.16793   1.18028   1.18544   1.18563
 Alpha virt. eigenvalues --    1.19459   1.22874   1.23939   1.24619   1.24701
 Alpha virt. eigenvalues --    1.25912   1.29245   1.30193   1.30981   1.32277
 Alpha virt. eigenvalues --    1.33617   1.36717   1.39284   1.45168   1.47816
 Alpha virt. eigenvalues --    1.49970   1.51325   1.51686   1.52334   1.52560
 Alpha virt. eigenvalues --    1.52756   1.53061   1.53524   1.54111   1.54367
 Alpha virt. eigenvalues --    1.55191   1.57292   1.58403   1.58416   1.59076
 Alpha virt. eigenvalues --    1.59327   1.59630   1.60369   1.61893   1.62217
 Alpha virt. eigenvalues --    1.63553   1.65004   1.65059   1.65252   1.66496
 Alpha virt. eigenvalues --    1.67379   1.67386   1.68034   1.69450   1.70043
 Alpha virt. eigenvalues --    1.71412   1.72139   1.74757   1.75028   1.77858
 Alpha virt. eigenvalues --    1.77972   1.79099   1.79241   1.80060   1.80105
 Alpha virt. eigenvalues --    1.80509   1.80826   1.82957   1.84487   1.86257
 Alpha virt. eigenvalues --    1.87534   1.88600   1.90757   1.92420   1.95147
 Alpha virt. eigenvalues --    1.95637   1.95824   1.96391   1.96606   1.96709
 Alpha virt. eigenvalues --    1.97013   1.97204   1.97375   1.97859   1.98632
 Alpha virt. eigenvalues --    1.98760   1.99564   2.01674   2.02074   2.03884
 Alpha virt. eigenvalues --    2.04096   2.05516   2.05578   2.08534   2.08668
 Alpha virt. eigenvalues --    2.10571   2.11165   2.11610   2.11793   2.15334
 Alpha virt. eigenvalues --    2.15921   2.18589   2.19021   2.22677   2.23553
 Alpha virt. eigenvalues --    2.29070   2.30327   2.30588   2.31587   2.37154
 Alpha virt. eigenvalues --    2.37680   2.38766   2.40313   2.41115   2.43499
 Alpha virt. eigenvalues --    2.43593   2.44962   2.45667   2.46025   2.46818
 Alpha virt. eigenvalues --    2.47879   2.49143   2.50937   2.53440   2.59399
 Alpha virt. eigenvalues --    2.63102   2.63639   2.66221   2.66895   2.67887
 Alpha virt. eigenvalues --    2.69026   2.69064   2.69191   2.69262   2.70709
 Alpha virt. eigenvalues --    2.70755   2.71352   2.71509   2.72249   2.72369
 Alpha virt. eigenvalues --    2.73480   2.73895   2.74240   2.74508   2.74536
 Alpha virt. eigenvalues --    2.75158   2.75301   2.77256   2.79969   2.82630
 Alpha virt. eigenvalues --    2.82930   2.84884   2.85278   2.87554   2.87895
 Alpha virt. eigenvalues --    2.89983   2.90006   2.92868   2.93647   2.94706
 Alpha virt. eigenvalues --    2.95008   2.95383   2.95664   2.95750   2.98395
 Alpha virt. eigenvalues --    2.98994   3.00544   3.01509   3.02450   3.04794
 Alpha virt. eigenvalues --    3.06854   3.10598   3.13818   3.14731   3.15381
 Alpha virt. eigenvalues --    3.15857   3.16820   3.16959   3.25100   3.26960
 Alpha virt. eigenvalues --    3.28090   3.28256   3.32910   3.33050   3.33657
 Alpha virt. eigenvalues --    3.41179   3.41746   3.43477   3.43655   3.44044
 Alpha virt. eigenvalues --    3.44331   3.47717   3.53910   3.54086   3.57534
 Alpha virt. eigenvalues --    3.58319   3.58908   3.59607   3.64099   3.64886
 Alpha virt. eigenvalues --    3.66242   3.68129   3.69664   3.74115   3.74386
 Alpha virt. eigenvalues --    3.85307   3.96104   3.98397   4.03068   4.03500
 Alpha virt. eigenvalues --    4.07331   4.07556   4.11769   4.20076   4.20086
 Alpha virt. eigenvalues --    4.21712   4.21850   4.28112   4.29893   4.35766
 Alpha virt. eigenvalues --    4.56549   4.62022   4.91506   4.91549   5.08189
 Alpha virt. eigenvalues --    5.14684   5.18191   5.27504   5.47545   5.50490
 Alpha virt. eigenvalues --    5.82915   5.91553   6.00664  23.64861  23.66964
 Alpha virt. eigenvalues --   23.83341  23.86035  23.88409  23.89917  24.00651
 Alpha virt. eigenvalues --   24.00959  24.02727  24.02818  24.13965  24.13991
 Alpha virt. eigenvalues --   24.14349  24.14380  24.24024  24.24142  24.27311
 Alpha virt. eigenvalues --   24.27610  49.90857  50.01989  50.02536
          Condensed to atoms (all electrons):
               1          2          3          4          5          6
     1  O    8.764319  -0.105016  -0.105035   0.065070   0.065307  -0.013958
     2  O   -0.105016   7.774653   0.053242   0.029231  -0.000498   0.014288
     3  O   -0.105035   0.053242   7.774661  -0.000475   0.029166  -0.000107
     4  C    0.065070   0.029231  -0.000475  18.460550   0.008213  -3.764148
     5  C    0.065307  -0.000498   0.029166   0.008213  18.452630  -0.003726
     6  C   -0.013958   0.014288  -0.000107  -3.764148  -0.003726  21.411046
     7  C   -0.013908  -0.000104   0.014215  -0.003732  -3.760556   0.001284
     8  C    0.009459  -0.002044   0.000056  -0.575836   0.001392  -4.458556
     9  C    0.009512   0.000052  -0.001971   0.001387  -0.566353  -0.000507
    10  C   -0.279058  -0.012203   0.029805  -7.218263  -0.063054  -0.894455
    11  C   -0.277736   0.029625  -0.012360  -0.063125  -7.229974   0.001422
    12  C    0.003094  -0.000208   0.000012  -0.770174  -0.002543  -5.340520
    13  C    0.003071   0.000015  -0.000213  -0.002552  -0.769091   0.001135
    14  C   -0.002841  -0.000058   0.000024   0.501422  -0.000407   0.147205
    15  C   -0.002824   0.000024  -0.000052  -0.000407   0.500211   0.000115
    16  C    0.001462  -0.000770  -0.000031  -0.593080   0.000273   2.297700
    17  C    0.001471  -0.000032  -0.000774   0.000274  -0.591788  -0.000101
    18  C   -0.239431   0.048527   0.061494  -4.524396   0.265141  -1.134651
    19  C   -0.241972   0.061619   0.048481   0.265134  -4.532867  -0.033731
    20  C    0.121540   0.432478  -0.160041   2.589693   0.612658  -1.112676
    21  C    0.124011  -0.160378   0.432381   0.610703   2.599073  -0.097882
    22  H   -0.002390   0.001719   0.000233  -0.181935   0.000288   0.915424
    23  H   -0.002376   0.000232   0.001718   0.000298  -0.181213  -0.000057
    24  H    0.001056   0.000842  -0.000022  -0.065649   0.000122  -0.002620
    25  H    0.001056  -0.000022   0.000841   0.000121  -0.065199  -0.000022
    26  H   -0.004676  -0.007137   0.000038  -0.046364  -0.002139   0.079445
    27  H   -0.004669   0.000037  -0.007127  -0.002134  -0.045874   0.000102
    28  H    0.000000  -0.000018   0.000002   0.070723  -0.000059  -0.180057
    29  H   -0.000001   0.000002  -0.000018  -0.000060   0.070630   0.000018
    30  H   -0.000044   0.000024   0.000001   0.034033  -0.000004   0.003307
    31  H   -0.000044   0.000001   0.000024  -0.000004   0.034009   0.000001
    32  H    0.000025  -0.000022  -0.000001   0.003619   0.000003   0.039142
    33  H    0.000025  -0.000001  -0.000022   0.000003   0.003665  -0.000001
    34  H   -0.004310  -0.002548  -0.005340  -0.068549   0.016357  -0.325811
    35  H   -0.004306  -0.005329  -0.002520   0.016334  -0.068707   0.004328
               7          8          9         10         11         12
     1  O   -0.013908   0.009459   0.009512  -0.279058  -0.277736   0.003094
     2  O   -0.000104  -0.002044   0.000052  -0.012203   0.029625  -0.000208
     3  O    0.014215   0.000056  -0.001971   0.029805  -0.012360   0.000012
     4  C   -0.003732  -0.575836   0.001387  -7.218263  -0.063125  -0.770174
     5  C   -3.760556   0.001392  -0.566353  -0.063054  -7.229974  -0.002543
     6  C    0.001284  -4.458556  -0.000507  -0.894455   0.001422  -5.340520
     7  C   21.401373  -0.000510  -4.436812   0.001292  -0.911386   0.001134
     8  C   -0.000510  21.679519   0.000040  -7.559806  -0.010250  -1.142847
     9  C   -4.436812   0.000040  21.631075  -0.010229  -7.548221  -0.000133
    10  C    0.001292  -7.559806  -0.010229  27.133334  -0.226670   2.906433
    11  C   -0.911386  -0.010250  -7.548221  -0.226670  27.124147   0.007103
    12  C    0.001134  -1.142847  -0.000133   2.906433   0.007103  11.782690
    13  C   -5.347886  -0.000134  -1.147704   0.007102   2.913465   0.000408
    14  C    0.000115  -4.644573  -0.000017   2.028728   0.001138   1.106602
    15  C    0.145306  -0.000017  -4.631125   0.001142   2.023040   0.000022
    16  C   -0.000101   1.095741   0.000011  -2.198729  -0.001158  -1.874573
    17  C    2.298373   0.000011   1.094142  -0.001161  -2.200020  -0.000023
    18  C   -0.033552   0.419375   0.031623   0.401588  -0.494927  -0.556444
    19  C   -1.135172   0.031638   0.420109  -0.498065   0.424822  -0.003725
    20  C   -0.097866   0.627009   0.016212  -4.099720  -2.925958   0.033292
    21  C   -1.105463   0.016288   0.625381  -2.930197  -4.106722  -0.015310
    22  H   -0.000055  -0.093827   0.000028  -0.017273  -0.004049  -0.132269
    23  H    0.915119   0.000030  -0.093317  -0.004056  -0.018410  -0.000078
    24  H   -0.000023   0.678669   0.000008  -0.209375  -0.000491  -0.011284
    25  H   -0.002242   0.000008   0.677876  -0.000493  -0.209358  -0.000008
    26  H    0.000101  -0.214863  -0.000206   0.471723   0.006002   0.010681
    27  H    0.079335  -0.000206  -0.214421   0.006020   0.471287   0.000148
    28  H    0.000018   0.054701  -0.000003   0.024829   0.000207   0.412986
    29  H   -0.180281  -0.000003   0.054416   0.000208   0.025057   0.000008
    30  H    0.000001  -0.085792  -0.000000   0.039808   0.000023   0.011402
    31  H    0.003288  -0.000000  -0.085830   0.000023   0.039911   0.000000
    32  H   -0.000001   0.025993   0.000000  -0.061391  -0.000016  -0.073956
    33  H    0.039323   0.000000   0.025874  -0.000016  -0.061476  -0.000000
    34  H    0.004333   0.065410   0.003224  -0.448026   0.010895  -0.011671
    35  H   -0.325093   0.003217   0.065155   0.010921  -0.446420  -0.002346
              13         14         15         16         17         18
     1  O    0.003071  -0.002841  -0.002824   0.001462   0.001471  -0.239431
     2  O    0.000015  -0.000058   0.000024  -0.000770  -0.000032   0.048527
     3  O   -0.000213   0.000024  -0.000052  -0.000031  -0.000774   0.061494
     4  C   -0.002552   0.501422  -0.000407  -0.593080   0.000274  -4.524396
     5  C   -0.769091  -0.000407   0.500211   0.000273  -0.591788   0.265141
     6  C    0.001135   0.147205   0.000115   2.297700  -0.000101  -1.134651
     7  C   -5.347886   0.000115   0.145306  -0.000101   2.298373  -0.033552
     8  C   -0.000134  -4.644573  -0.000017   1.095741   0.000011   0.419375
     9  C   -1.147704  -0.000017  -4.631125   0.000011   1.094142   0.031623
    10  C    0.007102   2.028728   0.001142  -2.198729  -0.001161   0.401588
    11  C    2.913465   0.001138   2.023040  -0.001158  -2.200020  -0.494927
    12  C    0.000408   1.106602   0.000022  -1.874573  -0.000023  -0.556444
    13  C   11.790971   0.000022   1.106713  -0.000023  -1.875074  -0.003721
    14  C    0.000022   9.105968   0.000001  -1.411633  -0.000002  -0.836684
    15  C    1.106713   0.000001   9.098446  -0.000002  -1.408763  -0.002162
    16  C   -0.000023  -1.411633  -0.000002   8.986453   0.000002  -0.044176
    17  C   -1.875074  -0.000002  -1.408763   0.000002   8.982532   0.001286
    18  C   -0.003721  -0.836684  -0.002162  -0.044176   0.001286  20.809602
    19  C   -0.553389  -0.002167  -0.837743   0.001282  -0.044020  -0.084598
    20  C   -0.016500  -0.013690   0.001511  -0.004706   0.004818  -5.424357
    21  C    0.030197   0.001350  -0.012686   0.004718  -0.003546  -3.307871
    22  H   -0.000077   0.045782  -0.000036   0.074733   0.000022  -0.182503
    23  H   -0.132952  -0.000036   0.045751   0.000023   0.074584   0.010357
    24  H   -0.000008  -0.165966  -0.000001   0.063461   0.000001   0.003009
    25  H   -0.011386  -0.000001  -0.165767   0.000001   0.063484   0.001584
    26  H    0.000150   0.084577   0.000054  -0.030312  -0.000034  -0.206526
    27  H    0.010589   0.000054   0.084527  -0.000033  -0.030304  -0.008333
    28  H    0.000008   0.019711   0.000001  -0.126761  -0.000001   0.006070
    29  H    0.413514   0.000001   0.019812  -0.000001  -0.126796  -0.000070
    30  H    0.000000   0.417446   0.000000  -0.118957  -0.000000  -0.002311
    31  H    0.011441   0.000000   0.417534  -0.000000  -0.119058   0.000011
    32  H   -0.000000  -0.064698  -0.000000   0.462223   0.000000  -0.008153
    33  H   -0.074134  -0.000000  -0.064751   0.000000   0.462338   0.000054
    34  H   -0.002352  -0.049628  -0.000535  -0.015015   0.000782   0.894093
    35  H   -0.011944  -0.000534  -0.049687   0.000780  -0.014887  -0.044721
              19         20         21         22         23         24
     1  O   -0.241972   0.121540   0.124011  -0.002390  -0.002376   0.001056
     2  O    0.061619   0.432478  -0.160378   0.001719   0.000232   0.000842
     3  O    0.048481  -0.160041   0.432381   0.000233   0.001718  -0.000022
     4  C    0.265134   2.589693   0.610703  -0.181935   0.000298  -0.065649
     5  C   -4.532867   0.612658   2.599073   0.000288  -0.181213   0.000122
     6  C   -0.033731  -1.112676  -0.097882   0.915424  -0.000057  -0.002620
     7  C   -1.135172  -0.097866  -1.105463  -0.000055   0.915119  -0.000023
     8  C    0.031638   0.627009   0.016288  -0.093827   0.000030   0.678669
     9  C    0.420109   0.016212   0.625381   0.000028  -0.093317   0.000008
    10  C   -0.498065  -4.099720  -2.930197  -0.017273  -0.004056  -0.209375
    11  C    0.424822  -2.925958  -4.106722  -0.004049  -0.018410  -0.000491
    12  C   -0.003725   0.033292  -0.015310  -0.132269  -0.000078  -0.011284
    13  C   -0.553389  -0.016500   0.030197  -0.000077  -0.132952  -0.000008
    14  C   -0.002167  -0.013690   0.001350   0.045782  -0.000036  -0.165966
    15  C   -0.837743   0.001511  -0.012686  -0.000036   0.045751  -0.000001
    16  C    0.001282  -0.004706   0.004718   0.074733   0.000023   0.063461
    17  C   -0.044020   0.004818  -0.003546   0.000022   0.074584   0.000001
    18  C   -0.084598  -5.424357  -3.307871  -0.182503   0.010357   0.003009
    19  C   20.822029  -3.321169  -5.431914   0.010298  -0.182340   0.001584
    20  C   -3.321169  21.674141  -3.112060  -0.058245  -0.006782   0.026416
    21  C   -5.431914  -3.112060  21.662757  -0.006960  -0.057790   0.003429
    22  H    0.010298  -0.058245  -0.006960   0.509525   0.000099   0.000642
    23  H   -0.182340  -0.006782  -0.057790   0.000099   0.509591   0.000006
    24  H    0.001584   0.026416   0.003429   0.000642   0.000006   0.422171
    25  H    0.002940   0.003378   0.026404   0.000006   0.000648   0.000001
    26  H   -0.008352   0.137819   0.026204   0.005561  -0.000056  -0.008282
    27  H   -0.206916   0.026410   0.137576  -0.000055   0.005557  -0.000026
    28  H   -0.000069   0.008321   0.000485  -0.017955  -0.000007   0.000336
    29  H    0.006022   0.000468   0.008245  -0.000007  -0.017944  -0.000000
    30  H    0.000011   0.005258   0.000238   0.000480  -0.000000  -0.008943
    31  H   -0.002323   0.000237   0.005239  -0.000000   0.000482  -0.000000
    32  H    0.000054   0.003530   0.000260   0.002881   0.000001   0.002601
    33  H   -0.008140   0.000261   0.003549   0.000001   0.002877   0.000000
    34  H   -0.044499   0.112974   0.102619  -0.052248   0.001501  -0.000042
    35  H    0.893659   0.102363   0.112515   0.001505  -0.052181   0.000165
              25         26         27         28         29         30
     1  O    0.001056  -0.004676  -0.004669   0.000000  -0.000001  -0.000044
     2  O   -0.000022  -0.007137   0.000037  -0.000018   0.000002   0.000024
     3  O    0.000841   0.000038  -0.007127   0.000002  -0.000018   0.000001
     4  C    0.000121  -0.046364  -0.002134   0.070723  -0.000060   0.034033
     5  C   -0.065199  -0.002139  -0.045874  -0.000059   0.070630  -0.000004
     6  C   -0.000022   0.079445   0.000102  -0.180057   0.000018   0.003307
     7  C   -0.002242   0.000101   0.079335   0.000018  -0.180281   0.000001
     8  C    0.000008  -0.214863  -0.000206   0.054701  -0.000003  -0.085792
     9  C    0.677876  -0.000206  -0.214421  -0.000003   0.054416  -0.000000
    10  C   -0.000493   0.471723   0.006020   0.024829   0.000208   0.039808
    11  C   -0.209358   0.006002   0.471287   0.000207   0.025057   0.000023
    12  C   -0.000008   0.010681   0.000148   0.412986   0.000008   0.011402
    13  C   -0.011386   0.000150   0.010589   0.000008   0.413514   0.000000
    14  C   -0.000001   0.084577   0.000054   0.019711   0.000001   0.417446
    15  C   -0.165767   0.000054   0.084527   0.000001   0.019812   0.000000
    16  C    0.000001  -0.030312  -0.000033  -0.126761  -0.000001  -0.118957
    17  C    0.063484  -0.000034  -0.030304  -0.000001  -0.126796  -0.000000
    18  C    0.001584  -0.206526  -0.008333   0.006070  -0.000070  -0.002311
    19  C    0.002940  -0.008352  -0.206916  -0.000069   0.006022   0.000011
    20  C    0.003378   0.137819   0.026410   0.008321   0.000468   0.005258
    21  C    0.026404   0.026204   0.137576   0.000485   0.008245   0.000238
    22  H    0.000006   0.005561  -0.000055  -0.017955  -0.000007   0.000480
    23  H    0.000648  -0.000056   0.005557  -0.000007  -0.017944  -0.000000
    24  H    0.000001  -0.008282  -0.000026   0.000336  -0.000000  -0.008943
    25  H    0.422178  -0.000026  -0.008284  -0.000000   0.000333  -0.000000
    26  H   -0.000026   0.417178   0.000296   0.000048   0.000003   0.002516
    27  H   -0.008284   0.000296   0.417029   0.000003   0.000051   0.000001
    28  H   -0.000000   0.000048   0.000003   0.417887   0.000000   0.001455
    29  H    0.000333   0.000003   0.000051   0.000000   0.417902   0.000000
    30  H   -0.000000   0.002516   0.000001   0.001455   0.000000   0.413236
    31  H   -0.008949   0.000001   0.002516   0.000000   0.001455   0.000000
    32  H    0.000000  -0.000505  -0.000001  -0.007657  -0.000000  -0.007895
    33  H    0.002601  -0.000001  -0.000505  -0.000000  -0.007666  -0.000000
    34  H    0.000165  -0.007116  -0.000547   0.004145  -0.000056   0.000135
    35  H   -0.000044  -0.000544  -0.007131  -0.000056   0.004125  -0.000014
              31         32         33         34         35
     1  O   -0.000044   0.000025   0.000025  -0.004310  -0.004306
     2  O    0.000001  -0.000022  -0.000001  -0.002548  -0.005329
     3  O    0.000024  -0.000001  -0.000022  -0.005340  -0.002520
     4  C   -0.000004   0.003619   0.000003  -0.068549   0.016334
     5  C    0.034009   0.000003   0.003665   0.016357  -0.068707
     6  C    0.000001   0.039142  -0.000001  -0.325811   0.004328
     7  C    0.003288  -0.000001   0.039323   0.004333  -0.325093
     8  C   -0.000000   0.025993   0.000000   0.065410   0.003217
     9  C   -0.085830   0.000000   0.025874   0.003224   0.065155
    10  C    0.000023  -0.061391  -0.000016  -0.448026   0.010921
    11  C    0.039911  -0.000016  -0.061476   0.010895  -0.446420
    12  C    0.000000  -0.073956  -0.000000  -0.011671  -0.002346
    13  C    0.011441  -0.000000  -0.074134  -0.002352  -0.011944
    14  C    0.000000  -0.064698  -0.000000  -0.049628  -0.000534
    15  C    0.417534  -0.000000  -0.064751  -0.000535  -0.049687
    16  C   -0.000000   0.462223   0.000000  -0.015015   0.000780
    17  C   -0.119058   0.000000   0.462338   0.000782  -0.014887
    18  C    0.000011  -0.008153   0.000054   0.894093  -0.044721
    19  C   -0.002323   0.000054  -0.008140  -0.044499   0.893659
    20  C    0.000237   0.003530   0.000261   0.112974   0.102363
    21  C    0.005239   0.000260   0.003549   0.102619   0.112515
    22  H   -0.000000   0.002881   0.000001  -0.052248   0.001505
    23  H    0.000482   0.000001   0.002877   0.001501  -0.052181
    24  H   -0.000000   0.002601   0.000000  -0.000042   0.000165
    25  H   -0.008949   0.000000   0.002601   0.000165  -0.000044
    26  H    0.000001  -0.000505  -0.000001  -0.007116  -0.000544
    27  H    0.002516  -0.000001  -0.000505  -0.000547  -0.007131
    28  H    0.000000  -0.007657  -0.000000   0.004145  -0.000056
    29  H    0.001455  -0.000000  -0.007666  -0.000056   0.004125
    30  H    0.000000  -0.007895  -0.000000   0.000135  -0.000014
    31  H    0.413252  -0.000000  -0.007905  -0.000014   0.000132
    32  H   -0.000000   0.409517   0.000000  -0.000856   0.000015
    33  H   -0.007905   0.000000   0.409556   0.000015  -0.000852
    34  H   -0.000014  -0.000856   0.000015   0.632755  -0.021041
    35  H    0.000132   0.000015  -0.000852  -0.021041   0.632705
 Mulliken charges:
               1
     1  O    0.134117
     2  O   -0.150223
     3  O   -0.150287
     4  C    1.224079
     5  C    1.224916
     6  C   -1.552375
     7  C   -1.549868
     8  C    0.080708
     9  C    0.080727
    10  C   -0.330716
    11  C   -0.329415
    12  C   -0.337902
    13  C   -0.339660
    14  C   -0.267210
    15  C   -0.267649
    16  C   -0.568801
    17  C   -0.567737
    18  C    0.185773
    19  C    0.183488
    20  C   -0.187017
    21  C   -0.184846
    22  H    0.180657
    23  H    0.180725
    24  H    0.268212
    25  H    0.268177
    26  H    0.294745
    27  H    0.295030
    28  H    0.310708
    29  H    0.310633
    30  H    0.294586
    31  H    0.294569
    32  H    0.275287
    33  H    0.275329
    34  H    0.210802
    35  H    0.210438
 Sum of Mulliken charges =  -0.00000
 Mulliken charges with hydrogens summed into heavy atoms:
               1
     1  O    0.134117
     2  O   -0.150223
     3  O   -0.150287
     4  C    1.224079
     5  C    1.224916
     6  C   -1.371718
     7  C   -1.369143
     8  C    0.348920
     9  C    0.348904
    10  C   -0.035970
    11  C   -0.034385
    12  C   -0.027194
    13  C   -0.029027
    14  C    0.027376
    15  C    0.026920
    16  C   -0.293514
    17  C   -0.292408
    18  C    0.396575
    19  C    0.393926
    20  C   -0.187017
    21  C   -0.184846
 Electronic spatial extent (au):  <R**2>=          12911.4670
 Charge=             -0.0000 electrons
 Dipole moment (field-independent basis, Debye):
    X=             -0.0013    Y=              5.1662    Z=             -0.0006  Tot=              5.1662
 Quadrupole moment (field-independent basis, Debye-Ang):
   XX=            -81.5806   YY=           -127.1590   ZZ=           -127.9578
   XY=              0.0069   XZ=              3.3724   YZ=             -0.0069
 Traceless Quadrupole moment (field-independent basis, Debye-Ang):
   XX=             30.6519   YY=            -14.9265   ZZ=            -15.7253
   XY=              0.0069   XZ=              3.3724   YZ=             -0.0069
 Octapole moment (field-independent basis, Debye-Ang**2):
  XXX=             -0.0521  YYY=             52.8374  ZZZ=             -0.0089  XYY=             -0.0338
  XXY=             20.6947  XXZ=              0.0935  XZZ=              0.0510  YZZ=            -13.6474
  YYZ=             -0.0131  XYZ=            -25.1807
 Hexadecapole moment (field-independent basis, Debye-Ang**3):
 XXXX=         -13729.4718 YYYY=          -1681.3431 ZZZZ=           -214.2937 XXXY=              0.4107
 XXXZ=            372.7280 YYYX=             -0.0650 YYYZ=             -0.0338 ZZZX=              3.6984
 ZZZY=             -0.0202 XXYY=          -2676.4505 XXZZ=          -3030.6408 YYZZ=           -310.5843
 XXYZ=             -0.2252 YYXZ=            -45.4733 ZZXY=              0.0263
 N-N= 1.364359834204D+03 E-N=-4.870469037078D+03  KE= 9.158482109730D+02
 R6APFD:  NTU= -4 IXU= 1 FactS= 1.050
 Calling FoFJK, ICntrl=      2127 FMM=F ISym2X=0 I1Cent= 0 IOpClX= 0 NMat=1 NMatS=1 NMatT=0.
 ***** Axes restored to original set *****
 -------------------------------------------------------------------
 Center     Atomic                   Forces (Hartrees/Bohr)
 Number     Number              X              Y              Z
 -------------------------------------------------------------------
      1        8          -0.000047119   -0.022673550   -0.000003397
      2        8          -0.011651216    0.046589974    0.000273913
      3        8           0.011638368    0.046667095   -0.000355965
      4        6          -0.024886561   -0.012162443   -0.001104600
      5        6           0.024646413   -0.012192642    0.001031263
      6        6           0.016438674    0.020325218   -0.002621052
      7        6          -0.016505266    0.020361337    0.002607623
      8        6           0.015971466    0.005474034    0.000207513
      9        6          -0.016002567    0.005721804   -0.000108081
     10        6           0.002167207    0.006839590    0.000981520
     11        6          -0.002000155    0.007052247   -0.000947770
     12        6          -0.001665255   -0.003552970    0.001211383
     13        6           0.001622603   -0.003703951   -0.001250370
     14        6          -0.002138698    0.001095601   -0.000065133
     15        6           0.002320977    0.001100138    0.000086055
     16        6          -0.000553430   -0.002158021    0.000832840
     17        6           0.000568833   -0.002180586   -0.000835295
     18        6           0.005818743   -0.010784976    0.000532277
     19        6          -0.005757389   -0.010988917   -0.000535670
     20        6           0.037753864   -0.033892975   -0.001283904
     21        6          -0.037715649   -0.033965173    0.001374420
     22        1          -0.003705077   -0.004506621   -0.000054731
     23        1           0.003718255   -0.004515981    0.000061781
     24        1          -0.003222383   -0.002047636   -0.000408587
     25        1           0.003225509   -0.002146947    0.000375903
     26        1          -0.004823506   -0.004306094    0.001063874
     27        1           0.004812674   -0.004351932   -0.001069187
     28        1          -0.000121513    0.001566823   -0.000689773
     29        1           0.000150502    0.001629564    0.000710062
     30        1           0.001430283   -0.000537255    0.000513165
     31        1          -0.001495241   -0.000571058   -0.000532445
     32        1           0.001547843    0.000918025   -0.000164240
     33        1          -0.001508096    0.000903928    0.000168886
     34        1           0.000279496    0.002473516    0.000314434
     35        1          -0.000312589    0.002520835   -0.000316712
 -------------------------------------------------------------------
 Cartesian Forces:  Max     0.046667095 RMS     0.011733851

 GradGradGradGradGradGradGradGradGradGradGradGradGradGradGradGradGradGrad
 Berny optimization.
 FormGI is forming the generalized inverse of G from B-inverse, IUseBI=4.
 Internal  Forces:  Max     0.047724194 RMS     0.007405380
 Search for a local minimum.
 Step number   1 out of a maximum of  177
 All quantities printed in internal units (Hartrees-Bohrs-Radians)
 Mixed Optimization -- RFO/linear search
 Second derivative matrix not updated -- first step.
 ITU=  0
     Eigenvalues ---    0.00995   0.00995   0.01115   0.01117   0.01413
     Eigenvalues ---    0.01413   0.01923   0.01923   0.01996   0.01996
     Eigenvalues ---    0.02033   0.02034   0.02155   0.02157   0.02157
     Eigenvalues ---    0.02157   0.02157   0.02158   0.02158   0.02158
     Eigenvalues ---    0.02181   0.02182   0.02182   0.02183   0.02216
     Eigenvalues ---    0.02217   0.02227   0.02228   0.02266   0.02267
     Eigenvalues ---    0.02872   0.02873   0.15995   0.15996   0.15997
     Eigenvalues ---    0.15997   0.15999   0.16000   0.16000   0.16000
     Eigenvalues ---    0.16000   0.16000   0.16000   0.16000   0.16000
     Eigenvalues ---    0.16000   0.22000   0.22000   0.22000   0.22000
     Eigenvalues ---    0.22000   0.22000   0.22001   0.22001   0.23500
     Eigenvalues ---    0.23500   0.25000   0.25000   0.25000   0.25000
     Eigenvalues ---    0.25000   0.25000   0.25000   0.34264   0.34266
     Eigenvalues ---    0.35068   0.35079   0.35183   0.35201   0.35254
     Eigenvalues ---    0.35256   0.35266   0.35267   0.35269   0.35274
     Eigenvalues ---    0.35315   0.35331   0.35354   0.35357   0.35521
     Eigenvalues ---    0.35530   0.42313   0.42328   0.42819   0.42829
     Eigenvalues ---    0.46467   0.46483   0.46488   0.46495   0.47406
     Eigenvalues ---    0.47420   0.47890   0.47906   0.52359   0.52375
     Eigenvalues ---    0.57031   0.57045   0.95095   0.95118
 RFO step:  Lambda=-2.00938809D-02 EMin= 9.95011717D-03
 Linear search not attempted -- first point.
 Iteration  1 RMS(Cart)=  0.07016406 RMS(Int)=  0.00090294
 Iteration  2 RMS(Cart)=  0.00329592 RMS(Int)=  0.00006056
 Iteration  3 RMS(Cart)=  0.00000251 RMS(Int)=  0.00006056
 Iteration  4 RMS(Cart)=  0.00000000 RMS(Int)=  0.00006056
 Variable       Old X    -DE/DX   Delta X   Delta X   Delta X     New X
                                 (Linear)    (Quad)   (Total)
    R1        2.57542   0.01862   0.00000   0.03424   0.03424   2.60966
    R2        2.57557   0.01857   0.00000   0.03416   0.03416   2.60973
    R3        2.30660  -0.04765   0.00000  -0.04906  -0.04906   2.25754
    R4        2.30670  -0.04772   0.00000  -0.04915  -0.04915   2.25755
    R5        2.61825   0.01283   0.00000   0.02657   0.02663   2.64487
    R6        2.61811   0.01021   0.00000   0.02124   0.02130   2.63941
    R7        2.78467   0.00192   0.00000   0.00514   0.00514   2.78981
    R8        2.61834   0.01278   0.00000   0.02648   0.02653   2.64487
    R9        2.61834   0.01011   0.00000   0.02104   0.02110   2.63944
   R10        2.78440   0.00205   0.00000   0.00548   0.00548   2.78989
   R11        2.63587  -0.00189   0.00000  -0.00380  -0.00380   2.63207
   R12        2.05104   0.00148   0.00000   0.00396   0.00396   2.05501
   R13        2.63602  -0.00197   0.00000  -0.00397  -0.00397   2.63205
   R14        2.05100   0.00149   0.00000   0.00399   0.00399   2.05499
   R15        2.63583  -0.00091   0.00000  -0.00198  -0.00197   2.63386
   R16        2.05379   0.00149   0.00000   0.00401   0.00401   2.05780
   R17        2.63613  -0.00105   0.00000  -0.00226  -0.00226   2.63388
   R18        2.05350   0.00159   0.00000   0.00428   0.00428   2.05778
   R19        2.53358  -0.00559   0.00000  -0.00946  -0.00946   2.52412
   R20        2.05565   0.00327   0.00000   0.00881   0.00881   2.06446
   R21        2.53371  -0.00563   0.00000  -0.00954  -0.00954   2.52416
   R22        2.05546   0.00331   0.00000   0.00893   0.00893   2.06440
   R23        2.63557   0.00058   0.00000   0.00031   0.00025   2.63581
   R24        2.05265   0.00171   0.00000   0.00458   0.00458   2.05723
   R25        2.63570   0.00051   0.00000   0.00017   0.00011   2.63581
   R26        2.05245   0.00177   0.00000   0.00476   0.00476   2.05721
   R27        2.63595  -0.00161   0.00000  -0.00432  -0.00437   2.63157
   R28        2.05262   0.00161   0.00000   0.00432   0.00432   2.05694
   R29        2.63604  -0.00167   0.00000  -0.00444  -0.00449   2.63154
   R30        2.05241   0.00169   0.00000   0.00452   0.00452   2.05693
   R31        2.05233   0.00179   0.00000   0.00480   0.00480   2.05713
   R32        2.05244   0.00175   0.00000   0.00469   0.00469   2.05713
   R33        2.80183   0.00098   0.00000   0.00269   0.00269   2.80452
   R34        2.04837   0.00232   0.00000   0.00619   0.00619   2.05456
   R35        2.80187   0.00096   0.00000   0.00265   0.00265   2.80452
   R36        2.04823   0.00236   0.00000   0.00629   0.00629   2.05452
    A1        2.05176   0.03997   0.00000   0.14800   0.14800   2.19976
    A2        2.11808  -0.01067   0.00000  -0.03680  -0.03670   2.08138
    A3        2.08243   0.01282   0.00000   0.04609   0.04604   2.12846
    A4        2.08268  -0.00214   0.00000  -0.00929  -0.00934   2.07333
    A5        2.11807  -0.01068   0.00000  -0.03684  -0.03674   2.08133
    A6        2.08253   0.01282   0.00000   0.04611   0.04606   2.12858
    A7        2.08259  -0.00214   0.00000  -0.00927  -0.00932   2.07327
    A8        2.08257   0.00352   0.00000   0.01613   0.01617   2.09874
    A9        2.15056  -0.00753   0.00000  -0.04011  -0.04012   2.11044
   A10        2.04981   0.00401   0.00000   0.02397   0.02395   2.07376
   A11        2.08263   0.00351   0.00000   0.01610   0.01614   2.09877
   A12        2.15069  -0.00754   0.00000  -0.04016  -0.04018   2.11050
   A13        2.04962   0.00403   0.00000   0.02406   0.02404   2.07366
   A14        2.08249   0.00462   0.00000   0.02010   0.02014   2.10263
   A15        2.12142  -0.00593   0.00000  -0.03016  -0.03019   2.09123
   A16        2.07928   0.00131   0.00000   0.01005   0.01002   2.08929
   A17        2.08243   0.00464   0.00000   0.02019   0.02023   2.10266
   A18        2.12158  -0.00596   0.00000  -0.03028  -0.03031   2.09127
   A19        2.07918   0.00131   0.00000   0.01009   0.01005   2.08923
   A20        2.17570   0.00537   0.00000   0.02236   0.02235   2.19804
   A21        2.01141   0.00306   0.00000   0.02068   0.02067   2.03208
   A22        2.09602  -0.00843   0.00000  -0.04312  -0.04313   2.05289
   A23        2.17465   0.00558   0.00000   0.02322   0.02321   2.19786
   A24        2.01198   0.00295   0.00000   0.02025   0.02024   2.03221
   A25        2.09650  -0.00853   0.00000  -0.04355  -0.04355   2.05295
   A26        2.09435   0.00128   0.00000   0.00294   0.00286   2.09721
   A27        2.09504  -0.00065   0.00000  -0.00155  -0.00151   2.09352
   A28        2.09379  -0.00063   0.00000  -0.00140  -0.00136   2.09243
   A29        2.09432   0.00128   0.00000   0.00297   0.00289   2.09720
   A30        2.09522  -0.00068   0.00000  -0.00169  -0.00165   2.09357
   A31        2.09364  -0.00060   0.00000  -0.00129  -0.00125   2.09239
   A32        2.09439   0.00080   0.00000   0.00033   0.00027   2.09466
   A33        2.09460  -0.00038   0.00000  -0.00005  -0.00002   2.09458
   A34        2.09419  -0.00042   0.00000  -0.00028  -0.00025   2.09394
   A35        2.09440   0.00079   0.00000   0.00031   0.00025   2.09464
   A36        2.09465  -0.00038   0.00000  -0.00009  -0.00006   2.09460
   A37        2.09414  -0.00041   0.00000  -0.00022  -0.00019   2.09394
   A38        2.09449   0.00046   0.00000  -0.00269  -0.00282   2.09167
[...]
 9765,-0.00206627,0.00428490,-0.00000019,0.00000214,-0.00000303,0.00020
 252,-0.00007069,0.00018652,0.00000312,-0.00000065,0.00000345,0.0002672
 9,0.00453789,0.00583766,-0.00000074,0.00000042,-0.00000220,-0.05668262
 ,0.04056007,-0.05728531,0.00000020,-0.00000046,0.00000045,-0.01009009,
 0.00466717,0.00121722,0.00000012,0.00000013,0.00000064,0.00000978,0.00
 000550,-0.00013566,-0.00000437,0.00000059,-0.00000162,0.00005846,-0.00
 001470,-0.00003397,0.00002522,0.00002228,0.00001361,0.00001645,-0.0003
 8093,-0.00091304,-0.00000023,-0.00000033,0.00000031,0.00007471,-0.0015
 8076,-0.00339478,0.00000012,-0.00000049,0.00000057,-0.00000028,0.00000
 505,0.00000278,-0.00000061,-0.00000028,0.00000050,-0.00049843,0.000241
 19,-0.00007334,0.00000030,-0.00000028,0.00000069,0.06123652,-0.0468188
 1,0.04794206,-0.00039998,0.00004913,-0.00004126,-0.00006688,0.00005744
 ,-0.00003143,-0.00012320,0.00018092,0.00007521,-0.00000710,-0.00000164
 ,0.00000125,-0.00309926,0.00380412,0.00092829,-0.00000296,0.00000259,-
 0.00000108,0.00015588,0.00097875,0.00044807,-0.00000044,-0.00000783,0.
 00000230,-0.01748177,-0.01651030,-0.00748874,0.00003258,-0.00000746,0.
 00000631,-0.00059044,-0.00108338,-0.00045266,-0.00000540,0.00000397,-0
 .00000115,0.00174199,0.00095643,0.00006855,0.00000039,-0.00000303,0.00
 000189,-0.25194304,-0.11615505,-0.05605001,-0.00000445,-0.00000369,0.0
 0000084,0.00535060,0.00317548,0.00132492,-0.00007647,0.00000788,-0.000
 01206,-0.00058302,0.00038777,0.00012967,0.00025490,-0.00010774,0.00005
 561,0.00041316,-0.00029528,-0.00010972,0.00000134,0.00000267,-0.000001
 41,-0.00004790,-0.00010530,0.00001083,0.00000198,-0.00000031,0.0000000
 8,0.00052969,0.00030536,0.00035098,0.00000324,-0.00000034,-0.00000002,
 0.00000980,0.00001582,0.00000659,-0.00000034,-0.00000151,0.00000029,0.
 00012510,0.00022493,0.00008964,-0.00000207,0.00000032,-0.00000037,0.26
 526048,0.00000115,-0.00001166,-0.00000491,-0.00000909,-0.00000552,0.00
 000319,-0.00001057,0.00000253,0.00000340,-0.00000087,-0.00000089,0.000
 00098,0.00313307,0.00066424,-0.00265293,-0.00000034,0.00000028,-0.0000
 0014,0.00100321,-0.00088071,0.00016323,-0.00000016,0.00000003,0.000002
 32,0.01259758,0.01063522,0.00349992,0.00000670,0.00000059,-0.00000250,
 0.00060140,0.00047817,0.00015559,-0.00000113,0.00000098,0.,0.00143853,
 -0.00398586,-0.00445203,0.00000013,-0.00000119,-0.00000047,-0.11629002
 ,-0.12612093,-0.04024580,-0.00000067,-0.00000060,0.00000031,-0.0257734
 0,-0.00864626,-0.00606309,-0.00000948,-0.00000145,0.00000233,0.0000812
 9,-0.00019542,-0.00002246,0.00002943,0.00001068,-0.00000646,0.00007183
 ,0.00001801,0.00003012,0.00000025,0.00000043,-0.00000061,-0.00008848,-
 0.00008629,0.00037694,0.00000048,-0.00000027,-0.00000015,-0.00040778,-
 0.00004721,0.00153960,0.00000086,-0.00000015,-0.00000009,-0.00000295,-
 0.00000680,-0.00000584,0.00000005,-0.00000041,-0.00000011,-0.00126481,
 -0.00059205,-0.00030723,-0.00000032,0.00000014,-0.00000016,0.12458906,
 0.12878551,-0.00002809,-0.00000113,0.00000715,-0.00000337,0.00001347,-
 0.00001137,-0.00001354,0.00000732,-0.00000265,-0.00000058,-0.00000028,
 -0.00000049,0.00067879,-0.00259304,0.00686936,0.00000078,0.00000009,0.
 00000041,0.00047196,0.00015767,-0.00109758,-0.00000019,-0.00000216,-0.
 00000303,0.00382436,0.00202641,0.00425375,0.00000309,0.00000066,0.0000
 0347,0.00019909,0.00006876,0.00018521,-0.00000073,-0.00000044,-0.00000
 220,0.00025753,-0.00448468,0.00588615,0.00000020,0.00000047,0.00000045
 ,-0.05611705,-0.04020901,-0.05688457,0.00000012,-0.00000012,0.00000063
 ,-0.00995089,-0.00461117,0.00127249,-0.00000433,-0.00000059,-0.0000016
 5,0.00000922,-0.00000510,-0.00013545,0.00002511,-0.00002228,0.00001379
 ,0.00005815,0.00001434,-0.00003427,-0.00000023,0.00000033,0.00000031,0
 .00001727,0.00037646,-0.00091709,0.00000012,0.00000049,0.00000057,0.00
 007827,0.00156273,-0.00341146,-0.00000061,0.00000028,0.00000050,-0.000
 00026,-0.00000497,0.00000286,0.00000030,0.00000029,0.00000069,-0.00049
 155,-0.00023821,-0.00007052,-0.00000037,0.00000016,0.00000031,0.060633
 78,0.04640468,0.04747724,-0.00014213,-0.00001665,-0.00001642,-0.000065
 56,-0.00004508,0.00001565,-0.00003126,-0.00001811,-0.00000999,0.000413
 61,0.00101523,-0.00032730,-0.00000358,0.00000187,0.00000021,-0.0028236
 5,0.00349726,-0.00188156,-0.00000128,-0.00000103,-0.00000069,0.0018870
 8,-0.00007669,-0.00026510,-0.00000027,0.00000344,0.00000229,-0.0000340
 7,-0.00009239,0.00009132,0.00001964,0.00000199,0.00000115,-0.01704018,
 -0.01393378,0.00445420,-0.00000315,-0.00000251,-0.00000110,0.00225753,
 0.00171615,-0.00075136,0.00000046,0.00000220,0.00000025,-0.28120572,-0
 .10825241,0.03053111,-0.00000245,0.00000197,0.00000098,-0.00005669,0.0
 0003704,-0.00002993,-0.00003905,-0.00000225,-0.00000190,0.00015523,0.0
 0000918,0.00000850,0.00011878,0.00003580,0.00001753,-0.00096374,-0.000
 64668,0.00021159,0.00000080,-0.00000174,-0.00000070,-0.00001761,0.0001
 5375,-0.00006431,0.00000113,0.00000021,0.00000021,-0.00001515,-0.00002
 111,0.00000881,0.00000133,0.00000016,0.00000027,0.00053828,0.00044833,
 0.00003983,-0.00000012,0.00000089,0.00000037,0.00054457,-0.00030016,0.
 00035212,-0.00000111,-0.00000032,-0.00000015,0.29645156,-0.00006846,0.
 00000458,-0.00001395,-0.00001812,0.00002098,0.00000417,-0.00001327,-0.
 00000771,-0.00000666,0.00090783,-0.00109203,0.00003558,-0.00000118,-0.
 00000020,0.00000186,0.00314183,0.00011789,0.00296638,-0.00000021,-0.00
 000026,-0.00000005,0.00030039,-0.00406410,0.00469686,-0.00000019,0.000
 00176,-0.00000032,-0.00002734,-0.00011522,-0.00037348,0.00000642,0.000
 00196,-0.00000147,0.01492321,0.01068073,-0.00200805,-0.00000132,-0.000
 00068,0.,-0.02710376,-0.00655895,0.00277839,0.00000029,0.00000025,0.00
 000085,-0.10822909,-0.10852152,0.02240552,-0.00000054,0.00000091,-0.00
 000059,-0.00002609,0.00003606,0.00000340,-0.00001348,0.00000025,-0.000
 00353,0.00005429,-0.00001171,-0.00002042,0.00004466,0.00001308,0.00001
 111,0.00080683,0.00030911,-0.00012388,0.00000006,-0.00000058,0.0000001
 4,-0.00133652,-0.00049662,0.00012513,0.00000042,-0.00000013,0.00000024
 ,0.00007672,0.00004984,-0.00001968,0.00000059,-0.00000006,0.00000044,-
 0.00033651,-0.00002358,-0.00150508,0.00000018,0.00000014,0.00000005,0.
 00044838,-0.00004403,-0.00155999,-0.00000050,-0.00000016,-0.00000005,0
 .11651056,0.10966110,0.00001669,-0.00000398,-0.00000613,0.00000032,0.0
 0000158,0.00003335,0.00000231,-0.00000842,-0.00000718,-0.00026302,0.00
 003365,-0.00114657,0.00000047,-0.00000276,0.00000504,-0.00174685,0.002
 98198,0.00595234,0.00000116,0.00000090,0.00000088,-0.00043596,0.004669
 52,0.00588521,-0.00000004,0.00000033,-0.00000164,0.00004965,-0.0003901
 8,-0.00091837,-0.00000342,0.00000064,-0.00000533,-0.00691556,-0.003465
 08,0.00469121,0.00000004,0.00000112,-0.00000088,0.01063053,0.00422883,
 0.00275963,-0.00000056,-0.00000099,0.00000010,0.03050634,0.02242738,-0
 .04572078,0.00000096,0.00000010,-0.00000172,0.00000086,0.00000036,0.00
 005863,0.00000775,0.00000349,-0.00000474,0.00000049,-0.00001707,-0.000
 05851,-0.00001088,0.00000347,0.00001065,-0.00035570,-0.00019732,-0.000
 05024,-0.00000027,0.00000003,0.00000093,0.00053088,0.00019876,-0.00007
 414,-0.00000027,-0.00000050,0.00000055,-0.00003287,-0.00001643,0.00000
 038,-0.00000075,-0.00000026,0.00000049,0.00034316,-0.00146036,-0.00318
 947,0.00000033,-0.00000065,0.00000044,0.00005717,-0.00160168,-0.003403
 42,0.00000002,-0.00000003,0.00000028,-0.03239214,-0.02744789,0.0350248
 4,-0.00014212,0.00001657,-0.00001651,-0.00003126,0.00001805,-0.0000100
 8,-0.00006556,0.00004518,0.00001537,-0.00000358,-0.00000187,0.00000021
 ,0.00041346,-0.00101730,-0.00032137,-0.00000128,0.00000103,-0.00000070
 ,-0.00282383,-0.00350588,-0.00186588,-0.00000027,-0.00000343,0.0000023
 2,0.00188726,0.00007551,-0.00026750,0.00001964,-0.00000199,0.00000116,
 -0.00003410,0.00009281,0.00009105,-0.00000315,0.00000250,-0.00000112,-
 0.01703944,0.01396165,0.00437347,0.00000046,-0.00000220,0.00000026,0.0
 0225926,-0.00172045,-0.00074271,-0.00000245,-0.00000196,0.00000100,-0.
 28118511,0.10845193,0.02987645,-0.00003905,0.00000225,-0.00000190,-0.0
 0005668,-0.00003723,-0.00002964,0.00011877,-0.00003570,0.00001771,0.00
 015522,-0.00000916,0.00000860,0.00000080,0.00000173,-0.00000071,-0.000
 96371,0.00064797,0.00020788,0.00000113,-0.00000021,0.00000021,-0.00001
 753,-0.00015413,-0.00006347,0.00000133,-0.00000016,0.00000027,-0.00001
 516,0.00002116,0.00000868,-0.00000012,-0.00000089,0.00000037,0.0005381
 6,-0.00044864,0.00004361,-0.00000111,0.00000032,-0.00000015,0.00054443
 ,0.00030151,0.00035191,-0.00000076,-0.00000022,0.00000005,0.29642881,0
 .00006857,0.00000467,0.00001390,0.00001328,-0.00000763,0.00000667,0.00
 001814,0.00002094,-0.00000410,0.00000118,-0.00000020,-0.00000184,-0.00
 090931,-0.00109202,-0.00003605,0.00000022,-0.00000026,0.00000006,-0.00
 314982,0.00008725,-0.00293547,0.00000018,0.00000176,0.00000030,-0.0003
 0257,-0.00411427,-0.00464298,-0.00000644,0.00000196,0.00000143,0.00002
 729,-0.00011111,0.00036919,0.00000132,-0.00000069,0.,-0.01495599,0.010
 71018,0.00197069,-0.00000029,0.00000025,-0.00000085,0.02715986,-0.0066
 0118,-0.00272024,0.00000055,0.00000091,0.00000057,0.10842889,-0.108799
 04,-0.02204032,0.00001353,0.00000025,0.00000350,0.00002610,0.00003611,
 -0.00000323,-0.00004473,0.00001301,-0.00001112,-0.00005430,-0.00001149
 ,0.00002014,-0.00000006,-0.00000058,-0.00000013,-0.00080849,0.00031087
 ,0.00012166,-0.00000042,-0.00000013,-0.00000024,0.00133931,-0.00049860
 ,-0.00012242,-0.00000059,-0.00000006,-0.00000044,-0.00007690,0.0000500
 1,0.00001936,-0.00000017,0.00000014,-0.00000005,0.00033784,-0.00000776
 ,0.00148804,0.00000050,-0.00000016,0.00000006,-0.00044859,-0.00002705,
 0.00154162,0.00000022,0.00000011,-0.00000014,-0.11672418,0.10999567,0.
 00001630,0.00000393,-0.00000622,0.00000224,0.00000843,-0.00000726,0.00
 000019,-0.00000149,0.00003338,0.00000046,0.00000280,0.00000504,-0.0002
 5811,-0.00003426,-0.00114636,0.00000116,-0.00000089,0.00000088,-0.0017
 3287,-0.00295117,0.00598313,-0.00000004,-0.00000035,-0.00000164,-0.000
 43613,-0.00461531,0.00593530,-0.00000338,-0.00000068,-0.00000534,0.000
 05026,0.00038573,-0.00092241,0.00000003,-0.00000112,-0.00000087,-0.006
 84096,0.00343769,0.00466109,-0.00000056,0.00000099,0.00000011,0.010483
 24,-0.00418059,0.00279979,0.00000095,-0.00000012,-0.00000172,0.0298522
 0,-0.02206223,-0.04546404,0.00000767,-0.00000352,-0.00000474,0.0000006
 7,-0.00000040,0.00005855,-0.00001061,-0.00000348,0.00001073,0.00000082
 ,0.00001679,-0.00005871,-0.00000027,-0.00000002,0.00000094,-0.00035167
 ,0.00019562,-0.00005201,-0.00000027,0.00000051,0.00000055,0.00052363,-
 0.00019656,-0.00007223,-0.00000075,0.00000026,0.00000049,-0.00003242,0
 .00001626,0.00000020,0.00000033,0.00000065,0.00000044,0.00034274,0.001
 44314,-0.00320516,0.00000002,0.00000003,0.00000027,0.00006101,0.001583
 48,-0.00342020,0.00000005,0.00000015,0.00000056,-0.03168484,0.02701662
 ,0.03471322,-0.00101802,0.00063347,-0.00029306,-0.00528876,-0.00519240
 ,0.00177870,0.00011740,0.00054386,0.00018532,0.00101345,-0.00069339,0.
 00076888,0.00001193,0.00000120,-0.00000167,-0.00109024,0.00076408,-0.0
 0036210,-0.00000905,-0.00000377,-0.00000743,0.00003718,-0.00002407,0.0
 0001856,0.00000430,-0.00001079,-0.00001023,0.00261164,0.02724079,-0.01
 170753,-0.00006226,0.00002525,-0.00000094,0.00019811,-0.00039279,0.000
 20999,0.00001252,0.00001180,0.00000472,0.00012927,-0.00017673,0.000070
 00,-0.00000038,-0.00000129,0.00000060,0.00003604,0.00001308,0.00000117
 ,0.00000583,-0.00000700,-0.00000468,-0.06351673,0.04373584,-0.02014726
 ,0.00012237,-0.00002975,0.00003915,0.00942264,-0.02102396,0.00938035,-
 0.00026431,-0.00047386,-0.00031187,0.00358494,0.00134697,-0.00036505,-
 0.00000476,0.00000525,0.00001022,0.00018554,-0.00014452,0.00005795,-0.
 00000188,0.00000020,0.00000235,-0.00466887,0.00086090,-0.00128520,0.00
 001197,-0.00000201,0.00001718,-0.00002977,0.00000221,-0.00000593,-0.00
 000135,-0.00000202,0.00000047,0.00000636,-0.00000332,0.00000083,0.0000
 0389,0.00000054,0.00000105,0.00005453,-0.00004658,0.00000823,0.0000029
 9,-0.00000073,0.00000088,0.05844243,-0.00010584,0.00156808,-0.00094067
 ,-0.00368516,-0.00172149,0.00145739,-0.00001163,0.00034190,0.00004207,
 -0.00083641,-0.00187195,-0.00193531,-0.00000083,0.00000693,-0.00001655
 ,-0.00040696,0.00002146,-0.00009455,0.00000356,-0.00000006,0.00000365,
 0.00025825,-0.00006179,0.00003211,-0.00000005,-0.00000206,-0.00000005,
 0.00115741,-0.00442171,0.00440832,-0.00000709,0.00001132,-0.00001767,-
 0.00005170,0.00026719,-0.00032272,-0.00000168,0.00000087,-0.00000339,0
 .00002487,-0.00012001,0.00005115,-0.00000104,-0.00000066,-0.00000051,-
 0.00014596,-0.00005267,-0.00000499,0.00000098,0.00000006,-0.00000070,0
 .03918698,-0.28597759,0.10759923,-0.00003483,-0.00004540,0.00009466,0.
 00992360,-0.01186174,0.00618706,-0.00033096,-0.00023183,-0.00036779,0.
 00140240,0.00185970,-0.00008602,-0.00000069,0.00000067,0.00000277,-0.0
 0001479,0.00006345,0.00002516,0.00000021,-0.00000153,0.00000234,0.0006
 5323,0.00190918,0.00353258,0.00000111,-0.00000460,0.00001408,0.0000087
 1,-0.00000391,0.00002162,0.00000133,-0.00000060,0.00000108,0.00001102,
 0.00001483,0.00000384,0.00000035,-0.00000070,0.00000081,-0.00002583,0.
 00003899,0.00006252,-0.00000048,-0.00000020,0.00000088,-0.04696440,0.3
 0027624,-0.00010596,-0.00086598,-0.00061686,0.00106882,0.00124304,0.00
 173834,-0.00002758,-0.00028854,-0.00018248,0.00073886,-0.00195861,-0.0
 0546219,-0.00000059,0.00000621,-0.00002617,0.00000582,0.00003778,-0.00
 011650,0.00001746,0.00000689,0.00001040,-0.00001410,-0.00000068,-0.000
 03696,-0.00000116,-0.00000639,0.00001176,-0.00048608,0.00598927,0.0032
 8043,-0.00000555,-0.00001988,-0.00001620,0.00010830,-0.00033929,-0.000
 31594,-0.00000395,-0.00000010,-0.00000709,-0.00002615,0.00000109,0.000
 03423,-0.00000108,-0.00000397,-0.00000957,0.00003897,0.00002517,-0.000
 08037,0.00000363,-0.00000195,0.00000300,-0.01831157,0.10840603,-0.0827
 2574,0.00003821,0.00004374,0.00001066,-0.00356781,0.00395306,-0.000775
 58,0.00016151,0.00014333,0.00021834,-0.00036413,-0.00013912,0.00128682
 ,0.00000005,0.00000011,0.00000618,0.00002207,0.00000919,0.00011587,-0.
 00000200,-0.00000366,0.00000129,-0.00121127,0.00347154,0.00870570,-0.0
 0001272,-0.00000737,0.00000405,-0.00001272,0.00001733,0.00004352,0.000
 00438,-0.00000290,0.00000171,-0.00000594,0.00000033,0.00001583,-0.0000
 0032,-0.00000074,0.00000105,0.00000700,0.00005430,0.00016257,-0.000000
 79,-0.00000051,0.00000103,0.02190479,-0.11976061,0.07469505,-0.0010182
 8,-0.00063498,-0.00028944,0.00011740,-0.00054281,0.00018846,-0.0052882
 4,0.00520327,0.00174767,0.00001193,-0.00000123,-0.00000169,0.00101331,
 0.00069748,0.00076550,-0.00000907,0.00000375,-0.00000743,-0.00109057,-
 0.00076599,-0.00035822,0.00000430,0.00001074,-0.00001027,0.00003727,0.
 00002423,0.00001834,-0.00006224,-0.00002523,-0.00000077,0.00261018,-0.
 02730823,-0.01155071,0.00001252,-0.00001177,0.00000478,0.00019823,0.00
 039398,0.00020778,-0.00000037,0.00000128,0.00000059,0.00012925,0.00017
 714,0.00006909,0.00000582,0.00000697,-0.00000471,0.00003601,-0.0000131
 5,0.00000127,0.00012238,0.00002995,0.00003894,-0.06352162,-0.04386201,
 -0.01990284,-0.00026413,0.00047200,-0.00031456,0.00942347,0.02107565,0
 .00925974,-0.00000476,-0.00000520,0.00001024,0.00358814,-0.00135084,-0
 .00035854,-0.00000187,-0.00000019,0.00000235,0.00018556,0.00014480,0.0
 0005725,0.00001197,0.00000211,0.00001716,-0.00466882,-0.00086730,-0.00
 128176,-0.00000135,0.00000202,0.00000045,-0.00002978,-0.00000224,-0.00
 000591,0.00000389,-0.00000054,0.00000106,0.00000636,0.00000332,0.00000
 082,0.00000299,0.00000074,0.00000088,0.00005454,0.00004661,0.00000801,
 -0.00005895,-0.00000769,0.00004160,0.05844447,0.00010553,0.00157843,0.
 00092822,0.00001146,0.00034340,-0.00004514,0.00369184,-0.00173797,-0.0
 0143689,0.00000083,0.00000699,0.00001635,0.00083947,-0.00184966,0.0019
 1428,-0.00000346,-0.00000012,-0.00000359,0.00040685,0.00002163,0.00009
 362,0.00000004,-0.00000202,0.00000016,-0.00025779,-0.00006198,-0.00003
 200,0.00000705,0.00001153,0.00001750,-0.00115963,-0.00447869,-0.004362
 92,0.00000166,0.00000090,0.00000335,0.00005275,0.00027097,0.00031947,0
 .00000104,-0.00000064,0.00000044,-0.00002526,-0.00011992,-0.00005027,-
 0.00000096,0.00000008,0.00000072,0.00014602,-0.00005316,0.00000479,0.0
 0003501,-0.00004618,-0.00009433,-0.03930380,-0.28721002,-0.10641907,0.
 00033184,-0.00023061,0.00037041,-0.00994564,-0.01192051,-0.00612523,0.
 00000069,0.00000066,-0.00000273,-0.00140605,0.00186178,0.00008375,-0.0
 0000023,-0.00000152,-0.00000233,0.00001497,0.00006326,-0.00002479,-0.0
 0000119,-0.00000464,-0.00001403,-0.00065922,0.00186940,-0.00349307,-0.
 00000131,-0.00000059,-0.00000107,-0.00000878,-0.00000410,-0.00002139,-
 0.00000035,-0.00000070,-0.00000080,-0.00001105,0.00001480,-0.00000382,
 0.00000048,-0.00000021,-0.00000087,0.00002590,0.00003834,-0.00006178,0
 .00000794,-0.00000037,-0.00000809,0.04710336,0.30164146,-0.00010656,0.
 00085322,-0.00062703,-0.00002760,0.00028542,-0.00018381,0.00104669,-0.
 00122272,0.00175406,-0.00000060,-0.00000638,-0.00002621,0.00073648,0.0
 0193716,-0.00548471,0.00001749,-0.00000683,0.00001049,0.00000499,-0.00
 003811,-0.00011665,-0.00000115,0.00000645,0.00001166,-0.00001401,0.000
 00091,-0.00003686,-0.00000561,0.00001974,-0.00001639,-0.00048252,-0.00
 594712,0.00333885,-0.00000396,0.00000006,-0.00000712,0.00010700,0.0003
 3583,-0.00031978,-0.00000109,0.00000394,-0.00000956,-0.00002551,-0.000
 00106,0.00003420,0.00000364,0.00000196,0.00000297,0.00003855,-0.000024
 57,-0.00007991,0.00003805,-0.00004344,0.00001141,-0.01809232,-0.107225
 21,-0.08148767,0.00015955,-0.00014066,0.00021685,-0.00350974,-0.003886
 64,-0.00071708,0.00000005,-0.00000008,0.00000620,-0.00035779,0.0001360
 9,0.00128591,-0.00000200,0.00000367,0.00000129,0.00002183,-0.00000896,
 0.00011605,-0.00001271,0.00000743,0.00000410,-0.00120908,-0.00343261,0
 .00874537,0.00000439,0.00000291,0.00000170,-0.00001265,-0.00001708,0.0
 0004368,-0.00000032,0.00000075,0.00000105,-0.00000589,-0.00000033,0.00
 001586,-0.00000079,0.00000052,0.00000104,0.00000678,-0.00005366,0.0001
 6323,0.00004155,0.00000823,0.00002383,0.02164488,0.11845115,0.07332298
 \\-0.00000378,0.00000017,0.00000411,-0.00000016,0.00000312,0.00000206,
 -0.00000086,-0.00000021,0.00000160,-0.00000099,0.00000264,0.00000007,0
 .00000187,0.00000329,-0.00000020,-0.00000024,-0.00000221,-0.00000089,0
 .00000047,-0.00000271,0.00000083,0.00000246,0.00000003,-0.00000021,-0.
 00000321,-0.00000043,-0.00000003,-0.00000206,-0.00000081,0.00000175,0.
 00000238,-0.00000023,-0.00000173,0.00000378,-0.00000002,0.00000024,-0.
 00000354,0.00000029,-0.00000023,-0.00000143,-0.00000224,0.,0.00000151,
 -0.00000215,-0.00000007,-0.00000222,0.00000273,-0.00000124,0.00000180,
 0.00000241,0.00000109,0.00000074,0.00000109,-0.00000042,-0.00000258,0.
 00000032,0.00000240,0.00000073,-0.00000550,-0.00000418,0.00000501,0.00
 000072,-0.00000592,-0.00000080,0.00000002,0.00000028,0.00000075,0.0000
 0001,0.00000006,-0.00000051,-0.00000022,-0.00000039,0.00000047,-0.0000
 0018,0.00000036,0.,-0.00000047,-0.00000034,0.00000002,-0.00000073,0.00
 000087,-0.00000012,-0.00000002,0.00000003,0.00000018,-0.00000006,0.000
 00007,0.00000014,0.00000023,0.,-0.00000014,0.00000022,0.00000002,0.000
 00016,0.00000002,-0.00000027,-0.00000013,0.00000005,0.00000032,0.00000
 015,0.00000040,-0.00000033,0.00000016,0.00000044,0.00000028\\\@


 CHARLIE BROWN -- WHICH DO YOU THINK LASTS LONGER IN LIFE, THE GOOD THINGS 
                  OR THE BAD THINGS?
 LINUS --         GOOD THINGS LAST EIGHT SECONDS ..
                  BAD THINGS LAST THREE WEEKS
 CHARLIE BROWN -- WHAT ABOUT IN BETWEEN?
 SNOOPY --        IN BETWEEN YOU SHOULD TAKE A NAP ...
 Job cpu time:       0 days 12 hours 13 minutes 41.6 seconds.
 Elapsed time:       0 days  0 hours 46 minutes  3.0 seconds.
 File lengths (MBytes):  RWF=    954 Int=      0 D2E=      0 Chk=     30 Scr=      1
 Normal termination of Gaussian 16 at Thu Sep 18 19:08:17 2025.
