 Entering Gaussian System, Link 0=g16
 Input=COBE0095.gjf
 Output=COBE0095.log
 Initial command:
 /usr/local/g16/l1.exe "/dados_01/scratch/Gau-2001634.inp" -scrdir="/dados_01/scratch/"
 Entering Link 1 = /usr/local/g16/l1.exe PID=   2001635.
  
 Copyright (c) 1988-2017, Gaussian, Inc.  All Rights Reserved.
  
 This is part of the Gaussian(R) 16 program.  It is based on
 the Gaussian(R) 09 system (copyright 2009, Gaussian, Inc.),
 the Gaussian(R) 03 system (copyright 2003, Gaussian, Inc.),
 the Gaussian(R) 98 system (copyright 1998, Gaussian, Inc.),
 the Gaussian(R) 94 system (copyright 1995, Gaussian, Inc.),
 the Gaussian 92(TM) system (copyright 1992, Gaussian, Inc.),
 the Gaussian 90(TM) system (copyright 1990, Gaussian, Inc.),
 the Gaussian 88(TM) system (copyright 1988, Gaussian, Inc.),
 the Gaussian 86(TM) system (copyright 1986, Carnegie Mellon
 University), and the Gaussian 82(TM) system (copyright 1983,
 Carnegie Mellon University). Gaussian is a federally registered
 trademark of Gaussian, Inc.
  
 This software contains proprietary and confidential information,
 including trade secrets, belonging to Gaussian, Inc.
  
 This software is provided under written license and may be
 used, copied, transmitted, or stored only in accord with that
 written license.
  
 The following legend is applicable only to US Government
 contracts under FAR:
  
                    RESTRICTED RIGHTS LEGEND
  
 Use, reproduction and disclosure by the US Government is
 subject to restrictions as set forth in subparagraphs (a)
 and (c) of the Commercial Computer Software - Restricted
 Rights clause in FAR 52.227-19.
  
 Gaussian, Inc.
 340 Quinnipiac St., Bldg. 40, Wallingford CT 06492
  
  
 ---------------------------------------------------------------
 Warning -- This program may not be used in any manner that
 competes with the business of Gaussian, Inc. or will provide
 assistance to any competitor of Gaussian, Inc.  The licensee
 of this program is prohibited from giving any competitor of
 Gaussian, Inc. access to this program.  By using this program,
 the user acknowledges that Gaussian, Inc. is engaged in the
 business of creating and licensing software in the field of
 computational chemistry and represents and warrants to the
 licensee that it is not a competitor of Gaussian, Inc. and that
 it will not use this program in any manner prohibited above.
 ---------------------------------------------------------------
  

 Cite this work as:
 Gaussian 16, Revision B.01,
 M. J. Frisch, G. W. Trucks, H. B. Schlegel, G. E. Scuseria, 
 M. A. Robb, J. R. Cheeseman, G. Scalmani, V. Barone, 
 G. A. Petersson, H. Nakatsuji, X. Li, M. Caricato, A. V. Marenich, 
 J. Bloino, B. G. Janesko, R. Gomperts, B. Mennucci, H. P. Hratchian, 
 J. V. Ortiz, A. F. Izmaylov, J. L. Sonnenberg, D. Williams-Young, 
 F. Ding, F. Lipparini, F. Egidi, J. Goings, B. Peng, A. Petrone, 
 T. Henderson, D. Ranasinghe, V. G. Zakrzewski, J. Gao, N. Rega, 
 G. Zheng, W. Liang, M. Hada, M. Ehara, K. Toyota, R. Fukuda, 
 J. Hasegawa, M. Ishida, T. Nakajima, Y. Honda, O. Kitao, H. Nakai, 
 T. Vreven, K. Throssell, J. A. Montgomery, Jr., J. E. Peralta, 
 F. Ogliaro, M. J. Bearpark, J. J. Heyd, E. N. Brothers, K. N. Kudin, 
 V. N. Staroverov, T. A. Keith, R. Kobayashi, J. Normand, 
 K. Raghavachari, A. P. Rendell, J. C. Burant, S. S. Iyengar, 
 J. Tomasi, M. Cossi, J. M. Millam, M. Klene, C. Adamo, R. Cammi, 
 J. W. Ochterski, R. L. Martin, K. Morokuma, O. Farkas, 
 J. B. Foresman, and D. J. Fox, Gaussian, Inc., Wallingford CT, 2016.
 
 ******************************************
 Gaussian 16:  ES64L-G16RevB.01 20-Dec-2017
                18-Sep-2025 
 ******************************************
 %nprocs=16
 Will use up to   16 processors via shared memory.
 %mem=40GB
 %chk=COBE0095.chk
 ----------------------------------------------------------------------
 # opt freq=noraman M08HX/6-311++G** scf=xqc Empiricaldispersion=pfd In
 t(Grid=ultraFine)
 ----------------------------------------------------------------------
 1/18=20,19=15,26=4,38=1/1,3;
 2/9=110,12=2,17=6,18=5,40=1/2;
 3/5=4,6=6,7=1111,11=2,25=1,30=1,71=1,74=-74,75=-5,124=11/1,2,3;
 4//1;
 5/5=2,8=3,13=1,38=5/2,8;
 6/7=2,8=2,9=2,10=2,28=1/1;
 7//1,2,3,16;
 1/18=20,19=15,26=4/3(2);
 2/9=110/2;
 99//99;
 2/9=110/2;
 3/5=4,6=6,7=1111,11=2,25=1,30=1,71=1,74=-74,75=-5,124=11/1,2,3;
 4/5=5,16=3,69=1/1;
 5/5=2,8=3,13=1,38=5/2,8;
 7//1,2,3,16;
 1/18=20,19=15,26=4/3(-5);
 2/9=110/2;
 6/7=2,8=2,9=2,10=2,19=2,28=1/1;
 99/9=1/99;
 --------
 COBE0095
 --------
 Symbolic Z-matrix:
 Charge =  0 Multiplicity = 1
 O                    -0.1014    0.834     0.8158 
 O                     1.3535   -0.7755   -0.0428 
 O                    -3.3893    0.7192   -0.7935 
 O                    -0.915    -1.9196    1.1511 
 O                     2.0271    2.698     0.869 
 O                     4.643     1.3725    1.1539 
 O                     4.9338   -0.7262   -0.8125 
 O                    -3.8363   -2.0982    1.4895 
 O                    -5.2227   -0.7021   -0.5444 
 O                    -2.6752    3.2826   -1.4833 
 O                     1.465    -2.9979   -1.6567 
 C                    -1.2099    0.2345    0.1502 
 C                    -1.8308   -0.8272    1.0581 
 C                     1.1124    0.6229    0.0953 
 C                    -2.2346    1.3159   -0.2004 
 C                     2.2455    1.2874    0.8771 
 C                     3.6067    0.981     0.2522 
 C                     3.7632   -0.5137   -0.0278 
 C                    -3.1623   -1.3259    0.4962 
 C                     2.5451   -1.056    -0.7793 
 C                    -4.069    -0.1612    0.0983 
 C                    -1.6733    2.3233   -1.1989 
 C                     2.6245   -2.5678   -0.9672 
 H                    -0.9039   -0.2567   -0.7858 
 H                    -1.9558   -0.4438    2.0775 
 H                     1.0105    1.0834   -0.8967 
 H                    -2.5471    1.8655    0.698 
 H                     2.2292    0.9702    1.9266 
 H                     3.7527    1.5698   -0.6618 
 H                     3.9017   -1.0493    0.9194 
 H                     2.4568   -0.595    -1.7726 
 H                    -2.979    -1.991    -0.357 
 H                    -4.4248    0.396     0.9727 
 H                    -1.3931    1.8421   -2.1418 
 H                    -0.8031    2.8504   -0.7981 
 H                     2.6528   -3.0896   -0.005 
 H                     3.5015   -2.8585   -1.5525 
 H                    -0.8293   -2.3166    0.2682 
 H                     2.0334    2.9988   -0.0557 
 H                     5.4924    1.1528    0.7341 
 H                     4.817    -0.2605   -1.6582 
 H                    -4.6799   -2.3938    1.1066 
 H                    -4.9442   -1.4468   -1.1031 
 H                    -3.4457    2.8068   -1.8379 
 H                     0.6919   -2.7099   -1.1431 
 

 GradGradGradGradGradGradGradGradGradGradGradGradGradGradGradGradGradGrad
 Berny optimization.
 Initialization pass.
                           ----------------------------
                           !    Initial Parameters    !
                           ! (Angstroms and Degrees)  !
 --------------------------                            --------------------------
 ! Name  Definition              Value          Derivative Info.                !
 --------------------------------------------------------------------------------
 ! R1    R(1,12)                 1.4252         estimate D2E/DX2                !
 ! R2    R(1,14)                 1.4272         estimate D2E/DX2                !
 ! R3    R(2,14)                 1.4257         estimate D2E/DX2                !
 ! R4    R(2,20)                 1.4286         estimate D2E/DX2                !
 ! R5    R(3,15)                 1.4287         estimate D2E/DX2                !
 ! R6    R(3,21)                 1.4256         estimate D2E/DX2                !
 ! R7    R(4,13)                 1.4285         estimate D2E/DX2                !
 ! R8    R(4,38)                 0.9718         estimate D2E/DX2                !
 ! R9    R(5,16)                 1.4274         estimate D2E/DX2                !
 ! R10   R(5,39)                 0.9724         estimate D2E/DX2                !
 ! R11   R(6,17)                 1.4284         estimate D2E/DX2                !
 ! R12   R(6,40)                 0.9726         estimate D2E/DX2                !
 ! R13   R(7,18)                 1.4252         estimate D2E/DX2                !
 ! R14   R(7,41)                 0.9725         estimate D2E/DX2                !
 ! R15   R(8,19)                 1.4274         estimate D2E/DX2                !
 ! R16   R(8,42)                 0.9724         estimate D2E/DX2                !
 ! R17   R(9,21)                 1.4271         estimate D2E/DX2                !
 ! R18   R(9,43)                 0.9717         estimate D2E/DX2                !
 ! R19   R(10,22)                1.416          estimate D2E/DX2                !
 ! R20   R(10,44)                0.9725         estimate D2E/DX2                !
 ! R21   R(11,23)                1.4159         estimate D2E/DX2                !
 ! R22   R(11,45)                0.9718         estimate D2E/DX2                !
 ! R23   R(12,13)                1.5287         estimate D2E/DX2                !
 ! R24   R(12,15)                1.5305         estimate D2E/DX2                !
 ! R25   R(12,24)                1.1005         estimate D2E/DX2                !
 ! R26   R(13,19)                1.5288         estimate D2E/DX2                !
 ! R27   R(13,25)                1.0963         estimate D2E/DX2                !
 ! R28   R(14,16)                1.5286         estimate D2E/DX2                !
 ! R29   R(14,26)                1.0984         estimate D2E/DX2                !
 ! R30   R(15,22)                1.5254         estimate D2E/DX2                !
 ! R31   R(15,27)                1.0986         estimate D2E/DX2                !
 ! R32   R(16,17)                1.5288         estimate D2E/DX2                !
 ! R33   R(16,28)                1.0965         estimate D2E/DX2                !
 ! R34   R(17,18)                1.5287         estimate D2E/DX2                !
 ! R35   R(17,29)                1.097          estimate D2E/DX2                !
 ! R36   R(18,20)                1.5306         estimate D2E/DX2                !
 ! R37   R(18,30)                1.0969         estimate D2E/DX2                !
 ! R38   R(19,21)                1.5287         estimate D2E/DX2                !
 ! R39   R(19,32)                1.0972         estimate D2E/DX2                !
 ! R40   R(20,23)                1.5255         estimate D2E/DX2                !
 ! R41   R(20,31)                1.0986         estimate D2E/DX2                !
 ! R42   R(21,33)                1.0962         estimate D2E/DX2                !
 ! R43   R(22,34)                1.095          estimate D2E/DX2                !
 ! R44   R(22,35)                1.0935         estimate D2E/DX2                !
 ! R45   R(23,36)                1.0949         estimate D2E/DX2                !
 ! R46   R(23,37)                1.0937         estimate D2E/DX2                !
 ! A1    A(12,1,14)            111.3149         estimate D2E/DX2                !
 ! A2    A(14,2,20)            112.5542         estimate D2E/DX2                !
 ! A3    A(15,3,21)            112.5554         estimate D2E/DX2                !
 ! A4    A(13,4,38)            108.0457         estimate D2E/DX2                !
 ! A5    A(16,5,39)            108.0647         estimate D2E/DX2                !
 ! A6    A(17,6,40)            107.4105         estimate D2E/DX2                !
 ! A7    A(18,7,41)            107.9843         estimate D2E/DX2                !
 ! A8    A(19,8,42)            107.4634         estimate D2E/DX2                !
 ! A9    A(21,9,43)            108.5237         estimate D2E/DX2                !
 ! A10   A(22,10,44)           107.5999         estimate D2E/DX2                !
 ! A11   A(23,11,45)           107.7027         estimate D2E/DX2                !
 ! A12   A(1,12,13)            109.3098         estimate D2E/DX2                !
 ! A13   A(1,12,15)            109.3003         estimate D2E/DX2                !
 ! A14   A(1,12,24)            111.6361         estimate D2E/DX2                !
 ! A15   A(13,12,15)           110.7832         estimate D2E/DX2                !
 ! A16   A(13,12,24)           107.9435         estimate D2E/DX2                !
 ! A17   A(15,12,24)           107.8615         estimate D2E/DX2                !
 ! A18   A(4,13,12)            108.0215         estimate D2E/DX2                !
 ! A19   A(4,13,19)            109.4399         estimate D2E/DX2                !
 ! A20   A(4,13,25)            106.2604         estimate D2E/DX2                !
 ! A21   A(12,13,19)           111.2229         estimate D2E/DX2                !
 ! A22   A(12,13,25)           110.8347         estimate D2E/DX2                !
 ! A23   A(19,13,25)           110.8879         estimate D2E/DX2                !
 ! A24   A(1,14,2)             109.7422         estimate D2E/DX2                !
 ! A25   A(1,14,16)            107.9341         estimate D2E/DX2                !
 ! A26   A(1,14,26)            108.3614         estimate D2E/DX2                !
 ! A27   A(2,14,16)            110.5215         estimate D2E/DX2                !
 ! A28   A(2,14,26)            109.8411         estimate D2E/DX2                !
 ! A29   A(16,14,26)           110.3903         estimate D2E/DX2                !
 ! A30   A(3,15,12)            109.9453         estimate D2E/DX2                !
 ! A31   A(3,15,22)            107.5467         estimate D2E/DX2                !
 ! A32   A(3,15,27)            108.5744         estimate D2E/DX2                !
 ! A33   A(12,15,22)           111.7289         estimate D2E/DX2                !
 ! A34   A(12,15,27)           110.8922         estimate D2E/DX2                !
 ! A35   A(22,15,27)           108.0341         estimate D2E/DX2                !
 ! A36   A(5,16,14)            108.256          estimate D2E/DX2                !
 ! A37   A(5,16,17)            109.388          estimate D2E/DX2                !
 ! A38   A(5,16,28)            106.7998         estimate D2E/DX2                !
 ! A39   A(14,16,17)           111.3347         estimate D2E/DX2                !
 ! A40   A(14,16,28)           110.6552         estimate D2E/DX2                !
 ! A41   A(17,16,28)           110.2725         estimate D2E/DX2                !
 ! A42   A(6,17,16)            109.4512         estimate D2E/DX2                !
 ! A43   A(6,17,18)            108.0193         estimate D2E/DX2                !
 ! A44   A(6,17,29)            106.3974         estimate D2E/DX2                !
 ! A45   A(16,17,18)           111.2213         estimate D2E/DX2                !
 ! A46   A(16,17,29)           110.5786         estimate D2E/DX2                !
 ! A47   A(18,17,29)           111.0118         estimate D2E/DX2                !
 ! A48   A(7,18,17)            109.3119         estimate D2E/DX2                !
 ! A49   A(7,18,20)            109.2999         estimate D2E/DX2                !
 ! A50   A(7,18,30)            107.3932         estimate D2E/DX2                !
 ! A51   A(17,18,20)           110.7864         estimate D2E/DX2                !
 ! A52   A(17,18,30)           109.4007         estimate D2E/DX2                !
 ! A53   A(20,18,30)           110.5768         estimate D2E/DX2                !
 ! A54   A(8,19,13)            109.3889         estimate D2E/DX2                !
 ! A55   A(8,19,21)            108.2579         estimate D2E/DX2                !
 ! A56   A(8,19,32)            106.9799         estimate D2E/DX2                !
 ! A57   A(13,19,21)           111.3275         estimate D2E/DX2                !
 ! A58   A(13,19,32)           109.7568         estimate D2E/DX2                !
 ! A59   A(21,19,32)           111.009          estimate D2E/DX2                !
 ! A60   A(2,20,18)            109.9449         estimate D2E/DX2                !
 ! A61   A(2,20,23)            107.547          estimate D2E/DX2                !
 ! A62   A(2,20,31)            108.4621         estimate D2E/DX2                !
 ! A63   A(18,20,23)           111.7272         estimate D2E/DX2                !
 ! A64   A(18,20,31)           111.0521         estimate D2E/DX2                !
 ! A65   A(23,20,31)           107.979          estimate D2E/DX2                !
 ! A66   A(3,21,9)             109.7415         estimate D2E/DX2                !
 ! A67   A(3,21,19)            110.5206         estimate D2E/DX2                !
 ! A68   A(3,21,33)            109.8663         estimate D2E/DX2                !
 ! A69   A(9,21,19)            107.9348         estimate D2E/DX2                !
 ! A70   A(9,21,33)            106.8275         estimate D2E/DX2                !
 ! A71   A(19,21,33)           111.8489         estimate D2E/DX2                !
 ! A72   A(10,22,15)           108.5741         estimate D2E/DX2                !
 ! A73   A(10,22,34)           107.8075         estimate D2E/DX2                !
 ! A74   A(10,22,35)           108.0673         estimate D2E/DX2                !
 ! A75   A(15,22,34)           111.5662         estimate D2E/DX2                !
 ! A76   A(15,22,35)           111.7922         estimate D2E/DX2                !
 ! A77   A(34,22,35)           108.8928         estimate D2E/DX2                !
 ! A78   A(11,23,20)           108.5656         estimate D2E/DX2                !
 ! A79   A(11,23,36)           107.718          estimate D2E/DX2                !
 ! A80   A(11,23,37)           108.3793         estimate D2E/DX2                !
 ! A81   A(20,23,36)           111.4309         estimate D2E/DX2                !
 ! A82   A(20,23,37)           111.7807         estimate D2E/DX2                !
 ! A83   A(36,23,37)           108.8373         estimate D2E/DX2                !
 ! D1    D(14,1,12,13)         118.7074         estimate D2E/DX2                !
 ! D2    D(14,1,12,15)        -119.8879         estimate D2E/DX2                !
 ! D3    D(14,1,12,24)          -0.6444         estimate D2E/DX2                !
 ! D4    D(12,1,14,2)          -59.1931         estimate D2E/DX2                !
 ! D5    D(12,1,14,16)        -179.6988         estimate D2E/DX2                !
 ! D6    D(12,1,14,26)          60.7453         estimate D2E/DX2                !
 ! D7    D(20,2,14,1)          178.9006         estimate D2E/DX2                !
 ! D8    D(20,2,14,16)         -62.1752         estimate D2E/DX2                !
 ! D9    D(20,2,14,26)          59.8684         estimate D2E/DX2                !
 ! D10   D(14,2,20,18)          63.2061         estimate D2E/DX2                !
 ! D11   D(14,2,20,23)        -174.939          estimate D2E/DX2                !
 ! D12   D(14,2,20,31)         -58.3964         estimate D2E/DX2                !
 ! D13   D(21,3,15,12)          63.2097         estimate D2E/DX2                !
 ! D14   D(21,3,15,22)        -174.9333         estimate D2E/DX2                !
 ! D15   D(21,3,15,27)         -58.2674         estimate D2E/DX2                !
 ! D16   D(15,3,21,9)          178.898          estimate D2E/DX2                !
 ! D17   D(15,3,21,19)         -62.1778         estimate D2E/DX2                !
 ! D18   D(15,3,21,33)          61.7235         estimate D2E/DX2                !
 ! D19   D(38,4,13,12)         -64.6237         estimate D2E/DX2                !
 ! D20   D(38,4,13,19)          56.6086         estimate D2E/DX2                !
 ! D21   D(38,4,13,25)         176.3967         estimate D2E/DX2                !
 ! D22   D(39,5,16,14)         -60.5271         estimate D2E/DX2                !
 ! D23   D(39,5,16,17)          60.9539         estimate D2E/DX2                !
 ! D24   D(39,5,16,28)        -179.7094         estimate D2E/DX2                !
 ! D25   D(40,6,17,16)         179.1589         estimate D2E/DX2                !
 ! D26   D(40,6,17,18)          57.923          estimate D2E/DX2                !
 ! D27   D(40,6,17,29)         -61.3363         estimate D2E/DX2                !
 ! D28   D(41,7,18,17)         -61.8602         estimate D2E/DX2                !
 ! D29   D(41,7,18,20)          59.5494         estimate D2E/DX2                !
 ! D30   D(41,7,18,30)         179.5448         estimate D2E/DX2                !
 ! D31   D(42,8,19,13)         179.5192         estimate D2E/DX2                !
 ! D32   D(42,8,19,21)          58.0453         estimate D2E/DX2                !
 ! D33   D(42,8,19,32)         -61.655          estimate D2E/DX2                !
 ! D34   D(43,9,21,3)           81.6018         estimate D2E/DX2                !
 ! D35   D(43,9,21,19)         -38.9028         estimate D2E/DX2                !
 ! D36   D(43,9,21,33)        -159.3375         estimate D2E/DX2                !
 ! D37   D(44,10,22,15)        -58.4873         estimate D2E/DX2                !
 ! D38   D(44,10,22,34)         62.5252         estimate D2E/DX2                !
 ! D39   D(44,10,22,35)       -179.9252         estimate D2E/DX2                !
 ! D40   D(45,11,23,20)        -56.6085         estimate D2E/DX2                !
 ! D41   D(45,11,23,36)         64.1843         estimate D2E/DX2                !
 ! D42   D(45,11,23,37)       -178.2134         estimate D2E/DX2                !
 ! D43   D(1,12,13,4)          -69.8152         estimate D2E/DX2                !
 ! D44   D(1,12,13,19)         170.0663         estimate D2E/DX2                !
 ! D45   D(1,12,13,25)          46.2159         estimate D2E/DX2                !
 ! D46   D(15,12,13,4)         169.6821         estimate D2E/DX2                !
 ! D47   D(15,12,13,19)         49.5636         estimate D2E/DX2                !
 ! D48   D(15,12,13,25)        -74.2868         estimate D2E/DX2                !
 ! D49   D(24,12,13,4)          51.7944         estimate D2E/DX2                !
 ! D50   D(24,12,13,19)        -68.3241         estimate D2E/DX2                !
 ! D51   D(24,12,13,25)        167.8255         estimate D2E/DX2                !
 ! D52   D(1,12,15,3)         -176.4002         estimate D2E/DX2                !
 ! D53   D(1,12,15,22)          64.2674         estimate D2E/DX2                !
 ! D54   D(1,12,15,27)         -56.3191         estimate D2E/DX2                !
 ! D55   D(13,12,15,3)         -55.8919         estimate D2E/DX2                !
 ! D56   D(13,12,15,22)       -175.2243         estimate D2E/DX2                !
 ! D57   D(13,12,15,27)         64.1892         estimate D2E/DX2                !
 ! D58   D(24,12,15,3)          62.0458         estimate D2E/DX2                !
 ! D59   D(24,12,15,22)        -57.2865         estimate D2E/DX2                !
 ! D60   D(24,12,15,27)       -177.873          estimate D2E/DX2                !
 ! D61   D(4,13,19,8)           72.5438         estimate D2E/DX2                !
 ! D62   D(4,13,19,21)        -167.8551         estimate D2E/DX2                !
 ! D63   D(4,13,19,32)         -44.5445         estimate D2E/DX2                !
 ! D64   D(12,13,19,8)        -168.181          estimate D2E/DX2                !
 ! D65   D(12,13,19,21)        -48.58           estimate D2E/DX2                !
 ! D66   D(12,13,19,32)         74.7306         estimate D2E/DX2                !
 ! D67   D(25,13,19,8)         -44.3609         estimate D2E/DX2                !
 ! D68   D(25,13,19,21)         75.2402         estimate D2E/DX2                !
 ! D69   D(25,13,19,32)       -161.4492         estimate D2E/DX2                !
 ! D70   D(1,14,16,5)          -65.8342         estimate D2E/DX2                !
 ! D71   D(1,14,16,17)         173.8931         estimate D2E/DX2                !
 ! D72   D(1,14,16,28)          50.8842         estimate D2E/DX2                !
 ! D73   D(2,14,16,5)          174.1498         estimate D2E/DX2                !
 ! D74   D(2,14,16,17)          53.8771         estimate D2E/DX2                !
 ! D75   D(2,14,16,28)         -69.1318         estimate D2E/DX2                !
 ! D76   D(26,14,16,5)          52.4296         estimate D2E/DX2                !
 ! D77   D(26,14,16,17)        -67.8431         estimate D2E/DX2                !
 ! D78   D(26,14,16,28)        169.148          estimate D2E/DX2                !
 ! D79   D(3,15,22,10)          58.7898         estimate D2E/DX2                !
 ! D80   D(3,15,22,34)         -59.8778         estimate D2E/DX2                !
 ! D81   D(3,15,22,35)         177.9142         estimate D2E/DX2                !
 ! D82   D(12,15,22,10)        179.5301         estimate D2E/DX2                !
 ! D83   D(12,15,22,34)         60.8626         estimate D2E/DX2                !
 ! D84   D(12,15,22,35)        -61.3454         estimate D2E/DX2                !
 ! D85   D(27,15,22,10)        -58.2293         estimate D2E/DX2                !
 ! D86   D(27,15,22,34)       -176.8969         estimate D2E/DX2                !
 ! D87   D(27,15,22,35)         60.8951         estimate D2E/DX2                !
 ! D88   D(5,16,17,6)           72.5438         estimate D2E/DX2                !
 ! D89   D(5,16,17,18)        -168.1774         estimate D2E/DX2                !
 ! D90   D(5,16,17,29)         -44.353          estimate D2E/DX2                !
 ! D91   D(14,16,17,6)        -167.8535         estimate D2E/DX2                !
 ! D92   D(14,16,17,18)        -48.5747         estimate D2E/DX2                !
 ! D93   D(14,16,17,29)         75.2497         estimate D2E/DX2                !
 ! D94   D(28,16,17,6)         -44.6256         estimate D2E/DX2                !
 ! D95   D(28,16,17,18)         74.6532         estimate D2E/DX2                !
 ! D96   D(28,16,17,29)       -161.5225         estimate D2E/DX2                !
 ! D97   D(6,17,18,7)          -69.8084         estimate D2E/DX2                !
 ! D98   D(6,17,18,20)         169.6861         estimate D2E/DX2                !
 ! D99   D(6,17,18,30)          47.5289         estimate D2E/DX2                !
 ! D100  D(16,17,18,7)         170.0615         estimate D2E/DX2                !
 ! D101  D(16,17,18,20)         49.556          estimate D2E/DX2                !
 ! D102  D(16,17,18,30)        -72.6012         estimate D2E/DX2                !
 ! D103  D(29,17,18,7)          46.4838         estimate D2E/DX2                !
 ! D104  D(29,17,18,20)        -74.0217         estimate D2E/DX2                !
 ! D105  D(29,17,18,30)        163.8211         estimate D2E/DX2                !
 ! D106  D(7,18,20,2)         -176.4027         estimate D2E/DX2                !
 ! D107  D(7,18,20,23)          64.2659         estimate D2E/DX2                !
 ! D108  D(7,18,20,31)         -56.3595         estimate D2E/DX2                !
 ! D109  D(17,18,20,2)         -55.8901         estimate D2E/DX2                !
 ! D110  D(17,18,20,23)       -175.2215         estimate D2E/DX2                !
 ! D111  D(17,18,20,31)         64.1532         estimate D2E/DX2                !
 ! D112  D(30,18,20,2)          65.5775         estimate D2E/DX2                !
 ! D113  D(30,18,20,23)        -53.7539         estimate D2E/DX2                !
 ! D114  D(30,18,20,31)       -174.3793         estimate D2E/DX2                !
 ! D115  D(8,19,21,3)          174.151          estimate D2E/DX2                !
 ! D116  D(8,19,21,9)          -65.8339         estimate D2E/DX2                !
 ! D117  D(8,19,21,33)          51.3986         estimate D2E/DX2                !
 ! D118  D(13,19,21,3)          53.8805         estimate D2E/DX2                !
 ! D119  D(13,19,21,9)         173.8956         estimate D2E/DX2                !
 ! D120  D(13,19,21,33)        -68.872          estimate D2E/DX2                !
 ! D121  D(32,19,21,3)         -68.7123         estimate D2E/DX2                !
 ! D122  D(32,19,21,9)          51.3028         estimate D2E/DX2                !
 ! D123  D(32,19,21,33)        168.5352         estimate D2E/DX2                !
 ! D124  D(2,20,23,11)          58.7913         estimate D2E/DX2                !
 ! D125  D(2,20,23,36)         -59.6801         estimate D2E/DX2                !
 ! D126  D(2,20,23,37)         178.2892         estimate D2E/DX2                !
 ! D127  D(18,20,23,11)        179.5303         estimate D2E/DX2                !
 ! D128  D(18,20,23,36)         61.059          estimate D2E/DX2                !
 ! D129  D(18,20,23,37)        -60.9717         estimate D2E/DX2                !
 ! D130  D(31,20,23,11)        -58.0675         estimate D2E/DX2                !
 ! D131  D(31,20,23,36)       -176.5389         estimate D2E/DX2                !
 ! D132  D(31,20,23,37)         61.4304         estimate D2E/DX2                !
 --------------------------------------------------------------------------------
 Trust Radius=3.00D-01 FncErr=1.00D-07 GrdErr=1.00D-06 EigMax=2.50D+02 EigMin=1.00D-04
 Number of steps in this run=    270 maximum allowed number of steps=    270.
 GradGradGradGradGradGradGradGradGradGradGradGradGradGradGradGradGradGrad

                          Input orientation:                          
 ---------------------------------------------------------------------
 Center     Atomic      Atomic             Coordinates (Angstroms)
 Number     Number       Type             X           Y           Z
 ---------------------------------------------------------------------
      1          8           0       -0.101400    0.834000    0.815800
      2          8           0        1.353500   -0.775500   -0.042800
      3          8           0       -3.389300    0.719200   -0.793500
      4          8           0       -0.915000   -1.919600    1.151100
      5          8           0        2.027100    2.698000    0.869000
      6          8           0        4.643000    1.372500    1.153900
      7          8           0        4.933800   -0.726200   -0.812500
      8          8           0       -3.836300   -2.098200    1.489500
      9          8           0       -5.222700   -0.702100   -0.544400
     10          8           0       -2.675200    3.282600   -1.483300
     11          8           0        1.465000   -2.997900   -1.656700
     12          6           0       -1.209900    0.234500    0.150200
     13          6           0       -1.830800   -0.827200    1.058100
     14          6           0        1.112400    0.622900    0.095300
     15          6           0       -2.234600    1.315900   -0.200400
     16          6           0        2.245500    1.287400    0.877100
     17          6           0        3.606700    0.981000    0.252200
     18          6           0        3.763200   -0.513700   -0.027800
     19          6           0       -3.162300   -1.325900    0.496200
     20          6           0        2.545100   -1.056000   -0.779300
     21          6           0       -4.069000   -0.161200    0.098300
     22          6           0       -1.673300    2.323300   -1.198900
     23          6           0        2.624500   -2.567800   -0.967200
     24          1           0       -0.903900   -0.256700   -0.785800
     25          1           0       -1.955800   -0.443800    2.077500
     26          1           0        1.010500    1.083400   -0.896700
     27          1           0       -2.547100    1.865500    0.698000
     28          1           0        2.229200    0.970200    1.926600
     29          1           0        3.752700    1.569800   -0.661800
     30          1           0        3.901700   -1.049300    0.919400
     31          1           0        2.456800   -0.595000   -1.772600
     32          1           0       -2.979000   -1.991000   -0.357000
     33          1           0       -4.424800    0.396000    0.972700
     34          1           0       -1.393100    1.842100   -2.141800
     35          1           0       -0.803100    2.850400   -0.798100
     36          1           0        2.652800   -3.089600   -0.005000
     37          1           0        3.501500   -2.858500   -1.552500
     38          1           0       -0.829300   -2.316600    0.268200
     39          1           0        2.033400    2.998800   -0.055700
     40          1           0        5.492400    1.152800    0.734100
     41          1           0        4.817000   -0.260500   -1.658200
     42          1           0       -4.679900   -2.393800    1.106600
     43          1           0       -4.944200   -1.446800   -1.103100
     44          1           0       -3.445700    2.806800   -1.837900
     45          1           0        0.691900   -2.709900   -1.143100
 ---------------------------------------------------------------------
                    Distance matrix (angstroms):
                    1          2          3          4          5
     1  O    0.000000
     2  O    2.333328   0.000000
     3  O    3.662419   5.029098   0.000000
     4  O    2.890793   2.807215   4.106933   0.000000
     5  O    2.829812   3.653809   6.001412   5.482496   0.000000
     6  O    4.786818   4.106922   8.290779   6.459822   2.946362
     7  O    5.517139   3.662433   8.447694   6.283979   4.795987
     8  O    4.795951   5.570593   3.653716   2.946253   7.600527
     9  O    5.517016   6.595710   2.333131   4.786784   8.131296
    10  O    4.231542   5.896918   2.748960   6.091080   5.290246
    11  O    4.821859   2.748848   6.174640   3.835475   6.256069
    12  C    1.425200   2.761950   2.423899   2.393515   4.130820
    13  C    2.410211   3.369632   2.872055   1.428522   5.229358
    14  C    1.427233   1.425736   4.589612   3.418972   2.396107
    15  C    2.411521   4.156110   1.428688   3.746513   4.606072
    16  C    2.391081   2.428464   5.904636   4.510952   1.427430
    17  C    3.753566   2.872147   7.078562   5.446767   2.413228
    18  C    4.178886   2.423926   7.298260   5.025128   3.759430
    19  C    3.759843   4.581038   2.428433   2.414898   6.577281
    20  C    3.622210   1.428644   6.194242   4.055187   4.132521
    21  C    4.152960   5.459009   1.425624   3.761393   6.777274
    22  C    2.957685   4.483374   2.383724   4.909146   4.255534
    23  C    4.709763   2.383757   6.855679   4.175574   5.608669
    24  H    2.097321   2.432500   2.670141   2.552830   4.478769
    25  H    2.581368   3.944257   3.413229   2.029647   5.214870
    26  H    2.056983   2.074199   4.416054   4.113277   2.599636
    27  H    2.656938   4.768474   2.061038   4.146810   4.652484
    28  H    2.585367   2.773600   6.247358   4.340315   2.035843
    29  H    4.192707   3.411708   7.193680   6.103273   2.567855
    30  H    4.425196   2.737539   7.695473   4.900174   4.190337
    31  H    3.909762   2.059626   6.071461   4.655279   4.243412
    32  H    4.199603   4.510734   2.775619   2.557256   6.967843
    33  H    4.348362   5.982675   2.072723   4.208625   6.851056
    34  H    3.381147   4.336063   2.657749   5.022167   4.636297
    35  H    2.676364   4.285855   3.351189   5.154105   3.288234
    36  H    4.863534   2.654179   7.185796   3.928698   5.886569
    37  H    5.676644   3.351416   7.801227   5.262742   6.237965
    38  H    3.279632   2.690042   4.110583   0.971836   5.802258
    39  H    3.162790   3.835071   5.928457   5.860042   0.972415
    40  H    5.603473   4.631674   9.022537   7.118167   3.796597
    41  H    5.613311   3.856238   8.309686   6.595499   4.787797
    42  H    5.609449   6.351530   3.868695   3.794907   8.424175
    43  H    5.686558   6.421519   2.684236   4.641057   8.346710
    44  H    4.703021   6.252006   2.334957   6.138194   6.106610
    45  H    4.126238   2.321697   5.342017   2.910336   5.922558
                    6          7          8          9         10
     6  O    0.000000
     7  O    2.890646   0.000000
     8  O    9.168256   9.170400   0.000000
     9  O   10.223513  10.160066   2.829832   0.000000
    10  O    8.009954   8.626548   6.256093   4.821734   0.000000
    11  O    6.090940   4.231533   6.229913   7.157740   7.524361
    12  C    6.046395   6.292439   3.759414   4.178786   3.755841
    13  C    6.837978   7.019199   2.413209   3.753484   4.905322
    14  C    3.761339   4.152983   5.817028   6.503717   4.889979
    15  C    7.009901   7.478690   4.132467   3.622071   2.389115
    16  C    2.414926   3.759826   6.987533   7.858294   5.810817
    17  C    1.428374   2.410252   8.149272   9.023619   6.911700
    18  C    2.393369   1.425207   7.909819   9.002709   7.614681
    19  C    8.284723   8.223088   1.427364   2.391072   5.039242
    20  C    3.746473   2.411588   6.852438   7.779405   6.824265
    21  C    8.908730   9.066377   2.396154   1.427116   4.037808
    22  C    6.807006   7.287148   5.608540   4.709528   1.415960
    23  C    4.909111   2.957751   6.928047   8.077013   7.910775
    24  H    6.097936   5.856610   4.143318   4.348412   4.018788
    25  H    6.906240   7.476526   2.572754   4.196870   5.204122
    26  H    4.181339   4.321345   6.269609   6.493451   4.331855
    27  H    7.221387   8.059925   4.242573   3.910878   2.604352
    28  H    2.566192   4.206579   6.811492   8.027032   6.405291
    29  H    2.031829   2.586373   8.699151   9.259218   6.702719
    30  H    2.543547   2.041838   7.829550   9.247591   8.233707
    31  H    4.149088   2.659800   7.245965   7.777832   6.438703
    32  H    8.467044   8.026182   2.038631   2.594335   5.401084
    33  H    9.122027   9.593209   2.614278   2.035697   4.174386
    34  H    6.893233   6.956498   5.889103   4.867286   2.037754
    35  H    5.971139   6.760495   6.238755   5.676045   2.039866
    36  H    5.021382   3.382407   6.732371   8.247097   8.436699
    37  H    5.150629   2.673160   7.979670   9.043119   8.710311
    38  H    6.658828   6.075410   3.252894   4.750673   6.150296
    39  H    3.304239   4.781286   7.925934   8.160054   4.928438
    40  H    0.972615   2.496927   9.907789  10.949365   8.727119
    41  H    3.256512   0.972485   9.389609  10.110941   8.289584
    42  H   10.055034   9.944197   0.972447   2.425342   6.553466
    43  H   10.244848   9.908511   2.893672   0.971744   5.259291
    44  H    8.742720   9.151478   5.939965   4.140441   0.972521
    45  H    6.128082   4.694473   5.273458   6.274727   6.882089
                   11         12         13         14         15
    11  O    0.000000
    12  C    4.568193   0.000000
    13  C    4.790029   1.528727   0.000000
    14  C    4.037824   2.355196   3.419386   0.000000
    15  C    5.866577   1.530476   2.517887   3.430757   0.000000
    16  C    5.039159   3.684667   4.595706   1.528623   4.607940
    17  C    4.905346   4.875172   5.786663   2.524755   5.868372
    18  C    3.755834   5.032217   5.707039   2.886824   6.273024
    19  C    5.370518   2.523179   1.528831   4.715040   2.885305
    20  C    2.389021   4.077914   4.751514   2.374081   5.367175
    21  C    6.461582   2.886819   2.524740   5.240394   2.374041
    22  C    6.194649   2.529406   3.878725   3.510903   1.525423
    23  C    1.415922   4.878944   5.194346   3.687264   6.267532
    24  H    3.726168   1.100459   2.141163   2.369704   2.141618
    25  H    5.671821   2.175073   1.096265   3.805367   2.891903
    26  H    4.176264   2.597462   3.942667   1.098412   3.327095
    27  H    6.730098   2.179071   2.809518   3.911425   1.098562
    28  H    5.400913   3.940084   4.524217   2.172906   4.956728
    29  H    5.204544   5.202862   6.314993   2.905341   6.010417
    30  H    4.046089   5.326187   5.738477   3.354935   6.671004
    31  H    2.602120   4.222549   5.142985   2.603794   5.304016
    32  H    4.738376   2.887874   2.162245   4.876126   3.393264
    33  H    7.288487   3.322374   2.869207   5.610873   2.649407
    34  H    5.641778   2.805567   4.190000   3.573317   2.180377
    35  H    6.331199   2.812062   4.245749   3.070677   2.182001
    36  H    2.036514   5.098449   5.133352   4.020640   6.582803
    37  H    2.043923   5.887540   6.274937   4.532460   7.221955
    38  H    3.071355   2.582032   1.960933   3.527145   3.922947
    39  H    6.232711   4.266467   5.550754   2.552634   4.590089
    40  H    6.258130   6.790069   7.593065   4.457943   7.785013
    41  H    4.327732   6.311803   7.203657   4.192758   7.371247
    42  H    6.764655   4.456856   3.251762   6.608627   4.631373
    43  H    6.617419   4.282818   3.840306   6.511699   3.973577
    44  H    7.605416   3.945639   4.919418   5.411373   2.524075
    45  H    0.971809   3.736169   3.841075   3.580225   5.065585
                   16         17         18         19         20
    16  C    0.000000
    17  C    1.528806   0.000000
    18  C    2.523137   1.528732   0.000000
    19  C    6.018199   7.155465   6.992624   0.000000
    20  C    2.885298   2.518006   1.530558   5.854414   0.000000
    21  C    6.525173   7.761744   7.841142   1.528710   6.731803
    22  C    4.554103   5.637895   6.243042   4.290355   5.421313
    23  C    4.290414   3.878870   2.529513   6.096795   1.525500
    24  H    3.881778   4.791123   4.735233   2.808395   3.540413
    25  H    4.699887   6.025212   6.094599   2.175834   5.366022
    26  H    2.170992   2.840900   3.298950   5.015691   2.635491
    27  H    4.830662   6.233003   6.782865   3.256413   6.053766
    28  H    1.096509   2.168234   2.893924   6.032113   3.395169
    29  H    2.172467   1.096995   2.177852   7.585728   2.892565
    30  H    2.864429   2.157382   1.096922   7.082069   2.173934
    31  H    3.257144   2.811736   2.181196   6.103765   1.098619
    32  H    6.290176   7.250886   6.909996   1.097227   5.618562
    33  H    6.730278   8.084945   8.298909   2.187670   7.331938
    34  H    4.760342   5.609878   6.050307   4.486127   5.075905
    35  H    3.813558   4.903481   5.723777   4.968150   5.144974
    36  H    4.483539   4.188778   2.805133   6.097313   2.178685
    37  H    4.966788   4.243792   2.809143   7.138086   2.182097
    38  H    4.776397   5.527433   4.942582   2.544869   3.751392
    39  H    1.960610   2.577129   3.915436   6.782545   4.150522
    40  H    3.252833   1.953870   2.519493   9.005797   3.981928
    41  H    3.928912   2.579879   1.957756   8.333411   2.562580
    42  H    7.846341   8.988160   8.723966   1.953486   7.585971
    43  H    7.942848   8.991604   8.823024   2.397404   7.506476
    44  H    6.486105   7.578813   8.140665   4.754739   7.206354
    45  H    4.740600   4.905677   3.937013   4.411079   2.510396
                   21         22         23         24         25
    21  C    0.000000
    22  C    3.687119   0.000000
    23  C    7.192354   6.515184   0.000000
    24  H    3.287645   2.723789   4.221812   0.000000
    25  H    2.909074   4.297842   5.895822   3.056139   0.000000
    26  H    5.323568   2.971777   3.992647   2.339465   4.469580
    27  H    2.604483   2.138068   7.012310   3.066839   2.754183
    28  H    6.655079   5.179685   4.587786   4.321888   4.419999
    29  H    8.046931   5.504336   4.299516   5.003539   6.644195
    30  H    8.061947   6.851442   2.737945   5.160399   6.001511
    31  H    6.802537   5.089532   2.137459   3.518881   5.858086
    32  H    2.177973   4.585502   5.666062   2.738194   3.060646
    33  H    1.096194   4.000136   7.889230   3.989370   2.832280
    34  H    4.023891   1.095046   6.080133   2.546176   4.831611
    35  H    4.532038   1.093491   6.413574   3.108759   4.522117
    36  H    7.332721   7.031360   1.094945   4.613576   5.707561
    37  H    8.204452   7.331756   1.093715   5.173465   6.984970
    38  H    3.894903   4.938967   3.676690   2.315096   2.837243
    39  H    6.873762   3.937364   5.671619   4.445116   5.684695
    40  H    9.672187   7.513575   4.996212   6.723797   7.734956
    41  H    9.058485   7.000784   3.257019   5.787037   7.736916
    42  H    2.524752   6.050290   7.595076   4.733556   3.487960
    43  H    1.965224   4.992156   7.652472   4.223866   4.478031
    44  H    3.598110   1.945121   8.154249   4.117365   5.302505
    45  H    5.541039   5.561509   1.945784   2.948293   4.745291
                   26         27         28         29         30
    26  H    0.000000
    27  H    3.976338   0.000000
    28  H    3.077185   5.012391   0.000000
    29  H    2.794892   6.451664   3.062742   0.000000
    30  H    4.025626   7.080402   2.808930   3.063018   0.000000
    31  H    2.382438   6.098929   4.023150   2.756736   3.088849
    32  H    5.065503   4.021462   6.411621   7.621547   7.061163
    33  H    5.788753   2.400135   6.746506   8.421455   8.451174
    34  H    2.811262   3.065408   5.516624   5.361325   6.765061
    35  H    2.534000   2.499976   4.489319   4.734324   6.347646
    36  H    4.572331   7.217076   4.515805   4.832305   2.564584
    37  H    4.708899   7.997905   5.327460   4.523968   3.089281
    38  H    4.037556   4.541533   4.786206   6.079780   4.940898
    39  H    2.328597   4.778432   2.843074   2.316331   4.563823
    40  H    4.769880   8.071109   3.479062   2.269137   2.722849
    41  H    4.107967   8.018823   4.589349   2.339988   2.846753
    42  H    6.963102   4.780944   7.728167   9.483992   8.688301
    43  H    6.473250   4.467816   8.153443   9.215785   9.082866
    44  H    4.869670   2.850319   7.053301   7.397996   8.743941
    45  H    3.814622   5.900428   5.032841   5.283557   4.161047
                   31         32         33         34         35
    31  H    0.000000
    32  H    5.787976   0.000000
    33  H    7.474970   3.091312   0.000000
    34  H    4.571378   4.515888   4.580668   0.000000
    35  H    4.842249   5.326187   4.719801   1.780533   0.000000
    36  H    3.063634   5.748739   7.949700   6.727324   6.917792
    37  H    2.502653   6.646703   8.932784   6.811756   7.189592
    38  H    4.234055   2.262322   4.558743   4.839500   5.275943
    39  H    4.005298   7.079056   7.038503   4.175005   2.935798
    40  H    4.307345   9.101571   9.948896   7.493734   6.697970
    41  H    2.386529   8.091067   9.631381   6.574202   6.480972
    42  H    7.903035   2.279788   2.804637   6.268812   6.794048
    43  H    7.479879   2.171366   2.823939   4.950361   5.975589
    44  H    6.812930   5.042793   3.830152   2.288267   2.840144
    45  H    2.825587   3.822339   6.348531   5.105422   5.768101
                   36         37         38         39         40
    36  H    0.000000
    37  H    1.780015   0.000000
    38  H    3.577316   4.729105   0.000000
    39  H    6.120036   6.221229   6.045944   0.000000
    40  H    5.158251   5.028196   7.226181   3.999523   0.000000
    41  H    3.926912   2.913986   6.310251   4.575967   2.859490
    42  H    7.449046   8.615223   3.941573   8.689043  10.779277
    43  H    7.849779   8.574655   4.423733   8.339503  10.911271
    44  H    8.678638   8.968872   6.126209   5.764862   9.446721
    45  H    2.298820   2.843157   2.111990   5.964169   6.441206
                   41         42         43         44         45
    41  H    0.000000
    42  H   10.118607   0.000000
    43  H    9.848679   2.418561   0.000000
    44  H    8.815488   6.102423   4.569305   0.000000
    45  H    4.825074   5.832436   5.776041   6.930834   0.000000
 Stoichiometry    C12H22O11
 Framework group  C1[X(C12H22O11)]
 Deg. of freedom   129
 Full point group                 C1      NOp   1
 Largest Abelian subgroup         C1      NOp   1
 Largest concise Abelian subgroup C1      NOp   1
                         Standard orientation:                         
 ---------------------------------------------------------------------
 Center     Atomic      Atomic             Coordinates (Angstroms)
 Number     Number       Type             X           Y           Z
 ---------------------------------------------------------------------
      1          8           0        0.095454    0.841031   -0.855009
      2          8           0       -1.345015   -0.774638    0.016243
      3          8           0        3.382146    0.772463    0.759384
      4          8           0        0.936007   -1.907496   -1.164445
      5          8           0       -2.050840    2.683849   -0.927685
      6          8           0       -4.653458    1.330654   -1.203903
      7          8           0       -4.926653   -0.752963    0.780975
      8          8           0        3.859344   -2.060936   -1.497555
      9          8           0        5.229493   -0.633263    0.525411
     10          8           0        2.642446    3.334959    1.425145
     11          8           0       -1.437253   -2.983387    1.649976
     12          6           0        1.208787    0.258275   -0.182640
     13          6           0        1.841109   -0.805516   -1.080150
     14          6           0       -1.117220    0.624724   -0.134158
     15          6           0        2.222545    1.352626    0.159480
     16          6           0       -2.255623    1.271191   -0.923339
     17          6           0       -3.614643    0.957308   -0.297410
     18          6           0       -3.757104   -0.536250   -0.004140
     19          6           0        3.176599   -1.286263   -0.512106
     20          6           0       -2.534843   -1.059981    0.753747
     21          6           0        4.071496   -0.109332   -0.123587
     22          6           0        1.650222    2.363513    1.148150
     23          6           0       -2.599919   -2.570723    0.955172
     24          1           0        0.906281   -0.227407    0.757366
     25          1           0        1.963775   -0.430123   -2.102808
     26          1           0       -1.021094    1.095100    0.853776
     27          1           0        2.530938    1.897105   -0.743447
     28          1           0       -2.234858    0.944726   -1.969915
     29          1           0       -3.767538    1.552878    0.611060
     30          1           0       -3.889164   -1.081669   -0.946645
     31          1           0       -2.452323   -0.589225    1.742960
     32          1           0        2.998574   -1.945392    0.346826
     33          1           0        4.423082    0.443380   -1.002529
     34          1           0        1.373409    1.888141    2.094999
     35          1           0        0.775520    2.878560    0.741522
     36          1           0       -2.621898   -3.101415   -0.002319
     37          1           0       -3.474861   -2.864591    1.541968
     38          1           0        0.852953   -2.297339   -0.278109
     39          1           0       -2.061280    2.992888   -0.005744
     40          1           0       -5.501263    1.106556   -0.783205
     41          1           0       -4.815482   -0.278561    1.622587
     42          1           0        4.705240   -2.344921   -1.110947
     43          1           0        4.957435   -1.375555    1.090453
     44          1           0        3.417020    2.869829    1.784988
     45          1           0       -0.666277   -2.692576    1.134770
 ---------------------------------------------------------------------
 Rotational constants (GHZ):           0.3981400           0.1485374           0.1242434
 Standard basis: 6-311++G(d,p) (5D, 7F)
 There are   683 symmetry adapted cartesian basis functions of A   symmetry.
 There are   660 symmetry adapted basis functions of A   symmetry.
   660 basis functions,  1026 primitive gaussians,   683 cartesian basis functions
    91 alpha electrons       91 beta electrons
       nuclear repulsion energy      2305.0948738470 Hartrees.
 NAtoms=   45 NActive=   45 NUniq=   45 SFac= 1.00D+00 NAtFMM=   60 NAOKFM=F Big=F
 Integral buffers will be    131072 words long.
 Raffenetti 2 integral format.
 Two-electron integral symmetry is turned on.
 R6APFD:  NTU= -4 IXU= 1 FactS= 1.050
 Nuclear repulsion after empirical dispersion term =     2305.0406032548 Hartrees.
 One-electron integrals computed using PRISM.
 NBasis=   660 RedAO= T EigKep=  1.69D-06  NBF=   660
 NBsUse=   660 1.00D-06 EigRej= -1.00D+00 NBFU=   660
 ExpMin= 3.60D-02 ExpMax= 8.59D+03 ExpMxC= 1.30D+03 IAcc=3 IRadAn=         5 AccDes= 0.00D+00
 Harris functional with IExCor= 1009 and IRadAn=       5 diagonalized for initial guess.
 HarFok:  IExCor= 1009 AccDes= 0.00D+00 IRadAn=         5 IDoV= 1 UseB2=F ITyADJ=14
 ICtDFT=  3500011 ScaDFX=  1.000000  1.000000  1.000000  1.000000
 FoFCou: FMM=F IPFlag=           0 FMFlag=      100000 FMFlg1=           0
         NFxFlg=           0 DoJE=T BraDBF=F KetDBF=T FulRan=T
         wScrn=  0.000000 ICntrl=       500 IOpCl=  0 I1Cent=   200000004 NGrid=           0
         NMat0=    1 NMatS0=      1 NMatT0=    0 NMatD0=    1 NMtDS0=    0 NMtDT0=    0
 Petite list used in FoFCou.
 Requested convergence on RMS density matrix=1.00D-08 within  32 cycles.
 Requested convergence on MAX density matrix=1.00D-06.
 Requested convergence on             energy=1.00D-06.
 No special actions if energy rises.
 SCF Done:  E(RM08HX) =  -1297.91964506     A.U. after   14 cycles
            NFock= 14  Conv=0.50D-08     -V/T= 2.0040
 QCSCF skips out because SCF is already converged.

 **********************************************************************

            Population analysis using the SCF Density.

 **********************************************************************

 Orbital symmetries:
       Occupied  (A) (A) (A) (A) (A) (A) (A) (A) (A) (A) (A) (A)
                 (A) (A) (A) (A) (A) (A) (A) (A) (A) (A) (A) (A)
                 (A) (A) (A) (A) (A) (A) (A) (A) (A) (A) (A) (A)
                 (A) (A) (A) (A) (A) (A) (A) (A) (A) (A) (A) (A)
                 (A) (A) (A) (A) (A) (A) (A) (A) (A) (A) (A) (A)
                 (A) (A) (A) (A) (A) (A) (A) (A) (A) (A) (A) (A)
                 (A) (A) (A) (A) (A) (A) (A) (A) (A) (A) (A) (A)
                 (A) (A) (A) (A) (A) (A) (A)
       Virtual   (A) (A) (A) (A) (A) (A) (A) (A) (A) (A) (A) (A)
                 (A) (A) (A) (A) (A) (A) (A) (A) (A) (A) (A) (A)
                 (A) (A) (A) (A) (A) (A) (A) (A) (A) (A) (A) (A)
                 (A) (A) (A) (A) (A) (A) (A) (A) (A) (A) (A) (A)
                 (A) (A) (A) (A) (A) (A) (A) (A) (A) (A) (A) (A)
                 (A) (A) (A) (A) (A) (A) (A) (A) (A) (A) (A) (A)
                 (A) (A) (A) (A) (A) (A) (A) (A) (A) (A) (A) (A)
                 (A) (A) (A) (A) (A) (A) (A) (A) (A) (A) (A) (A)
                 (A) (A) (A) (A) (A) (A) (A) (A) (A) (A) (A) (A)
                 (A) (A) (A) (A) (A) (A) (A) (A) (A) (A) (A) (A)
                 (A) (A) (A) (A) (A) (A) (A) (A) (A) (A) (A) (A)
                 (A) (A) (A) (A) (A) (A) (A) (A) (A) (A) (A) (A)
                 (A) (A) (A) (A) (A) (A) (A) (A) (A) (A) (A) (A)
                 (A) (A) (A) (A) (A) (A) (A) (A) (A) (A) (A) (A)
                 (A) (A) (A) (A) (A) (A) (A) (A) (A) (A) (A) (A)
                 (A) (A) (A) (A) (A) (A) (A) (A) (A) (A) (A) (A)
                 (A) (A) (A) (A) (A) (A) (A) (A) (A) (A) (A) (A)
                 (A) (A) (A) (A) (A) (A) (A) (A) (A) (A) (A) (A)
                 (A) (A) (A) (A) (A) (A) (A) (A) (A) (A) (A) (A)
                 (A) (A) (A) (A) (A) (A) (A) (A) (A) (A) (A) (A)
                 (A) (A) (A) (A) (A) (A) (A) (A) (A) (A) (A) (A)
                 (A) (A) (A) (A) (A) (A) (A) (A) (A) (A) (A) (A)
                 (A) (A) (A) (A) (A) (A) (A) (A) (A) (A) (A) (A)
                 (A) (A) (A) (A) (A) (A) (A) (A) (A) (A) (A) (A)
                 (A) (A) (A) (A) (A) (A) (A) (A) (A) (A) (A) (A)
                 (A) (A) (A) (A) (A) (A) (A) (A) (A) (A) (A) (A)
                 (A) (A) (A) (A) (A) (A) (A) (A) (A) (A) (A) (A)
                 (A) (A) (A) (A) (A) (A) (A) (A) (A) (A) (A) (A)
                 (A) (A) (A) (A) (A) (A) (A) (A) (A) (A) (A) (A)
                 (A) (A) (A) (A) (A) (A) (A) (A) (A) (A) (A) (A)
                 (A) (A) (A) (A) (A) (A) (A) (A) (A) (A) (A) (A)
                 (A) (A) (A) (A) (A) (A) (A) (A) (A) (A) (A) (A)
                 (A) (A) (A) (A) (A) (A) (A) (A) (A) (A) (A) (A)
                 (A) (A) (A) (A) (A) (A) (A) (A) (A) (A) (A) (A)
                 (A) (A) (A) (A) (A) (A) (A) (A) (A) (A) (A) (A)
                 (A) (A) (A) (A) (A) (A) (A) (A) (A) (A) (A) (A)
                 (A) (A) (A) (A) (A) (A) (A) (A) (A) (A) (A) (A)
                 (A) (A) (A) (A) (A) (A) (A) (A) (A) (A) (A) (A)
                 (A) (A) (A) (A) (A) (A) (A) (A) (A) (A) (A) (A)
                 (A) (A) (A) (A) (A) (A) (A) (A) (A) (A) (A) (A)
                 (A) (A) (A) (A) (A) (A) (A) (A) (A) (A) (A) (A)
                 (A) (A) (A) (A) (A) (A) (A) (A) (A) (A) (A) (A)
                 (A) (A) (A) (A) (A) (A) (A) (A) (A) (A) (A) (A)
                 (A) (A) (A) (A) (A) (A) (A) (A) (A) (A) (A) (A)
                 (A) (A) (A) (A) (A) (A) (A) (A) (A) (A) (A) (A)
                 (A) (A) (A) (A) (A) (A) (A) (A) (A) (A) (A) (A)
                 (A) (A) (A) (A) (A) (A) (A) (A) (A) (A) (A) (A)
                 (A) (A) (A) (A) (A)
 The electronic state is 1-A.
 Alpha  occ. eigenvalues --  -19.65704 -19.65444 -19.65051 -19.64975 -19.64871
 Alpha  occ. eigenvalues --  -19.63243 -19.62913 -19.62711 -19.62698 -19.62345
 Alpha  occ. eigenvalues --  -19.61501 -10.67202 -10.66383 -10.61793 -10.61608
 Alpha  occ. eigenvalues --  -10.61439 -10.61417 -10.61372 -10.61155 -10.60900
 Alpha  occ. eigenvalues --  -10.60879 -10.59677 -10.59391  -1.23507  -1.22314
 Alpha  occ. eigenvalues --   -1.19122  -1.17801  -1.17439  -1.16824  -1.16128
 Alpha  occ. eigenvalues --   -1.15417  -1.14996  -1.14768  -1.14223  -0.92965
 Alpha  occ. eigenvalues --   -0.91457  -0.89659  -0.88870  -0.82022  -0.80047
 Alpha  occ. eigenvalues --   -0.77588  -0.75250  -0.73942  -0.73650  -0.72227
 Alpha  occ. eigenvalues --   -0.71053  -0.65324  -0.64482  -0.64144  -0.63553
 Alpha  occ. eigenvalues --   -0.62399  -0.62106  -0.61211  -0.60902  -0.60275
 Alpha  occ. eigenvalues --   -0.59493  -0.57968  -0.57251  -0.57187  -0.55253
 Alpha  occ. eigenvalues --   -0.54719  -0.53872  -0.52788  -0.52418  -0.51646
 Alpha  occ. eigenvalues --   -0.51612  -0.50722  -0.49772  -0.48264  -0.47994
 Alpha  occ. eigenvalues --   -0.47446  -0.47273  -0.45981  -0.45498  -0.44987
 Alpha  occ. eigenvalues --   -0.44544  -0.43336  -0.43215  -0.42608  -0.42277
 Alpha  occ. eigenvalues --   -0.41943  -0.40956  -0.40013  -0.39245  -0.38859
 Alpha  occ. eigenvalues --   -0.37719  -0.37134  -0.36544  -0.35868  -0.35233
 Alpha  occ. eigenvalues --   -0.34611
 Alpha virt. eigenvalues --   -0.05343  -0.04857  -0.03190  -0.03037  -0.02168
 Alpha virt. eigenvalues --   -0.01946  -0.01559  -0.00874  -0.00331   0.00112
 Alpha virt. eigenvalues --    0.00468   0.00821   0.01468   0.01831   0.02499
 Alpha virt. eigenvalues --    0.02792   0.02923   0.03710   0.03877   0.04083
 Alpha virt. eigenvalues --    0.04676   0.05238   0.05833   0.05888   0.06516
 Alpha virt. eigenvalues --    0.06833   0.07174   0.07640   0.07813   0.07879
 Alpha virt. eigenvalues --    0.08166   0.08661   0.08779   0.09332   0.09415
 Alpha virt. eigenvalues --    0.10001   0.10099   0.10327   0.10603   0.10720
 Alpha virt. eigenvalues --    0.11079   0.11327   0.11701   0.11975   0.12221
 Alpha virt. eigenvalues --    0.12301   0.12391   0.12779   0.13009   0.13314
 Alpha virt. eigenvalues --    0.13463   0.13907   0.14138   0.14305   0.14476
 Alpha virt. eigenvalues --    0.14695   0.14882   0.15293   0.15624   0.15698
 Alpha virt. eigenvalues --    0.16338   0.16629   0.17063   0.17235   0.17670
 Alpha virt. eigenvalues --    0.18056   0.18445   0.18518   0.18925   0.19671
 Alpha virt. eigenvalues --    0.19726   0.19967   0.20304   0.20424   0.20644
 Alpha virt. eigenvalues --    0.21158   0.21525   0.21661   0.22091   0.22491
 Alpha virt. eigenvalues --    0.22741   0.22995   0.23257   0.23950   0.24376
 Alpha virt. eigenvalues --    0.24485   0.25308   0.25526   0.25686   0.26169
 Alpha virt. eigenvalues --    0.26319   0.26911   0.27094   0.27197   0.27608
 Alpha virt. eigenvalues --    0.27787   0.27998   0.28240   0.28476   0.29024
 Alpha virt. eigenvalues --    0.29463   0.29663   0.29940   0.30287   0.30486
 Alpha virt. eigenvalues --    0.30770   0.31063   0.31231   0.31464   0.31622
 Alpha virt. eigenvalues --    0.31829   0.31958   0.32434   0.32508   0.32799
 Alpha virt. eigenvalues --    0.32905   0.33296   0.33461   0.34189   0.34227
 Alpha virt. eigenvalues --    0.34311   0.34601   0.35008   0.35046   0.35417
 Alpha virt. eigenvalues --    0.35546   0.36010   0.36483   0.36593   0.36859
 Alpha virt. eigenvalues --    0.37150   0.37838   0.38139   0.38322   0.38917
 Alpha virt. eigenvalues --    0.39053   0.39613   0.40052   0.40083   0.40340
 Alpha virt. eigenvalues --    0.40886   0.41218   0.41396   0.41980   0.42238
 Alpha virt. eigenvalues --    0.43214   0.43673   0.44050   0.44773   0.44903
 Alpha virt. eigenvalues --    0.45161   0.46110   0.46396   0.47217   0.47737
 Alpha virt. eigenvalues --    0.47991   0.48469   0.49790   0.50470   0.53463
 Alpha virt. eigenvalues --    0.54023   0.54301   0.54875   0.55729   0.56323
 Alpha virt. eigenvalues --    0.57036   0.57409   0.58224   0.58342   0.59392
 Alpha virt. eigenvalues --    0.59656   0.59998   0.60743   0.61319   0.62170
 Alpha virt. eigenvalues --    0.62868   0.63523   0.64337   0.64734   0.65404
 Alpha virt. eigenvalues --    0.66231   0.67095   0.68134   0.68250   0.68959
 Alpha virt. eigenvalues --    0.69240   0.69626   0.70963   0.71704   0.72094
 Alpha virt. eigenvalues --    0.72877   0.73438   0.73836   0.74466   0.74838
 Alpha virt. eigenvalues --    0.75007   0.75807   0.76361   0.77347   0.77973
 Alpha virt. eigenvalues --    0.78113   0.78750   0.79005   0.79474   0.79660
 Alpha virt. eigenvalues --    0.80288   0.80671   0.81919   0.82680   0.83141
 Alpha virt. eigenvalues --    0.84425   0.85355   0.86321   0.86811   0.89422
 Alpha virt. eigenvalues --    0.89912   0.95512   0.96913   0.97192   0.99035
 Alpha virt. eigenvalues --    0.99661   1.00605   1.01469   1.02754   1.02967
 Alpha virt. eigenvalues --    1.05989   1.06555   1.07618   1.08944   1.09904
 Alpha virt. eigenvalues --    1.10685   1.12189   1.12983   1.14459   1.14983
 Alpha virt. eigenvalues --    1.15990   1.16325   1.17226   1.17599   1.18305
 Alpha virt. eigenvalues --    1.18556   1.18902   1.19597   1.20226   1.20640
 Alpha virt. eigenvalues --    1.21442   1.22297   1.22454   1.22961   1.23658
 Alpha virt. eigenvalues --    1.24199   1.25059   1.25419   1.25971   1.26138
 Alpha virt. eigenvalues --    1.26710   1.27155   1.28346   1.29150   1.30085
 Alpha virt. eigenvalues --    1.30929   1.31673   1.32449   1.33176   1.34802
 Alpha virt. eigenvalues --    1.35893   1.37122   1.37943   1.38606   1.39145
 Alpha virt. eigenvalues --    1.40520   1.41299   1.42092   1.43114   1.43820
 Alpha virt. eigenvalues --    1.44334   1.46182   1.46416   1.47218   1.48347
 Alpha virt. eigenvalues --    1.49053   1.49902   1.50950   1.51150   1.52619
 Alpha virt. eigenvalues --    1.53129   1.54257   1.54289   1.55209   1.55768
 Alpha virt. eigenvalues --    1.56989   1.57181   1.57944   1.59063   1.59789
 Alpha virt. eigenvalues --    1.60176   1.60715   1.62017   1.62463   1.62961
 Alpha virt. eigenvalues --    1.63502   1.63720   1.64493   1.65074   1.65454
 Alpha virt. eigenvalues --    1.66044   1.66349   1.67136   1.68590   1.69018
 Alpha virt. eigenvalues --    1.69835   1.70592   1.70786   1.71419   1.72129
 Alpha virt. eigenvalues --    1.73084   1.73427   1.75368   1.75889   1.76981
 Alpha virt. eigenvalues --    1.77803   1.78092   1.78674   1.79705   1.80137
 Alpha virt. eigenvalues --    1.80919   1.81420   1.81778   1.83021   1.84287
 Alpha virt. eigenvalues --    1.84547   1.85094   1.86467   1.86839   1.87941
 Alpha virt. eigenvalues --    1.88944   1.89402   1.90187   1.91748   1.92982
 Alpha virt. eigenvalues --    1.93580   1.94287   1.95943   1.96993   1.97839
 Alpha virt. eigenvalues --    1.99274   2.00484   2.01590   2.03371   2.03991
 Alpha virt. eigenvalues --    2.05291   2.06443   2.06986   2.07152   2.09272
 Alpha virt. eigenvalues --    2.10552   2.11844   2.12362   2.13085   2.13361
 Alpha virt. eigenvalues --    2.13649   2.15415   2.16870   2.17186   2.17981
 Alpha virt. eigenvalues --    2.18717   2.19311   2.19749   2.20812   2.21741
 Alpha virt. eigenvalues --    2.22483   2.23867   2.24970   2.25563   2.26505
 Alpha virt. eigenvalues --    2.27489   2.29002   2.30678   2.30910   2.34201
 Alpha virt. eigenvalues --    2.35985   2.37234   2.38915   2.39471   2.40652
 Alpha virt. eigenvalues --    2.41769   2.51270   2.52910   2.53060   2.55228
 Alpha virt. eigenvalues --    2.55943   2.57118   2.57604   2.59182   2.60111
 Alpha virt. eigenvalues --    2.60849   2.61566   2.62141   2.63323   2.64414
 Alpha virt. eigenvalues --    2.65214   2.66562   2.68004   2.69853   2.70671
 Alpha virt. eigenvalues --    2.71421   2.71830   2.72973   2.74422   2.78094
 Alpha virt. eigenvalues --    2.78860   2.79439   2.82455   2.82765   2.84982
 Alpha virt. eigenvalues --    2.85968   2.86743   2.89203   2.90434   2.92771
 Alpha virt. eigenvalues --    2.93935   2.94794   2.96180   2.97198   2.99028
 Alpha virt. eigenvalues --    2.99325   3.00026   3.00536   3.02101   3.03333
 Alpha virt. eigenvalues --    3.04900   3.05005   3.05937   3.06284   3.07039
 Alpha virt. eigenvalues --    3.08815   3.10153   3.11236   3.12554   3.14203
 Alpha virt. eigenvalues --    3.15131   3.16279   3.16724   3.18362   3.18873
 Alpha virt. eigenvalues --    3.19775   3.20509   3.20750   3.20821   3.21196
 Alpha virt. eigenvalues --    3.21657   3.22836   3.23310   3.24009   3.24581
 Alpha virt. eigenvalues --    3.25366   3.25719   3.27021   3.28449   3.29651
 Alpha virt. eigenvalues --    3.30366   3.31580   3.33683   3.33987   3.35780
 Alpha virt. eigenvalues --    3.36649   3.39355   3.40141   3.40419   3.40817
 Alpha virt. eigenvalues --    3.42025   3.42786   3.45900   3.47892   3.48128
 Alpha virt. eigenvalues --    3.57490   3.58260   3.61091   3.64191   3.80789
 Alpha virt. eigenvalues --    3.82310   3.85161   3.85733   3.88501   3.89174
 Alpha virt. eigenvalues --    3.93483   3.93957   3.94518   3.94688   3.96821
 Alpha virt. eigenvalues --    3.97638   3.98421   4.01155   4.02560   4.03912
 Alpha virt. eigenvalues --    4.05747   4.06425   4.09029   4.10404   4.12227
 Alpha virt. eigenvalues --    4.14928   4.16713   4.20771   4.21987   4.25210
 Alpha virt. eigenvalues --    4.26279   4.29190   4.30266   4.32165   4.36384
 Alpha virt. eigenvalues --    4.39073   4.39646   4.39969   5.20466   5.22635
 Alpha virt. eigenvalues --    5.23648   5.24332   5.25179   5.25639   5.27416
 Alpha virt. eigenvalues --    5.28846   5.29544   5.34198   5.34684   5.43772
 Alpha virt. eigenvalues --    5.49138   5.49858   5.51974   5.52491   5.52735
 Alpha virt. eigenvalues --    5.54237   5.54695   5.55597   5.56692   5.58602
 Alpha virt. eigenvalues --    5.66384   5.68985   5.70889   5.72132   5.73509
 Alpha virt. eigenvalues --    5.74760   5.75084   5.76404   5.78896   5.86658
 Alpha virt. eigenvalues --    5.91157  23.78610  23.80551  23.82812  23.84000
 Alpha virt. eigenvalues --   23.85196  23.86336  23.87617  23.88913  23.90101
 Alpha virt. eigenvalues --   23.90611  23.93885  23.93962  49.91920  49.92576
 Alpha virt. eigenvalues --   49.94134  49.94607  49.95459  49.96743  49.97326
 Alpha virt. eigenvalues --   49.97738  49.99135  49.99922  50.03183
          Condensed to atoms (all electrons):
               1          2          3          4          5          6
     1  O    7.942268  -0.067272   0.020779   0.022900  -0.020863  -0.004222
     2  O   -0.067272   8.505215  -0.000810   0.026810   0.010009  -0.000409
     3  O    0.020779  -0.000810   8.029136  -0.013304  -0.000159   0.000002
     4  O    0.022900   0.026810  -0.013304   7.758573  -0.000463  -0.000023
     5  O   -0.020863   0.010009  -0.000159  -0.000463   7.695433   0.005890
     6  O   -0.004222  -0.000409   0.000002  -0.000023   0.005890   7.802135
     7  O    0.001456  -0.005154  -0.000000  -0.000255   0.000589  -0.019789
     8  O    0.002504   0.001062   0.010390   0.012960  -0.000011  -0.000000
     9  O    0.001159   0.000087   0.008540  -0.001376  -0.000001  -0.000000
    10  O   -0.003719   0.000354  -0.010451   0.000414  -0.000032  -0.000000
    11  O    0.000077  -0.038066  -0.000062  -0.024183   0.000008   0.000128
    12  C    0.539689  -0.232527  -0.320847   0.015933  -0.076382  -0.005735
    13  C   -0.671062   0.254328   0.204462  -0.371913   0.070969   0.002710
    14  C    0.236814   0.254735   0.028128   0.056008   0.287783   0.129201
    15  C   -0.389095  -0.011111   0.383583   0.016703  -0.017025   0.000008
    16  C   -0.039273  -0.155608  -0.018803   0.023499   0.108479  -0.482032
    17  C   -0.011538  -0.354946  -0.001633   0.005499  -0.133247   0.832341
    18  C   -0.001783  -0.075003   0.001537  -0.003239  -0.024672  -0.389325
    19  C    0.093112   0.036318  -0.105612   0.236618  -0.004034  -0.000276
    20  C    0.102823  -0.204735   0.004473   0.006197   0.056136   0.077099
    21  C    0.045026   0.003286  -0.046507   0.058539  -0.000606   0.000020
    22  C    0.006523  -0.032594  -0.108082  -0.001215  -0.015785  -0.000391
    23  C    0.031738   0.010254  -0.000502   0.016234  -0.008854  -0.010337
    24  H   -0.039268   0.076880   0.014821   0.005007  -0.000195   0.001175
    25  H   -0.027719  -0.001537   0.014788  -0.074671   0.002944   0.000106
    26  H    0.000174  -0.066676  -0.001391  -0.000083  -0.004230  -0.003653
    27  H   -0.034365  -0.004874  -0.062822   0.001132  -0.001766   0.000017
    28  H   -0.010784   0.009078  -0.000114  -0.000615  -0.087425  -0.023266
    29  H   -0.012302   0.030356  -0.000095   0.002206  -0.068995  -0.040016
    30  H    0.001218   0.023924  -0.000047   0.003001  -0.005329  -0.007810
    31  H   -0.000011  -0.112974  -0.000448  -0.000560  -0.001189  -0.003919
    32  H   -0.015820   0.000737   0.030497  -0.069631   0.000349  -0.000007
    33  H    0.004935   0.000384  -0.088229  -0.003399  -0.000111  -0.000000
    34  H   -0.042642  -0.000032  -0.040802   0.001856   0.002219   0.000077
    35  H    0.073603   0.010871   0.051510  -0.000837  -0.009937  -0.000057
    36  H   -0.000301  -0.039113   0.000098  -0.002565  -0.000039   0.000851
    37  H   -0.000940   0.040341   0.000015   0.000153  -0.000340   0.000550
    38  H    0.024740  -0.008805  -0.004630   0.298694  -0.000296  -0.000094
    39  H   -0.004420  -0.000676  -0.000198  -0.001001   0.248188   0.006945
    40  H   -0.000108  -0.003422   0.000001  -0.000054   0.003263   0.227062
    41  H    0.000958   0.000926   0.000004  -0.000397   0.003294  -0.001185
    42  H   -0.000009   0.000108  -0.003116   0.004957  -0.000004  -0.000000
    43  H    0.000726  -0.000122  -0.017794   0.003795  -0.000013  -0.000000
    44  H    0.001955  -0.000363   0.038365   0.000369  -0.000370  -0.000005
    45  H   -0.000872   0.043085  -0.000719   0.005457  -0.000101  -0.000019
               7          8          9         10         11         12
     1  O    0.001456   0.002504   0.001159  -0.003719   0.000077   0.539689
     2  O   -0.005154   0.001062   0.000087   0.000354  -0.038066  -0.232527
     3  O   -0.000000   0.010390   0.008540  -0.010451  -0.000062  -0.320847
     4  O   -0.000255   0.012960  -0.001376   0.000414  -0.024183   0.015933
     5  O    0.000589  -0.000011  -0.000001  -0.000032   0.000008  -0.076382
     6  O   -0.019789  -0.000000  -0.000000  -0.000000   0.000128  -0.005735
     7  O    8.002842   0.000000   0.000000   0.000000  -0.002974  -0.010254
     8  O    0.000000   7.829377  -0.022893   0.000063   0.000003   0.226101
     9  O    0.000000  -0.022893   7.875232   0.001416   0.000018   0.111633
    10  O    0.000000   0.000063   0.001416   7.827835  -0.000007   0.170663
    11  O   -0.002974   0.000003   0.000018  -0.000007   7.921639   0.021981
    12  C   -0.010254   0.226101   0.111633   0.170663   0.021981  45.545551
    13  C   -0.001101  -0.800565  -0.168479  -0.015446   0.009180 -18.996012
    14  C    0.020994   0.019399   0.005702  -0.024087   0.012257  -5.997560
    15  C   -0.001825  -0.003341   0.005588  -0.340658   0.019095 -16.951652
    16  C    0.028344  -0.001220  -0.000145  -0.010217  -0.011639  -1.186497
    17  C   -0.072412   0.000467   0.000084   0.000261   0.015179  -1.116735
    18  C   -0.173455  -0.000765  -0.000047  -0.000603   0.050366   0.712526
    19  C   -0.000028   0.789333   0.193286   0.021326   0.004351   1.967452
    20  C    0.284956  -0.000078   0.000158   0.001353  -0.028600  -0.413322
    21  C    0.000006  -0.154553   0.043087   0.002771  -0.000888   2.542003
    22  C    0.000079   0.010434   0.013443   0.466484  -0.000224   0.804865
    23  C    0.041066   0.001632   0.000062   0.000150   0.073006  -0.483349
    24  H    0.001675  -0.007402  -0.001590  -0.003297  -0.013023  -0.748942
    25  H    0.000039  -0.025794  -0.002397  -0.000648  -0.000014  -0.658910
    26  H    0.003223   0.000054  -0.001062   0.004122  -0.008279   0.253516
    27  H   -0.000009   0.001184   0.001834   0.014304   0.000127  -0.530286
    28  H   -0.006677  -0.000188  -0.000068  -0.000136   0.000199   0.221019
    29  H   -0.081619  -0.000004   0.000001   0.000162  -0.001115  -0.043960
    30  H   -0.106708  -0.000031  -0.000002  -0.000003  -0.006369   0.046580
    31  H   -0.020461  -0.000021   0.000035  -0.000089   0.016042   0.159379
    32  H   -0.000043  -0.057739  -0.054935  -0.001902  -0.004142  -0.771778
    33  H   -0.000001  -0.005059  -0.105326  -0.002261  -0.000076   0.390369
    34  H   -0.000203  -0.000194   0.004085  -0.012909   0.000077   0.460073
    35  H    0.000093   0.000379  -0.002268  -0.158840  -0.000544   0.034139
    36  H   -0.020384  -0.000072  -0.000013  -0.000007  -0.033852   0.047012
    37  H    0.039165   0.000023  -0.000003   0.000010  -0.092730  -0.013855
    38  H    0.000973   0.016124   0.006179   0.000719   0.001585   0.396274
    39  H    0.003523   0.000002   0.000029   0.001282   0.000285   0.043330
    40  H    0.016081   0.000000   0.000000  -0.000002   0.000302  -0.009707
    41  H    0.217309   0.000003   0.000000  -0.000001  -0.000613   0.001399
    42  H    0.000000   0.242630   0.035597   0.000256   0.000010   0.007386
    43  H    0.000000  -0.010466   0.244876   0.000713   0.000069   0.051312
    44  H   -0.000000  -0.000067   0.000212   0.217584  -0.000001   0.094316
    45  H   -0.001881   0.000480  -0.000317  -0.000137   0.250950   0.080764
              13         14         15         16         17         18
     1  O   -0.671062   0.236814  -0.389095  -0.039273  -0.011538  -0.001783
     2  O    0.254328   0.254735  -0.011111  -0.155608  -0.354946  -0.075003
     3  O    0.204462   0.028128   0.383583  -0.018803  -0.001633   0.001537
     4  O   -0.371913   0.056008   0.016703   0.023499   0.005499  -0.003239
     5  O    0.070969   0.287783  -0.017025   0.108479  -0.133247  -0.024672
     6  O    0.002710   0.129201   0.000008  -0.482032   0.832341  -0.389325
     7  O   -0.001101   0.020994  -0.001825   0.028344  -0.072412  -0.173455
     8  O   -0.800565   0.019399  -0.003341  -0.001220   0.000467  -0.000765
     9  O   -0.168479   0.005702   0.005588  -0.000145   0.000084  -0.000047
    10  O   -0.015446  -0.024087  -0.340658  -0.010217   0.000261  -0.000603
    11  O    0.009180   0.012257   0.019095  -0.011639   0.015179   0.050366
    12  C  -18.996012  -5.997560 -16.951652  -1.186497  -1.116735   0.712526
    13  C   49.443604  -0.474509  -7.011374  -2.151705  -0.000849   0.117192
    14  C   -0.474509  32.732477  -2.082073 -18.923590   4.651176   0.116047
    15  C   -7.011374  -2.082073  31.894340   2.131345  -0.142312   0.248617
    16  C   -2.151705 -18.923590   2.131345  35.024305  -8.904055   0.252311
    17  C   -0.000849   4.651176  -0.142312  -8.904055  14.726932  -5.141273
    18  C    0.117192   0.116047   0.248617   0.252311  -5.141273  20.090008
    19  C  -16.542372  -1.602292   5.774307   0.216059   0.035103  -0.042932
    20  C    0.120709  -0.469402  -0.411958  -1.449571   2.781458  -8.420336
    21  C    1.702959   0.280098  -4.337182  -0.019005  -0.008270  -0.003232
    22  C   -0.827149  -1.250069  -1.907263  -0.391992   0.006217  -0.002407
    23  C   -0.343059  -0.706369  -0.071393   1.157324  -0.006045  -2.012997
    24  H    1.262062   0.396985  -0.195288   0.035657  -0.058661  -0.107758
    25  H    1.784818   0.156532  -0.293267  -0.081520  -0.005194   0.007928
    26  H    0.201195  -1.429684   0.299871   1.194272  -0.549155   0.000347
    27  H   -0.136933  -0.146085   1.147325   0.083634  -0.009707   0.001479
    28  H   -0.082103  -0.645972   0.015994   1.078521  -0.389942   0.111277
    29  H   -0.000219  -0.147625  -0.021598   0.085471   0.314586   0.370448
    30  H    0.009252  -0.002073  -0.000753  -0.028071  -0.087066   0.707172
    31  H   -0.066136   0.035220  -0.001013  -0.135596  -0.018779   0.284774
    32  H    1.102880  -0.106605   0.113989  -0.012182  -0.001419   0.017669
    33  H    0.126929   0.025548  -0.439362   0.001523  -0.000034   0.000563
    34  H    0.021397  -0.046592  -0.096166  -0.064151   0.019006  -0.000963
    35  H    0.015910   0.599301  -0.619979  -0.138299   0.010991   0.025981
    36  H    0.003299  -0.046570   0.016036  -0.086663   0.050321   0.116065
    37  H    0.002152   0.015069  -0.004148   0.081584  -0.086379  -0.048177
    38  H   -0.839418   0.164558  -0.074832  -0.025803   0.004359  -0.015175
    39  H    0.025201   0.146940  -0.016329  -0.137492  -0.009045  -0.125924
    40  H   -0.001067   0.012201   0.001168  -0.003386  -0.000307   0.023391
    41  H    0.000610   0.028704  -0.000196  -0.072336   0.037046  -0.003649
    42  H   -0.118748  -0.010735   0.013426   0.000707  -0.000100  -0.000066
    43  H   -0.122002   0.007074  -0.019933   0.000623   0.000197  -0.000501
    44  H   -0.069640   0.021574  -0.048132   0.005320   0.000503   0.000382
    45  H   -0.050717   0.017676  -0.011450   0.058456  -0.026668   0.008411
              19         20         21         22         23         24
     1  O    0.093112   0.102823   0.045026   0.006523   0.031738  -0.039268
     2  O    0.036318  -0.204735   0.003286  -0.032594   0.010254   0.076880
     3  O   -0.105612   0.004473  -0.046507  -0.108082  -0.000502   0.014821
     4  O    0.236618   0.006197   0.058539  -0.001215   0.016234   0.005007
     5  O   -0.004034   0.056136  -0.000606  -0.015785  -0.008854  -0.000195
     6  O   -0.000276   0.077099   0.000020  -0.000391  -0.010337   0.001175
     7  O   -0.000028   0.284956   0.000006   0.000079   0.041066   0.001675
     8  O    0.789333  -0.000078  -0.154553   0.010434   0.001632  -0.007402
     9  O    0.193286   0.000158   0.043087   0.013443   0.000062  -0.001590
    10  O    0.021326   0.001353   0.002771   0.466484   0.000150  -0.003297
    11  O    0.004351  -0.028600  -0.000888  -0.000224   0.073006  -0.013023
    12  C    1.967452  -0.413322   2.542003   0.804865  -0.483349  -0.748942
    13  C  -16.542372   0.120709   1.702959  -0.827149  -0.343059   1.262062
    14  C   -1.602292  -0.469402   0.280098  -1.250069  -0.706369   0.396985
    15  C    5.774307  -0.411958  -4.337182  -1.907263  -0.071393  -0.195288
    16  C    0.216059  -1.449571  -0.019005  -0.391992   1.157324   0.035657
    17  C    0.035103   2.781458  -0.008270   0.006217  -0.006045  -0.058661
    18  C   -0.042932  -8.420336  -0.003232  -0.002407  -2.012997  -0.107758
    19  C   20.671216   0.079479  -4.967651   0.939355   0.020830  -0.752055
    20  C    0.079479  15.516862   0.012208   0.040917  -0.972360  -0.005458
    21  C   -4.967651   0.012208  11.240643  -0.338036  -0.002510   0.121239
    22  C    0.939355   0.040917  -0.338036   9.043339  -0.017855  -0.112037
    23  C    0.020830  -0.972360  -0.002510  -0.017855   9.575901   0.070925
[...]
 4,-0.00046696,-0.00120434,0.00282752,-0.00007253,-0.00010524,0.0000165
 5,-0.00008859,-0.00031057,-0.00000340,-0.00000705,-0.00004884,0.000001
 49,-0.00003644,-0.00002239,-0.00000163,-0.00004728,0.00000323,0.000008
 55,-0.01814891,-0.00500755,-0.00542543,-0.00005127,0.00002730,0.000040
 13,0.00355896,0.00073706,-0.00036884,0.00000415,-0.00010559,0.00000413
 ,-0.00010361,-0.00005234,-0.00003574,-0.00002785,0.00002536,0.00006591
 ,0.00021491,0.00006752,0.00009868,0.00000098,-0.00000164,-0.00000441,0
 .00000633,0.00000663,0.00000687,-0.00000327,0.00000219,-0.00000414,0.0
 0000168,0.00000001,0.00000178,-0.00000149,0.,-0.00000205,0.00000361,-0
 .00000051,-0.00000960,-0.00007304,0.00058224,-0.00068894,-0.00010046,-
 0.00005773,0.00014538,-0.00000535,0.00000896,0.00001440,-0.00000381,-0
 .00000327,0.00000467,0.00000435,0.00000856,0.00001260,0.00001668,0.000
 00296,-0.00000636,-0.00010727,-0.00000107,0.00004740,-0.00000419,-0.00
 001748,-0.00000399,-0.00001395,-0.00001095,-0.00000050,-0.00001977,-0.
 00001083,0.00000874,0.46740418,-0.00014461,-0.00048594,0.00025317,0.00
 015858,-0.00008025,-0.00004957,0.00167795,0.00220893,-0.00094493,0.000
 84148,0.00015597,-0.00005585,0.00005615,-0.00003424,0.00000002,0.00003
 378,-0.00000999,0.00000587,0.00004129,-0.00002924,-0.00002263,-0.06267
 080,-0.03273238,-0.00048157,0.00073191,0.00175218,-0.00133975,0.000137
 34,0.00007207,-0.00006392,-0.00005952,-0.00010224,-0.00002626,-0.00129
 026,0.00059211,-0.00087218,-0.00192788,-0.00523341,0.00455443,-0.00013
 127,-0.00005961,-0.00003417,-0.00118363,-0.00024779,-0.00056937,-0.000
 05038,0.00006242,0.00001934,-0.00002949,-0.00000729,-0.00001278,-0.000
 01440,0.00001148,0.00000953,-0.03108973,-0.00890328,-0.00963181,-0.000
 07811,0.00004687,0.00003953,-0.00471514,-0.00407906,0.00003231,0.00012
 437,-0.00001916,0.00013010,0.00004833,0.00004259,0.00001501,0.00002194
 ,-0.00001763,0.00005602,0.00033287,0.00006432,0.00012156,-0.00000893,0
 .00000276,0.00000950,0.00009707,-0.00002090,0.00005697,0.00000110,-0.0
 0000347,0.00000401,0.00000044,-0.00000031,0.00000294,-0.00000019,0.000
 00033,0.00000090,0.00000751,0.00000284,-0.00000405,0.00045905,0.000854
 67,0.00029202,0.00027063,-0.00048640,-0.00020735,-0.00000739,-0.000011
 58,-0.00004048,0.00002071,0.00009754,-0.00003778,-0.00000892,0.0000013
 4,-0.00000018,0.00000251,-0.00000413,-0.00000291,-0.00006820,0.0000282
 6,-0.00008794,-0.00001344,-0.00000344,0.00000665,-0.00001063,0.0000041
 5,-0.00000141,-0.00000726,0.00001210,0.00000721,0.09816292,0.04627855,
 0.00037666,0.00037996,-0.00018767,-0.00000341,-0.00008127,-0.00001205,
 -0.00063461,-0.00035696,-0.00071187,-0.00033421,-0.00033112,0.00001665
 ,-0.00000151,-0.00001411,-0.00001699,-0.00000554,-0.00001578,-0.000016
 44,-0.00001023,-0.00001499,-0.00000531,-0.18660945,-0.01923987,-0.0936
 6841,-0.00037323,-0.00329190,-0.00136308,-0.00000386,-0.00001529,-0.00
 003276,-0.00011300,-0.00003320,-0.00004106,0.00049842,-0.00003283,0.00
 106586,0.00082032,0.00311684,-0.00285428,-0.00008198,0.00015596,0.0001
 0981,0.00007986,-0.00005818,0.00016569,0.00002919,-0.00000666,-0.00001
 367,0.00000821,0.00002023,0.00001710,0.00001670,0.00000189,0.00000437,
 0.02767174,0.00795826,0.00699716,-0.00001047,-0.00000174,0.00001362,0.
 00178871,0.00262760,0.00268421,-0.00005362,0.00000492,-0.00000798,0.00
 007340,0.00003598,0.00002959,-0.00000665,-0.00010764,0.00002070,-0.000
 00389,0.00016207,0.00018087,0.00001535,-0.00000239,-0.00002024,-0.0000
 3866,-0.00002590,-0.00004282,-0.00000424,-0.00000040,-0.00000193,-0.00
 000065,0.00000047,-0.00000572,-0.00000110,-0.00000096,-0.00000088,0.00
 000153,0.00000453,-0.00000220,0.00114386,0.00012830,-0.00064669,-0.000
 09917,-0.00060363,-0.00029298,0.00000922,-0.00000137,-0.00001311,-0.00
 000833,-0.00002190,0.00000942,-0.00000909,-0.00000461,-0.00001100,-0.0
 0000622,-0.00000541,0.00000284,0.00004370,-0.00000428,-0.00002105,-0.0
 0000128,0.00000413,0.00000765,0.00000517,0.00000511,0.00000369,0.00000
 578,0.00000792,0.00000183,0.15580652,0.00810983,0.08959085,0.00054153,
 0.00009311,0.00004864,0.00021472,-0.00008664,-0.00006069,0.00238623,0.
 00156132,0.00148933,0.00016345,-0.00015092,0.00012621,0.00005069,0.000
 06156,0.00000163,0.00009777,0.00003549,0.00001286,0.00008898,-0.000003
 16,-0.00003406,-0.00039827,-0.00053333,0.00098140,-0.06468348,0.015239
 99,0.11994081,-0.00014742,0.00027848,-0.00009675,0.00010358,-0.0000365
 4,0.00001058,-0.00014386,-0.00004957,-0.00016438,-0.00060534,0.0002670
 7,0.00021329,-0.00032273,0.00006845,0.00014099,-0.00118776,-0.00059178
 ,-0.00024277,-0.00000477,-0.00005897,-0.00002232,-0.00005978,-0.000011
 34,0.00000773,-0.00005896,0.00001364,0.00001361,0.00138352,-0.00086497
 ,-0.00244870,-0.00011043,0.00004486,0.00006841,0.00319090,-0.00969683,
 -0.04574494,0.00018282,-0.00016490,0.00018711,-0.00005129,-0.00001013,
 -0.00002381,-0.00006272,0.00000668,0.00006313,0.00021899,0.00013317,0.
 00024779,0.00000278,-0.00001448,-0.00001160,0.00021018,0.00017061,0.00
 040934,-0.00000108,0.00000319,-0.00000114,0.00000161,-0.00000166,0.000
 00239,-0.00000052,0.,-0.00000087,0.00000560,0.00000056,-0.00000823,-0.
 00080842,0.00108249,0.00116573,-0.00446482,-0.00136420,-0.00203835,-0.
 00006434,-0.00003182,0.00004523,-0.00000106,0.00006922,-0.00002450,0.0
 0000032,0.00000487,0.00001120,0.00001310,-0.00000546,-0.00000690,-0.00
 009840,0.00002413,0.00000422,-0.00001071,-0.00002583,-0.00000024,-0.00
 001918,-0.00000726,-0.00000012,-0.00002522,-0.00000274,0.00001456,0.00
 023110,0.00032569,-0.00006205,0.06420442,0.00041303,-0.00035220,0.0001
 1478,0.00008646,-0.00023863,-0.00000183,0.00381085,0.00106023,0.000199
 55,-0.00016026,-0.00027007,0.00007083,0.00006291,-0.00007429,0.0000177
 8,0.00003599,-0.00003088,0.00000577,0.00002143,-0.00004567,-0.00001776
 ,0.00041924,-0.00114969,-0.00046822,0.00767521,-0.02179395,-0.08171737
 ,0.00027968,-0.00000143,0.00007257,-0.00013850,-0.00009644,-0.00001728
 ,-0.00008856,0.00071151,-0.00006685,0.00065272,-0.00002578,-0.00042479
 ,-0.00023506,0.00021452,0.00006988,-0.00170069,-0.00101178,-0.00043092
 ,-0.00002247,0.00006887,-0.00001966,-0.00002559,0.00001245,-0.00000214
 ,0.00000058,0.00002232,0.00000568,-0.00045797,0.00133855,0.00268047,-0
 .00005192,0.00001551,0.00002632,-0.00272610,-0.00386872,-0.01713083,0.
 00004397,0.00021170,0.00019609,0.00010150,0.00007744,0.00002520,-0.000
 00981,0.00002578,-0.00001591,-0.00018339,-0.00010116,-0.00007937,-0.00
 001520,-0.00000319,0.00001903,0.00034387,0.00017127,0.00040455,0.00000
 743,-0.00000638,0.00001057,-0.00000180,-0.00000114,0.00000602,0.000001
 35,-0.00000027,0.00000269,0.00000331,0.00000518,0.00000531,0.00053494,
 -0.00011055,-0.00067720,-0.00285327,0.00004641,-0.00174655,-0.00006315
 ,-0.00007187,-0.00000725,0.00003932,0.00013359,-0.00004781,-0.00000730
 ,-0.00000759,-0.00000700,-0.00000842,-0.00000880,-0.00000035,0.0000748
 8,0.00006823,-0.00008800,-0.00001107,-0.00000341,0.00000025,-0.0000062
 7,0.00001228,-0.00000372,-0.00000024,0.00002057,0.00000528,-0.00006837
 ,0.00036415,0.00148714,-0.00566369,0.02501186,0.00046847,0.00010552,-0
 .00007871,0.00018336,-0.00004566,-0.00010211,0.00190057,0.00099230,0.0
 0179624,0.00058984,-0.00007754,0.00009295,0.00003542,0.00004726,-0.000
 01634,0.00006109,0.00002113,-0.00000376,0.00006309,-0.00000369,-0.0000
 3049,0.00042375,0.00010328,0.00008341,0.07322714,-0.09376479,-0.486313
 15,-0.00007467,0.00017688,-0.00020258,0.00004727,-0.00001261,-0.000044
 00,-0.00027235,-0.00011343,0.00012455,-0.00031153,-0.00044620,0.000192
 02,-0.00025737,0.00003917,0.00019630,0.00011390,0.00025942,-0.00032739
 ,0.00000044,-0.00004779,-0.00001845,-0.00003511,-0.00000410,0.00002496
 ,-0.00003725,0.00001070,0.00000712,0.00092564,0.00118515,0.00145213,-0
 .00009068,0.00003597,0.00009141,0.00129178,-0.00732070,-0.02382381,0.0
 0019745,-0.00008229,0.00034213,-0.00001435,-0.00000504,-0.00000190,0.0
 0002436,-0.00000758,-0.00002261,0.00022342,0.00004964,0.00007786,0.000
 00912,-0.00000243,-0.00002853,0.00024879,0.00012748,-0.00004821,-0.000
 00518,0.00000149,-0.00000671,0.00000203,0.00000035,-0.00000554,-0.0000
 0428,-0.00000016,-0.00000411,0.00001137,0.00000750,-0.00001870,-0.0007
 8235,0.00070212,-0.00027205,-0.00349678,-0.00005560,0.00067186,0.00003
 392,-0.00001329,-0.00005466,0.00001595,0.00006033,-0.00008159,-0.00000
 868,0.00000392,-0.00000222,0.00001079,-0.00000530,-0.00000467,-0.00007
 121,-0.00007732,0.00004609,-0.00000864,-0.00001654,0.00000678,-0.00001
 024,-0.00000461,0.00000423,-0.00001453,-0.00000073,0.00001487,-0.00025
 168,0.00059967,-0.00098768,-0.07430399,0.09759827,0.50700910,0.0000185
 3,0.00016364,-0.00002446,0.00011811,-0.00012837,0.00001735,-0.00082910
 ,-0.00021791,0.00040833,-0.00001512,-0.00031389,0.00012285,0.00004730,
 -0.00005094,0.00003287,0.00007477,0.00000742,0.00002589,0.00006070,-0.
 00002261,-0.00002486,-0.00016546,-0.00008833,0.00005059,-0.00050455,0.
 00027899,-0.00031531,-0.39051287,-0.15793028,-0.12410210,0.00000931,-0
 .00005197,0.00000421,-0.00099826,-0.00079855,0.00018695,0.00037623,0.0
 0014682,-0.00006256,-0.00013817,0.00013144,-0.00010942,0.00173622,-0.0
 0094088,-0.00060466,-0.00002113,0.00002571,-0.00001308,-0.00004832,-0.
 00001275,-0.00001928,-0.00003637,0.00001997,0.00001395,0.00008222,0.00
 002084,0.00002499,-0.00007034,0.00003420,0.00002538,0.00098410,0.00006
 763,0.00016111,-0.02994947,-0.00945958,-0.01060521,0.00000332,0.000025
 89,-0.00000342,-0.00004878,0.00006735,0.00003501,-0.00003094,-0.000023
 28,0.00003063,-0.00002773,-0.00000431,0.00001553,-0.00006952,0.0001087
 5,-0.00004079,0.00000680,-0.00000286,0.00001175,-0.00000468,-0.0000013
 1,0.00001194,0.00000179,-0.00000155,0.00000204,0.00000243,0.00000277,0
 .00000447,-0.00001593,0.00001376,0.00000038,0.00001589,-0.00008344,0.0
 0007876,0.00020629,-0.00100558,0.00019706,-0.00148343,0.00439241,0.000
 91420,-0.00000205,-0.00000145,0.00000620,0.00000300,-0.00000493,-0.000
 00501,-0.00002947,0.00004782,-0.00005595,-0.00002478,-0.00000222,-0.00
 001555,-0.00001789,0.00000116,-0.00000606,-0.00001693,0.00000862,0.000
 00844,0.00005021,-0.00004306,0.00001402,0.00013263,-0.00019886,0.00001
 954,0.42114037,-0.00091465,-0.00042438,0.00003391,-0.00015421,-0.00008
 810,0.00010301,0.00039527,0.00107892,-0.00149713,-0.00038056,0.0001870
 5,-0.00006596,0.00006298,-0.00007583,0.00004928,-0.00004806,-0.0000444
 5,-0.00000026,-0.00004906,-0.00002713,0.00001259,-0.00011124,0.0007092
 0,-0.00031228,0.00051635,0.00056320,0.00005234,-0.20682532,-0.14058429
 ,-0.07397383,-0.00010814,-0.00000972,-0.00000215,0.00049215,0.00006838
 ,-0.00013695,0.00032903,-0.00014372,0.00014994,0.00020485,0.00016627,-
 0.00035426,0.00416160,0.00046812,0.00265922,-0.00006678,0.00016382,0.0
 0001940,0.00002274,-0.00000355,-0.00002313,0.00004230,0.00001098,-0.00
 000246,0.00059403,-0.00012006,-0.00020664,0.00005817,-0.00002059,-0.00
 004307,-0.00273776,-0.00150054,0.00095466,0.03445205,0.01039247,0.0111
 6277,0.00006234,0.00003529,0.00002218,-0.00002069,0.00003194,-0.000020
 97,-0.00001535,0.00000263,0.00000006,-0.00002694,0.00003225,0.00010163
 ,-0.00030336,-0.00009057,-0.00017853,0.00001841,-0.00001396,0.00001816
 ,-0.00000400,0.00000271,0.00000777,0.00000232,-0.00000161,0.00000276,-
 0.00000458,0.00000391,0.00001205,-0.00001536,0.00000168,-0.00000910,0.
 00011688,0.00018974,-0.00030938,0.00061550,-0.00022341,-0.00061613,0.0
 0384654,-0.00383844,0.00095759,-0.00000022,-0.00000690,-0.00000796,-0.
 00001070,0.00000218,0.00000505,0.00010757,0.00004027,-0.00001660,0.000
 02196,-0.00001243,0.00000972,0.00000605,0.00001076,-0.00000373,0.00001
 626,0.00001381,-0.00000647,-0.00005257,-0.00019097,0.00003337,-0.00016
 180,-0.00038074,-0.00005431,0.16577973,0.13364926,0.00062587,0.0002764
 8,-0.00012769,0.00020881,-0.00005827,-0.00011861,0.00091805,-0.0013768
 5,-0.00047215,0.00025980,-0.00036342,0.00005626,0.00001191,0.00007392,
 -0.00006343,0.00005606,0.00002696,-0.00002343,0.00006260,0.00000372,-0
 .00003187,0.00001985,-0.00035415,0.00007572,-0.00041769,-0.00035855,-0
 .00032627,-0.12867933,-0.05988413,-0.04810519,0.00004967,-0.00000559,-
 0.00003523,-0.00097171,-0.00018327,-0.00003547,0.00004813,0.00015435,-
 0.00017242,-0.00033657,-0.00002357,0.00033311,-0.00279076,-0.00058991,
 0.00028653,0.00001688,-0.00010498,-0.00000476,-0.00003430,0.00000378,0
 .00004743,-0.00003580,0.00000595,0.00000451,-0.00020135,0.00012373,0.0
 0012210,-0.00009725,0.00002568,0.00011173,0.00097340,0.00097761,-0.000
 47009,-0.00420657,-0.00141460,-0.00162020,-0.00001363,-0.00000905,-0.0
 0000547,0.00017711,-0.00018680,-0.00005205,0.00000301,0.00001410,-0.00
 005094,0.00003525,-0.00002890,-0.00004215,0.00003036,0.00035661,-0.000
 66182,-0.00001201,0.00001268,-0.00001313,0.00000813,-0.00000045,-0.000
 01517,-0.00000525,0.00000312,-0.00000546,0.00000878,0.00000736,-0.0000
 2300,0.00002959,-0.00004869,-0.00005006,-0.00001825,0.00010008,-0.0001
 2190,0.00157502,-0.00000948,0.00054299,-0.00078858,0.00127690,0.000495
 47,-0.00000518,0.00000549,-0.00000251,0.00000943,-0.00000803,-0.000004
 09,-0.00010590,0.00000256,0.00000866,-0.00001445,-0.00001084,0.0000203
 0,-0.00000605,-0.00000769,0.00001033,-0.00001377,-0.00000676,0.0000167
 8,0.00002280,0.00010718,0.00002039,0.00008527,-0.00005597,0.00020100,0
 .13358256,0.06149874,0.05025262,-0.00170686,-0.00021932,0.00032495,-0.
 00131627,0.00163404,0.00047807,-0.00017875,-0.00037343,0.00010830,0.00
 138306,-0.00212439,-0.00191495,-0.00009616,0.00039452,0.00011135,0.000
 11672,0.00049423,0.00014114,0.00024403,0.00009020,-0.00013695,0.000341
 20,-0.00004791,-0.00026112,0.00031818,-0.00020445,0.00020115,-0.000025
 05,-0.00022660,0.00012475,-0.31963214,0.09785536,0.18401527,0.00116897
 ,0.00036197,0.00051381,-0.00217224,0.00185694,-0.00086104,0.00234801,-
 0.00149463,-0.00057908,-0.00016096,-0.00003891,0.00007648,-0.00006352,
 -0.00000063,-0.00013202,0.00027250,-0.00033583,-0.00000683,-0.00088583
 ,0.00075229,0.00022820,-0.00021415,-0.00014037,0.00051603,0.00060283,-
 0.00038647,0.00105336,-0.00020148,0.00055776,-0.00040829,0.00017143,0.
 00013588,-0.00009083,-0.03258434,0.00846494,0.01813253,0.00007695,0.00
 006819,-0.00023198,0.00046846,-0.00066772,-0.00011493,-0.00004369,0.00
 018110,0.00000451,0.00002368,-0.00001521,-0.00000587,0.00000295,-0.000
 00404,-0.00000147,-0.00002223,0.00003235,0.00000302,-0.00002089,-0.000
 01916,-0.00004211,-0.00010526,-0.00010656,-0.00006756,-0.00010399,0.00
 004359,-0.00022994,0.00003996,-0.00007907,0.00001566,0.00001383,0.0000
 0571,0.00002934,0.00001306,-0.00004612,-0.00002090,0.00124623,0.001123
 86,0.00049042,-0.00286591,-0.00256994,-0.00337892,0.00203254,0.0003975
 2,0.00087768,0.00002464,-0.00002532,-0.00004609,-0.00008092,-0.0001121
 3,0.00000323,-0.00011383,-0.00011633,0.00001933,-0.00014494,-0.0000003
 7,0.00006807,-0.00009435,0.00008930,-0.00007760,-0.00000895,0.00008627
 ,-0.00006394,0.35193347,-0.00051153,0.00021201,0.00026905,0.00090015,0
 .00089671,0.00007377,-0.00037424,-0.00016752,0.00000669,-0.00132708,-0
 .00090750,0.00199065,0.00031825,0.00045671,0.00008716,0.00032689,0.000
 04805,0.00005842,0.00067631,-0.00029923,-0.00031328,-0.00023707,-0.000
 48315,0.00009289,-0.00028511,-0.00010122,-0.00011295,-0.00018904,0.000
 21415,-0.00007519,0.12629248,-0.06887620,-0.10562133,0.00039512,-0.000
 15256,-0.00059325,0.00065946,-0.00085855,-0.00019521,0.00159055,-0.002
 06031,-0.00018111,0.00037108,-0.00000901,0.00025113,-0.00050593,0.0001
 0018,-0.00016588,-0.00033119,-0.00006196,0.00003988,-0.00036112,-0.000
 14335,-0.00012402,0.00022709,0.00048506,-0.00002216,-0.00509206,0.0010
 6432,0.00160136,0.00032072,0.00009600,-0.00005659,0.00007266,-0.000184
 98,0.00004485,-0.01600450,0.00357780,0.01020802,0.00009428,-0.00015125
 ,0.00037805,-0.00019946,0.00016357,0.00009622,-0.00005745,0.00015209,-
 0.00006002,-0.00009006,0.00007567,-0.00000883,0.00002342,0.00001367,0.
 00000918,0.00001575,-0.00002549,0.00000555,0.00008745,0.00008834,0.000
 08060,0.00013224,-0.00028223,-0.00005152,0.00000635,0.00006535,0.00000
 921,-0.00000453,-0.00000571,0.00001054,-0.00000067,0.00001560,0.000037
 97,-0.00000248,-0.00004904,-0.00000017,0.00033003,0.00020821,-0.000975
 66,-0.00259321,-0.00099329,-0.00068377,0.00067899,0.00000201,-0.003295
 38,-0.00006675,0.00001343,-0.00000334,-0.00004460,0.00003057,-0.000008
 51,-0.00005204,0.00013384,0.00005442,-0.00001543,0.00010709,0.00002788
 ,0.00005345,0.00006222,0.00003416,0.00004397,-0.00002348,0.00003298,-0
 .10527111,0.06755339,0.00038512,0.00006460,-0.00046923,-0.00033737,-0.
 00011083,-0.00136684,0.00003678,0.00009158,-0.00016282,-0.00307291,0.0
 0282337,-0.00156857,0.00014264,0.00000374,-0.00006246,-0.00002586,-0.0
 0024715,-0.00011181,0.00001700,-0.00025621,-0.00009924,-0.00011006,-0.
 00000307,-0.00022829,-0.00025596,0.00009644,-0.00018525,0.00001407,0.0
 0009621,-0.00011815,0.22387887,-0.10038631,-0.18309142,-0.00056899,0.0
 0007664,0.00069926,0.00175279,-0.00198033,0.00117261,0.00019844,0.0000
 0612,0.00026669,0.00024987,0.00015916,-0.00019076,-0.00017315,0.000083
 97,0.00000518,-0.00020263,0.00014461,-0.00001747,0.00041775,-0.0002177
 5,0.00002303,-0.00003632,0.00044591,0.00060216,-0.00068496,-0.00029312
 ,0.00090346,0.00003459,-0.00037498,0.00010637,-0.00014986,-0.00000433,
 0.00014468,-0.01829783,0.00565690,0.00968686,-0.00001225,0.00015041,-0
 .00017594,-0.00041458,0.00058362,0.00001011,-0.00001571,0.00023031,-0.
 00013831,0.00004495,-0.00005315,-0.00002300,-0.00001430,-0.00001906,-0
 .00003489,0.00001048,0.00001750,-0.00003616,-0.00009681,-0.00002211,-0
 .00007900,0.00025953,0.00035931,-0.00029033,-0.00006443,-0.00005340,-0
 .00017626,0.00003608,-0.00002904,-0.00003050,0.00001371,-0.00000575,-0
 .00005499,0.00000247,-0.00000231,-0.00000270,-0.00154004,0.00030985,0.
 00012309,-0.00346679,-0.00148621,-0.00023919,0.00079518,-0.00314801,-0
 .00277265,-0.00003221,0.00002713,0.00003816,0.00003869,0.00005728,0.00
 001586,0.00009800,0.00012995,-0.00001538,0.00000463,0.00005312,0.00003
 554,0.00000491,0.00000274,0.00006499,0.00000071,-0.00002489,0.00004863
 ,-0.19886424,0.09704756,0.17779493\\0.00000940,0.00000742,-0.00000762,
 0.00000106,0.00000994,0.00001263,-0.00000778,0.00000221,-0.00000426,-0
 .00004798,0.00002537,-0.00000543,0.00000424,0.00000348,-0.00000098,0.0
 0000519,0.00000651,0.00000656,-0.00001095,-0.00000242,0.00000211,-0.00
 001015,0.00000362,-0.00000033,-0.00001516,-0.00000996,-0.00000943,0.00
 000567,-0.00000011,-0.00000224,0.00001494,0.00001352,0.00000809,0.0000
 0142,0.00000105,0.00000527,0.00001357,-0.00003251,-0.00000230,-0.00000
 117,0.00001037,0.00001257,0.00000829,0.00001185,0.00000537,-0.00001640
 ,-0.00001766,0.00000544,-0.00000746,-0.00001675,-0.00000907,0.00001934
 ,0.00001073,-0.00000093,0.00001434,-0.00000287,0.00000960,0.00001324,-
 0.00002561,-0.00002464,0.00000568,-0.00000703,0.00001205,-0.00000621,-
 0.00001066,0.00000208,-0.00002523,0.00001175,-0.00001749,0.00000389,0.
 00000269,-0.00000395,0.00000555,0.00000943,0.00000061,0.00000110,0.000
 00139,-0.00000710,0.00000166,-0.00000286,-0.00000173,0.00000328,-0.000
 00228,-0.00000109,0.00000259,-0.00000012,0.00000292,-0.00000224,-0.000
 00326,0.00000082,-0.00000634,-0.00000174,0.00000801,0.00000190,0.00000
 393,-0.00000021,0.00000423,0.00000409,-0.00000314,0.00000172,0.0000016
 4,-0.00000098,0.00000809,0.00000362,0.00000446,0.00000490,-0.00000692,
 0.00000882,0.00000657,0.00000244,0.00000272,0.00000238,-0.00000773,-0.
 00000530,-0.00000517,-0.00000770,0.00000004,-0.00000039,-0.00000212,0.
 00000035,0.00000164,-0.00000019,0.00000002,0.00000301,-0.00000135,-0.0
 0000202,-0.00000068,0.00000821,-0.00000109,0.00000214,0.00000214,0.000
 00289,-0.00000773,0.00000444,-0.00000210\\\@


 Age does not diminish the extreme disappointment of
 having a scoop of ice cream fall from the cone.
 -- Jim Fiebig
 Job cpu time:       1 days  5 hours 57 minutes 42.9 seconds.
 Elapsed time:       0 days  1 hours 52 minutes 48.5 seconds.
 File lengths (MBytes):  RWF=   1730 Int=      0 D2E=      0 Chk=     36 Scr=      1
 Normal termination of Gaussian 16 at Fri Sep 19 04:47:41 2025.
