 Entering Gaussian System, Link 0=g16
 Input=COHE0027.gjf
 Output=COHE0027.log
 Initial command:
 /usr/local/g16/l1.exe "/dados_01/scratch/Gau-2368705.inp" -scrdir="/dados_01/scratch/"
 Entering Link 1 = /usr/local/g16/l1.exe PID=   2368706.
  
 Copyright (c) 1988-2017, Gaussian, Inc.  All Rights Reserved.
  
 This is part of the Gaussian(R) 16 program.  It is based on
 the Gaussian(R) 09 system (copyright 2009, Gaussian, Inc.),
 the Gaussian(R) 03 system (copyright 2003, Gaussian, Inc.),
 the Gaussian(R) 98 system (copyright 1998, Gaussian, Inc.),
 the Gaussian(R) 94 system (copyright 1995, Gaussian, Inc.),
 the Gaussian 92(TM) system (copyright 1992, Gaussian, Inc.),
 the Gaussian 90(TM) system (copyright 1990, Gaussian, Inc.),
 the Gaussian 88(TM) system (copyright 1988, Gaussian, Inc.),
 the Gaussian 86(TM) system (copyright 1986, Carnegie Mellon
 University), and the Gaussian 82(TM) system (copyright 1983,
 Carnegie Mellon University). Gaussian is a federally registered
 trademark of Gaussian, Inc.
  
 This software contains proprietary and confidential information,
 including trade secrets, belonging to Gaussian, Inc.
  
 This software is provided under written license and may be
 used, copied, transmitted, or stored only in accord with that
 written license.
  
 The following legend is applicable only to US Government
 contracts under FAR:
  
                    RESTRICTED RIGHTS LEGEND
  
 Use, reproduction and disclosure by the US Government is
 subject to restrictions as set forth in subparagraphs (a)
 and (c) of the Commercial Computer Software - Restricted
 Rights clause in FAR 52.227-19.
  
 Gaussian, Inc.
 340 Quinnipiac St., Bldg. 40, Wallingford CT 06492
  
  
 ---------------------------------------------------------------
 Warning -- This program may not be used in any manner that
 competes with the business of Gaussian, Inc. or will provide
 assistance to any competitor of Gaussian, Inc.  The licensee
 of this program is prohibited from giving any competitor of
 Gaussian, Inc. access to this program.  By using this program,
 the user acknowledges that Gaussian, Inc. is engaged in the
 business of creating and licensing software in the field of
 computational chemistry and represents and warrants to the
 licensee that it is not a competitor of Gaussian, Inc. and that
 it will not use this program in any manner prohibited above.
 ---------------------------------------------------------------
  

 Cite this work as:
 Gaussian 16, Revision B.01,
 M. J. Frisch, G. W. Trucks, H. B. Schlegel, G. E. Scuseria, 
 M. A. Robb, J. R. Cheeseman, G. Scalmani, V. Barone, 
 G. A. Petersson, H. Nakatsuji, X. Li, M. Caricato, A. V. Marenich, 
 J. Bloino, B. G. Janesko, R. Gomperts, B. Mennucci, H. P. Hratchian, 
 J. V. Ortiz, A. F. Izmaylov, J. L. Sonnenberg, D. Williams-Young, 
 F. Ding, F. Lipparini, F. Egidi, J. Goings, B. Peng, A. Petrone, 
 T. Henderson, D. Ranasinghe, V. G. Zakrzewski, J. Gao, N. Rega, 
 G. Zheng, W. Liang, M. Hada, M. Ehara, K. Toyota, R. Fukuda, 
 J. Hasegawa, M. Ishida, T. Nakajima, Y. Honda, O. Kitao, H. Nakai, 
 T. Vreven, K. Throssell, J. A. Montgomery, Jr., J. E. Peralta, 
 F. Ogliaro, M. J. Bearpark, J. J. Heyd, E. N. Brothers, K. N. Kudin, 
 V. N. Staroverov, T. A. Keith, R. Kobayashi, J. Normand, 
 K. Raghavachari, A. P. Rendell, J. C. Burant, S. S. Iyengar, 
 J. Tomasi, M. Cossi, J. M. Millam, M. Klene, C. Adamo, R. Cammi, 
 J. W. Ochterski, R. L. Martin, K. Morokuma, O. Farkas, 
 J. B. Foresman, and D. J. Fox, Gaussian, Inc., Wallingford CT, 2016.
 
 ******************************************
 Gaussian 16:  ES64L-G16RevB.01 20-Dec-2017
                 1-Oct-2025 
 ******************************************
 %nprocs=16
 Will use up to   16 processors via shared memory.
 %mem=40GB
 %chk=COHE0027.chk
 ----------------------------------------------------------------------
 # opt freq=noraman M08HX/6-311++G** scf=xqc Empiricaldispersion=pfd In
 t(Grid=ultraFine)
 ----------------------------------------------------------------------
 1/18=20,19=15,26=4,38=1/1,3;
 2/9=110,12=2,17=6,18=5,40=1/2;
 3/5=4,6=6,7=1111,11=2,25=1,30=1,71=1,74=-74,75=-5,124=11/1,2,3;
 4//1;
 5/5=2,8=3,13=1,38=5/2,8;
 6/7=2,8=2,9=2,10=2,28=1/1;
 7//1,2,3,16;
 1/18=20,19=15,26=4/3(2);
 2/9=110/2;
 99//99;
 2/9=110/2;
 3/5=4,6=6,7=1111,11=2,25=1,30=1,71=1,74=-74,75=-5,124=11/1,2,3;
 4/5=5,16=3,69=1/1;
 5/5=2,8=3,13=1,38=5/2,8;
 7//1,2,3,16;
 1/18=20,19=15,26=4/3(-5);
 2/9=110/2;
 6/7=2,8=2,9=2,10=2,19=2,28=1/1;
 99/9=1/99;
 --------
 COHE0027
 --------
 Symbolic Z-matrix:
 Charge =  0 Multiplicity = 1
 C                    -1.2838   -0.691     0.2258 
 C                    -1.2404    0.7662   -0.2258 
 C                    -0.0435   -1.4573   -0.2258 
 C                     0.0435    1.4573    0.2258 
 C                     1.2404   -0.7663    0.2258 
 C                     1.2838    0.6911   -0.2257 
 H                    -2.1821   -1.1746   -0.1741 
 H                    -1.3588   -0.7314    1.3195 
 H                    -1.3129    0.811    -1.3195 
 H                    -2.1083    1.3025    0.1741 
 H                    -0.046    -1.5425   -1.3194 
 H                    -0.0739   -2.4771    0.1741 
 H                     0.0459    1.5425    1.3195 
 H                     0.0738    2.4771   -0.1742 
 H                     1.3129   -0.8111    1.3194 
 H                     2.1083   -1.3026   -0.1742 
 H                     2.1821    1.1746    0.1742 
 H                     1.359     0.7315   -1.3194 
 

 GradGradGradGradGradGradGradGradGradGradGradGradGradGradGradGradGradGrad
 Berny optimization.
 Initialization pass.
                           ----------------------------
                           !    Initial Parameters    !
                           ! (Angstroms and Degrees)  !
 --------------------------                            --------------------------
 ! Name  Definition              Value          Derivative Info.                !
 --------------------------------------------------------------------------------
 ! R1    R(1,2)                  1.5262         estimate D2E/DX2                !
 ! R2    R(1,3)                  1.5263         estimate D2E/DX2                !
 ! R3    R(1,7)                  1.0958         estimate D2E/DX2                !
 ! R4    R(1,8)                  1.097          estimate D2E/DX2                !
 ! R5    R(2,4)                  1.5264         estimate D2E/DX2                !
 ! R6    R(2,9)                  1.097          estimate D2E/DX2                !
 ! R7    R(2,10)                 1.0958         estimate D2E/DX2                !
 ! R8    R(3,5)                  1.5264         estimate D2E/DX2                !
 ! R9    R(3,11)                 1.0969         estimate D2E/DX2                !
 ! R10   R(3,12)                 1.0958         estimate D2E/DX2                !
 ! R11   R(4,6)                  1.5262         estimate D2E/DX2                !
 ! R12   R(4,13)                 1.097          estimate D2E/DX2                !
 ! R13   R(4,14)                 1.0959         estimate D2E/DX2                !
 ! R14   R(5,6)                  1.5264         estimate D2E/DX2                !
 ! R15   R(5,15)                 1.0969         estimate D2E/DX2                !
 ! R16   R(5,16)                 1.0958         estimate D2E/DX2                !
 ! R17   R(6,17)                 1.0957         estimate D2E/DX2                !
 ! R18   R(6,18)                 1.097          estimate D2E/DX2                !
 ! A1    A(2,1,3)              111.6365         estimate D2E/DX2                !
 ! A2    A(2,1,7)              109.6762         estimate D2E/DX2                !
 ! A3    A(2,1,8)              109.3971         estimate D2E/DX2                !
 ! A4    A(3,1,7)              109.6712         estimate D2E/DX2                !
 ! A5    A(3,1,8)              109.3938         estimate D2E/DX2                !
 ! A6    A(7,1,8)              106.9504         estimate D2E/DX2                !
 ! A7    A(1,2,4)              111.6334         estimate D2E/DX2                !
 ! A8    A(1,2,9)              109.3974         estimate D2E/DX2                !
 ! A9    A(1,2,10)             109.6809         estimate D2E/DX2                !
 ! A10   A(4,2,9)              109.3938         estimate D2E/DX2                !
 ! A11   A(4,2,10)             109.6716         estimate D2E/DX2                !
 ! A12   A(9,2,10)             106.948          estimate D2E/DX2                !
 ! A13   A(1,3,5)              111.636          estimate D2E/DX2                !
 ! A14   A(1,3,11)             109.3984         estimate D2E/DX2                !
 ! A15   A(1,3,12)             109.6771         estimate D2E/DX2                !
 ! A16   A(5,3,11)             109.3932         estimate D2E/DX2                !
 ! A17   A(5,3,12)             109.6737         estimate D2E/DX2                !
 ! A18   A(11,3,12)            106.9466         estimate D2E/DX2                !
 ! A19   A(2,4,6)              111.6375         estimate D2E/DX2                !
 ! A20   A(2,4,13)             109.3881         estimate D2E/DX2                !
 ! A21   A(2,4,14)             109.6699         estimate D2E/DX2                !
 ! A22   A(6,4,13)             109.3995         estimate D2E/DX2                !
 ! A23   A(6,4,14)             109.6782         estimate D2E/DX2                !
 ! A24   A(13,4,14)            106.9521         estimate D2E/DX2                !
 ! A25   A(3,5,6)              111.6327         estimate D2E/DX2                !
 ! A26   A(3,5,15)             109.3948         estimate D2E/DX2                !
 ! A27   A(3,5,16)             109.6718         estimate D2E/DX2                !
 ! A28   A(6,5,15)             109.3918         estimate D2E/DX2                !
 ! A29   A(6,5,16)             109.6817         estimate D2E/DX2                !
 ! A30   A(15,5,16)            106.9525         estimate D2E/DX2                !
 ! A31   A(4,6,5)              111.6379         estimate D2E/DX2                !
 ! A32   A(4,6,17)             109.679          estimate D2E/DX2                !
 ! A33   A(4,6,18)             109.3998         estimate D2E/DX2                !
 ! A34   A(5,6,17)             109.6745         estimate D2E/DX2                !
 ! A35   A(5,6,18)             109.3913         estimate D2E/DX2                !
 ! A36   A(17,6,18)            106.9422         estimate D2E/DX2                !
 ! D1    D(3,1,2,4)            -54.269          estimate D2E/DX2                !
 ! D2    D(3,1,2,9)             66.9536         estimate D2E/DX2                !
 ! D3    D(3,1,2,10)          -176.0356         estimate D2E/DX2                !
 ! D4    D(7,1,2,4)           -176.0338         estimate D2E/DX2                !
 ! D5    D(7,1,2,9)            -54.8112         estimate D2E/DX2                !
 ! D6    D(7,1,2,10)            62.1996         estimate D2E/DX2                !
 ! D7    D(8,1,2,4)             66.9553         estimate D2E/DX2                !
 ! D8    D(8,1,2,9)           -171.8221         estimate D2E/DX2                !
 ! D9    D(8,1,2,10)           -54.8112         estimate D2E/DX2                !
 ! D10   D(2,1,3,5)             54.2711         estimate D2E/DX2                !
 ! D11   D(2,1,3,11)           -66.9531         estimate D2E/DX2                !
 ! D12   D(2,1,3,12)           176.0394         estimate D2E/DX2                !
 ! D13   D(7,1,3,5)            176.0388         estimate D2E/DX2                !
 ! D14   D(7,1,3,11)            54.8146         estimate D2E/DX2                !
 ! D15   D(7,1,3,12)           -62.1929         estimate D2E/DX2                !
 ! D16   D(8,1,3,5)            -66.9552         estimate D2E/DX2                !
 ! D17   D(8,1,3,11)           171.8206         estimate D2E/DX2                !
 ! D18   D(8,1,3,12)            54.8131         estimate D2E/DX2                !
 ! D19   D(1,2,4,6)             54.2659         estimate D2E/DX2                !
 ! D20   D(1,2,4,13)           -66.9601         estimate D2E/DX2                !
 ! D21   D(1,2,4,14)           176.0359         estimate D2E/DX2                !
 ! D22   D(9,2,4,6)            -66.9587         estimate D2E/DX2                !
 ! D23   D(9,2,4,13)           171.8152         estimate D2E/DX2                !
 ! D24   D(9,2,4,14)            54.8113         estimate D2E/DX2                !
 ! D25   D(10,2,4,6)           176.0378         estimate D2E/DX2                !
 ! D26   D(10,2,4,13)           54.8118         estimate D2E/DX2                !
 ! D27   D(10,2,4,14)          -62.1922         estimate D2E/DX2                !
 ! D28   D(1,3,5,6)            -54.2619         estimate D2E/DX2                !
 ! D29   D(1,3,5,15)            66.9559         estimate D2E/DX2                !
 ! D30   D(1,3,5,16)          -176.0346         estimate D2E/DX2                !
 ! D31   D(11,3,5,6)            66.9652         estimate D2E/DX2                !
 ! D32   D(11,3,5,15)         -171.8169         estimate D2E/DX2                !
 ! D33   D(11,3,5,16)          -54.8074         estimate D2E/DX2                !
 ! D34   D(12,3,5,6)          -176.0323         estimate D2E/DX2                !
 ! D35   D(12,3,5,15)          -54.8144         estimate D2E/DX2                !
 ! D36   D(12,3,5,16)           62.1951         estimate D2E/DX2                !
 ! D37   D(2,4,6,5)            -54.2614         estimate D2E/DX2                !
 ! D38   D(2,4,6,17)          -176.0333         estimate D2E/DX2                !
 ! D39   D(2,4,6,18)            66.9626         estimate D2E/DX2                !
 ! D40   D(13,4,6,5)            66.9581         estimate D2E/DX2                !
 ! D41   D(13,4,6,17)          -54.8139         estimate D2E/DX2                !
 ! D42   D(13,4,6,18)         -171.818          estimate D2E/DX2                !
 ! D43   D(14,4,6,5)          -176.0266         estimate D2E/DX2                !
 ! D44   D(14,4,6,17)           62.2015         estimate D2E/DX2                !
 ! D45   D(14,4,6,18)          -54.8026         estimate D2E/DX2                !
 ! D46   D(3,5,6,4)             54.2594         estimate D2E/DX2                !
 ! D47   D(3,5,6,17)           176.0339         estimate D2E/DX2                !
 ! D48   D(3,5,6,18)           -66.9695         estimate D2E/DX2                !
 ! D49   D(15,5,6,4)           -66.9602         estimate D2E/DX2                !
 ! D50   D(15,5,6,17)           54.8144         estimate D2E/DX2                !
 ! D51   D(15,5,6,18)          171.8109         estimate D2E/DX2                !
 ! D52   D(16,5,6,4)           176.0263         estimate D2E/DX2                !
 ! D53   D(16,5,6,17)          -62.1991         estimate D2E/DX2                !
 ! D54   D(16,5,6,18)           54.7974         estimate D2E/DX2                !
 --------------------------------------------------------------------------------
 Trust Radius=3.00D-01 FncErr=1.00D-07 GrdErr=1.00D-06 EigMax=2.50D+02 EigMin=1.00D-04
 Number of steps in this run=    108 maximum allowed number of steps=    108.
 GradGradGradGradGradGradGradGradGradGradGradGradGradGradGradGradGradGrad

                          Input orientation:                          
 ---------------------------------------------------------------------
 Center     Atomic      Atomic             Coordinates (Angstroms)
 Number     Number       Type             X           Y           Z
 ---------------------------------------------------------------------
      1          6           0       -1.283800   -0.691000    0.225800
      2          6           0       -1.240400    0.766200   -0.225800
      3          6           0       -0.043500   -1.457300   -0.225800
      4          6           0        0.043500    1.457300    0.225800
      5          6           0        1.240400   -0.766300    0.225800
      6          6           0        1.283800    0.691100   -0.225700
      7          1           0       -2.182100   -1.174600   -0.174100
      8          1           0       -1.358800   -0.731400    1.319500
      9          1           0       -1.312900    0.811000   -1.319500
     10          1           0       -2.108300    1.302500    0.174100
     11          1           0       -0.046000   -1.542500   -1.319400
     12          1           0       -0.073900   -2.477100    0.174100
     13          1           0        0.045900    1.542500    1.319500
     14          1           0        0.073800    2.477100   -0.174200
     15          1           0        1.312900   -0.811100    1.319400
     16          1           0        2.108300   -1.302600   -0.174200
     17          1           0        2.182100    1.174600    0.174200
     18          1           0        1.359000    0.731500   -1.319400
 ---------------------------------------------------------------------
                    Distance matrix (angstroms):
                    1          2          3          4          5
     1  C    0.000000
     2  C    1.526191   0.000000
     3  C    1.526271   2.525178   0.000000
     4  C    2.525256   1.526421   2.950662   0.000000
     5  C    2.525323   2.950740   1.526376   2.525266   0.000000
     6  C    2.950699   2.525317   2.525341   1.526191   1.526352
     7  H    1.095779   2.157818   2.157823   3.469887   3.469890
     8  H    1.097013   2.155174   2.155202   2.820112   2.820149
     9  H    2.155180   1.097015   2.820060   2.155337   3.375673
    10  H    2.157896   1.095805   3.469844   2.157980   3.936546
    11  H    2.155190   2.820044   1.096917   3.375567   2.155216
    12  H    2.157935   3.469818   1.095827   3.936491   2.157984
    13  H    2.820072   2.155264   3.375610   1.097016   2.820207
    14  H    3.469861   2.158000   3.936486   1.095860   3.469957
    15  H    2.820148   3.375627   2.155235   2.820102   1.096916
    16  H    3.469928   3.936545   2.157971   3.469935   1.095841
    17  H    3.936444   3.469913   3.469898   2.157821   2.157905
    18  H    3.375728   2.820292   2.820250   2.155219   2.155253
                    6          7          8          9         10
     6  C    0.000000
     7  H    3.936491   0.000000
     8  H    3.375572   1.762127   0.000000
     9  H    2.820217   2.451542   3.057029   0.000000
    10  H    3.469869   2.502542   2.451620   1.762122   0.000000
    11  H    2.820198   2.451527   3.056979   2.672826   3.818069
    12  H    3.469968   2.502450   2.451607   3.818058   4.292337
    13  H    2.155208   3.818044   2.672789   3.057082   2.451554
    14  H    2.157904   4.292318   3.818109   2.451640   2.502510
    15  H    2.155176   3.818075   2.672889   4.060767   4.181343
    16  H    2.158076   4.292309   3.818140   4.181343   4.968659
    17  H    1.095735   4.968530   4.181210   3.818163   4.292306
    18  H    1.097026   4.181425   4.060826   2.673082   3.818213
                   11         12         13         14         15
    11  H    0.000000
    12  H    1.762044   0.000000
    13  H    4.060722   4.181325   0.000000
    14  H    4.181270   4.968624   1.762213   0.000000
    15  H    3.056930   2.451629   2.672961   3.818176   0.000000
    16  H    2.451539   2.502551   3.818275   4.292473   1.762122
    17  H    3.818102   4.292371   2.451614   2.502562   2.451529
    18  H    2.673032   3.818227   3.057081   2.451600   3.056960
                   16         17         18
    16  H    0.000000
    17  H    2.502668   0.000000
    18  H    2.451631   1.762008   0.000000
 Stoichiometry    C6H12
 Framework group  C1[X(C6H12)]
 Deg. of freedom    48
 Full point group                 C1      NOp   1
 Largest Abelian subgroup         C1      NOp   1
 Largest concise Abelian subgroup C1      NOp   1
                         Standard orientation:                         
 ---------------------------------------------------------------------
 Center     Atomic      Atomic             Coordinates (Angstroms)
 Number     Number       Type             X           Y           Z
 ---------------------------------------------------------------------
      1          6           0        1.444695    0.196154    0.225788
      2          6           0        0.892331   -1.152997   -0.225813
      3          6           0        0.552492    1.349208   -0.225813
      4          6           0       -0.552493   -1.349212    0.225788
      5          6           0       -0.892298    1.153087    0.225788
      6          6           0       -1.444732   -0.196252   -0.225713
      7          1           0        2.455610    0.333496   -0.174113
      8          1           0        1.529106    0.207643    1.319488
      9          1           0        0.944481   -1.220404   -1.319513
     10          1           0        1.516622   -1.959923    0.174088
     11          1           0        0.584752    1.428104   -1.319413
     12          1           0        0.939081    2.293382    0.174088
     13          1           0       -0.584660   -1.428143    1.319488
     14          1           0       -0.938989   -2.293421   -0.174213
     15          1           0       -0.944448    1.220494    1.319388
     16          1           0       -1.516588    1.960013   -0.174213
     17          1           0       -2.455612   -0.333500    0.174188
     18          1           0       -1.529330   -0.207671   -1.319413
 ---------------------------------------------------------------------
 Rotational constants (GHZ):           4.3316495           4.3313988           2.4702427
 Standard basis: 6-311++G(d,p) (5D, 7F)
 There are   222 symmetry adapted cartesian basis functions of A   symmetry.
 There are   216 symmetry adapted basis functions of A   symmetry.
   216 basis functions,   324 primitive gaussians,   222 cartesian basis functions
    24 alpha electrons       24 beta electrons
       nuclear repulsion energy       256.3392054264 Hartrees.
 NAtoms=   18 NActive=   18 NUniq=   18 SFac= 1.00D+00 NAtFMM=   60 NAOKFM=F Big=F
 Integral buffers will be    131072 words long.
 Raffenetti 2 integral format.
 Two-electron integral symmetry is turned on.
 R6APFD:  NTU= -4 IXU= 1 FactS= 1.050
 Nuclear repulsion after empirical dispersion term =      256.3283663070 Hartrees.
 One-electron integrals computed using PRISM.
 NBasis=   216 RedAO= T EigKep=  1.66D-05  NBF=   216
 NBsUse=   216 1.00D-06 EigRej= -1.00D+00 NBFU=   216
 ExpMin= 3.60D-02 ExpMax= 4.56D+03 ExpMxC= 6.82D+02 IAcc=3 IRadAn=         5 AccDes= 0.00D+00
 Harris functional with IExCor= 1009 and IRadAn=       5 diagonalized for initial guess.
 HarFok:  IExCor= 1009 AccDes= 0.00D+00 IRadAn=         5 IDoV= 1 UseB2=F ITyADJ=14
 ICtDFT=  3500011 ScaDFX=  1.000000  1.000000  1.000000  1.000000
 FoFCou: FMM=F IPFlag=           0 FMFlag=      100000 FMFlg1=           0
         NFxFlg=           0 DoJE=T BraDBF=F KetDBF=T FulRan=T
         wScrn=  0.000000 ICntrl=       500 IOpCl=  0 I1Cent=   200000004 NGrid=           0
         NMat0=    1 NMatS0=      1 NMatT0=    0 NMatD0=    1 NMtDS0=    0 NMtDT0=    0
 Petite list used in FoFCou.
 Requested convergence on RMS density matrix=1.00D-08 within  32 cycles.
 Requested convergence on MAX density matrix=1.00D-06.
 Requested convergence on             energy=1.00D-06.
 No special actions if energy rises.
 SCF Done:  E(RM08HX) =  -235.895783201     A.U. after   10 cycles
            NFock= 10  Conv=0.33D-08     -V/T= 2.0057
 QCSCF skips out because SCF is already converged.

 **********************************************************************

            Population analysis using the SCF Density.

 **********************************************************************

 Orbital symmetries:
       Occupied  (A) (A) (A) (A) (A) (A) (A) (A) (A) (A) (A) (A)
                 (A) (A) (A) (A) (A) (A) (A) (A) (A) (A) (A) (A)
       Virtual   (A) (A) (A) (A) (A) (A) (A) (A) (A) (A) (A) (A)
                 (A) (A) (A) (A) (A) (A) (A) (A) (A) (A) (A) (A)
                 (A) (A) (A) (A) (A) (A) (A) (A) (A) (A) (A) (A)
                 (A) (A) (A) (A) (A) (A) (A) (A) (A) (A) (A) (A)
                 (A) (A) (A) (A) (A) (A) (A) (A) (A) (A) (A) (A)
                 (A) (A) (A) (A) (A) (A) (A) (A) (A) (A) (A) (A)
                 (A) (A) (A) (A) (A) (A) (A) (A) (A) (A) (A) (A)
                 (A) (A) (A) (A) (A) (A) (A) (A) (A) (A) (A) (A)
                 (A) (A) (A) (A) (A) (A) (A) (A) (A) (A) (A) (A)
                 (A) (A) (A) (A) (A) (A) (A) (A) (A) (A) (A) (A)
                 (A) (A) (A) (A) (A) (A) (A) (A) (A) (A) (A) (A)
                 (A) (A) (A) (A) (A) (A) (A) (A) (A) (A) (A) (A)
                 (A) (A) (A) (A) (A) (A) (A) (A) (A) (A) (A) (A)
                 (A) (A) (A) (A) (A) (A) (A) (A) (A) (A) (A) (A)
                 (A) (A) (A) (A) (A) (A) (A) (A) (A) (A) (A) (A)
                 (A) (A) (A) (A) (A) (A) (A) (A) (A) (A) (A) (A)
 The electronic state is 1-A.
 Alpha  occ. eigenvalues --  -10.51599 -10.51581 -10.51581 -10.51543 -10.51542
 Alpha  occ. eigenvalues --  -10.51521  -0.93769  -0.84002  -0.83998  -0.69264
 Alpha  occ. eigenvalues --   -0.69263  -0.62769  -0.55231  -0.51219  -0.50613
 Alpha  occ. eigenvalues --   -0.50612  -0.43975  -0.43949  -0.43945  -0.40232
 Alpha  occ. eigenvalues --   -0.40231  -0.37220  -0.35423  -0.35419
 Alpha virt. eigenvalues --   -0.02545  -0.01272  -0.00857  -0.00857   0.01583
 Alpha virt. eigenvalues --    0.01583   0.02033   0.02149   0.02149   0.04834
 Alpha virt. eigenvalues --    0.05645   0.05645   0.07210   0.07793   0.08148
 Alpha virt. eigenvalues --    0.08148   0.10917   0.10917   0.11684   0.12723
 Alpha virt. eigenvalues --    0.12723   0.12796   0.13431   0.13533   0.13533
 Alpha virt. eigenvalues --    0.14419   0.14631   0.14631   0.15121   0.16193
 Alpha virt. eigenvalues --    0.16194   0.17286   0.17287   0.17434   0.19608
 Alpha virt. eigenvalues --    0.19609   0.22846   0.24989   0.24989   0.25730
 Alpha virt. eigenvalues --    0.28080   0.28084   0.28092   0.28094   0.28303
 Alpha virt. eigenvalues --    0.33959   0.34972   0.34972   0.36020   0.36022
 Alpha virt. eigenvalues --    0.37098   0.37421   0.37422   0.37905   0.48018
 Alpha virt. eigenvalues --    0.48018   0.48115   0.50128   0.50148   0.51747
 Alpha virt. eigenvalues --    0.51748   0.59533   0.59534   0.60846   0.67895
 Alpha virt. eigenvalues --    0.68478   0.68482   0.70244   0.70246   0.71845
 Alpha virt. eigenvalues --    0.71848   0.72570   0.73033   0.73035   0.73616
 Alpha virt. eigenvalues --    0.74670   0.77985   0.77987   0.79539   0.79540
 Alpha virt. eigenvalues --    0.79945   0.81876   0.86155   0.89420   0.89422
 Alpha virt. eigenvalues --    0.92287   1.01800   1.01801   1.06804   1.06807
 Alpha virt. eigenvalues --    1.15420   1.22383   1.22642   1.22644   1.24622
 Alpha virt. eigenvalues --    1.29588   1.29590   1.49917   1.49919   1.53146
 Alpha virt. eigenvalues --    1.58755   1.58759   1.60077   1.60080   1.60819
 Alpha virt. eigenvalues --    1.61453   1.64201   1.64206   1.66177   1.66182
 Alpha virt. eigenvalues --    1.67175   1.67451   1.67455   1.71992   1.73535
 Alpha virt. eigenvalues --    1.74133   1.82236   1.82238   1.84112   1.84113
 Alpha virt. eigenvalues --    1.84585   1.84586   1.85386   1.86077   1.88843
 Alpha virt. eigenvalues --    1.88850   2.01483   2.01823   2.10435   2.10439
 Alpha virt. eigenvalues --    2.12913   2.12914   2.24387   2.24387   2.27253
 Alpha virt. eigenvalues --    2.27257   2.31376   2.34781   2.36287   2.36295
 Alpha virt. eigenvalues --    2.42336   2.43085   2.46441   2.46442   2.50963
 Alpha virt. eigenvalues --    2.56908   2.58447   2.58447   2.60031   2.60474
 Alpha virt. eigenvalues --    2.60474   2.68081   2.68085   2.68123   2.76406
 Alpha virt. eigenvalues --    2.76411   2.77853   2.77853   2.82724   2.82727
 Alpha virt. eigenvalues --    2.83749   2.84037   2.88462   2.88464   2.94899
 Alpha virt. eigenvalues --    2.94902   2.96512   2.96666   2.97390   3.21012
 Alpha virt. eigenvalues --    3.21024   3.41997   3.42019   3.50337   3.80275
 Alpha virt. eigenvalues --    3.80280   3.85146   3.89679   3.89682   3.96224
 Alpha virt. eigenvalues --    4.17970   4.17977   4.25171   4.38025   4.38038
 Alpha virt. eigenvalues --    4.48106  23.90231  23.98481  24.01299  24.01312
 Alpha virt. eigenvalues --   24.01433  24.01437
          Condensed to atoms (all electrons):
               1          2          3          4          5          6
     1  C    6.386229  -0.290357  -0.290152  -0.121599  -0.121609   0.195764
     2  C   -0.290357   6.386288  -0.121552  -0.290080   0.195744  -0.121617
     3  C   -0.290152  -0.121552   6.385947   0.195673  -0.290019  -0.121572
     4  C   -0.121599  -0.290080   0.195673   6.386093  -0.121401  -0.290379
     5  C   -0.121609   0.195744  -0.290019  -0.121401   6.385958  -0.290203
     6  C    0.195764  -0.121617  -0.121572  -0.290379  -0.290203   6.386351
     7  H    0.480384  -0.077792  -0.077777   0.003545   0.003541  -0.000512
     8  H    0.535754  -0.063423  -0.063437  -0.032720  -0.032718   0.016479
     9  H   -0.063394   0.535709  -0.032731  -0.063415   0.016471  -0.032703
    10  H   -0.077779   0.480372   0.003549  -0.077770  -0.000507   0.003535
    11  H   -0.063376  -0.032721   0.535691   0.016472  -0.063435  -0.032693
    12  H   -0.077783   0.003550   0.480372  -0.000511  -0.077757   0.003541
    13  H   -0.032706  -0.063395   0.016461   0.535696  -0.032704  -0.063415
    14  H    0.003540  -0.077779  -0.000508   0.480385   0.003552  -0.077784
    15  H   -0.032689   0.016468  -0.063413  -0.032708   0.535662  -0.063384
    16  H    0.003540  -0.000514  -0.077770   0.003549   0.480368  -0.077762
    17  H   -0.000518   0.003547   0.003549  -0.077783  -0.077771   0.480363
    18  H    0.016487  -0.032703  -0.032717  -0.063435  -0.063434   0.535750
               7          8          9         10         11         12
     1  C    0.480384   0.535754  -0.063394  -0.077779  -0.063376  -0.077783
     2  C   -0.077792  -0.063423   0.535709   0.480372  -0.032721   0.003550
     3  C   -0.077777  -0.063437  -0.032731   0.003549   0.535691   0.480372
     4  C    0.003545  -0.032720  -0.063415  -0.077770   0.016472  -0.000511
     5  C    0.003541  -0.032718   0.016471  -0.000507  -0.063435  -0.077757
     6  C   -0.000512   0.016479  -0.032703   0.003535  -0.032693   0.003541
     7  H    0.471952  -0.011227  -0.003345  -0.010183  -0.003343  -0.010183
     8  H   -0.011227   0.441546   0.002132  -0.003343   0.002133  -0.003344
     9  H   -0.003345   0.002132   0.441544  -0.011234   0.002809  -0.002042
    10  H   -0.010183  -0.003343  -0.011234   0.471929  -0.002042  -0.001161
    11  H   -0.003343   0.002133   0.002809  -0.002042   0.441557  -0.011247
    12  H   -0.010183  -0.003344  -0.002042  -0.001161  -0.011247   0.471955
    13  H   -0.002043   0.002807   0.002134  -0.003344   0.001447  -0.000148
    14  H   -0.001163  -0.002042  -0.003340  -0.010179  -0.000148   0.001131
    15  H   -0.002042   0.002808   0.001446  -0.000147   0.002133  -0.003344
    16  H   -0.001163  -0.002043  -0.000148   0.001131  -0.003343  -0.010178
    17  H    0.001131  -0.000147  -0.002043  -0.001163  -0.002042  -0.001163
    18  H   -0.000148   0.001446   0.002810  -0.002041   0.002811  -0.002042
              13         14         15         16         17         18
     1  C   -0.032706   0.003540  -0.032689   0.003540  -0.000518   0.016487
     2  C   -0.063395  -0.077779   0.016468  -0.000514   0.003547  -0.032703
     3  C    0.016461  -0.000508  -0.063413  -0.077770   0.003549  -0.032717
     4  C    0.535696   0.480385  -0.032708   0.003549  -0.077783  -0.063435
     5  C   -0.032704   0.003552   0.535662   0.480368  -0.077771  -0.063434
     6  C   -0.063415  -0.077784  -0.063384  -0.077762   0.480363   0.535750
     7  H   -0.002043  -0.001163  -0.002042  -0.001163   0.001131  -0.000148
     8  H    0.002807  -0.002042   0.002808  -0.002043  -0.000147   0.001446
     9  H    0.002134  -0.003340   0.001446  -0.000148  -0.002043   0.002810
    10  H   -0.003344  -0.010179  -0.000147   0.001131  -0.001163  -0.002041
    11  H    0.001447  -0.000148   0.002133  -0.003343  -0.002042   0.002811
    12  H   -0.000148   0.001131  -0.003344  -0.010178  -0.001163  -0.002042
    13  H    0.441569  -0.011228   0.002808  -0.002041  -0.003346   0.002131
    14  H   -0.011228   0.471951  -0.002042  -0.001162  -0.010186  -0.003341
    15  H    0.002808  -0.002042   0.441539  -0.011227  -0.003345   0.002134
    16  H   -0.002041  -0.001162  -0.011227   0.471928  -0.010179  -0.003339
    17  H   -0.003346  -0.010186  -0.003345  -0.010179   0.471956  -0.011252
    18  H    0.002131  -0.003341   0.002134  -0.003339  -0.011252   0.441557
 Mulliken charges:
               1
     1  C   -0.449736
     2  C   -0.449745
     3  C   -0.449593
     4  C   -0.449612
     5  C   -0.449736
     6  C   -0.449760
     7  H    0.240368
     8  H    0.209337
     9  H    0.209340
    10  H    0.240376
    11  H    0.209336
    12  H    0.240355
    13  H    0.209317
    14  H    0.240343
    15  H    0.209344
    16  H    0.240350
    17  H    0.240391
    18  H    0.209325
 Sum of Mulliken charges =   0.00000
 Mulliken charges with hydrogens summed into heavy atoms:
               1
     1  C   -0.000031
     2  C   -0.000028
     3  C    0.000097
     4  C    0.000048
     5  C   -0.000042
     6  C   -0.000044
 Electronic spatial extent (au):  <R**2>=            591.1432
 Charge=             -0.0000 electrons
 Dipole moment (field-independent basis, Debye):
    X=              0.0000    Y=              0.0000    Z=             -0.0000  Tot=              0.0000
 Quadrupole moment (field-independent basis, Debye-Ang):
   XX=            -40.8588   YY=            -40.8587   ZZ=            -40.3412
   XY=             -0.0001   XZ=              0.0001   YZ=             -0.0002
 Traceless Quadrupole moment (field-independent basis, Debye-Ang):
   XX=             -0.1726   YY=             -0.1724   ZZ=              0.3450
   XY=             -0.0001   XZ=              0.0001   YZ=             -0.0002
 Octapole moment (field-independent basis, Debye-Ang**2):
  XXX=             -0.0006  YYY=              0.0009  ZZZ=              0.0004  XYY=              0.0004
  XXY=              0.0003  XXZ=             -0.0008  XZZ=              0.0000  YZZ=              0.0003
  YYZ=             -0.0009  XYZ=             -0.0002
 Hexadecapole moment (field-independent basis, Debye-Ang**3):
 XXXX=           -366.8019 YYYY=           -366.7855 ZZZZ=           -103.8177 XXXY=              0.0006
 XXXZ=             -2.8445 YYYX=             -0.0017 YYYZ=              1.2200 ZZZX=              0.0021
 ZZZY=             -0.0004 XXYY=           -122.2651 XXZZ=            -79.8940 YYZZ=            -79.8922
 XXYZ=             -1.2203 YYXZ=              2.8490 ZZXY=             -0.0003
 N-N= 2.563283663070D+02 E-N=-1.058084905317D+03  KE= 2.345602051244D+02
 R6APFD:  NTU= -4 IXU= 1 FactS= 1.050
 Calling FoFJK, ICntrl=      2127 FMM=F ISym2X=0 I1Cent= 0 IOpClX= 0 NMat=1 NMatS=1 NMatT=0.
 ***** Axes restored to original set *****
 -------------------------------------------------------------------
 Center     Atomic                   Forces (Hartrees/Bohr)
 Number     Number              X              Y              Z
 -------------------------------------------------------------------
      1        6          -0.001548896   -0.000880619   -0.001879310
      2        6          -0.001393318    0.001065916    0.001882560
      3        6           0.000014924   -0.001727819    0.001946932
      4        6          -0.000059549    0.001753882   -0.001897095
      5        6           0.001416858   -0.000992238   -0.001958076
      6        6           0.001569500    0.000768971    0.001849546
      7        1          -0.002442677   -0.001321658    0.000964796
      8        1           0.000273952    0.000155819    0.003524585
      9        1           0.000272870   -0.000164967   -0.003506538
     10        1          -0.002343709    0.001444823   -0.000958974
     11        1           0.000006350    0.000313586   -0.003578173
     12        1          -0.000089019   -0.002736979   -0.000955878
     13        1          -0.000003664   -0.000309356    0.003514823
     14        1           0.000091552    0.002719517    0.000973864
     15        1          -0.000264591    0.000155621    0.003567263
     16        1           0.002328194   -0.001426097    0.000969448
     17        1           0.002458717    0.001335200   -0.000941400
     18        1          -0.000287492   -0.000153601   -0.003518371
 -------------------------------------------------------------------
 Cartesian Forces:  Max     0.003578173 RMS     0.001756880

 GradGradGradGradGradGradGradGradGradGradGradGradGradGradGradGradGradGrad
 Berny optimization.
 FormGI is forming the generalized inverse of G from B-inverse, IUseBI=4.
 Internal  Forces:  Max     0.004463749 RMS     0.001458123
 Search for a local minimum.
 Step number   1 out of a maximum of  108
 All quantities printed in internal units (Hartrees-Bohrs-Radians)
 Mixed Optimization -- RFO/linear search
 Second derivative matrix not updated -- first step.
 ITU=  0
     Eigenvalues ---    0.00595   0.00596   0.00685   0.01960   0.01961
     Eigenvalues ---    0.03677   0.03978   0.03978   0.04276   0.04833
     Eigenvalues ---    0.04833   0.04904   0.05523   0.05523   0.05941
     Eigenvalues ---    0.06130   0.08137   0.08138   0.08185   0.08186
     Eigenvalues ---    0.08186   0.08186   0.08192   0.08193   0.12087
     Eigenvalues ---    0.12117   0.12118   0.16153   0.16154   0.21898
     Eigenvalues ---    0.28224   0.28433   0.28441   0.29759   0.29770
     Eigenvalues ---    0.29774   0.34013   0.34014   0.34014   0.34015
     Eigenvalues ---    0.34025   0.34026   0.34144   0.34146   0.34148
     Eigenvalues ---    0.34150   0.34153   0.34158
 RFO step:  Lambda=-1.62089910D-03 EMin= 5.94613968D-03
 Linear search not attempted -- first point.
 Iteration  1 RMS(Cart)=  0.02358217 RMS(Int)=  0.00035065
 Iteration  2 RMS(Cart)=  0.00036870 RMS(Int)=  0.00004359
 Iteration  3 RMS(Cart)=  0.00000004 RMS(Int)=  0.00004359
 Variable       Old X    -DE/DX   Delta X   Delta X   Delta X     New X
                                 (Linear)    (Quad)   (Total)
    R1        2.88408   0.00446   0.00000   0.01492   0.01492   2.89900
    R2        2.88423   0.00440   0.00000   0.01470   0.01470   2.89893
    R3        2.07072   0.00223   0.00000   0.00651   0.00651   2.07723
    R4        2.07305   0.00349   0.00000   0.01021   0.01021   2.08327
    R5        2.88452   0.00429   0.00000   0.01434   0.01434   2.89886
    R6        2.07306   0.00347   0.00000   0.01016   0.01016   2.08322
    R7        2.07077   0.00221   0.00000   0.00645   0.00645   2.07722
    R8        2.88443   0.00431   0.00000   0.01440   0.01440   2.89883
    R9        2.07287   0.00354   0.00000   0.01036   0.01036   2.08323
   R10        2.07081   0.00220   0.00000   0.00642   0.00642   2.07723
   R11        2.88408   0.00443   0.00000   0.01479   0.01479   2.89887
   R12        2.07306   0.00348   0.00000   0.01018   0.01018   2.08324
   R13        2.07088   0.00218   0.00000   0.00635   0.00635   2.07723
   R14        2.88439   0.00439   0.00000   0.01467   0.01467   2.89906
   R15        2.07287   0.00353   0.00000   0.01033   0.01033   2.08320
   R16        2.07084   0.00219   0.00000   0.00638   0.00638   2.07722
   R17        2.07064   0.00226   0.00000   0.00659   0.00659   2.07723
   R18        2.07308   0.00348   0.00000   0.01019   0.01019   2.08327
    A1        1.94842  -0.00001   0.00000  -0.00832  -0.00848   1.93994
    A2        1.91421   0.00023   0.00000   0.01046   0.01052   1.92473
    A3        1.90934  -0.00005   0.00000  -0.00367  -0.00370   1.90564
    A4        1.91412   0.00021   0.00000   0.01026   0.01032   1.92444
    A5        1.90928  -0.00004   0.00000  -0.00361  -0.00364   1.90565
    A6        1.86664  -0.00036   0.00000  -0.00504  -0.00503   1.86161
    A7        1.94837  -0.00001   0.00000  -0.00835  -0.00851   1.93986
    A8        1.90934  -0.00005   0.00000  -0.00363  -0.00366   1.90569
    A9        1.91429   0.00021   0.00000   0.01024   0.01029   1.92459
   A10        1.90928  -0.00004   0.00000  -0.00358  -0.00360   1.90568
   A11        1.91413   0.00022   0.00000   0.01036   0.01041   1.92454
   A12        1.86660  -0.00035   0.00000  -0.00495  -0.00495   1.86165
   A13        1.94842  -0.00000   0.00000  -0.00836  -0.00852   1.93990
   A14        1.90936  -0.00004   0.00000  -0.00354  -0.00357   1.90580
   A15        1.91423   0.00021   0.00000   0.01023   0.01028   1.92451
   A16        1.90927  -0.00004   0.00000  -0.00355  -0.00357   1.90570
   A17        1.91417   0.00021   0.00000   0.01022   0.01028   1.92444
   A18        1.86657  -0.00035   0.00000  -0.00491  -0.00490   1.86167
   A19        1.94844  -0.00001   0.00000  -0.00837  -0.00853   1.93992
   A20        1.90918  -0.00004   0.00000  -0.00350  -0.00352   1.90566
   A21        1.91410   0.00021   0.00000   0.01026   0.01032   1.92442
   A22        1.90938  -0.00005   0.00000  -0.00355  -0.00357   1.90581
   A23        1.91425   0.00022   0.00000   0.01024   0.01029   1.92454
   A24        1.86667  -0.00036   0.00000  -0.00500  -0.00499   1.86167
   A25        1.94836  -0.00000   0.00000  -0.00835  -0.00852   1.93984
   A26        1.90930  -0.00005   0.00000  -0.00356  -0.00358   1.90572
   A27        1.91413   0.00023   0.00000   0.01039   0.01045   1.92458
   A28        1.90925  -0.00004   0.00000  -0.00355  -0.00357   1.90567
   A29        1.91431   0.00020   0.00000   0.01015   0.01021   1.92451
   A30        1.86667  -0.00035   0.00000  -0.00500  -0.00499   1.86169
   A31        1.94845  -0.00000   0.00000  -0.00835  -0.00851   1.93994
   A32        1.91426   0.00020   0.00000   0.01018   0.01024   1.92450
   A33        1.90939  -0.00005   0.00000  -0.00367  -0.00369   1.90569
   A34        1.91418   0.00023   0.00000   0.01043   0.01048   1.92467
   A35        1.90924  -0.00004   0.00000  -0.00359  -0.00362   1.90562
   A36        1.86649  -0.00035   0.00000  -0.00491  -0.00491   1.86159
    D1       -0.94717  -0.00002   0.00000  -0.02389  -0.02388  -0.97105
    D2        1.16856  -0.00011   0.00000  -0.03629  -0.03628   1.13228
    D3       -3.07240  -0.00044   0.00000  -0.03847  -0.03847  -3.11087
    D4       -3.07237  -0.00043   0.00000  -0.03853  -0.03852  -3.11089
    D5       -0.95664  -0.00052   0.00000  -0.05093  -0.05092  -1.00756
    D6        1.08559  -0.00085   0.00000  -0.05311  -0.05310   1.03248
    D7        1.16859  -0.00011   0.00000  -0.03634  -0.03634   1.13225
    D8       -2.99886  -0.00020   0.00000  -0.04874  -0.04874  -3.04760
    D9       -0.95664  -0.00053   0.00000  -0.05093  -0.05092  -1.00756
   D10        0.94721   0.00001   0.00000   0.02392   0.02391   0.97112
   D11       -1.16855   0.00010   0.00000   0.03623   0.03622  -1.13233
   D12        3.07247   0.00042   0.00000   0.03831   0.03831   3.11077
   D13        3.07246   0.00044   0.00000   0.03867   0.03866   3.11112
   D14        0.95670   0.00053   0.00000   0.05098   0.05098   1.00767
   D15       -1.08547   0.00085   0.00000   0.05307   0.05306  -1.03241
   D16       -1.16859   0.00011   0.00000   0.03641   0.03640  -1.13219
   D17        2.99884   0.00020   0.00000   0.04872   0.04872   3.04755
   D18        0.95667   0.00052   0.00000   0.05080   0.05080   1.00747
   D19        0.94712   0.00001   0.00000   0.02392   0.02392   0.97103
   D20       -1.16867   0.00010   0.00000   0.03621   0.03620  -1.13247
   D21        3.07241   0.00043   0.00000   0.03836   0.03835   3.11076
   D22       -1.16865   0.00011   0.00000   0.03635   0.03635  -1.13230
   D23        2.99874   0.00019   0.00000   0.04864   0.04863   3.04737
   D24        0.95664   0.00052   0.00000   0.05079   0.05078   1.00742
   D25        3.07244   0.00043   0.00000   0.03844   0.03843   3.11087
   D26        0.95665   0.00052   0.00000   0.05072   0.05072   1.00736
   D27       -1.08546   0.00085   0.00000   0.05288   0.05287  -1.03259
   D28       -0.94705  -0.00002   0.00000  -0.02404  -0.02403  -0.97108
   D29        1.16860  -0.00011   0.00000  -0.03636  -0.03635   1.13225
   D30       -3.07238  -0.00043   0.00000  -0.03846  -0.03845  -3.11084
   D31        1.16876  -0.00011   0.00000  -0.03635  -0.03634   1.13242
   D32       -2.99877  -0.00019   0.00000  -0.04867  -0.04866  -3.04743
   D33       -0.95657  -0.00052   0.00000  -0.05077  -0.05077  -1.00734
   D34       -3.07234  -0.00043   0.00000  -0.03844  -0.03843  -3.11078
   D35       -0.95669  -0.00052   0.00000  -0.05076  -0.05075  -1.00744
   D36        1.08551  -0.00084   0.00000  -0.05287  -0.05286   1.03265
   D37       -0.94704  -0.00002   0.00000  -0.02407  -0.02406  -0.97110
   D38       -3.07236  -0.00044   0.00000  -0.03870  -0.03870  -3.11106
   D39        1.16872  -0.00011   0.00000  -0.03651  -0.03651   1.13221
   D40        1.16864  -0.00010   0.00000  -0.03632  -0.03632   1.13232
   D41       -0.95668  -0.00053   0.00000  -0.05096  -0.05095  -1.00764
   D42       -2.99879  -0.00019   0.00000  -0.04877  -0.04876  -3.04755
   D43       -3.07224  -0.00043   0.00000  -0.03852  -0.03851  -3.11075
   D44        1.08562  -0.00086   0.00000  -0.05315  -0.05314   1.03248
   D45       -0.95649  -0.00052   0.00000  -0.05096  -0.05096  -1.00744
   D46        0.94700   0.00002   0.00000   0.02410   0.02410   0.97110
   D47        3.07237   0.00043   0.00000   0.03860   0.03859   3.11096
   D48       -1.16884   0.00011   0.00000   0.03659   0.03659  -1.13225
   D49       -1.16868   0.00010   0.00000   0.03643   0.03642  -1.13226
   D50        0.95669   0.00052   0.00000   0.05092   0.05092   1.00761
   D51        2.99867   0.00020   0.00000   0.04892   0.04891   3.04758
   D52        3.07224   0.00044   0.00000   0.03867   0.03866   3.11090
   D53       -1.08558   0.00085   0.00000   0.05316   0.05315  -1.03243
   D54        0.95640   0.00053   0.00000   0.05116   0.05115   1.00754
         Item               Value     Threshold  Converged?
 Maximum Force            0.004464     0.000450     NO 
 RMS     Force            0.001458     0.000300     NO 
 Maximum Displacement     0.073921     0.001800     NO 
 RMS     Displacement     0.023648     0.001200     NO 
 Predicted change in Energy=-8.910848D-04
 GradGradGradGradGradGradGradGradGradGradGradGradGradGradGradGradGradGrad

                          Input orientation:                          
 ---------------------------------------------------------------------
 Center     Atomic      Atomic             Coordinates (Angstroms)
 Number     Number       Type             X           Y           Z
 ---------------------------------------------------------------------
      1          6           0       -1.286556   -0.692519    0.233631
      2          6           0       -1.243029    0.768018   -0.233660
      3          6           0       -0.043524   -1.460479   -0.233721
      4          6           0        0.043539    1.460467    0.233715
      5          6           0        1.243015   -0.768040    0.233703
      6          6           0        1.286542    0.692515   -0.233622
      7          1           0       -2.198314   -1.183477   -0.135081
      8          1           0       -1.336271   -0.719312    1.334600
      9          1           0       -1.291097    0.797777   -1.334601
     10          1           0       -2.123959    1.312280    0.135151
     11          1           0       -0.045112   -1.517038   -1.334668
     12          1           0       -0.074386   -2.495498    0.135157
     13          1           0        0.045116    1.517047    1.334665
     14          1           0        0.074360    2.495479   -0.135184
     15          1           0        1.291065   -0.797763    1.334638
     16          1           0        2.123981   -1.312235   -0.135113
     17          1           0        2.198335    1.183411    0.135083
     18          1           0        1.336296    0.719266   -1.334593
 ---------------------------------------------------------------------
                    Distance matrix (angstroms):
                    1          2          3          4          5
     1  C    0.000000
     2  C    1.534087   0.000000
     3  C    1.534050   2.530812   0.000000
     4  C    2.530711   1.534009   2.959392   0.000000
     5  C    2.530698   2.959446   1.533994   2.530807   0.000000
     6  C    2.959304   2.530698   2.530703   1.534018   1.534115
     7  H    1.099223   2.174999   2.174760   3.486023   3.485877
     8  H    1.102417   2.163397   2.163366   2.804864   2.804829
     9  H    2.163412   1.102391   2.805012   2.163337   3.366464
    10  H    2.174893   1.099218   3.486039   2.174793   3.959035
    11  H    2.163464   2.805121   1.102399   3.366484   2.163343
    12  H    2.174808   3.486013   1.099222   3.958949   2.174710
    13  H    2.804961   2.163332   3.366504   1.102403   2.805121
    14  H    3.485892   2.174703   3.958940   1.099221   3.486027
    15  H    2.804893   3.366432   2.163348   2.804988   1.102384
    16  H    3.485941   3.959031   2.174806   3.485993   1.099216
    17  H    3.958950   3.485901   3.485986   2.174771   2.174977
    18  H    3.366276   2.804879   2.804837   2.163375   2.163408
                    6          7          8          9         10
     6  C    0.000000
     7  H    3.958950   0.000000
     8  H    3.366263   1.765936   0.000000
     9  H    2.804899   2.487420   3.070543   0.000000
    10  H    3.485918   2.511445   2.487267   1.765939   0.000000
    11  H    2.804947   2.487278   3.070577   2.628849   3.806180
    12  H    3.485907   2.511076   2.487137   3.806078   4.324341
    13  H    2.163450   3.806043   2.628599   3.070471   2.487097
    14  H    2.174800   4.324322   3.805920   2.487019   2.511105
    15  H    2.163421   3.805867   2.628507   4.042047   4.189683
    16  H    2.174864   4.324213   3.805911   4.189711   5.000612
    17  H    1.099221   5.000567   4.189586   3.805892   4.324214
    18  H    1.102420   4.189598   4.041870   2.628565   3.805940
                   11         12         13         14         15
    11  H    0.000000
    12  H    1.765963   0.000000
    13  H    4.042171   4.189703   0.000000
    14  H    4.189668   5.000505   1.765966   0.000000
    15  H    3.070492   2.487070   2.628828   3.806073   0.000000
    16  H    2.487135   2.511170   3.806149   4.324307   1.765956
    17  H    3.806001   4.324307   2.487300   2.511141   2.487393
    18  H    2.628562   3.805903   3.070592   2.487166   3.070541
                   16         17         18
    16  H    0.000000
    17  H    2.511331   0.000000
    18  H    2.487207   1.765924   0.000000
 Stoichiometry    C6H12
 Framework group  C1[X(C6H12)]
 Deg. of freedom    48
 Full point group                 C1      NOp   1
 Largest Abelian subgroup         C1      NOp   1
 Largest concise Abelian subgroup C1      NOp   1
                         Standard orientation:                         
 ---------------------------------------------------------------------
 Center     Atomic      Atomic             Coordinates (Angstroms)
 Number     Number       Type             X           Y           Z
 ---------------------------------------------------------------------
      1          6           0       -0.164626    1.451790    0.233624
      2          6           0        1.175065    0.868447   -0.233667
      3          6           0       -1.339633    0.583316   -0.233728
      4          6           0        1.339627   -0.583332    0.233709
      5          6           0       -1.175070   -0.868433    0.233696
      6          6           0        0.164638   -1.451783   -0.233629
      7          1           0       -0.281467    2.480718   -0.135088
      8          1           0       -0.171019    1.507903    1.334593
      9          1           0        1.220560    0.902007   -1.334607
     10          1           0        2.007798    1.483926    0.135144
     11          1           0       -1.391549    0.605814   -1.334674
     12          1           0       -2.289009    0.996720    0.135151
     13          1           0        1.391567   -0.605829    1.334658
     14          1           0        2.289011   -0.996696   -0.135190
     15          1           0       -1.220525   -0.901991    1.334632
     16          1           0       -2.007755   -1.483970   -0.135120
     17          1           0        0.281409   -2.480719    0.135076
     18          1           0        0.170977   -1.507916   -1.334600
 ---------------------------------------------------------------------
 Rotational constants (GHZ):           4.3021064           4.3016856           2.4612948
 Standard basis: 6-311++G(d,p) (5D, 7F)
 There are   222 symmetry adapted cartesian basis functions of A   symmetry.
 There are   216 symmetry adapted basis functions of A   symmetry.
   216 basis functions,   324 primitive gaussians,   222 cartesian basis functions
    24 alpha electrons       24 beta electrons
       nuclear repulsion energy       255.4422174941 Hartrees.
 NAtoms=   18 NActive=   18 NUniq=   18 SFac= 1.00D+00 NAtFMM=   60 NAOKFM=F Big=F
 Integral buffers will be    131072 words long.
 Raffenetti 2 integral format.
 Two-electron integral symmetry is turned on.
 R6APFD:  NTU= -4 IXU= 1 FactS= 1.050
 Nuclear repulsion after empirical dispersion term =      255.4311071022 Hartrees.
 One-electron integrals computed using PRISM.
 NBasis=   216 RedAO= T EigKep=  1.65D-05  NBF=   216
 NBsUse=   216 1.00D-06 EigRej= -1.00D+00 NBFU=   216
 Initial guess from the checkpoint file:  "COHE0027.chk"
 B after Tr=     0.000000   -0.000000   -0.000000
         Rot=    0.714865    0.000005    0.000000   -0.699262 Ang=  88.74 deg.
 ExpMin= 3.60D-02 ExpMax= 4.56D+03 ExpMxC= 6.82D+02 IAcc=3 IRadAn=         5 AccDes= 0.00D+00
 Harris functional with IExCor= 1009 and IRadAn=       5 diagonalized for initial guess.
 HarFok:  IExCor= 1009 AccDes= 0.00D+00 IRadAn=         5 IDoV= 1 UseB2=F ITyADJ=14
 ICtDFT=  3500011 ScaDFX=  1.000000  1.000000  1.000000  1.000000
 FoFCou: FMM=F IPFlag=           0 FMFlag=      100000 FMFlg1=           0
         NFxFlg=           0 DoJE=T BraDBF=F KetDBF=T FulRan=T
         wScrn=  0.000000 ICntrl=       500 IOpCl=  0 I1Cent=   200000004 NGrid=           0
         NMat0=    1 NMatS0=      1 NMatT0=    0 NMatD0=    1 NMtDS0=    0 NMtDT0=    0
 Petite list used in FoFCou.
 Requested convergence on RMS density matrix=1.00D-08 within  32 cycles.
 Requested convergence on MAX density matrix=1.00D-06.
 Requested convergence on             energy=1.00D-06.
 No special actions if energy rises.
 SCF Done:  E(RM08HX) =  -235.896767153     A.U. after    8 cycles
            NFock=  8  Conv=0.73D-08     -V/T= 2.0063
 QCSCF skips out because SCF is already converged.
 R6APFD:  NTU= -4 IXU= 1 FactS= 1.050
 Calling FoFJK, ICntrl=      2127 FMM=F ISym2X=0 I1Cent= 0 IOpClX= 0 NMat=1 NMatS=1 NMatT=0.
 ***** Axes restored to original set *****
 -------------------------------------------------------------------
 Center     Atomic                   Forces (Hartrees/Bohr)
 Number     Number              X              Y              Z
 -------------------------------------------------------------------
      1        6          -0.000051105   -0.000038987   -0.000389214
      2        6          -0.000082914   -0.000010336    0.000393370
      3        6           0.000034745   -0.000034589    0.000389705
      4        6          -0.000050807    0.000037711   -0.000381819
      5        6           0.000087807    0.000028771   -0.000407923
      6        6           0.000064151    0.000017329    0.000389245
      7        1           0.000068961    0.000051672    0.000488658
      8        1           0.000446419    0.000242946    0.000210268
      9        1           0.000431530   -0.000273216   -0.000223025
     10        1           0.000063375   -0.000048738   -0.000478374
     11        1           0.000019206    0.000517469   -0.000213614
     12        1          -0.000003074    0.000074295   -0.000494593
     13        1          -0.000016258   -0.000516657    0.000211705
     14        1           0.000004426   -0.000073526    0.000494663
     15        1          -0.000431968    0.000270287    0.000225609
     16        1          -0.000064105    0.000042908    0.000481061
     17        1          -0.000070712   -0.000045533   -0.000487181
     18        1          -0.000449678   -0.000241805   -0.000208541
 -------------------------------------------------------------------
 Cartesian Forces:  Max     0.000517469 RMS     0.000281182

 GradGradGradGradGradGradGradGradGradGradGradGradGradGradGradGradGradGrad
 Berny optimization.
 Using GEDIIS/GDIIS optimizer.
 FormGI is forming the generalized inverse of G from B-inverse, IUseBI=4.
 Internal  Forces:  Max     0.000509496 RMS     0.000178985
 Search for a local minimum.
 Step number   2 out of a maximum of  108
 All quantities printed in internal units (Hartrees-Bohrs-Radians)
 Mixed Optimization -- En-DIIS/RFO-DIIS
 Update second derivatives using D2CorX and points    1    2
 DE= -9.84D-04 DEPred=-8.91D-04 R= 1.10D+00
 TightC=F SS=  1.41D+00  RLast= 3.22D-01 DXNew= 5.0454D-01 9.6510D-01
 Trust test= 1.10D+00 RLast= 3.22D-01 DXMaxT set to 5.05D-01
 ITU=  1  0
 Use linear search instead of GDIIS.
     Eigenvalues ---    0.00521   0.00606   0.00607   0.01953   0.01953
     Eigenvalues ---    0.03703   0.03975   0.03976   0.04351   0.04862
     Eigenvalues ---    0.04863   0.04910   0.05586   0.05586   0.06062
     Eigenvalues ---    0.06069   0.08013   0.08014   0.08119   0.08120
     Eigenvalues ---    0.08120   0.08125   0.08163   0.08164   0.12040
     Eigenvalues ---    0.12072   0.12073   0.16006   0.16007   0.21875
     Eigenvalues ---    0.28144   0.28430   0.28437   0.29763   0.29772
     Eigenvalues ---    0.31780   0.33851   0.34013   0.34014   0.34015
     Eigenvalues ---    0.34022   0.34025   0.34145   0.34147   0.34149
     Eigenvalues ---    0.34152   0.34157   0.36715
 RFO step:  Lambda=-2.12074375D-04 EMin= 5.20605570D-03
 Quartic linear search produced a step of  0.28717.
 Iteration  1 RMS(Cart)=  0.01855847 RMS(Int)=  0.00018205
 Iteration  2 RMS(Cart)=  0.00019352 RMS(Int)=  0.00005496
 Iteration  3 RMS(Cart)=  0.00000001 RMS(Int)=  0.00005496
 Variable       Old X    -DE/DX   Delta X   Delta X   Delta X     New X
                                 (Linear)    (Quad)   (Total)
    R1        2.89900  -0.00050   0.00429  -0.00504  -0.00075   2.89825
    R2        2.89893  -0.00044   0.00422  -0.00475  -0.00052   2.89841
    R3        2.07723  -0.00024   0.00187  -0.00217  -0.00030   2.07693
    R4        2.08327   0.00018   0.00293  -0.00128   0.00165   2.08492
    R5        2.89886  -0.00045   0.00412  -0.00471  -0.00059   2.89827
    R6        2.08322   0.00020   0.00292  -0.00122   0.00170   2.08492
    R7        2.07722  -0.00024   0.00185  -0.00213  -0.00028   2.07694
    R8        2.89883  -0.00045   0.00413  -0.00471  -0.00057   2.89826
    R9        2.08323   0.00018   0.00298  -0.00131   0.00167   2.08490
   R10        2.07723  -0.00023   0.00184  -0.00212  -0.00027   2.07695
   R11        2.89887  -0.00043   0.00425  -0.00472  -0.00047   2.89840
   R12        2.08324   0.00018   0.00292  -0.00128   0.00164   2.08488
   R13        2.07723  -0.00023   0.00182  -0.00210  -0.00028   2.07695
   R14        2.89906  -0.00051   0.00421  -0.00502  -0.00081   2.89825
   R15        2.08320   0.00020   0.00297  -0.00124   0.00173   2.08493
   R16        2.07722  -0.00023   0.00183  -0.00211  -0.00028   2.07694
   R17        2.07723  -0.00024   0.00189  -0.00218  -0.00029   2.07694
   R18        2.08327   0.00018   0.00293  -0.00128   0.00165   2.08492
    A1        1.93994  -0.00006  -0.00244  -0.00589  -0.00852   1.93142
    A2        1.92473   0.00000   0.00302   0.00216   0.00526   1.92999
    A3        1.90564   0.00000  -0.00106  -0.00081  -0.00188   1.90376
    A4        1.92444   0.00004   0.00296   0.00263   0.00567   1.93012
    A5        1.90565   0.00000  -0.00104  -0.00063  -0.00169   1.90395
    A6        1.86161   0.00002  -0.00144   0.00286   0.00140   1.86301
    A7        1.93986  -0.00006  -0.00244  -0.00596  -0.00859   1.93127
    A8        1.90569   0.00000  -0.00105  -0.00072  -0.00179   1.90390
    A9        1.92459   0.00002   0.00296   0.00243   0.00547   1.93005
   A10        1.90568  -0.00000  -0.00103  -0.00072  -0.00176   1.90392
   A11        1.92454   0.00002   0.00299   0.00236   0.00543   1.92998
   A12        1.86165   0.00002  -0.00142   0.00293   0.00149   1.86314
   A13        1.93990  -0.00003  -0.00245  -0.00560  -0.00824   1.93166
   A14        1.90580  -0.00001  -0.00102  -0.00091  -0.00195   1.90385
   A15        1.92451   0.00000   0.00295   0.00229   0.00532   1.92983
   A16        1.90570  -0.00001  -0.00103  -0.00086  -0.00190   1.90380
   A17        1.92444   0.00002   0.00295   0.00257   0.00561   1.93005
   A18        1.86167   0.00002  -0.00141   0.00280   0.00138   1.86305
   A19        1.93992  -0.00003  -0.00245  -0.00561  -0.00825   1.93166
   A20        1.90566  -0.00000  -0.00101  -0.00083  -0.00185   1.90381
   A21        1.92442   0.00002   0.00296   0.00257   0.00561   1.93003
   A22        1.90581  -0.00001  -0.00103  -0.00093  -0.00196   1.90385
   A23        1.92454   0.00000   0.00296   0.00227   0.00531   1.92985
   A24        1.86167   0.00002  -0.00143   0.00281   0.00136   1.86304
   A25        1.93984  -0.00006  -0.00245  -0.00594  -0.00858   1.93127
   A26        1.90572  -0.00000  -0.00103  -0.00077  -0.00181   1.90391
   A27        1.92458   0.00002   0.00300   0.00234   0.00542   1.93000
   A28        1.90567   0.00000  -0.00103  -0.00073  -0.00177   1.90390
   A29        1.92451   0.00003   0.00293   0.00252   0.00553   1.93004
   A30        1.86169   0.00002  -0.00143   0.00290   0.00145   1.86314
   A31        1.93994  -0.00006  -0.00244  -0.00589  -0.00852   1.93142
   A32        1.92450   0.00004   0.00294   0.00260   0.00562   1.93012
   A33        1.90569  -0.00000  -0.00106  -0.00067  -0.00174   1.90395
   A34        1.92467   0.00001   0.00301   0.00222   0.00532   1.92998
   A35        1.90562   0.00000  -0.00104  -0.00081  -0.00186   1.90376
   A36        1.86159   0.00002  -0.00141   0.00286   0.00143   1.86302
    D1       -0.97105  -0.00013  -0.00686  -0.01600  -0.02283  -0.99389
    D2        1.13228  -0.00017  -0.01042  -0.02112  -0.03154   1.10074
    D3       -3.11087  -0.00014  -0.01105  -0.01660  -0.02763  -3.13849
    D4       -3.11089  -0.00015  -0.01106  -0.01679  -0.02783  -3.13872
    D5       -1.00756  -0.00019  -0.01462  -0.02192  -0.03654  -1.04409
    D6        1.03248  -0.00015  -0.01525  -0.01740  -0.03263   0.99986
    D7        1.13225  -0.00017  -0.01043  -0.02103  -0.03146   1.10079
    D8       -3.04760  -0.00021  -0.01400  -0.02616  -0.04017  -3.08777
    D9       -1.00756  -0.00017  -0.01462  -0.02164  -0.03626  -1.04381
   D10        0.97112   0.00015   0.00687   0.01616   0.02300   0.99412
   D11       -1.13233   0.00018   0.01040   0.02136   0.03176  -1.10056
   D12        3.11077   0.00016   0.01100   0.01718   0.02816   3.13894
   D13        3.11112   0.00014   0.01110   0.01668   0.02777   3.13888
   D14        1.00767   0.00017   0.01464   0.02189   0.03652   1.04419
   D15       -1.03241   0.00015   0.01524   0.01771   0.03292  -0.99949
   D16       -1.13219   0.00018   0.01045   0.02130   0.03175  -1.10044
   D17        3.04755   0.00022   0.01399   0.02651   0.04051   3.08806
   D18        1.00747   0.00019   0.01459   0.02233   0.03691   1.04437
   D19        0.97103   0.00015   0.00687   0.01615   0.02300   0.99403
   D20       -1.13247   0.00018   0.01040   0.02139   0.03178  -1.10069
   D21        3.11076   0.00014   0.01101   0.01698   0.02797   3.13873
   D22       -1.13230   0.00018   0.01044   0.02128   0.03171  -1.10059
   D23        3.04737   0.00022   0.01397   0.02652   0.04050   3.08787
   D24        1.00742   0.00018   0.01458   0.02211   0.03669   1.04411
   D25        3.11087   0.00015   0.01104   0.01679   0.02781   3.13868
   D26        1.00736   0.00018   0.01456   0.02203   0.03659   1.04395
   D27       -1.03259   0.00015   0.01518   0.01763   0.03278  -0.99981
   D28       -0.97108  -0.00015  -0.00690  -0.01608  -0.02297  -0.99405
   D29        1.13225  -0.00018  -0.01044  -0.02125  -0.03169   1.10056
   D30       -3.11084  -0.00015  -0.01104  -0.01684  -0.02786  -3.13870
   D31        1.13242  -0.00018  -0.01044  -0.02132  -0.03175   1.10067
   D32       -3.04743  -0.00022  -0.01397  -0.02648  -0.04047  -3.08790
   D33       -1.00734  -0.00019  -0.01458  -0.02207  -0.03664  -1.04398
   D34       -3.11078  -0.00014  -0.01104  -0.01695  -0.02796  -3.13874
   D35       -1.00744  -0.00018  -0.01457  -0.02211  -0.03668  -1.04412
   D36        1.03265  -0.00015  -0.01518  -0.01770  -0.03285   0.99980
   D37       -0.97110  -0.00015  -0.00691  -0.01614  -0.02303  -0.99413
   D38       -3.11106  -0.00014  -0.01111  -0.01674  -0.02783  -3.13889
   D39        1.13221  -0.00019  -0.01048  -0.02131  -0.03179   1.10042
   D40        1.13232  -0.00018  -0.01043  -0.02132  -0.03175   1.10057
   D41       -1.00764  -0.00017  -0.01463  -0.02192  -0.03655  -1.04418
   D42       -3.04755  -0.00022  -0.01400  -0.02649  -0.04051  -3.08806
   D43       -3.11075  -0.00016  -0.01106  -0.01714  -0.02818  -3.13893
   D44        1.03248  -0.00015  -0.01526  -0.01774  -0.03298   0.99950
   D45       -1.00744  -0.00019  -0.01463  -0.02231  -0.03694  -1.04438
   D46        0.97110   0.00013   0.00692   0.01591   0.02281   0.99391
   D47        3.11096   0.00015   0.01108   0.01673   0.02779   3.13875
   D48       -1.13225   0.00017   0.01051   0.02100   0.03150  -1.10075
   D49       -1.13226   0.00017   0.01046   0.02110   0.03156  -1.10070
   D50        1.00761   0.00019   0.01462   0.02192   0.03653   1.04414
   D51        3.04758   0.00021   0.01405   0.02618   0.04024   3.08782
   D52        3.11090   0.00014   0.01110   0.01656   0.02764   3.13854
   D53       -1.03243   0.00015   0.01526   0.01738   0.03262  -0.99981
   D54        1.00754   0.00017   0.01469   0.02165   0.03633   1.04387
         Item               Value     Threshold  Converged?
 Maximum Force            0.000509     0.000450     NO 
 RMS     Force            0.000179     0.000300     YES
 Maximum Displacement     0.054858     0.001800     NO 
 RMS     Displacement     0.018621     0.001200     NO 
 Predicted change in Energy=-1.525981D-04
 GradGradGradGradGradGradGradGradGradGradGradGradGradGradGradGradGradGrad

                          Input orientation:                          
 ---------------------------------------------------------------------
 Center     Atomic      Atomic             Coordinates (Angstroms)
 Number     Number       Type             X           Y           Z
 ---------------------------------------------------------------------
      1          6           0       -1.282615   -0.690336    0.240140
      2          6           0       -1.239320    0.765551   -0.240197
      3          6           0       -0.043294   -1.455769   -0.240125
      4          6           0        0.043304    1.455757    0.240133
      5          6           0        1.239319   -0.765561    0.240216
      6          6           0        1.282615    0.690317   -0.240138
      7          1           0       -2.200773   -1.184603   -0.107173
      8          1           0       -1.311158   -0.705517    1.342958
      9          1           0       -1.266864    0.782554   -1.343012
     10          1           0       -2.126344    1.313636    0.107292
     11          1           0       -0.044178   -1.488012   -1.342934
     12          1           0       -0.074517   -2.498067    0.107165
     13          1           0        0.044206    1.488018    1.342933
     14          1           0        0.074507    2.498051   -0.107160
     15          1           0        1.266832   -0.782550    1.343039
     16          1           0        2.126361   -1.313631   -0.107241
     17          1           0        2.200786    1.184582    0.107161
     18          1           0        1.311132    0.705481   -1.342955
 ---------------------------------------------------------------------
                    Distance matrix (angstroms):
                    1          2          3          4          5
     1  C    0.000000
     2  C    1.533690   0.000000
     3  C    1.533773   2.522844   0.000000
     4  C    2.522653   1.533697   2.952140   0.000000
     5  C    2.523056   2.952753   1.533692   2.522837   0.000000
     6  C    2.952503   2.523056   2.522642   1.533769   1.533687
     7  H    1.099063   2.178346   2.178513   3.482529   3.482888
     8  H    1.103292   2.162309   2.162523   2.778830   2.779312
     9  H    2.162412   1.103290   2.779132   2.162427   3.344282
    10  H    2.178401   1.099072   3.482729   2.178353   3.958335
    11  H    2.162438   2.779018   1.103281   3.343581   2.162328
    12  H    2.178319   3.482618   1.099076   3.957813   2.178404
    13  H    2.778819   2.162337   3.343593   1.103273   2.779010
    14  H    3.482558   2.178393   3.957809   1.099073   3.482616
    15  H    2.779312   3.344257   2.162421   2.779108   1.103297
    16  H    3.482857   3.958344   2.178363   3.482715   1.099068
    17  H    3.958167   3.482897   3.482522   2.178518   2.178343
    18  H    3.343953   2.779296   2.778796   2.162514   2.162302
                    6          7          8          9         10
     6  C    0.000000
     7  H    3.958156   0.000000
     8  H    3.343980   1.767433   0.000000
     9  H    2.779331   2.503836   3.070953   0.000000
    10  H    3.482849   2.508532   2.503673   1.767523   0.000000
    11  H    2.778787   2.504010   3.071084   2.578843   3.779921
    12  H    3.482559   2.508403   2.503937   3.779838   4.328865
    13  H    2.162428   3.779635   2.578489   3.070975   2.503699
    14  H    2.178327   4.328838   3.779650   2.503904   2.508501
    15  H    2.162415   3.780086   2.579141   4.010491   4.175490
    16  H    2.178389   4.329057   3.780134   4.175536   5.003405
    17  H    1.099068   5.003268   4.175334   3.780108   4.329054
    18  H    1.103290   4.175291   4.010168   2.579148   3.780121
                   11         12         13         14         15
    11  H    0.000000
    12  H    1.767461   0.000000
    13  H    4.009794   4.174936   0.000000
    14  H    4.174916   5.002933   1.767443   0.000000
    15  H    3.070973   2.503917   2.578816   3.779823   0.000000
    16  H    2.503714   2.508530   3.779896   4.328860   1.767526
    17  H    3.779602   4.328846   2.504005   2.508424   2.503852
    18  H    2.578425   3.779628   3.071068   2.503944   3.070955
                   16         17         18
    16  H    0.000000
    17  H    2.508501   0.000000
    18  H    2.503678   1.767443   0.000000
 Stoichiometry    C6H12
 Framework group  C1[X(C6H12)]
 Deg. of freedom    48
 Full point group                 C1      NOp   1
 Largest Abelian subgroup         C1      NOp   1
 Largest concise Abelian subgroup C1      NOp   1
                         Standard orientation:                         
 ---------------------------------------------------------------------
 Center     Atomic      Atomic             Coordinates (Angstroms)
 Number     Number       Type             X           Y           Z
 ---------------------------------------------------------------------
      1          6           0        1.061451    0.997488    0.240134
      2          6           0        1.394724   -0.420401   -0.240202
      3          6           0       -0.333242    1.417769   -0.240130
      4          6           0        0.333235   -1.417772    0.240128
      5          6           0       -1.394721    0.420399    0.240211
      6          6           0       -1.061450   -0.997482   -0.240143
      7          1           0        1.821262    1.711630   -0.107178
      8          1           0        1.085118    1.019510    1.342953
      9          1           0        1.425719   -0.429734   -1.343017
     10          1           0        2.393015   -0.721441    0.107287
     11          1           0       -0.340696    1.449151   -1.342940
     12          1           0       -0.571620    2.432922    0.107160
     13          1           0        0.340675   -1.449176    1.342928
     14          1           0        0.571631   -2.432916   -0.107165
     15          1           0       -1.425683    0.429726    1.343034
     16          1           0       -2.393025    0.721421   -0.107246
     17          1           0       -1.821275   -1.711625    0.107155
     18          1           0       -1.085098   -1.019481   -1.342960
 ---------------------------------------------------------------------
 Rotational constants (GHZ):           4.3166576           4.3153719           2.4781830
 Standard basis: 6-311++G(d,p) (5D, 7F)
 There are   222 symmetry adapted cartesian basis functions of A   symmetry.
 There are   216 symmetry adapted basis functions of A   symmetry.
   216 basis functions,   324 primitive gaussians,   222 cartesian basis functions
    24 alpha electrons       24 beta electrons
       nuclear repulsion energy       255.8106474902 Hartrees.
 NAtoms=   18 NActive=   18 NUniq=   18 SFac= 1.00D+00 NAtFMM=   60 NAOKFM=F Big=F
 Integral buffers will be    131072 words long.
 Raffenetti 2 integral format.
 Two-electron integral symmetry is turned on.
 R6APFD:  NTU= -4 IXU= 1 FactS= 1.050
 Nuclear repulsion after empirical dispersion term =      255.7994271514 Hartrees.
 One-electron integrals computed using PRISM.
 NBasis=   216 RedAO= T EigKep=  1.60D-05  NBF=   216
 NBsUse=   216 1.00D-06 EigRej= -1.00D+00 NBFU=   216
 Initial guess from the checkpoint file:  "COHE0027.chk"
 B after Tr=    -0.000000    0.000000    0.000000
         Rot=    0.893977   -0.000007   -0.000007    0.448113 Ang= -53.25 deg.
 ExpMin= 3.60D-02 ExpMax= 4.56D+03 ExpMxC= 6.82D+02 IAcc=3 IRadAn=         5 AccDes= 0.00D+00
 Harris functional with IExCor= 1009 and IRadAn=       5 diagonalized for initial guess.
 HarFok:  IExCor= 1009 AccDes= 0.00D+00 IRadAn=         5 IDoV= 1 UseB2=F ITyADJ=14
 ICtDFT=  3500011 ScaDFX=  1.000000  1.000000  1.000000  1.000000
 FoFCou: FMM=F IPFlag=           0 FMFlag=      100000 FMFlg1=           0
         NFxFlg=           0 DoJE=T BraDBF=F KetDBF=T FulRan=T
         wScrn=  0.000000 ICntrl=       500 IOpCl=  0 I1Cent=   200000004 NGrid=           0
         NMat0=    1 NMatS0=      1 NMatT0=    0 NMatD0=    1 NMtDS0=    0 NMtDT0=    0
 Petite list used in FoFCou.
 Requested convergence on RMS density matrix=1.00D-08 within  32 cycles.
 Requested convergence on MAX density matrix=1.00D-06.
 Requested convergence on             energy=1.00D-06.
 No special actions if energy rises.
 SCF Done:  E(RM08HX) =  -235.896912074     A.U. after    8 cycles
            NFock=  8  Conv=0.64D-08     -V/T= 2.0063
 QCSCF skips out because SCF is already converged.
 R6APFD:  NTU= -4 IXU= 1 FactS= 1.050
 Calling FoFJK, ICntrl=      2127 FMM=F ISym2X=0 I1Cent= 0 IOpClX= 0 NMat=1 NMatS=1 NMatT=0.
 ***** Axes restored to original set *****
 -------------------------------------------------------------------
 Center     Atomic                   Forces (Hartrees/Bohr)
 Number     Number              X              Y              Z
 -------------------------------------------------------------------
      1        6          -0.000206662   -0.000313749   -0.000185238
      2        6          -0.000321889    0.000180121    0.000178124
      3        6          -0.000051260   -0.000374278    0.000176182
      4        6           0.000048642    0.000372941   -0.000180988
      5        6           0.000321204   -0.000179379   -0.000170002
      6        6           0.000209670    0.000316597    0.000186635
      7        1           0.000176334    0.000081879    0.000127960
      8        1           0.000078513    0.000013951   -0.000296798
      9        1           0.000056431   -0.000039325    0.000299243
     10        1           0.000174318   -0.000100057   -0.000136163
     11        1          -0.000007367    0.000074429    0.000295092
     12        1           0.000016701    0.000202615   -0.000117848
     13        1           0.000006059   -0.000075746   -0.000289920
     14        1          -0.000014832   -0.000200889    0.000116209
     15        1          -0.000055432    0.000039766   -0.000303484
     16        1          -0.000174019    0.000097538    0.000135092
     17        1          -0.000179396   -0.000082796   -0.000129768
     18        1          -0.000077016   -0.000013618    0.000295671
 -------------------------------------------------------------------
 Cartesian Forces:  Max     0.000374278 RMS     0.000189167

 GradGradGradGradGradGradGradGradGradGradGradGradGradGradGradGradGradGrad
 Berny optimization.
 Using GEDIIS/GDIIS optimizer.
 FormGI is forming the generalized inverse of G from B-inverse, IUseBI=4.
 Internal  Forces:  Max     0.000301331 RMS     0.000098639
 Search for a local minimum.
 Step number   3 out of a maximum of  108
 All quantities printed in internal units (Hartrees-Bohrs-Radians)
 Mixed Optimization -- En-DIIS/RFO-DIIS
 Swapping is turned off.
 Update second derivatives using D2CorX and points    1    2    3
 DE= -1.45D-04 DEPred=-1.53D-04 R= 9.50D-01
 TightC=F SS=  1.41D+00  RLast= 2.40D-01 DXNew= 8.4853D-01 7.2058D-01
 Trust test= 9.50D-01 RLast= 2.40D-01 DXMaxT set to 7.21D-01
 ITU=  1  1  0
     Eigenvalues ---    0.00508   0.00617   0.00618   0.01954   0.01956
     Eigenvalues ---    0.03743   0.04003   0.04004   0.04392   0.04891
     Eigenvalues ---    0.04891   0.04929   0.05644   0.05645   0.05982
     Eigenvalues ---    0.06211   0.07907   0.07909   0.08039   0.08040
     Eigenvalues ---    0.08041   0.08050   0.08104   0.08106   0.11982
     Eigenvalues ---    0.12017   0.12018   0.15870   0.15872   0.21867
     Eigenvalues ---    0.28052   0.28421   0.28428   0.29763   0.29788
     Eigenvalues ---    0.31866   0.34005   0.34013   0.34014   0.34015
     Eigenvalues ---    0.34022   0.34025   0.34145   0.34147   0.34149
     Eigenvalues ---    0.34152   0.34157   0.37519
 En-DIIS/RFO-DIIS/Sim-DIIS IScMMF=       -3 using points:     3    2
 RFO step:  Lambda=-5.72058228D-06.
 DidBck=F Rises=F RFO-DIIS coefs:    1.02102   -0.02102
 Iteration  1 RMS(Cart)=  0.00059617 RMS(Int)=  0.00000100
 Iteration  2 RMS(Cart)=  0.00000046 RMS(Int)=  0.00000093
 Variable       Old X    -DE/DX   Delta X   Delta X   Delta X     New X
                                 (Linear)    (Quad)   (Total)
    R1        2.89825   0.00012  -0.00002   0.00044   0.00042   2.89868
    R2        2.89841  -0.00008  -0.00001  -0.00022  -0.00023   2.89818
    R3        2.07693  -0.00022  -0.00001  -0.00063  -0.00063   2.07630
    R4        2.08492  -0.00030   0.00003  -0.00087  -0.00084   2.08408
    R5        2.89827   0.00005  -0.00001   0.00020   0.00019   2.89846
    R6        2.08492  -0.00030   0.00004  -0.00086  -0.00082   2.08409
    R7        2.07694  -0.00024  -0.00001  -0.00066  -0.00067   2.07628
    R8        2.89826   0.00005  -0.00001   0.00021   0.00019   2.89845
    R9        2.08490  -0.00030   0.00004  -0.00086  -0.00083   2.08407
   R10        2.07695  -0.00023  -0.00001  -0.00064  -0.00065   2.07630
   R11        2.89840  -0.00008  -0.00001  -0.00021  -0.00022   2.89818
   R12        2.08488  -0.00029   0.00003  -0.00085  -0.00081   2.08407
   R13        2.07695  -0.00023  -0.00001  -0.00064  -0.00064   2.07631
   R14        2.89825   0.00012  -0.00002   0.00045   0.00043   2.89868
[...]
 881293,-0.0297506,-0.0192152,-0.0692717,-0.0372384,0.0461043,0.045604,
 0.0209844,-0.0204342,0.0212135,0.0179437,-0.0114474,0.0360439,0.019449
 5,-0.1735586,0.0433549,-0.0226024,0.0190869,-0.0230711,0.0204872,-0.01
 28196,-0.0346074,0.021505,-0.1735166,-0.1352745,0.0952517,0.0347647,0.
 0943158,-0.0402675,-0.0211714,0.0667645,-0.0416497,0.046145,0.0059902,
 0.0013787,0.0002805,0.002013,0.0579797,0.0225972,-0.0011693,-0.040898,
 -0.1735611,0.0193145,-0.0059916,0.0011103,-0.0056798,-0.1937955,0.0408
 248,0.0018804,0.0783772,0.0465406,0.0059896,0.0013791,0.000276,0.00201
 32,0.057981,0.0225938,-0.0011711,-0.0408988,-0.1735571,0.0193142,-0.00
 5985,0.0011098,-0.0056775,-0.1937959,0.0408272,0.0018813,0.0783781,0.0
 465411,0.0433549,-0.0226022,0.0190917,-0.0230705,0.0204881,-0.0128228,
 -0.0346048,0.0215023,-0.1735226,-0.1352786,0.0952527,0.034761,0.094310
 2,-0.0402624,-0.0211688,0.0667583,-0.0416465,0.0461487,-0.1465379,-0.0
 886421,-0.0358581,-0.0881283,-0.0297488,-0.0192135,-0.0692693,-0.03723
 7,0.0461066,0.0456044,0.0209836,-0.0204404,0.0212124,0.0179449,-0.0114
 519,0.0360405,0.0194456,-0.173558\Polar=71.8559239,-0.0014092,71.79404
 93,-0.0067752,-0.0058819,63.5201765\Quadrupole=-0.0772315,-0.0791517,0
 .1563832,-0.0001952,-0.0005203,0.0002168\PG=C01 [X(C6H12)]\NImag=0\\0.
 54189905,0.05079538,0.47454672,0.02777615,0.01496175,0.56141511,-0.081
 00663,-0.00331207,0.00213380,0.53572434,-0.00210079,-0.17982330,0.0360
 4486,-0.05510087,0.48065281,-0.00012651,0.03604401,-0.09245813,-0.0267
 6501,0.01675885,0.56184294,-0.15247252,0.04494377,0.03121393,0.0012772
 7,0.00611441,-0.00106193,0.44644543,0.04374445,-0.10843713,-0.01794409
 ,0.03023446,-0.02290611,-0.01033167,0.00383861,0.56988707,0.03001337,-
 0.01977991,-0.09243650,-0.00926879,0.00483064,0.00480615,-0.00076875,-
 0.03171479,0.56159743,-0.00099326,-0.00747291,0.00041504,-0.15772801,-
 0.04197861,-0.03225149,0.00053613,0.00001923,-0.00004383,0.44644273,-0
 .03167922,-0.02074373,-0.01049337,-0.04071339,-0.10310550,-0.01613378,
 0.00001922,0.00199670,-0.00109290,0.00382966,0.56988989,0.00952045,0.0
 0424249,0.00482918,-0.03122712,-0.01815681,-0.09249003,-0.00004386,-0.
 00109293,-0.00045923,-0.00076818,-0.03171369,0.56161494,-0.03268716,-0
 .01080866,-0.00845308,0.00160019,-0.00059601,-0.00098286,-0.15773078,-
 0.04071492,-0.03122956,0.00127713,0.03023465,-0.00926916,0.53574028,0.
 01334207,0.01100240,0.00615764,-0.00059599,0.00089108,0.00063267,-0.04
 198061,-0.10310711,-0.01815883,0.00611462,-0.02290665,0.00483117,-0.05
 510236,0.48065715,0.00885331,0.00562711,0.00485578,-0.00098283,0.00063
 271,-0.00044970,-0.03225382,-0.01613509,-0.09249013,-0.00106203,-0.010
 33171,0.00480617,-0.02676671,0.01675888,0.56182592,0.00150835,0.000622
 58,0.00102745,-0.03268703,0.01334217,0.00885375,-0.00099364,-0.0316794
 6,0.00952051,-0.15247434,0.04374590,0.03001520,-0.08100628,-0.00210088
 ,-0.00012670,0.54189635,0.00062254,0.00100479,0.00052363,-0.01080854,0
 .01100243,0.00562728,-0.00747336,-0.02074439,0.00424276,0.04494568,-0.
 10843855,-0.01978153,-0.00331212,-0.17982564,0.03604577,0.05078941,0.4
 7454788,0.00102740,0.00052366,-0.00043931,-0.00845239,0.00615728,0.004
 85581,0.00041508,-0.01049359,0.00482912,0.03121534,-0.01794514,-0.0924
 3758,0.00213421,0.03604714,-0.09245838,0.02777344,0.01496122,0.5614188
 5,-0.22425878,-0.09586416,-0.06970355,0.00089941,0.00052694,0.00038543
 ,-0.02154106,-0.01218803,-0.00958222,0.00123544,0.00011946,0.00038083,
 -0.00315122,0.00456261,0.00311829,0.00054744,0.00054147,-0.00015577,0.
 24527582,-0.09583489,-0.09752513,-0.03762459,-0.02700813,-0.01384860,-
 0.01176864,0.01532601,0.00856870,0.00682403,0.00165056,-0.00625718,0.0
 0347164,0.00302606,-0.00185778,-0.00160323,0.00053628,-0.00017458,-0.0
 0008495,0.10303007,0.10911137,-0.07078784,-0.03822266,-0.07609676,0.01
 046373,0.00569670,0.00324676,0.01053410,0.00562606,0.00324180,-0.00044
 860,0.00175127,-0.00049771,0.00122165,-0.00135324,-0.00051374,-0.00012
 345,-0.00006764,-0.00002382,0.07509795,0.04052328,0.07783851,-0.047858
 16,-0.00154035,0.00352914,-0.00037302,-0.00000384,-0.00015056,-0.00225
 375,0.00040282,0.02813886,0.00011776,0.00001751,0.00098734,0.00168913,
 -0.00019689,0.00131652,-0.00014768,-0.00001452,-0.00001737,0.00074380,
 0.00085668,-0.02645537,0.05079558,-0.00154846,-0.04585530,0.00182713,-
 0.00081537,-0.00252069,0.03378979,0.00120946,-0.00069919,-0.01870328,0
 .00084985,0.00180673,0.00093873,-0.00102633,0.00022857,0.00030014,-0.0
 0000136,-0.00017178,-0.00000850,0.00085672,-0.00037904,-0.01424530,-0.
 00215747,0.05376027,0.00418370,0.00222496,-0.29325081,-0.00025487,0.00
 095607,-0.01139792,0.00068224,-0.00073989,-0.01140529,-0.00027082,-0.0
 0091615,0.00035348,-0.00092827,0.00028844,0.00035468,0.00012387,0.0000
 7766,0.00024197,0.00041867,0.00022900,-0.00983294,-0.00693776,-0.00371
 238,0.32127629,-0.00035861,-0.00004407,0.00214975,-0.04780527,0.001663
 94,-0.00337892,0.00005472,0.00008260,-0.00090779,-0.00235462,-0.000306
 26,-0.02921786,-0.00016341,0.00000057,0.00001639,0.00180934,0.00013343
 ,-0.00128101,-0.00007054,0.00001470,0.00036807,0.00075250,-0.00057132,
 -0.00010109,0.05114940,0.00071822,-0.00264621,0.03372414,0.00166384,-0
 .04610717,0.00203930,-0.00073666,0.00190118,0.00097109,-0.00111244,-0.
 00060050,-0.01700783,0.00000803,-0.00016809,-0.00001201,0.00096724,0.0
 0018136,0.00039931,-0.00037973,0.00101286,-0.00048390,0.00016366,-0.00
 606723,0.00215817,0.00224830,0.05351589,0.00029587,0.00097152,-0.01138
 064,-0.00400022,0.00246079,-0.29334226,0.00021556,-0.00098345,0.000372
 29,-0.00072103,-0.00070110,-0.01140258,-0.00013032,0.00008024,0.000241
 98,0.00096301,0.00023268,0.00035627,0.00034270,0.00047151,0.00030663,0
 .00023670,0.00214539,0.00074964,0.00669131,-0.00410996,0.32132606,0.00
 238101,-0.00145534,-0.00109033,-0.21246336,0.10274920,0.06739011,0.001
 10058,-0.00056181,-0.00017164,-0.02161163,0.01399252,0.00998164,0.0004
 8610,-0.00058334,0.00014889,-0.00363294,-0.00449081,-0.00321696,0.0004
 6841,0.00045165,-0.00023685,-0.00004451,0.00044765,-0.00030828,0.00070
 625,-0.00091321,-0.00043101,0.23257362,0.02600763,-0.01548037,-0.01168
 347,0.10277023,-0.10959101,-0.04175652,-0.00208320,-0.00608027,0.00346
 485,-0.01351934,0.00862838,0.00623208,-0.00057204,-0.00010108,-0.00009
 200,-0.00293583,-0.00141524,-0.00141781,-0.00043949,0.00054946,-0.0007
 4304,0.00005050,0.00098719,0.00047036,-0.00091365,-0.00024007,0.000288
 33,-0.11045863,0.12211383,-0.01009077,0.00634639,0.00321897,0.06841103
 ,-0.04240300,-0.07636266,0.00055154,0.00170400,-0.00049017,-0.01017314
 ,0.00623495,0.00324040,0.00011743,-0.00007367,-0.00002352,-0.00130419,
 -0.00128580,-0.00051869,0.00019166,-0.00076182,0.00015944,-0.00039378,
 -0.00045479,0.00030917,0.02555754,-0.01577301,-0.00982902,-0.07259806,
 0.04492637,0.07812738,-0.00167393,0.00155828,0.02933527,0.00106766,-0.
 00140106,0.00030049,-0.04507944,-0.00013435,-0.00011552,-0.00015943,0.
 00000915,0.00000113,-0.00181651,-0.00147089,-0.03028473,0.00119325,0.0
 0137534,-0.00037659,0.00050217,-0.00076319,-0.00019475,-0.00422422,0.0
 0343264,0.00175391,0.00012259,0.00042738,-0.00074817,-0.00004278,-0.00
 039400,-0.00026650,0.05491280,0.00079321,-0.00138798,-0.01675991,-0.00
 055997,0.00094218,-0.00129687,-0.00018937,-0.04885351,-0.00393918,0.00
 000109,-0.00016719,0.00001858,-0.00070144,-0.00116418,-0.01500966,0.00
 055394,0.00077165,-0.00127111,-0.00037348,0.00042929,0.00057566,0.0027
 0313,-0.00112866,-0.00127540,0.00024439,-0.00031662,0.00049020,-0.0000
 5241,0.00023965,0.00027284,-0.00015016,0.04984928,0.00099424,-0.000286
 70,-0.01139697,-0.00068292,0.00072067,0.00036434,-0.00016731,-0.004664
 05,-0.29337736,-0.00000492,-0.00015457,0.00024302,-0.00098982,-0.00022
 294,-0.01142013,0.00075471,0.00066736,0.00037842,0.00057921,0.00002532
 ,0.00030790,0.00193402,-0.00098762,0.00074638,0.00000446,-0.00089657,0
 .00039925,0.00006218,0.00003681,0.00037850,0.00021580,0.00780560,0.321
 37207,0.00125360,0.02674028,-0.01034062,-0.00519611,0.00205490,0.00282
 593,-0.04611271,-0.00691519,0.00228007,-0.00045922,0.00003998,0.000002
 43,-0.00035307,-0.02758206,0.01064627,-0.00550252,-0.00170789,-0.00294
 534,0.00054399,-0.00049996,-0.00077446,0.00094552,-0.00058349,0.000214
 83,-0.00004845,-0.00038446,0.00006493,0.00008105,0.00190639,-0.0002932
 9,-0.00074284,0.00008819,-0.00001174,0.05379761,-0.00074824,-0.0142970
 1,0.00554711,0.00359913,0.00011202,-0.00206951,-0.00689942,-0.27577130
 ,0.07922190,0.00004166,0.00083483,0.00018047,-0.00008738,-0.01263504,0
 .00488187,-0.00323221,0.00045085,-0.00189793,0.00040332,0.00050294,0.0
 0022451,-0.00020341,0.00004861,-0.00051033,-0.00004773,0.00024302,0.00
 003201,-0.00016792,-0.00106748,0.00030752,0.00005602,0.00126095,-0.000
 51364,0.00741425,0.30062665,-0.00028509,-0.01189626,0.00321719,0.00175
 314,-0.00048106,-0.00050422,0.00229810,0.08042394,-0.07610281,0.000004
 20,0.00013104,-0.00002061,-0.00041811,-0.01193717,0.00324823,-0.001788
 30,-0.00038037,-0.00051125,-0.00053377,0.00058519,0.00016850,-0.000611
 81,-0.00007327,0.00030723,0.00007928,-0.00037200,0.00037832,0.00009441
 ,-0.00041521,0.00050035,0.00089999,0.03002838,-0.00979620,-0.00246418,
 -0.08533599,0.07782817,0.00119335,0.00137534,-0.00037644,-0.00181672,-
 0.00147059,-0.03028484,-0.00015944,0.00000914,0.00000114,-0.04507789,-
 0.00013447,-0.00011983,0.00106764,-0.00140112,0.00030055,-0.00167365,0
 .00155877,0.02933555,-0.00001518,0.00041406,0.00028259,0.00006419,-0.0
 0048258,0.00079194,-0.00461417,-0.00325361,-0.00183925,0.00060173,0.00
 077280,0.00023651,-0.00020042,0.00000828,0.00000699,0.00010448,-0.0000
 0413,0.00000094,0.05491090,0.00055411,0.00077167,-0.00127091,-0.000701
 37,-0.00116423,-0.01500982,0.00000105,-0.00016720,0.00001858,-0.000189
 52,-0.04885154,-0.00394367,-0.00055994,0.00094223,-0.00129698,0.000793
 21,-0.00138827,-0.01676018,0.00006629,0.00021722,0.00025619,-0.0002884
 3,-0.00030870,0.00045378,-0.00253039,-0.00079812,-0.00118081,0.0003924
 6,0.00038053,0.00056948,0.00000829,0.00007431,0.00023948,-0.00000521,-
 0.00004002,0.00002287,-0.00015075,0.04984763,0.00075461,0.00066719,0.0
 0037836,-0.00098961,-0.00022271,-0.01141866,-0.00000494,-0.00015456,0.
 00024302,-0.00017133,-0.00466826,-0.29339373,-0.00068298,0.00072074,0.
 00036439,0.00099411,-0.00028681,-0.01139731,-0.00005988,0.00003965,0.0
 0038021,-0.00006597,-0.00089642,0.00040422,-0.00200037,-0.00087892,0.0
 0074481,-0.00056542,0.00006859,0.00030792,0.00000701,0.00023947,-0.000
 00141,-0.00000308,-0.00010198,-0.00003496,0.00021975,0.00780962,0.3213
 8809,-0.00550260,-0.00170784,-0.00294530,-0.00035340,-0.02758265,0.010
 64631,-0.00045922,0.00004002,0.00000240,-0.04611189,-0.00691087,0.0022
 7918,-0.00519612,0.00205496,0.00282594,0.00125379,0.02673979,-0.010341
 12,-0.00002593,-0.00197433,0.00031559,-0.00002159,0.00039864,-0.000061
 26,0.00100290,0.00053378,-0.00023820,0.00054064,0.00048322,0.00078029,
 0.00010448,-0.00000521,-0.00000309,0.00019274,-0.00000711,0.00000184,-
 0.00074266,0.00008853,-0.00001184,0.05379676,-0.00323229,0.00045088,-0
 .00189788,-0.00008763,-0.01263558,0.00488198,0.00004171,0.00083483,0.0
 0018048,-0.00689526,-0.27577602,0.07922513,0.00359910,0.00011200,-0.00
 206950,-0.00074848,-0.01429634,0.00554718,0.00010609,-0.00095650,0.000
 28994,0.00006350,0.00021441,0.00003813,0.00014122,0.00000077,-0.000501
 84,-0.00042761,0.00048712,0.00017080,-0.00000412,-0.00004002,-0.000101
 98,-0.00000713,-0.00001479,0.00003699,0.00005601,0.00126093,-0.0005135
 5,0.00741064,0.30063126,-0.00178826,-0.00038040,-0.00051116,-0.0004184
 0,-0.01193683,0.00324813,0.00000420,0.00013104,-0.00002061,0.00229729,
 0.08042689,-0.07610368,0.00175321,-0.00048110,-0.00050433,-0.00028529,
 -0.01189660,0.00321736,-0.00011800,-0.00041750,0.00050303,-0.00010139,
 -0.00036368,0.00037893,0.00061309,-0.00010960,0.00031249,0.00057567,0.
 00055364,0.00017127,0.00000094,0.00002287,-0.00003496,0.00000184,0.000
 03700,-0.00004376,0.00089980,0.03002904,-0.00979700,-0.00246274,-0.085
 33954,0.07782978,0.00180927,0.00013346,-0.00128103,-0.00016339,0.00000
 057,0.00001639,-0.00235419,-0.00030666,-0.02921752,0.00005471,0.000082
 65,-0.00090783,-0.04780693,0.00166387,-0.00337150,-0.00035862,-0.00004
 400,0.00214967,0.00036070,-0.00018356,0.00036938,-0.00054089,0.0001267
 8,0.00081435,-0.00000155,-0.00012073,0.00020306,-0.00000095,0.00006175
 ,0.00002032,-0.00461403,-0.00253036,-0.00200060,0.00100281,0.00014117,
 0.00061309,0.00012266,0.00024438,0.00000443,-0.00004846,-0.00004773,0.
 00007927,0.05115129,0.00096727,0.00018139,0.00039933,0.00000804,-0.000
 16808,-0.00001200,-0.00111221,-0.00060054,-0.01700815,-0.00073665,0.00
 190122,0.00097120,0.00166379,-0.04610887,0.00203553,0.00071772,-0.0026
 4559,0.03372380,0.00015955,-0.00016526,0.00009469,-0.00005461,0.000314
 24,0.00039331,-0.00012073,-0.00012421,-0.00012507,0.00006545,0.0000641
 3,-0.00001112,-0.00325359,-0.00079813,-0.00087902,0.00053376,0.0000007
 3,-0.00010954,0.00042734,-0.00031670,-0.00089656,-0.00038445,0.0002430
 3,-0.00037198,0.00224829,0.05351731,0.00096310,0.00023270,0.00035631,-
 0.00013035,0.00008026,0.00024196,-0.00072112,-0.00070125,-0.01140367,0
 .00021565,-0.00098358,0.00037233,-0.00399311,0.00245721,-0.29332726,0.
 00029590,0.00097143,-0.01138124,-0.00000285,-0.00007112,0.00038255,-0.
 00081520,0.00044904,0.00042053,0.00020306,-0.00012507,-0.00000193,-0.0
 0008690,0.00005163,-0.00003435,-0.00183940,-0.00118091,0.00074469,-0.0
 0023820,-0.00050183,0.00031248,-0.00074818,0.00049023,0.00039930,0.000
 06495,0.00003200,0.00037835,0.00668390,-0.00410594,0.32131205,-0.00363
 272,-0.00449069,-0.00321705,0.00048609,-0.00058337,0.00014888,-0.02161
 065,0.01399231,0.00998096,0.00110062,-0.00056180,-0.00017162,-0.212475
 23,0.10275249,0.06738741,0.00238096,-0.00145534,-0.00109015,-0.0015386
 2,0.00110606,0.00042230,0.00035300,-0.00018701,-0.00000162,-0.00000095
 ,0.00006545,-0.00008689,0.00004240,0.00009313,0.00003190,0.00060169,0.
 00039239,-0.00056539,0.00054066,-0.00042761,0.00057566,-0.00004277,-0.
 00005241,0.00006218,0.00008105,-0.00016793,0.00009440,0.00070571,-0.00
 091285,-0.00043073,0.23258480,-0.00293589,-0.00141533,-0.00141794,-0.0
 0057204,-0.00010108,-0.00009197,-0.01351972,0.00862870,0.00623204,-0.0
 0208309,-0.00608031,0.00346499,0.10277306,-0.10958979,-0.04175343,0.02
 600818,-0.01548083,-0.01168284,-0.00097834,0.00055170,0.00010590,0.000
 14884,-0.00016326,-0.00007085,0.00006175,0.00006413,0.00005162,0.00009
 312,0.00013681,-0.00001965,0.00077282,0.00038052,0.00006860,0.00048329
 ,0.00048713,0.00055367,-0.00039402,0.00023965,0.00003683,0.00190640,-0
 .00106748,-0.00041523,-0.00091333,-0.00024031,0.00028821,-0.11046206,0
 .12211313,-0.00130419,-0.00128587,-0.00051876,0.00011741,-0.00007367,-
 0.00002353,-0.01017341,0.00623542,0.00324025,0.00055163,0.00170392,-0.
 00049026,0.06840833,-0.04240014,-0.07635794,-0.01009103,0.00634665,0.0
 0321887,-0.00041497,0.00013258,0.00050691,-0.00036354,0.00011793,0.000
 38157,0.00002031,-0.00001112,-0.00003434,0.00003189,-0.00001965,-0.000
 04345,0.00023656,0.00056948,0.00030791,0.00078030,0.00017077,0.0001713
 2,-0.00026650,0.00027285,0.00037852,-0.00029330,0.00030750,0.00050038,
 0.02555776,-0.01577282,-0.00982823,-0.07259515,0.04492277,0.07812217,0
 .00054743,0.00054150,-0.00015577,-0.00315104,0.00456256,0.00311837,0.0
 0123548,0.00011939,0.00038086,-0.02154086,-0.01218797,-0.00958171,0.00
 089916,0.00052684,0.00038529,-0.22425494,-0.09585960,-0.06969749,0.000
 03277,-0.00008938,-0.00003303,-0.00000862,-0.00005991,0.00008928,0.000
 36069,0.00015954,-0.00000287,-0.00153865,-0.00097830,-0.00041495,-0.00
 001517,0.00006630,-0.00005988,-0.00002594,0.00010609,-0.00011800,0.000
 50214,-0.00037343,0.00057922,0.00054399,0.00040333,-0.00053378,-0.0000
 7059,-0.00037971,0.00034269,0.00046852,-0.00043945,0.00019165,0.245272
 24,0.00053627,-0.00017458,-0.00008493,0.00302601,-0.00185779,-0.001603
 28,0.00165043,-0.00625721,0.00347173,0.01532615,0.00856886,0.00682380,
 -0.02700826,-0.01384873,-0.01176818,-0.09583001,-0.09752282,-0.0376207
 2,-0.00008938,0.00015068,-0.00001787,-0.00005868,0.00006985,0.00004749
 ,-0.00018357,-0.00016525,-0.00007110,0.00110607,0.00055168,0.00013257,
 0.00041407,0.00021723,0.00003968,-0.00197432,-0.00095649,-0.00041752,-
 0.00076318,0.00042929,0.00002532,-0.00050000,0.00050293,0.00058521,0.0
 0001471,0.00101279,0.00047152,0.00045161,0.00054947,-0.00076183,0.1030
 2565,0.10910942,-0.00012344,-0.00006765,-0.00002383,0.00122166,-0.0013
 5323,-0.00051368,-0.00044869,0.00175123,-0.00049782,0.01053406,0.00562
 624,0.00324169,0.01046396,0.00569683,0.00324672,-0.07078161,-0.0382188
 9,-0.07609462,-0.00003303,-0.00001787,-0.00004325,-0.00002100,-0.00001
 053,-0.00003402,0.00036941,0.00009468,0.00038252,0.00042230,0.00010588
 ,0.00050689,0.00028258,0.00025617,0.00038026,0.00031560,0.00028994,0.0
 0050306,-0.00019475,0.00057565,0.00030788,-0.00077445,0.00022448,0.000
 16852,0.00036805,-0.00048393,0.00030659,-0.00023684,-0.00074307,0.0001
 5950,0.07509151,0.04051917,0.07783534,-0.00014768,-0.00001450,-0.00001
 737,0.00168905,-0.00019692,0.00131644,0.00011779,0.00001740,0.00098743
 ,-0.00225336,0.00040329,0.02813897,-0.00037292,-0.00000390,-0.00015055
 ,-0.04785783,-0.00154026,0.00352349,-0.00000862,-0.00005868,-0.0000210
 0,0.00001095,0.00011155,-0.00020883,-0.00054084,-0.00005460,-0.0008151
 6,0.00035302,0.00014884,-0.00036352,0.00006413,-0.00028854,-0.00006594
 ,-0.00002159,0.00006350,-0.00010138,-0.00422418,0.00270316,0.00193412,
 0.00094552,-0.00020340,-0.00061185,0.00075244,0.00016362,0.00023678,-0
 .00004456,0.00005047,-0.00039377,0.00074340,0.00085642,-0.02645533,0.0
 5079528,-0.00000138,-0.00017177,-0.00000849,-0.00102635,0.00022863,0.0
 0030018,0.00084990,0.00180677,0.00093894,0.00120932,-0.00069946,-0.018
 70381,-0.00081521,-0.00252047,0.03378977,-0.00154840,-0.04585493,0.001
 82316,-0.00005991,0.00006985,-0.00001054,0.00011156,-0.00013601,-0.000
 11239,0.00012680,0.00031426,0.00044903,-0.00018703,-0.00016327,0.00011
 794,-0.00048263,-0.00030875,-0.00089642,0.00039864,0.00021442,-0.00036
 367,0.00343271,-0.00112869,-0.00098764,-0.00058351,0.00004859,-0.00007
 324,-0.00057126,-0.00606715,0.00214548,0.00044763,0.00098715,-0.000454
 80,0.00085657,-0.00037934,-0.01424510,-0.00215746,0.05376016,0.0001239
 0,0.00007766,0.00024196,-0.00092824,0.00028847,0.00035471,-0.00027093,
 -0.00091633,0.00035352,0.00068215,-0.00074007,-0.01140578,-0.00025481,
 0.00095612,-0.01139872,0.00417862,0.00222120,-0.29325446,0.00008928,0.
 00004750,-0.00003402,-0.00020883,-0.00011237,-0.00000311,0.00081437,0.
 00039330,0.00042050,-0.00000164,-0.00007085,0.00038157,0.00079197,0.00
 045379,0.00040430,-0.00006128,0.00003812,0.00037897,0.00175400,-0.0012
 7540,0.00074634,0.00021480,-0.00051031,0.00030725,-0.00010118,0.002158
 26,0.00074954,-0.00030827,0.00047035,0.00030913,0.00041861,0.00022893,
 -0.00983175,-0.00693252,-0.00370837,0.32128006\\0.00020667,0.00031374,
 0.00018524,0.00032190,-0.00018011,-0.00017812,0.00005126,0.00037427,-0
 .00017619,-0.00004864,-0.00037293,0.00018099,-0.00032121,0.00017937,0.
 00017000,-0.00020968,-0.00031659,-0.00018663,-0.00017634,-0.00008188,-
 0.00012796,-0.00007851,-0.00001395,0.00029680,-0.00005643,0.00003932,-
 0.00029924,-0.00017432,0.00010006,0.00013616,0.00000737,-0.00007443,-0
 .00029509,-0.00001670,-0.00020261,0.00011785,-0.00000606,0.00007574,0.
 00028991,0.00001483,0.00020088,-0.00011621,0.00005543,-0.00003976,0.00
 030348,0.00017402,-0.00009754,-0.00013509,0.00017940,0.00008280,0.0001
 2977,0.00007702,0.00001362,-0.00029567\\\@


 WE ARE REACHING THE STAGE WHERE THE PROBLEMS WE MUST SOLVE ARE 
 GOING TO BECOME INSOLUBLE WITHOUT COMPUTERS.
 I DO NOT FEAR COMPUTERS.  I FEAR THE LACK OF THEM.

                                   -- ISSAC ASIMOV
 Job cpu time:       0 days  1 hours 27 minutes 28.1 seconds.
 Elapsed time:       0 days  0 hours  5 minutes 30.0 seconds.
 File lengths (MBytes):  RWF=     76 Int=      0 D2E=      0 Chk=      5 Scr=      1
 Normal termination of Gaussian 16 at Wed Oct  1 05:53:55 2025.
