 Entering Gaussian System, Link 0=g16
 Input=COPP0046.gjf
 Output=COPP0046.log
 Initial command:
 /usr/local/g16/l1.exe "/dados_01/scratch/Gau-2369687.inp" -scrdir="/dados_01/scratch/"
 Entering Link 1 = /usr/local/g16/l1.exe PID=   2369688.
  
 Copyright (c) 1988-2017, Gaussian, Inc.  All Rights Reserved.
  
 This is part of the Gaussian(R) 16 program.  It is based on
 the Gaussian(R) 09 system (copyright 2009, Gaussian, Inc.),
 the Gaussian(R) 03 system (copyright 2003, Gaussian, Inc.),
 the Gaussian(R) 98 system (copyright 1998, Gaussian, Inc.),
 the Gaussian(R) 94 system (copyright 1995, Gaussian, Inc.),
 the Gaussian 92(TM) system (copyright 1992, Gaussian, Inc.),
 the Gaussian 90(TM) system (copyright 1990, Gaussian, Inc.),
 the Gaussian 88(TM) system (copyright 1988, Gaussian, Inc.),
 the Gaussian 86(TM) system (copyright 1986, Carnegie Mellon
 University), and the Gaussian 82(TM) system (copyright 1983,
 Carnegie Mellon University). Gaussian is a federally registered
 trademark of Gaussian, Inc.
  
 This software contains proprietary and confidential information,
 including trade secrets, belonging to Gaussian, Inc.
  
 This software is provided under written license and may be
 used, copied, transmitted, or stored only in accord with that
 written license.
  
 The following legend is applicable only to US Government
 contracts under FAR:
  
                    RESTRICTED RIGHTS LEGEND
  
 Use, reproduction and disclosure by the US Government is
 subject to restrictions as set forth in subparagraphs (a)
 and (c) of the Commercial Computer Software - Restricted
 Rights clause in FAR 52.227-19.
  
 Gaussian, Inc.
 340 Quinnipiac St., Bldg. 40, Wallingford CT 06492
  
  
 ---------------------------------------------------------------
 Warning -- This program may not be used in any manner that
 competes with the business of Gaussian, Inc. or will provide
 assistance to any competitor of Gaussian, Inc.  The licensee
 of this program is prohibited from giving any competitor of
 Gaussian, Inc. access to this program.  By using this program,
 the user acknowledges that Gaussian, Inc. is engaged in the
 business of creating and licensing software in the field of
 computational chemistry and represents and warrants to the
 licensee that it is not a competitor of Gaussian, Inc. and that
 it will not use this program in any manner prohibited above.
 ---------------------------------------------------------------
  

 Cite this work as:
 Gaussian 16, Revision B.01,
 M. J. Frisch, G. W. Trucks, H. B. Schlegel, G. E. Scuseria, 
 M. A. Robb, J. R. Cheeseman, G. Scalmani, V. Barone, 
 G. A. Petersson, H. Nakatsuji, X. Li, M. Caricato, A. V. Marenich, 
 J. Bloino, B. G. Janesko, R. Gomperts, B. Mennucci, H. P. Hratchian, 
 J. V. Ortiz, A. F. Izmaylov, J. L. Sonnenberg, D. Williams-Young, 
 F. Ding, F. Lipparini, F. Egidi, J. Goings, B. Peng, A. Petrone, 
 T. Henderson, D. Ranasinghe, V. G. Zakrzewski, J. Gao, N. Rega, 
 G. Zheng, W. Liang, M. Hada, M. Ehara, K. Toyota, R. Fukuda, 
 J. Hasegawa, M. Ishida, T. Nakajima, Y. Honda, O. Kitao, H. Nakai, 
 T. Vreven, K. Throssell, J. A. Montgomery, Jr., J. E. Peralta, 
 F. Ogliaro, M. J. Bearpark, J. J. Heyd, E. N. Brothers, K. N. Kudin, 
 V. N. Staroverov, T. A. Keith, R. Kobayashi, J. Normand, 
 K. Raghavachari, A. P. Rendell, J. C. Burant, S. S. Iyengar, 
 J. Tomasi, M. Cossi, J. M. Millam, M. Klene, C. Adamo, R. Cammi, 
 J. W. Ochterski, R. L. Martin, K. Morokuma, O. Farkas, 
 J. B. Foresman, and D. J. Fox, Gaussian, Inc., Wallingford CT, 2016.
 
 ******************************************
 Gaussian 16:  ES64L-G16RevB.01 20-Dec-2017
                 1-Oct-2025 
 ******************************************
 %nprocs=16
 Will use up to   16 processors via shared memory.
 %mem=40GB
 %chk=COPP0046.chk
 ----------------------------------------------------------------------
 # opt freq=noraman M08HX/6-311++G** scf=xqc Empiricaldispersion=pfd In
 t(Grid=ultraFine)
 ----------------------------------------------------------------------
 1/18=20,19=15,26=4,38=1/1,3;
 2/9=110,12=2,17=6,18=5,40=1/2;
 3/5=4,6=6,7=1111,11=2,25=1,30=1,71=1,74=-74,75=-5,124=11/1,2,3;
 4//1;
 5/5=2,8=3,13=1,38=5/2,8;
 6/7=2,8=2,9=2,10=2,28=1/1;
 7//1,2,3,16;
 1/18=20,19=15,26=4/3(2);
 2/9=110/2;
 99//99;
 2/9=110/2;
 3/5=4,6=6,7=1111,11=2,25=1,30=1,71=1,74=-74,75=-5,124=11/1,2,3;
 4/5=5,16=3,69=1/1;
 5/5=2,8=3,13=1,38=5/2,8;
 7//1,2,3,16;
 1/18=20,19=15,26=4/3(-5);
 2/9=110/2;
 6/7=2,8=2,9=2,10=2,19=2,28=1/1;
 99/9=1/99;
 --------
 COPP0046
 --------
 Symbolic Z-matrix:
 Charge =  0 Multiplicity = 1
 Cl                    9.3647    4.5606    6.2496 
 O                     6.8233    11.3983   4.8833 
 C                     8.153     5.0865    8.561 
 H                     8.4329    4.2414    8.8277 
 C                     8.4297    5.5572    7.3083 
 C                     7.9969    6.8196    6.9032 
 H                     8.1725    7.1174    6.04 
 C                     7.2997    7.634     7.798 
 C                     6.8615    9.0305    7.469 
 H                     6.4151    9.5853    8.2299 
 C                     7.0078    9.6139    6.3331 
 H                     7.3968    9.1163    5.6507 
 C                     6.6105    11.0117   6.0084 
 C                     5.9833    11.8847   7.0372 
 H                     5.8182    11.5497   7.8897 
 C                     5.6539    13.1413   6.7457 
 H                     5.8802    13.4366   5.8295 
 C                     5.0492    14.1726   7.6094 
 C                     5.7326    15.5419   7.5108 
 C                     5.175     16.4819   8.636 
 H                     5.6249    16.2659   9.4678 
 H                     5.4017    17.3983   8.4115 
 C                     3.7493    16.4021   8.8514 
 H                     3.2839    16.6549   8.0382 
 H                     3.4913    17.0215   9.551 
 C                     7.0358    7.1633    9.0421 
 H                     6.4371    7.7881    9.6229 
 C                     7.4478    5.8995    9.4172 
 H                     7.2431    5.5904    10.2696 
 C                     3.3552    15.0242   9.2382 
 H                     2.3894    14.9482   9.1813 
 H                     3.6074    14.876    10.1633 
 C                     3.9785    13.9472   8.3852 
 C                     3.2476    12.6378   8.4785 
 H                     3.5314    12.0604   7.7658 
 H                     2.3026    12.7931   8.4067 
 H                     3.44      12.2227   9.3224 
 C                     5.4926    16.1553   6.1327 
 H                     5.8808    15.5909   5.4597 
 H                     5.8966    17.0244   6.0941 
 H                     4.548     16.2336   5.9776 
 C                     7.2251    15.3907   7.7412 
 H                     7.423     14.9771   8.6049 
 H                     7.7006    16.2608   7.7048 
 H                     7.6236    14.7489   7.1154 
 

 GradGradGradGradGradGradGradGradGradGradGradGradGradGradGradGradGradGrad
 Berny optimization.
 Initialization pass.
                           ----------------------------
                           !    Initial Parameters    !
                           ! (Angstroms and Degrees)  !
 --------------------------                            --------------------------
 ! Name  Definition              Value          Derivative Info.                !
 --------------------------------------------------------------------------------
 ! R1    R(1,5)                  1.7287         estimate D2E/DX2                !
 ! R2    R(2,13)                 1.2086         estimate D2E/DX2                !
 ! R3    R(3,4)                  0.9293         estimate D2E/DX2                !
 ! R4    R(3,5)                  1.3665         estimate D2E/DX2                !
 ! R5    R(3,28)                 1.3753         estimate D2E/DX2                !
 ! R6    R(5,6)                  1.3947         estimate D2E/DX2                !
 ! R7    R(6,7)                  0.9299         estimate D2E/DX2                !
 ! R8    R(6,8)                  1.3964         estimate D2E/DX2                !
 ! R9    R(8,9)                  1.5002         estimate D2E/DX2                !
 ! R10   R(8,26)                 1.3561         estimate D2E/DX2                !
 ! R11   R(9,10)                 1.0421         estimate D2E/DX2                !
 ! R12   R(9,11)                 1.2853         estimate D2E/DX2                !
 ! R13   R(11,12)                0.9298         estimate D2E/DX2                !
 ! R14   R(11,13)                1.489          estimate D2E/DX2                !
 ! R15   R(13,14)                1.4879         estimate D2E/DX2                !
 ! R16   R(14,15)                0.9307         estimate D2E/DX2                !
 ! R17   R(14,16)                1.3314         estimate D2E/DX2                !
 ! R18   R(16,17)                0.9889         estimate D2E/DX2                !
 ! R19   R(16,18)                1.4749         estimate D2E/DX2                !
 ! R20   R(18,19)                1.5335         estimate D2E/DX2                !
 ! R21   R(18,33)                1.3413         estimate D2E/DX2                !
 ! R22   R(19,20)                1.5686         estimate D2E/DX2                !
 ! R23   R(19,38)                1.5274         estimate D2E/DX2                !
 ! R24   R(19,42)                1.5177         estimate D2E/DX2                !
 ! R25   R(20,21)                0.97           estimate D2E/DX2                !
 ! R26   R(20,22)                0.9704         estimate D2E/DX2                !
 ! R27   R(20,23)                1.4441         estimate D2E/DX2                !
 ! R28   R(23,24)                0.9705         estimate D2E/DX2                !
 ! R29   R(23,25)                0.9694         estimate D2E/DX2                !
 ! R30   R(23,30)                1.4844         estimate D2E/DX2                !
 ! R31   R(26,27)                1.0422         estimate D2E/DX2                !
 ! R32   R(26,28)                1.3812         estimate D2E/DX2                !
 ! R33   R(28,29)                0.9295         estimate D2E/DX2                !
 ! R34   R(30,31)                0.9705         estimate D2E/DX2                !
 ! R35   R(30,32)                0.9702         estimate D2E/DX2                !
 ! R36   R(30,33)                1.5087         estimate D2E/DX2                !
 ! R37   R(33,34)                1.5025         estimate D2E/DX2                !
 ! R38   R(34,35)                0.9601         estimate D2E/DX2                !
 ! R39   R(34,36)                0.9604         estimate D2E/DX2                !
 ! R40   R(34,37)                0.9599         estimate D2E/DX2                !
 ! R41   R(38,39)                0.9603         estimate D2E/DX2                !
 ! R42   R(38,40)                0.9592         estimate D2E/DX2                !
 ! R43   R(38,41)                0.9604         estimate D2E/DX2                !
 ! R44   R(42,43)                0.9779         estimate D2E/DX2                !
 ! R45   R(42,44)                0.9922         estimate D2E/DX2                !
 ! R46   R(42,45)                0.981          estimate D2E/DX2                !
 ! A1    A(4,3,5)              121.0189         estimate D2E/DX2                !
 ! A2    A(4,3,28)             120.8872         estimate D2E/DX2                !
 ! A3    A(5,3,28)             118.094          estimate D2E/DX2                !
 ! A4    A(1,5,3)              118.188          estimate D2E/DX2                !
 ! A5    A(1,5,6)              120.7838         estimate D2E/DX2                !
 ! A6    A(3,5,6)              121.0122         estimate D2E/DX2                !
 ! A7    A(5,6,7)              120.0617         estimate D2E/DX2                !
 ! A8    A(5,6,8)              119.7826         estimate D2E/DX2                !
 ! A9    A(7,6,8)              120.1557         estimate D2E/DX2                !
 ! A10   A(6,8,9)              123.2447         estimate D2E/DX2                !
 ! A11   A(6,8,26)             118.8548         estimate D2E/DX2                !
 ! A12   A(9,8,26)             117.8703         estimate D2E/DX2                !
 ! A13   A(8,9,10)             117.4245         estimate D2E/DX2                !
 ! A14   A(8,9,11)             125.669          estimate D2E/DX2                !
 ! A15   A(10,9,11)            116.8963         estimate D2E/DX2                !
 ! A16   A(9,11,12)            116.9554         estimate D2E/DX2                !
 ! A17   A(9,11,13)            126.0465         estimate D2E/DX2                !
 ! A18   A(12,11,13)           116.998          estimate D2E/DX2                !
 ! A19   A(2,13,11)            117.15           estimate D2E/DX2                !
 ! A20   A(2,13,14)            122.0206         estimate D2E/DX2                !
 ! A21   A(11,13,14)           120.8292         estimate D2E/DX2                !
 ! A22   A(13,14,15)           119.7959         estimate D2E/DX2                !
 ! A23   A(13,14,16)           120.4428         estimate D2E/DX2                !
 ! A24   A(15,14,16)           119.761          estimate D2E/DX2                !
 ! A25   A(14,16,17)           115.347          estimate D2E/DX2                !
 ! A26   A(14,16,18)           129.2872         estimate D2E/DX2                !
 ! A27   A(17,16,18)           115.3153         estimate D2E/DX2                !
 ! A28   A(16,18,19)           113.8284         estimate D2E/DX2                !
 ! A29   A(16,18,33)           123.2642         estimate D2E/DX2                !
 ! A30   A(19,18,33)           122.8861         estimate D2E/DX2                !
 ! A31   A(18,19,20)           109.3016         estimate D2E/DX2                !
 ! A32   A(18,19,38)           110.2777         estimate D2E/DX2                !
 ! A33   A(18,19,42)           109.8473         estimate D2E/DX2                !
 ! A34   A(20,19,38)           110.529          estimate D2E/DX2                !
 ! A35   A(20,19,42)           107.4797         estimate D2E/DX2                !
 ! A36   A(38,19,42)           109.3591         estimate D2E/DX2                !
 ! A37   A(19,20,21)           108.4691         estimate D2E/DX2                !
 ! A38   A(19,20,22)           108.4772         estimate D2E/DX2                !
 ! A39   A(19,20,23)           115.1395         estimate D2E/DX2                !
 ! A40   A(21,20,22)           107.4773         estimate D2E/DX2                !
 ! A41   A(21,20,23)           108.523          estimate D2E/DX2                !
 ! A42   A(22,20,23)           108.5027         estimate D2E/DX2                !
 ! A43   A(20,23,24)           109.5163         estimate D2E/DX2                !
 ! A44   A(20,23,25)           109.579          estimate D2E/DX2                !
 ! A45   A(20,23,30)           110.6262         estimate D2E/DX2                !
 ! A46   A(24,23,25)           108.0997         estimate D2E/DX2                !
 ! A47   A(24,23,30)           109.4404         estimate D2E/DX2                !
 ! A48   A(25,23,30)           109.5362         estimate D2E/DX2                !
 ! A49   A(8,26,27)            114.5175         estimate D2E/DX2                !
 ! A50   A(8,26,28)            120.5777         estimate D2E/DX2                !
 ! A51   A(27,26,28)           124.651          estimate D2E/DX2                !
 ! A52   A(3,28,26)            121.655          estimate D2E/DX2                !
 ! A53   A(3,28,29)            119.1602         estimate D2E/DX2                !
 ! A54   A(26,28,29)           119.1849         estimate D2E/DX2                !
 ! A55   A(23,30,31)           108.7616         estimate D2E/DX2                !
 ! A56   A(23,30,32)           108.7367         estimate D2E/DX2                !
 ! A57   A(23,30,33)           113.9309         estimate D2E/DX2                !
 ! A58   A(31,30,32)           107.6156         estimate D2E/DX2                !
 ! A59   A(31,30,33)           108.7906         estimate D2E/DX2                !
 ! A60   A(32,30,33)           108.824          estimate D2E/DX2                !
 ! A61   A(18,33,30)           122.4703         estimate D2E/DX2                !
 ! A62   A(18,33,34)           124.7984         estimate D2E/DX2                !
 ! A63   A(30,33,34)           112.7089         estimate D2E/DX2                !
 ! A64   A(33,34,35)           109.5242         estimate D2E/DX2                !
 ! A65   A(33,34,36)           109.4576         estimate D2E/DX2                !
 ! A66   A(33,34,37)           109.5082         estimate D2E/DX2                !
 ! A67   A(35,34,36)           109.4269         estimate D2E/DX2                !
 ! A68   A(35,34,37)           109.4671         estimate D2E/DX2                !
 ! A69   A(36,34,37)           109.4433         estimate D2E/DX2                !
 ! A70   A(19,38,39)           109.4365         estimate D2E/DX2                !
 ! A71   A(19,38,40)           109.5118         estimate D2E/DX2                !
 ! A72   A(19,38,41)           109.4494         estimate D2E/DX2                !
 ! A73   A(39,38,40)           109.5157         estimate D2E/DX2                !
 ! A74   A(39,38,41)           109.4096         estimate D2E/DX2                !
 ! A75   A(40,38,41)           109.5041         estimate D2E/DX2                !
 ! A76   A(19,42,43)           112.039          estimate D2E/DX2                !
 ! A77   A(19,42,44)           112.2304         estimate D2E/DX2                !
 ! A78   A(19,42,45)           111.5804         estimate D2E/DX2                !
 ! A79   A(43,42,44)           107.8378         estimate D2E/DX2                !
 ! A80   A(43,42,45)           101.8016         estimate D2E/DX2                !
 ! A81   A(44,42,45)           110.8327         estimate D2E/DX2                !
 ! D1    D(4,3,5,1)             -2.1578         estimate D2E/DX2                !
 ! D2    D(4,3,5,6)            179.2883         estimate D2E/DX2                !
 ! D3    D(28,3,5,1)           177.8405         estimate D2E/DX2                !
 ! D4    D(28,3,5,6)            -0.7133         estimate D2E/DX2                !
 ! D5    D(4,3,28,26)          179.3367         estimate D2E/DX2                !
 ! D6    D(4,3,28,29)           -0.6874         estimate D2E/DX2                !
 ! D7    D(5,3,28,26)           -0.6616         estimate D2E/DX2                !
 ! D8    D(5,3,28,29)          179.3142         estimate D2E/DX2                !
 ! D9    D(1,5,6,7)              3.1542         estimate D2E/DX2                !
 ! D10   D(1,5,6,8)           -176.8357         estimate D2E/DX2                !
 ! D11   D(3,5,6,7)           -178.3295         estimate D2E/DX2                !
 ! D12   D(3,5,6,8)              1.6806         estimate D2E/DX2                !
 ! D13   D(5,6,8,9)            176.6999         estimate D2E/DX2                !
 ! D14   D(5,6,8,26)            -1.2534         estimate D2E/DX2                !
 ! D15   D(7,6,8,9)             -3.29           estimate D2E/DX2                !
 ! D16   D(7,6,8,26)           178.7567         estimate D2E/DX2                !
 ! D17   D(6,8,9,10)          -175.1623         estimate D2E/DX2                !
 ! D18   D(6,8,9,11)             3.6356         estimate D2E/DX2                !
 ! D19   D(26,8,9,10)            2.8099         estimate D2E/DX2                !
 ! D20   D(26,8,9,11)         -178.3922         estimate D2E/DX2                !
 ! D21   D(6,8,26,27)         -174.5661         estimate D2E/DX2                !
 ! D22   D(6,8,26,28)           -0.0899         estimate D2E/DX2                !
 ! D23   D(9,8,26,27)            7.3702         estimate D2E/DX2                !
 ! D24   D(9,8,26,28)         -178.1536         estimate D2E/DX2                !
 ! D25   D(8,9,11,12)            1.9026         estimate D2E/DX2                !
 ! D26   D(8,9,11,13)         -178.1854         estimate D2E/DX2                !
 ! D27   D(10,9,11,12)        -179.2939         estimate D2E/DX2                !
 ! D28   D(10,9,11,13)           0.6181         estimate D2E/DX2                !
 ! D29   D(9,11,13,2)         -179.9841         estimate D2E/DX2                !
 ! D30   D(9,11,13,14)           0.2105         estimate D2E/DX2                !
 ! D31   D(12,11,13,2)          -0.0721         estimate D2E/DX2                !
 ! D32   D(12,11,13,14)       -179.8775         estimate D2E/DX2                !
 ! D33   D(2,13,14,15)         178.7994         estimate D2E/DX2                !
 ! D34   D(2,13,14,16)          -1.0556         estimate D2E/DX2                !
 ! D35   D(11,13,14,15)         -1.4048         estimate D2E/DX2                !
 ! D36   D(11,13,14,16)        178.7401         estimate D2E/DX2                !
 ! D37   D(13,14,16,17)         -1.7115         estimate D2E/DX2                !
 ! D38   D(13,14,16,18)       -178.9785         estimate D2E/DX2                !
 ! D39   D(15,14,16,17)        178.4334         estimate D2E/DX2                !
 ! D40   D(15,14,16,18)          1.1664         estimate D2E/DX2                !
 ! D41   D(14,16,18,19)        133.8814         estimate D2E/DX2                !
 ! D42   D(14,16,18,33)        -47.7584         estimate D2E/DX2                !
 ! D43   D(17,16,18,19)        -43.3863         estimate D2E/DX2                !
 ! D44   D(17,16,18,33)        134.9739         estimate D2E/DX2                !
 ! D45   D(16,18,19,20)       -170.4199         estimate D2E/DX2                !
 ! D46   D(16,18,19,38)         67.8773         estimate D2E/DX2                !
 ! D47   D(16,18,19,42)        -52.7245         estimate D2E/DX2                !
 ! D48   D(33,18,19,20)         11.2129         estimate D2E/DX2                !
 ! D49   D(33,18,19,38)       -110.49           estimate D2E/DX2                !
 ! D50   D(33,18,19,42)        128.9082         estimate D2E/DX2                !
 ! D51   D(16,18,33,30)       -178.5684         estimate D2E/DX2                !
 ! D52   D(16,18,33,34)         -0.4132         estimate D2E/DX2                !
 ! D53   D(19,18,33,30)         -0.3547         estimate D2E/DX2                !
 ! D54   D(19,18,33,34)        177.8005         estimate D2E/DX2                !
 ! D55   D(18,19,20,21)         80.2248         estimate D2E/DX2                !
 ! D56   D(18,19,20,22)       -163.323          estimate D2E/DX2                !
 ! D57   D(18,19,20,23)        -41.5592         estimate D2E/DX2                !
 ! D58   D(38,19,20,21)       -158.2241         estimate D2E/DX2                !
 ! D59   D(38,19,20,22)        -41.7719         estimate D2E/DX2                !
 ! D60   D(38,19,20,23)         79.9919         estimate D2E/DX2                !
 ! D61   D(42,19,20,21)        -38.9476         estimate D2E/DX2                !
 ! D62   D(42,19,20,22)         77.5046         estimate D2E/DX2                !
 ! D63   D(42,19,20,23)       -160.7317         estimate D2E/DX2                !
 ! D64   D(18,19,38,39)        -62.0273         estimate D2E/DX2                !
 ! D65   D(18,19,38,40)        177.9146         estimate D2E/DX2                !
 ! D66   D(18,19,38,41)         57.8628         estimate D2E/DX2                !
 ! D67   D(20,19,38,39)        177.0001         estimate D2E/DX2                !
 ! D68   D(20,19,38,40)         56.942          estimate D2E/DX2                !
 ! D69   D(20,19,38,41)        -63.1098         estimate D2E/DX2                !
 ! D70   D(42,19,38,39)         58.8667         estimate D2E/DX2                !
 ! D71   D(42,19,38,40)        -61.1914         estimate D2E/DX2                !
 ! D72   D(42,19,38,41)        178.7568         estimate D2E/DX2                !
 ! D73   D(18,19,42,43)        -57.2495         estimate D2E/DX2                !
 ! D74   D(18,19,42,44)       -178.747          estimate D2E/DX2                !
 ! D75   D(18,19,42,45)         56.1661         estimate D2E/DX2                !
 ! D76   D(20,19,42,43)         61.5729         estimate D2E/DX2                !
 ! D77   D(20,19,42,44)        -59.9246         estimate D2E/DX2                !
 ! D78   D(20,19,42,45)        174.9884         estimate D2E/DX2                !
 ! D79   D(38,19,42,43)       -178.4048         estimate D2E/DX2                !
 ! D80   D(38,19,42,44)         60.0976         estimate D2E/DX2                !
 ! D81   D(38,19,42,45)        -64.9893         estimate D2E/DX2                !
 ! D82   D(19,20,23,24)        -60.7883         estimate D2E/DX2                !
 ! D83   D(19,20,23,25)       -179.2062         estimate D2E/DX2                !
 ! D84   D(19,20,23,30)         59.9228         estimate D2E/DX2                !
 ! D85   D(21,20,23,24)        177.4568         estimate D2E/DX2                !
 ! D86   D(21,20,23,25)         59.0389         estimate D2E/DX2                !
 ! D87   D(21,20,23,30)        -61.8321         estimate D2E/DX2                !
 ! D88   D(22,20,23,24)         60.9617         estimate D2E/DX2                !
 ! D89   D(22,20,23,25)        -57.4562         estimate D2E/DX2                !
 ! D90   D(22,20,23,30)       -178.3273         estimate D2E/DX2                !
 ! D91   D(20,23,30,31)       -167.3956         estimate D2E/DX2                !
 ! D92   D(20,23,30,32)         75.6863         estimate D2E/DX2                !
 ! D93   D(20,23,30,33)        -45.867          estimate D2E/DX2                !
 ! D94   D(24,23,30,31)        -46.6394         estimate D2E/DX2                !
 ! D95   D(24,23,30,32)       -163.5574         estimate D2E/DX2                !
 ! D96   D(24,23,30,33)         74.8892         estimate D2E/DX2                !
 ! D97   D(25,23,30,31)         71.7079         estimate D2E/DX2                !
 ! D98   D(25,23,30,32)        -45.2101         estimate D2E/DX2                !
 ! D99   D(25,23,30,33)       -166.7635         estimate D2E/DX2                !
 ! D100  D(8,26,28,3)            1.0768         estimate D2E/DX2                !
 ! D101  D(8,26,28,29)        -178.899          estimate D2E/DX2                !
 ! D102  D(27,26,28,3)         174.9653         estimate D2E/DX2                !
 ! D103  D(27,26,28,29)         -5.0105         estimate D2E/DX2                !
 ! D104  D(23,30,33,18)         17.2648         estimate D2E/DX2                !
 ! D105  D(23,30,33,34)       -161.093          estimate D2E/DX2                !
 ! D106  D(31,30,33,18)        138.7774         estimate D2E/DX2                !
 ! D107  D(31,30,33,34)        -39.5805         estimate D2E/DX2                !
 ! D108  D(32,30,33,18)       -104.2402         estimate D2E/DX2                !
 ! D109  D(32,30,33,34)         77.402          estimate D2E/DX2                !
 ! D110  D(18,33,34,35)        -12.7194         estimate D2E/DX2                !
 ! D111  D(18,33,34,36)       -132.6892         estimate D2E/DX2                !
 ! D112  D(18,33,34,37)        107.3308         estimate D2E/DX2                !
 ! D113  D(30,33,34,35)        165.5934         estimate D2E/DX2                !
 ! D114  D(30,33,34,36)         45.6236         estimate D2E/DX2                !
 ! D115  D(30,33,34,37)        -74.3564         estimate D2E/DX2                !
 --------------------------------------------------------------------------------
 Trust Radius=3.00D-01 FncErr=1.00D-07 GrdErr=1.00D-06 EigMax=2.50D+02 EigMin=1.00D-04
 Number of steps in this run=    252 maximum allowed number of steps=    270.
 GradGradGradGradGradGradGradGradGradGradGradGradGradGradGradGradGradGrad

                          Input orientation:                          
 ---------------------------------------------------------------------
 Center     Atomic      Atomic             Coordinates (Angstroms)
 Number     Number       Type             X           Y           Z
 ---------------------------------------------------------------------
      1         17           0        9.364700    4.560600    6.249600
      2          8           0        6.823300   11.398300    4.883300
      3          6           0        8.153000    5.086500    8.561000
      4          1           0        8.432900    4.241400    8.827700
      5          6           0        8.429700    5.557200    7.308300
      6          6           0        7.996900    6.819600    6.903200
      7          1           0        8.172500    7.117400    6.040000
      8          6           0        7.299700    7.634000    7.798000
      9          6           0        6.861500    9.030500    7.469000
     10          1           0        6.415100    9.585300    8.229900
     11          6           0        7.007800    9.613900    6.333100
     12          1           0        7.396800    9.116300    5.650700
     13          6           0        6.610500   11.011700    6.008400
     14          6           0        5.983300   11.884700    7.037200
     15          1           0        5.818200   11.549700    7.889700
     16          6           0        5.653900   13.141300    6.745700
     17          1           0        5.880200   13.436600    5.829500
     18          6           0        5.049200   14.172600    7.609400
     19          6           0        5.732600   15.541900    7.510800
     20          6           0        5.175000   16.481900    8.636000
     21          1           0        5.624900   16.265900    9.467800
     22          1           0        5.401700   17.398300    8.411500
     23          6           0        3.749300   16.402100    8.851400
     24          1           0        3.283900   16.654900    8.038200
     25          1           0        3.491300   17.021500    9.551000
     26          6           0        7.035800    7.163300    9.042100
     27          1           0        6.437100    7.788100    9.622900
     28          6           0        7.447800    5.899500    9.417200
     29          1           0        7.243100    5.590400   10.269600
     30          6           0        3.355200   15.024200    9.238200
     31          1           0        2.389400   14.948200    9.181300
     32          1           0        3.607400   14.876000   10.163300
     33          6           0        3.978500   13.947200    8.385200
     34          6           0        3.247600   12.637800    8.478500
     35          1           0        3.531400   12.060400    7.765800
     36          1           0        2.302600   12.793100    8.406700
     37          1           0        3.440000   12.222700    9.322400
     38          6           0        5.492600   16.155300    6.132700
     39          1           0        5.880800   15.590900    5.459700
     40          1           0        5.896600   17.024400    6.094100
     41          1           0        4.548000   16.233600    5.977600
     42          6           0        7.225100   15.390700    7.741200
     43          1           0        7.423000   14.977100    8.604900
     44          1           0        7.700600   16.260800    7.704800
     45          1           0        7.623600   14.748900    7.115400
 ---------------------------------------------------------------------
                    Distance matrix (angstroms):
                    1          2          3          4          5
     1  Cl   0.000000
     2  O    7.421565   0.000000
     3  C    2.662209   7.425119   0.000000
     4  H    2.759844   8.328885   0.929337   0.000000
     5  C    1.728665   6.525304   1.366521   2.009954   0.000000
     6  C    2.720506   5.140217   2.403394   3.246677   1.394660
     7  H    2.828869   4.635127   3.237341   4.013783   2.027057
     8  C    4.013422   4.784599   2.792856   3.722118   2.414499
     9  C    5.266209   3.506249   4.291337   5.220234   3.814301
    10  H    6.153807   3.827967   4.834162   5.743357   4.597124
    11  C    5.576539   2.306522   5.174203   6.092429   4.407905
    12  H    4.998571   2.474940   5.028019   5.910286   4.059768
    13  C    7.018582   1.208550   6.633481   7.556888   5.894981
    14  C    8.105345   2.362514   7.296923   8.223531   6.789376
    15  H    8.007191   3.173577   6.904700   7.818424   6.562623
    16  C    9.361868   2.806079   8.626739   9.553313   8.095688
    17  H    9.544716   2.437088   9.074739  10.002859   8.412594
    18  C   10.623707   4.275020   9.648644  10.562311   9.259782
    19  C   11.634936   5.026212  10.783165  11.693038  10.344544
    20  C   12.859467   6.530133  11.778338  12.668090  11.476277
    21  H   12.702636   6.793183  11.497502  12.364594  11.278590
    22  H   13.608296   7.104164  12.616355  13.507976  12.271817
    23  C   13.361258   7.087546  12.145769  13.031473  11.912143
    24  H   13.654571   7.079025  12.562218  13.462188  12.254426
    25  H   14.165807   8.031813  12.851295  13.721280  12.682574
    26  C    4.471675   5.939360   2.406801   3.245821   2.743825
    27  H    5.510603   5.970469   3.372030   4.146642   3.782161
    28  C    3.937112   7.154233   1.375265   2.016737   2.351331
    29  H    4.660695   7.932223   2.000287   2.305320   3.190364
    30  C   12.431120   6.643796  11.056010  11.925616  10.913256
    31  H   12.851144   7.122785  11.439274  12.299776  11.321848
    32  H   12.444719   7.093293  10.911652  11.754318  10.874081
    33  C   11.030875   5.181996   9.796395  10.688313   9.558504
    34  C   10.374395   5.219909   9.005103   9.874655   8.852029
    35  H    9.621499   4.425357   8.403976   9.289192   8.154401
    36  H   11.058951   5.898859   9.676914  10.530403   9.544951
    37  H   10.161296   5.641982   8.585887   9.427350   8.566364
    38  C   12.224725   5.095175  11.640133  12.563813  11.060213
    39  H   11.594353   4.335717  11.185856  12.110648  10.516147
    40  H   12.938246   5.829049  12.397193  13.315798  11.806251
    41  H   12.630658   5.454779  11.996992  12.923946  11.437826
    42  C   11.139741   4.926286  10.378324  11.267038   9.916460
    43  H   10.854543   5.197861   9.917600  10.785397   9.561858
    44  H   11.907204   5.689853  11.216181  12.093930  10.735728
    45  H   10.372198   4.104786   9.784273  10.676820   9.228995
                    6          7          8          9         10
     6  C    0.000000
     7  H    0.929857   0.000000
     8  C    1.396425   2.029586   0.000000
     9  C    2.548988   2.724099   1.500157   0.000000
    10  H    3.451278   3.738268   2.185549   1.042135   0.000000
    11  C    3.018517   2.770369   2.480150   1.285312   1.987451
    12  H    2.683972   2.179189   2.611042   1.897399   2.799280
    13  C    4.505161   4.196000   3.884137   2.474168   2.647236
    14  C    5.452319   5.339865   4.514441   3.017307   2.626066
    15  H    5.300355   5.348776   4.187596   2.758955   2.081080
    16  C    6.743763   6.567247   5.843488   4.345128   3.927774
    17  H    7.029789   6.725417   6.289685   4.802565   4.569524
    18  C    7.953255   7.873618   6.917630   5.453928   4.826388
    19  C    9.031874   8.893175   8.066794   6.608668   6.038542
    20  C   10.213998  10.169468   9.137939   7.728488   7.018964
    21  H   10.071551  10.096293   8.950021   7.607588   6.840119
    22  H   10.996314  10.908632   9.965959   8.546309   7.880541
    23  C   10.661233  10.661816   9.518118   8.120179   7.345850
    24  H   10.965114  10.902070   9.877296   8.441249   7.734365
    25  H   11.462549  11.503563  10.281151   8.919028   8.098826
    26  C    2.369965   3.210420   1.356092   2.447746   2.628882
    27  H    3.281423   4.037155   2.024373   2.522491   2.273953
    28  C    2.732817   3.662506   2.377442   3.733951   4.007652
    29  H    3.662212   4.591844   3.207540   4.452333   4.561270
    30  C    9.711491   9.795527   8.499901   7.165797   6.321494
    31  H   10.134492  10.229049   8.917516   7.612544   6.772896
    32  H    9.736608   9.901395   8.466067   7.212371   6.293864
    33  C    8.315440   8.350794   7.157630   5.772785   4.998731
    34  C    7.673909   7.789463   6.474613   5.204995   4.405975
    35  H    6.939074   6.996531   5.813273   4.511979   3.828477
    36  H    8.388580   8.501210   7.208178   5.984982   5.218610
    37  H    7.470700   7.696414   6.186861   5.033080   4.123185
    38  C    9.696416   9.427306   8.868562   7.377151   6.958028
    39  H    9.137684   8.797093   8.413868   6.930938   6.635263
    40  H   10.450064  10.165200   9.646325   8.168465   7.756977
    41  H   10.068517   9.810504   9.210800   7.711109   7.263526
    42  C    8.646483   8.499361   7.757267   6.376397   5.881972
    43  H    8.352841   8.301527   7.388329   6.080099   5.497999
    44  H    9.479800   9.305698   8.636613   7.282646   6.818397
    45  H    7.940918   7.726420   7.154904   5.779786   5.418980
                   11         12         13         14         15
    11  C    0.000000
    12  H    0.929837   0.000000
    13  C    1.489000   2.082969   0.000000
    14  C    2.588801   3.403587   1.487931   0.000000
    15  H    2.754174   3.664224   2.111036   0.930720   0.000000
    16  C    3.800768   4.520769   2.448242   1.331360   1.966957
    17  H    4.017229   4.582252   2.538796   1.969153   2.794398
    18  C    5.123163   5.908799   3.871969   2.536620   2.747641
    19  C    6.176916   6.893321   4.852899   3.696249   4.011054
    20  C    7.472077   8.252301   6.236027   4.933939   5.029639
    21  H    7.482504   8.296184   6.367533   5.023065   4.976978
    22  H    8.215606   8.955108   6.929989   5.711982   5.886584
    23  C    7.939730   8.753949   6.732424   5.356210   5.361996
    24  H    8.145580   8.913282   6.857993   5.571676   5.701561
    25  H    8.808700   9.641445   7.641801   6.238266   6.173733
    26  C    3.653068   3.930156   4.918780   5.236315   4.695858
    27  H    3.805526   4.296919   4.846264   4.865584   4.187679
    28  C    4.847890   4.953476   6.201256   6.605436   6.075657
    29  H    5.633822   5.812902   6.924486   7.187052   6.573243
    30  C    7.145099   8.006745   6.093336   4.648416   4.467323
    31  H    7.608983   8.458738   6.586426   5.186358   4.997470
    32  H    7.343218   8.239979   6.419861   4.936120   4.595777
    33  C    5.671443   6.519192   4.603668   3.176513   3.062356
    34  C    5.280702   6.132966   4.478246   3.182540   2.852829
    35  H    4.485906   5.299310   3.697172   2.563892   2.346406
    36  H    6.045332   6.860413   5.242445   4.030915   3.764675
    37  H    5.335818   6.227951   4.743542   3.435805   2.856815
    38  C    6.717582   7.307929   5.265147   4.392827   4.940103
    39  H    6.144712   6.652457   4.669326   4.029259   4.715943
    40  H    7.497159   8.061343   6.055540   5.226229   5.762175
    41  H    7.070886   7.673232   5.614543   4.700614   5.216172
    42  C    5.949906   6.615721   4.749313   3.785462   4.093251
    43  H    5.839296   6.563304   4.808988   3.754112   3.851489
    44  H    6.822229   7.440128   5.623090   4.748164   5.076621
    45  H    5.230624   5.824343   4.027218   3.301566   3.754183
                   16         17         18         19         20
    16  C    0.000000
    17  H    0.988856   0.000000
    18  C    1.474863   2.097689   0.000000
    19  C    2.520804   2.698304   1.533538   0.000000
    20  C    3.868099   4.200905   2.530336   1.568628   0.000000
    21  H    4.144128   4.615988   2.857794   2.089408   0.970030
    22  H    4.578269   4.752973   3.342568   2.089731   0.970352
    23  C    4.323689   4.739916   2.864083   2.543744   1.444086
    24  H    4.430896   4.687919   3.076031   2.740995   1.990867
    25  H    5.253808   5.692795   3.783265   3.372693   1.990788
    26  C    6.551304   7.142164   7.424924   8.616504   9.511246
    27  H    6.127678   6.826827   6.836833   8.067137   8.840194
    28  C    7.924560   8.493341   8.801455   9.977582  10.851870
    29  H    8.482896   9.117831   9.249001  10.436711  11.205823
    30  C    3.878388   4.529386   2.499570   2.983950   2.408154
    31  H    4.455782   5.070028   3.185429   3.784182   3.226322
    32  H    4.344806   5.100913   3.015952   3.463474   2.714577
    33  C    2.478790   3.226264   1.341294   2.526759   2.814110
    34  C    3.007721   3.819145   2.521251   3.942774   4.303113
    35  H    2.591130   3.340665   2.605680   4.126881   4.796700
    36  H    3.756511   4.455926   3.175298   4.485916   4.680866
    37  H    3.519171   4.430404   3.053851   4.422103   4.649963
    38  C    3.079932   2.762878   2.511642   1.527422   2.544415
    39  H    2.775936   2.185809   2.706352   2.057031   3.373561
    40  H    3.944864   3.597581   3.338710   2.057120   2.697456
    41  H    3.372731   3.101596   2.676134   2.057287   2.742603
    42  C    2.918817   3.046614   2.497134   1.517729   2.488834
    43  H    3.155392   3.529337   2.696881   2.091293   2.705345
    44  H    3.852289   3.847949   3.376330   2.104157   2.700865
    45  H    2.569197   2.532807   2.683970   2.088318   3.363206
                   21         22         23         24         25
    21  H    0.000000
    22  H    1.564582   0.000000
    23  C    1.978983   1.978978   0.000000
    24  H    2.770444   2.275318   0.970463   0.000000
    25  H    2.264973   2.256118   0.969361   1.570342   0.000000
    26  C    9.221127  10.383793   9.807797  10.255488  10.488402
    27  H    8.518029   9.741431   9.056516   9.543274   9.692192
    28  C   10.525577  11.722643  11.149154  11.615435  11.805536
    29  H   10.827177  12.094205  11.450362  11.961504  12.052487
    30  C    2.597320   3.241596   1.484432   2.025899   2.026222
    31  H    3.505264   3.958476   2.017917   2.240454   2.376854
    32  H    2.546733   3.556728   2.017473   2.790195   2.234180
    33  C    3.042865   3.733133   2.509265   2.816828   3.323819
    34  C    4.448975   5.225610   3.815850   4.041321   4.519565
    35  H    4.996576   5.692814   4.480666   4.609218   5.272671
    36  H    4.921783   5.550884   3.913512   4.001530   4.538920
    37  H    4.598086   5.609353   4.217214   4.617135   4.804516
    38  C    3.339555   2.597353   3.239033   2.959542   4.054661
    39  H    4.072588   3.494189   4.087171   3.811122   4.949249
    40  H    3.468572   2.398973   3.549769   3.277538   4.211370
    41  H    3.652705   2.830053   2.987481   2.453878   3.808752
    42  C    2.511526   2.793662   3.786378   4.149635   4.458267
    43  H    2.374608   3.159947   3.948096   4.502034   4.531329
    44  H    2.723367   2.660502   4.116726   4.446764   4.658897
    45  H    3.439459   3.692700   4.555981   4.828809   5.307802
                   26         27         28         29         30
    26  C    0.000000
    27  H    1.042183   0.000000
    28  C    1.381171   2.151891   0.000000
    29  H    2.005927   2.428527   0.929532   0.000000
    30  C    8.682109   7.874468  10.002078  10.255542   0.000000
    31  H    9.067143   8.236863  10.369283  10.597699   0.970455
    32  H    8.514503   7.650984   9.791981   9.972561   0.970246
    33  C    7.469933   6.746194   8.824202   9.167589   1.508655
    34  C    6.681187   5.916262   7.995469   8.296861   2.506716
    35  H    6.155595   5.490397   7.484785   7.868077   3.314079
    36  H    7.382517   6.604791   8.661173   8.930724   2.603299
    37  H    6.213363   5.360838   7.486942   7.703776   2.804048
    38  C    9.576123   9.115021  10.944961  11.480214   3.935987
    39  H    9.229954   8.861455  10.584920  11.180385   4.580051
    40  H   10.355181   9.902212  11.713779  12.246804   4.510530
    41  H    9.891949   9.390601  11.270906  11.788237   3.676538
    42  C    8.331764   7.871548   9.640615  10.121216   4.165508
    43  H    7.835594   7.327349   9.113905   9.534869   4.117072
    44  H    9.219264   8.778507  10.504892  10.983849   4.771058
    45  H    7.848504   7.493202   9.145549   9.693909   4.775072
                   31         32         33         34         35
    31  H    0.000000
    32  H    1.566225   0.000000
    33  C    2.039857   2.040104   0.000000
    34  C    2.562886   2.824455   1.502481   0.000000
    35  H    3.412798   3.698836   2.035576   0.960143   0.000000
    36  H    2.291723   3.021029   2.034957   0.960364   1.567658
    37  H    2.924384   2.788393   2.035246   0.959944   1.567705
    38  C    4.514521   4.629938   3.498851   4.787025   4.825093
    39  H    5.143272   5.272882   3.857337   4.976715   4.827236
    40  H    5.112911   5.139499   4.289220   5.651975   5.747177
    41  H    4.071302   4.499766   3.368752   4.568952   4.652605
    42  C    5.064947   4.383975   3.610933   4.893115   4.973422
    43  H    5.066577   4.122819   3.601880   4.787720   4.935157
    44  H    5.666729   4.971537   4.435056   5.792577   5.918556
    45  H    5.630676   5.043383   3.942318   5.046203   4.939347
                   36         37         38         39         40
    36  H    0.000000
    37  H    1.567655   0.000000
    38  C    5.162515   5.463762   0.000000
    39  H    5.414426   5.676507   0.960300   0.000000
    40  H    6.014055   6.285947   0.959188   1.567685   0.000000
    41  H    4.772776   5.338789   0.960446   1.567686   1.567692
    42  C    5.605481   5.182991   2.484641   2.655648   2.673355
    43  H    5.570246   4.895489   3.350578   3.556320   3.581264
    44  H    6.454147   6.088973   2.712544   2.966633   2.536110
    45  H    5.814263   5.362373   2.735840   2.547088   3.033724
                   41         42         43         44         45
    41  H    0.000000
    42  C    3.314759   0.000000
    43  H    4.092325   0.977858   0.000000
    44  H    3.594836   0.992219   1.592208   0.000000
    45  H    3.599755   0.980987   1.520173   1.624550   0.000000
 Stoichiometry    C20H23ClO
 Framework group  C1[X(C20H23ClO)]
 Deg. of freedom   129
 Full point group                 C1      NOp   1
 Largest Abelian subgroup         C1      NOp   1
 Largest concise Abelian subgroup C1      NOp   1
                         Standard orientation:                         
 ---------------------------------------------------------------------
 Center     Atomic      Atomic             Coordinates (Angstroms)
 Number     Number       Type             X           Y           Z
 ---------------------------------------------------------------------
      1         17           0       -7.077955   -1.052000    0.017901
      2          8           0        0.126621   -2.481406   -1.045353
      3          6           0       -6.037719    1.342413    0.539486
      4          1           0       -6.910859    1.616814    0.700726
      5          6           0       -5.762650    0.061998    0.149289
      6          6           0       -4.453718   -0.345626   -0.106865
      7          1           0       -4.283912   -1.213563   -0.394068
      8          6           0       -3.400081    0.553653    0.069626
      9          6           0       -1.959191    0.178429   -0.113449
     10          1           0       -1.242544    0.899316    0.116297
     11          6           0       -1.527102   -0.965398   -0.509664
     12          1           0       -2.165964   -1.605928   -0.724545
     13          6           0       -0.098753   -1.358977   -0.658115
     14          6           0        0.993527   -0.401565   -0.335279
     15          1           0        0.784627    0.461125   -0.055339
     16          6           0        2.268104   -0.769686   -0.446901
     17          1           0        2.415175   -1.706910   -0.725856
     18          6           0        3.491697    0.003035   -0.162394
     19          6           0        4.536165   -0.768675    0.653260
     20          6           0        5.672953    0.214412    1.102532
     21          1           0        5.363867    0.707482    1.878615
     22          1           0        6.441889   -0.309712    1.377513
     23          6           0        6.098647    1.160233    0.097748
     24          1           0        6.448616    0.681578   -0.670504
     25          1           0        6.807857    1.716297    0.454786
     26          6           0       -3.680024    1.820317    0.464820
     27          1           0       -2.855871    2.457736    0.489611
     28          6           0       -4.984861    2.214792    0.687138
     29          1           0       -5.155917    3.091992    0.942659
     30          6           0        4.963519    2.016470   -0.328723
     31          1           0        5.219724    2.497238   -1.131846
     32          1           0        4.791048    2.673296    0.364250
     33          6           0        3.691311    1.253731   -0.603963
     34          6           0        2.718980    2.031646   -1.444718
     35          1           0        2.039575    1.441154   -1.778786
     36          1           0        3.184124    2.433339   -2.182676
     37          1           0        2.312048    2.718399   -0.911548
     38          6           0        5.114829   -1.913631   -0.175741
     39          1           0        4.414134   -2.529913   -0.402449
     40          1           0        5.789318   -2.368222    0.332642
     41          1           0        5.502864   -1.561390   -0.980608
     42          6           0        3.896444   -1.330524    1.909677
     43          1           0        3.490167   -0.630898    2.458921
     44          1           0        4.547511   -1.821228    2.475204
     45          1           0        3.122333   -1.895040    1.698942
 ---------------------------------------------------------------------
 Rotational constants (GHZ):           0.6605613           0.0780347           0.0732768
 Standard basis: 6-311++G(d,p) (5D, 7F)
 There are   675 symmetry adapted cartesian basis functions of A   symmetry.
 There are   653 symmetry adapted basis functions of A   symmetry.
   653 basis functions,  1016 primitive gaussians,   675 cartesian basis functions
    84 alpha electrons       84 beta electrons
       nuclear repulsion energy      1759.7329196322 Hartrees.
 NAtoms=   45 NActive=   45 NUniq=   45 SFac= 1.00D+00 NAtFMM=   60 NAOKFM=F Big=F
 Integral buffers will be    131072 words long.
 Raffenetti 2 integral format.
 Two-electron integral symmetry is turned on.
 R6APFD:  NTU= -4 IXU= 1 FactS= 1.050
 Nuclear repulsion after empirical dispersion term =     1759.6957029606 Hartrees.
 One-electron integrals computed using PRISM.
 NBasis=   653 RedAO= T EigKep=  1.07D-06  NBF=   653
 NBsUse=   646 1.00D-06 EigRej=  7.41D-07 NBFU=   646
 ExpMin= 3.60D-02 ExpMax= 1.06D+05 ExpMxC= 3.62D+03 IAcc=3 IRadAn=         5 AccDes= 0.00D+00
 Harris functional with IExCor= 1009 and IRadAn=       5 diagonalized for initial guess.
 HarFok:  IExCor= 1009 AccDes= 0.00D+00 IRadAn=         5 IDoV= 1 UseB2=F ITyADJ=14
 ICtDFT=  3500011 ScaDFX=  1.000000  1.000000  1.000000  1.000000
 FoFCou: FMM=F IPFlag=           0 FMFlag=      100000 FMFlg1=           0
         NFxFlg=           0 DoJE=T BraDBF=F KetDBF=T FulRan=T
         wScrn=  0.000000 ICntrl=       500 IOpCl=  0 I1Cent=   200000004 NGrid=           0
         NMat0=    1 NMatS0=      1 NMatT0=    0 NMatD0=    1 NMtDS0=    0 NMtDT0=    0
 Petite list used in FoFCou.
 Requested convergence on RMS density matrix=1.00D-08 within  32 cycles.
 Requested convergence on MAX density matrix=1.00D-06.
 Requested convergence on             energy=1.00D-06.
 No special actions if energy rises.
 SCF Done:  E(RM08HX) =  -1311.05906038     A.U. after   16 cycles
            NFock= 16  Conv=0.34D-08     -V/T= 1.9998
 QCSCF skips out because SCF is already converged.

 **********************************************************************

            Population analysis using the SCF Density.

 **********************************************************************

 Orbital symmetries:
       Occupied  (A) (A) (A) (A) (A) (A) (A) (A) (A) (A) (A) (A)
                 (A) (A) (A) (A) (A) (A) (A) (A) (A) (A) (A) (A)
                 (A) (A) (A) (A) (A) (A) (A) (A) (A) (A) (A) (A)
                 (A) (A) (A) (A) (A) (A) (A) (A) (A) (A) (A) (A)
                 (A) (A) (A) (A) (A) (A) (A) (A) (A) (A) (A) (A)
                 (A) (A) (A) (A) (A) (A) (A) (A) (A) (A) (A) (A)
                 (A) (A) (A) (A) (A) (A) (A) (A) (A) (A) (A) (A)
       Virtual   (A) (A) (A) (A) (A) (A) (A) (A) (A) (A) (A) (A)
                 (A) (A) (A) (A) (A) (A) (A) (A) (A) (A) (A) (A)
                 (A) (A) (A) (A) (A) (A) (A) (A) (A) (A) (A) (A)
                 (A) (A) (A) (A) (A) (A) (A) (A) (A) (A) (A) (A)
                 (A) (A) (A) (A) (A) (A) (A) (A) (A) (A) (A) (A)
                 (A) (A) (A) (A) (A) (A) (A) (A) (A) (A) (A) (A)
                 (A) (A) (A) (A) (A) (A) (A) (A) (A) (A) (A) (A)
                 (A) (A) (A) (A) (A) (A) (A) (A) (A) (A) (A) (A)
                 (A) (A) (A) (A) (A) (A) (A) (A) (A) (A) (A) (A)
                 (A) (A) (A) (A) (A) (A) (A) (A) (A) (A) (A) (A)
                 (A) (A) (A) (A) (A) (A) (A) (A) (A) (A) (A) (A)
                 (A) (A) (A) (A) (A) (A) (A) (A) (A) (A) (A) (A)
                 (A) (A) (A) (A) (A) (A) (A) (A) (A) (A) (A) (A)
                 (A) (A) (A) (A) (A) (A) (A) (A) (A) (A) (A) (A)
                 (A) (A) (A) (A) (A) (A) (A) (A) (A) (A) (A) (A)
                 (A) (A) (A) (A) (A) (A) (A) (A) (A) (A) (A) (A)
                 (A) (A) (A) (A) (A) (A) (A) (A) (A) (A) (A) (A)
                 (A) (A) (A) (A) (A) (A) (A) (A) (A) (A) (A) (A)
                 (A) (A) (A) (A) (A) (A) (A) (A) (A) (A) (A) (A)
                 (A) (A) (A) (A) (A) (A) (A) (A) (A) (A) (A) (A)
                 (A) (A) (A) (A) (A) (A) (A) (A) (A) (A) (A) (A)
                 (A) (A) (A) (A) (A) (A) (A) (A) (A) (A) (A) (A)
                 (A) (A) (A) (A) (A) (A) (A) (A) (A) (A) (A) (A)
                 (A) (A) (A) (A) (A) (A) (A) (A) (A) (A) (A) (A)
                 (A) (A) (A) (A) (A) (A) (A) (A) (A) (A) (A) (A)
                 (A) (A) (A) (A) (A) (A) (A) (A) (A) (A) (A) (A)
                 (A) (A) (A) (A) (A) (A) (A) (A) (A) (A) (A) (A)
                 (A) (A) (A) (A) (A) (A) (A) (A) (A) (A) (A) (A)
                 (A) (A) (A) (A) (A) (A) (A) (A) (A) (A) (A) (A)
                 (A) (A) (A) (A) (A) (A) (A) (A) (A) (A) (A) (A)
                 (A) (A) (A) (A) (A) (A) (A) (A) (A) (A) (A) (A)
                 (A) (A) (A) (A) (A) (A) (A) (A) (A) (A) (A) (A)
                 (A) (A) (A) (A) (A) (A) (A) (A) (A) (A) (A) (A)
                 (A) (A) (A) (A) (A) (A) (A) (A) (A) (A) (A) (A)
                 (A) (A) (A) (A) (A) (A) (A) (A) (A) (A) (A) (A)
                 (A) (A) (A) (A) (A) (A) (A) (A) (A) (A) (A) (A)
                 (A) (A) (A) (A) (A) (A) (A) (A) (A) (A) (A) (A)
                 (A) (A) (A) (A) (A) (A) (A) (A) (A) (A) (A) (A)
                 (A) (A) (A) (A) (A) (A) (A) (A) (A) (A) (A) (A)
                 (A) (A) (A) (A) (A) (A) (A) (A) (A) (A) (A) (A)
                 (A) (A) (A) (A) (A) (A) (A) (A) (A) (A) (A) (A)
                 (A) (A) (A) (A) (A) (A) (A) (A) (A) (A) (A) (A)
                 (A) (A) (A) (A) (A) (A) (A) (A) (A) (A) (A) (A)
                 (A) (A) (A) (A) (A) (A) (A) (A) (A) (A) (A) (A)
                 (A) (A) (A) (A) (A) (A) (A) (A) (A) (A) (A) (A)
                 (A) (A) (A) (A) (A) (A) (A) (A) (A) (A) (A) (A)
                 (A) (A) (A) (A) (A) (A) (A) (A) (A) (A)
 The electronic state is 1-A.
 Alpha  occ. eigenvalues -- -102.66150 -19.59363 -10.62123 -10.60688 -10.56436
 Alpha  occ. eigenvalues --  -10.55411 -10.54248 -10.54210 -10.54162 -10.54045
 Alpha  occ. eigenvalues --  -10.53989 -10.53736 -10.53641 -10.53386 -10.52410
 Alpha  occ. eigenvalues --  -10.52105 -10.49535 -10.48499 -10.48395 -10.47961
 Alpha  occ. eigenvalues --  -10.47348 -10.46831  -9.78942  -7.54252  -7.53580
 Alpha  occ. eigenvalues --   -7.53564  -1.17026  -1.02652  -0.98559  -0.97146
 Alpha  occ. eigenvalues --   -0.93888  -0.92492  -0.91886  -0.88806  -0.87638
 Alpha  occ. eigenvalues --   -0.85804  -0.82144  -0.81951  -0.80769  -0.76969
 Alpha  occ. eigenvalues --   -0.74697  -0.72442  -0.70089  -0.69020  -0.67323
 Alpha  occ. eigenvalues --   -0.64228  -0.64029  -0.61751  -0.58925  -0.57915
 Alpha  occ. eigenvalues --   -0.56987  -0.55878  -0.55052  -0.54585  -0.54157
 Alpha  occ. eigenvalues --   -0.52972  -0.52091  -0.51740  -0.51141  -0.50735
 Alpha  occ. eigenvalues --   -0.50291  -0.49576  -0.49329  -0.48495  -0.48353
 Alpha  occ. eigenvalues --   -0.47850  -0.46930  -0.45768  -0.45222  -0.43808
 Alpha  occ. eigenvalues --   -0.43233  -0.42839  -0.42601  -0.41947  -0.39619
 Alpha  occ. eigenvalues --   -0.38827  -0.38303  -0.38041  -0.36021  -0.35022
 Alpha  occ. eigenvalues --   -0.32996  -0.31982  -0.31093  -0.28858
 Alpha virt. eigenvalues --   -0.05846  -0.03582  -0.02511  -0.02233  -0.01725
 Alpha virt. eigenvalues --   -0.01503  -0.01231  -0.00795  -0.00522  -0.00020
 Alpha virt. eigenvalues --    0.00177   0.00698   0.00915   0.01035   0.01747
 Alpha virt. eigenvalues --    0.02037   0.02368   0.02732   0.03166   0.03444
 Alpha virt. eigenvalues --    0.03605   0.04001   0.04235   0.04472   0.04845
 Alpha virt. eigenvalues --    0.04873   0.05286   0.05736   0.06292   0.06879
 Alpha virt. eigenvalues --    0.07047   0.07275   0.07553   0.07748   0.08133
 Alpha virt. eigenvalues --    0.08866   0.09215   0.09308   0.09629   0.09832
 Alpha virt. eigenvalues --    0.10235   0.10398   0.10588   0.10722   0.10928
 Alpha virt. eigenvalues --    0.11135   0.11164   0.11483   0.11734   0.12009
 Alpha virt. eigenvalues --    0.12069   0.12655   0.12812   0.12946   0.13213
 Alpha virt. eigenvalues --    0.13294   0.13550   0.13703   0.13818   0.14046
 Alpha virt. eigenvalues --    0.14112   0.14563   0.14960   0.15088   0.15177
 Alpha virt. eigenvalues --    0.15372   0.15687   0.15765   0.16245   0.16480
 Alpha virt. eigenvalues --    0.16711   0.17024   0.17271   0.17334   0.17577
 Alpha virt. eigenvalues --    0.18033   0.18224   0.18478   0.18780   0.19287
 Alpha virt. eigenvalues --    0.19480   0.19541   0.19978   0.20067   0.20361
 Alpha virt. eigenvalues --    0.20829   0.21022   0.21145   0.21467   0.21683
 Alpha virt. eigenvalues --    0.22371   0.22428   0.22707   0.23063   0.23321
 Alpha virt. eigenvalues --    0.23566   0.23744   0.24294   0.25009   0.25513
 Alpha virt. eigenvalues --    0.25804   0.25853   0.26323   0.26680   0.26832
 Alpha virt. eigenvalues --    0.27384   0.28136   0.28304   0.28497   0.28854
 Alpha virt. eigenvalues --    0.29581   0.30050   0.30381   0.30502   0.31363
 Alpha virt. eigenvalues --    0.31825   0.32024   0.32143   0.32541   0.32650
 Alpha virt. eigenvalues --    0.32948   0.33169   0.33974   0.34149   0.34490
 Alpha virt. eigenvalues --    0.34716   0.35235   0.35324   0.35813   0.35980
 Alpha virt. eigenvalues --    0.36262   0.36800   0.37203   0.37900   0.38155
 Alpha virt. eigenvalues --    0.38277   0.38471   0.38866   0.39637   0.39846
 Alpha virt. eigenvalues --    0.40574   0.41060   0.41964   0.42580   0.43200
 Alpha virt. eigenvalues --    0.43656   0.43718   0.44842   0.46224   0.46858
 Alpha virt. eigenvalues --    0.47030   0.48502   0.48706   0.48891   0.49235
 Alpha virt. eigenvalues --    0.49356   0.50528   0.50771   0.51349   0.51574
 Alpha virt. eigenvalues --    0.52647   0.53636   0.53932   0.54975   0.55867
 Alpha virt. eigenvalues --    0.56119   0.56964   0.57988   0.58329   0.58697
 Alpha virt. eigenvalues --    0.59048   0.59382   0.59582   0.60270   0.60721
 Alpha virt. eigenvalues --    0.61192   0.61932   0.62539   0.63084   0.63549
 Alpha virt. eigenvalues --    0.64222   0.65137   0.65711   0.66199   0.66658
 Alpha virt. eigenvalues --    0.67037   0.67097   0.67839   0.68298   0.69029
 Alpha virt. eigenvalues --    0.69364   0.69693   0.70251   0.71356   0.71710
 Alpha virt. eigenvalues --    0.72516   0.73030   0.73234   0.73300   0.74399
 Alpha virt. eigenvalues --    0.74667   0.75032   0.75669   0.76061   0.76654
 Alpha virt. eigenvalues --    0.76827   0.77479   0.77895   0.78314   0.78845
 Alpha virt. eigenvalues --    0.79335   0.80151   0.80821   0.81446   0.81994
 Alpha virt. eigenvalues --    0.82047   0.83368   0.83739   0.84135   0.84247
 Alpha virt. eigenvalues --    0.85275   0.85499   0.86074   0.86440   0.86857
 Alpha virt. eigenvalues --    0.87361   0.88179   0.88453   0.88945   0.89153
 Alpha virt. eigenvalues --    0.89314   0.89910   0.90949   0.91638   0.92031
 Alpha virt. eigenvalues --    0.92448   0.92773   0.93355   0.93807   0.94260
 Alpha virt. eigenvalues --    0.95001   0.95563   0.95918   0.97375   0.97881
 Alpha virt. eigenvalues --    0.98371   0.98821   0.99239   0.99543   1.00983
 Alpha virt. eigenvalues --    1.01785   1.02767   1.03592   1.04173   1.04945
 Alpha virt. eigenvalues --    1.05203   1.06423   1.07070   1.07908   1.09471
 Alpha virt. eigenvalues --    1.09681   1.11159   1.12410   1.12500   1.13672
 Alpha virt. eigenvalues --    1.14923   1.15294   1.15652   1.16112   1.18071
 Alpha virt. eigenvalues --    1.18265   1.19403   1.20497   1.21500   1.23054
 Alpha virt. eigenvalues --    1.23108   1.25434   1.27209   1.27760   1.29594
 Alpha virt. eigenvalues --    1.30042   1.30817   1.31135   1.32318   1.34677
 Alpha virt. eigenvalues --    1.35510   1.35670   1.37652   1.40601   1.43336
 Alpha virt. eigenvalues --    1.43857   1.45920   1.47199   1.49073   1.50924
 Alpha virt. eigenvalues --    1.51483   1.53061   1.53224   1.54234   1.55480
 Alpha virt. eigenvalues --    1.55866   1.56040   1.56892   1.57504   1.58567
 Alpha virt. eigenvalues --    1.59486   1.59930   1.61100   1.61751   1.61790
 Alpha virt. eigenvalues --    1.62845   1.64175   1.64408   1.64801   1.65503
 Alpha virt. eigenvalues --    1.65975   1.66521   1.67047   1.67712   1.68246
 Alpha virt. eigenvalues --    1.69438   1.69763   1.69982   1.71080   1.71204
 Alpha virt. eigenvalues --    1.72327   1.73075   1.73566   1.74596   1.74826
 Alpha virt. eigenvalues --    1.76374   1.76828   1.77398   1.77867   1.78517
 Alpha virt. eigenvalues --    1.78855   1.80427   1.81577   1.82269   1.82589
 Alpha virt. eigenvalues --    1.83182   1.84450   1.84900   1.85540   1.86660
 Alpha virt. eigenvalues --    1.87644   1.88625   1.88748   1.89944   1.90170
 Alpha virt. eigenvalues --    1.91115   1.92002   1.93221   1.93619   1.95478
 Alpha virt. eigenvalues --    1.96150   1.96338   1.97280   1.97652   1.98190
 Alpha virt. eigenvalues --    1.99190   1.99834   2.03157   2.04021   2.04920
 Alpha virt. eigenvalues --    2.05681   2.06047   2.07011   2.07254   2.08043
 Alpha virt. eigenvalues --    2.09057   2.11095   2.11229   2.12325   2.13008
 Alpha virt. eigenvalues --    2.13861   2.14140   2.15596   2.17930   2.18851
 Alpha virt. eigenvalues --    2.19592   2.20486   2.22435   2.24475   2.26096
 Alpha virt. eigenvalues --    2.27184   2.27943   2.28608   2.29739   2.30688
 Alpha virt. eigenvalues --    2.30858   2.31325   2.33420   2.34993   2.35923
 Alpha virt. eigenvalues --    2.35943   2.37844   2.38559   2.39950   2.40515
 Alpha virt. eigenvalues --    2.41276   2.42610   2.43415   2.44161   2.44776
 Alpha virt. eigenvalues --    2.45826   2.46734   2.48007   2.49876   2.52079
 Alpha virt. eigenvalues --    2.52736   2.55624   2.56930   2.58273   2.58708
 Alpha virt. eigenvalues --    2.59405   2.60844   2.61371   2.62408   2.63359
 Alpha virt. eigenvalues --    2.64653   2.65200   2.67942   2.69258   2.70059
 Alpha virt. eigenvalues --    2.70930   2.71575   2.72210   2.73293   2.73759
 Alpha virt. eigenvalues --    2.74114   2.74256   2.76557   2.78190   2.78800
 Alpha virt. eigenvalues --    2.79228   2.79785   2.80695   2.81395   2.83571
 Alpha virt. eigenvalues --    2.84036   2.84706   2.85607   2.85969   2.87991
 Alpha virt. eigenvalues --    2.88767   2.90414   2.91487   2.92122   2.92540
 Alpha virt. eigenvalues --    2.93067   2.95226   2.95643   2.96658   2.97010
 Alpha virt. eigenvalues --    2.97834   2.98241   2.98865   2.99948   3.00555
 Alpha virt. eigenvalues --    3.01550   3.02062   3.02651   3.03873   3.04200
 Alpha virt. eigenvalues --    3.05989   3.07946   3.08297   3.08532   3.09618
 Alpha virt. eigenvalues --    3.10429   3.11367   3.11797   3.12683   3.14337
 Alpha virt. eigenvalues --    3.15919   3.16887   3.17662   3.18376   3.20845
 Alpha virt. eigenvalues --    3.24514   3.25227   3.26672   3.30055   3.31396
 Alpha virt. eigenvalues --    3.32845   3.33599   3.34407   3.36449   3.37191
 Alpha virt. eigenvalues --    3.39505   3.43632   3.45998   3.46621   3.49286
 Alpha virt. eigenvalues --    3.51573   3.56139   3.64861   3.68437   3.71345
 Alpha virt. eigenvalues --    3.72711   3.77168   3.79211   3.80616   3.83555
 Alpha virt. eigenvalues --    3.84238   3.92789   4.02180   4.03555   4.06551
 Alpha virt. eigenvalues --    4.12179   4.12352   4.13352   4.14396   4.16100
 Alpha virt. eigenvalues --    4.18446   4.21228   4.22846   4.23392   4.24277
 Alpha virt. eigenvalues --    4.31810   4.32762   4.38291   4.39009   4.42798
 Alpha virt. eigenvalues --    4.50911   4.51639   4.53445   4.55971   4.59350
 Alpha virt. eigenvalues --    4.72415   4.76917   4.93413   5.19333   5.42792
 Alpha virt. eigenvalues --    5.91618   9.99406  23.72029  23.77142  23.89968
 Alpha virt. eigenvalues --   23.92284  23.96813  23.99424  24.04007  24.18673
 Alpha virt. eigenvalues --   24.19902  24.23695  24.25921  24.26681  24.32427
 Alpha virt. eigenvalues --   24.35082  24.37088  24.37852  24.39871  24.41719
 Alpha virt. eigenvalues --   24.44705  24.55079  26.03965  26.40216  26.88339
 Alpha virt. eigenvalues --   50.06590 215.58901
          Condensed to atoms (all electrons):
               1          2          3          4          5          6
     1  Cl  17.616487  -0.000084  -1.056280   0.029550  -0.065683   0.665928
     2  O   -0.000084   7.871468   0.002334   0.000041   0.006314   0.028220
     3  C   -1.056280   0.002334  16.108789   0.674085  -5.819405  -1.916196
     4  H    0.029550   0.000041   0.674085   0.460837  -0.261983  -0.042465
     5  C   -0.065683   0.006314  -5.819405  -0.261983  16.574016   3.095001
     6  C    0.665928   0.028220  -1.916196  -0.042465   3.095001  11.308669
     7  H    0.294666   0.001525  -0.863595  -0.016186   0.375611   0.902629
     8  C   -0.912760  -0.001234   1.483914  -0.017568  -5.918907  -1.336260
     9  C   -0.249409   0.086346   0.399481  -0.008752  -1.950259  -1.563280
    10  H   -0.008897   0.007868   0.073719   0.001010  -0.038383   0.006468
    11  C   -0.276513  -0.224759   0.900273  -0.000893  -1.216412  -1.887463
    12  H   -0.076426  -0.055387   0.272673   0.004259  -0.070326  -0.249589
    13  C   -0.017694   0.561541   0.015288  -0.002473  -0.086245  -0.226394
    14  C    0.001288  -0.148392  -0.041814   0.000094  -0.068722  -0.483011
    15  H    0.002280  -0.021980  -0.024877  -0.000345   0.010560  -0.002418
    16  C    0.000745   0.072413  -0.006422  -0.000073   0.003597   0.046783
    17  H    0.000020  -0.016510  -0.000919  -0.000013   0.000557   0.000518
    18  C    0.000059   0.000362  -0.002442   0.000040   0.002618  -0.052077
    19  C    0.000018  -0.006896  -0.000304   0.000010   0.002290  -0.002523
    20  C    0.000000  -0.000936   0.000002  -0.000001  -0.000080  -0.000059
    21  H    0.000000  -0.000054  -0.000003   0.000000   0.000012   0.000099
    22  H    0.000000  -0.000010  -0.000000  -0.000000  -0.000001  -0.000023
    23  C   -0.000000   0.000230   0.000002   0.000000  -0.000009  -0.000194
    24  H   -0.000000  -0.000001  -0.000000  -0.000000   0.000002   0.000004
    25  H   -0.000000   0.000010   0.000000   0.000000  -0.000001   0.000001
    26  C    0.451122  -0.012022  -3.971681  -0.057376   2.403816   0.042311
    27  H    0.016233   0.000159  -0.063502   0.002561   0.183465   0.086943
    28  C   -0.023440  -0.001893   0.514403   0.005165  -1.035291  -1.029834
    29  H   -0.020391  -0.000037  -0.058633  -0.023006  -0.136802  -0.034455
    30  C   -0.000002   0.001606   0.000189  -0.000002  -0.000411   0.001123
    31  H   -0.000000   0.000011   0.000003   0.000000  -0.000005   0.000063
    32  H   -0.000000  -0.000007   0.000005  -0.000000  -0.000014  -0.000137
    33  C   -0.000083   0.010323   0.003233  -0.000061  -0.010767   0.014559
    34  C    0.000067  -0.005278  -0.001634   0.000037   0.005494  -0.001661
    35  H   -0.000011  -0.000955  -0.000248  -0.000026  -0.001052  -0.000983
    36  H    0.000005   0.000045  -0.000081   0.000000   0.000111  -0.000393
    37  H   -0.000021   0.000198   0.000292   0.000011  -0.000170   0.000321
    38  C   -0.000000   0.006578   0.000014   0.000000   0.000006   0.000169
    39  H    0.000000   0.000367   0.000017   0.000000  -0.000042   0.000078
    40  H    0.000000  -0.000097  -0.000001  -0.000000  -0.000002  -0.000017
    41  H   -0.000000   0.000150   0.000001   0.000000   0.000002  -0.000066
    42  C   -0.000011   0.005507   0.000038   0.000001   0.000179  -0.001185
    43  H   -0.000004   0.001827   0.000083   0.000002  -0.000043  -0.000702
    44  H   -0.000000   0.000444   0.000000   0.000000   0.000062   0.000096
    45  H    0.000010  -0.015576  -0.000164  -0.000004  -0.000553   0.000178
               7          8          9         10         11         12
     1  Cl   0.294666  -0.912760  -0.249409  -0.008897  -0.276513  -0.076426
     2  O    0.001525  -0.001234   0.086346   0.007868  -0.224759  -0.055387
     3  C   -0.863595   1.483914   0.399481   0.073719   0.900273   0.272673
     4  H   -0.016186  -0.017568  -0.008752   0.001010  -0.000893   0.004259
     5  C    0.375611  -5.918907  -1.950259  -0.038383  -1.216412  -0.070326
     6  C    0.902629  -1.336260  -1.563280   0.006468  -1.887463  -0.249589
     7  H    0.832721  -0.136325  -0.201531  -0.031601  -0.715208  -0.262783
     8  C   -0.136325  16.325652   2.044072   0.042733  -0.927070  -0.241634
     9  C   -0.201531   2.044072   9.228099   0.411600   2.043425  -0.054432
    10  H   -0.031601   0.042733   0.411600   1.008957   0.183175   0.046630
    11  C   -0.715208  -0.927070   2.043425   0.183175  13.191477   1.485709
    12  H   -0.262783  -0.241634  -0.054432   0.046630   1.485709   0.844673
    13  C   -0.132509  -2.319419  -1.966872   0.100538   2.764364   0.303391
    14  C    0.062669  -0.292937  -0.740717   0.046529  -3.032239  -0.460053
    15  H    0.025718   0.042822   0.072770  -0.361726  -0.460638  -0.077591
    16  C    0.034374   0.107926  -0.085446  -0.044519  -0.959887  -0.166796
    17  H    0.001793   0.000467  -0.051211  -0.010294  -0.102272  -0.011590
    18  C   -0.000536   0.165849   0.193781   0.021439   0.035798  -0.016340
    19  C   -0.001735   0.041386  -0.077987   0.005394   0.221807   0.018335
    20  C    0.000197  -0.000086   0.010326  -0.000824  -0.018101  -0.002397
    21  H   -0.000007   0.000097  -0.000679   0.000116   0.001094   0.000094
    22  H    0.000003   0.000031   0.000143  -0.000359  -0.000349  -0.000039
    23  C   -0.000025  -0.001021  -0.004153  -0.001844  -0.003653   0.000266
    24  H   -0.000001  -0.000049  -0.000615   0.000466   0.000067   0.000014
    25  H    0.000000   0.000007   0.000303  -0.000157  -0.000267  -0.000012
    26  C    0.743905  -1.601674  -1.117101  -0.155060  -3.275521  -0.492973
    27  H    0.022508  -0.190225  -0.089823  -0.056813  -0.116577  -0.016561
    28  C   -0.077870  -1.355045  -0.619755  -0.047300  -0.758303   0.009235
    29  H   -0.005437   0.114017   0.052563   0.009864   0.007068   0.001814
    30  C    0.000240  -0.013180   0.023336   0.001013  -0.032811  -0.001949
    31  H   -0.000008  -0.000342  -0.000527  -0.001196   0.001171   0.000153
    32  H    0.000018  -0.000390   0.000354   0.002549  -0.001797  -0.000211
    33  C    0.005209  -0.206226   0.047477  -0.071370  -0.409152  -0.033152
    34  C   -0.001197   0.114648  -0.001653   0.061688   0.091222   0.005133
    35  H    0.000949  -0.013752   0.006406  -0.003683  -0.011526  -0.004429
    36  H    0.000099   0.003315   0.001323  -0.000085  -0.006631  -0.000687
    37  H   -0.000685  -0.000476  -0.005185   0.009109   0.015572   0.002555
    38  C   -0.000021   0.001056   0.016077  -0.000664   0.015322   0.000592
    39  H    0.000030   0.000259   0.006296  -0.000239   0.004035   0.000000
    40  H    0.000009   0.000063   0.000561   0.000199  -0.000653  -0.000235
    41  H   -0.000024   0.000038  -0.000103   0.000195   0.001133   0.000231
    42  C   -0.000849  -0.003943  -0.013383   0.021456   0.008207   0.004611
    43  H   -0.000170  -0.002201  -0.005313   0.001021   0.000719   0.001009
    44  H   -0.000082   0.000344  -0.001278   0.001224   0.005903   0.000815
    45  H    0.000891   0.001099   0.008091  -0.003741  -0.027610  -0.006283
              13         14         15         16         17         18
     1  Cl  -0.017694   0.001288   0.002280   0.000745   0.000020   0.000059
     2  O    0.561541  -0.148392  -0.021980   0.072413  -0.016510   0.000362
     3  C    0.015288  -0.041814  -0.024877  -0.006422  -0.000919  -0.002442
     4  H   -0.002473   0.000094  -0.000345  -0.000073  -0.000013   0.000040
     5  C   -0.086245  -0.068722   0.010560   0.003597   0.000557   0.002618
     6  C   -0.226394  -0.483011  -0.002418   0.046783   0.000518  -0.052077
     7  H   -0.132509   0.062669   0.025718   0.034374   0.001793  -0.000536
     8  C   -2.319419  -0.292937   0.042822   0.107926   0.000467   0.165849
     9  C   -1.966872  -0.740717   0.072770  -0.085446  -0.051211   0.193781
    10  H    0.100538   0.046529  -0.361726  -0.044519  -0.010294   0.021439
    11  C    2.764364  -3.032239  -0.460638  -0.959887  -0.102272   0.035798
    12  H    0.303391  -0.460053  -0.077591  -0.166796  -0.011590  -0.016340
    13  C   15.283370  -2.514284  -0.642183  -1.795665  -0.248374  -0.597979
    14  C   -2.514284  11.734799   0.747710   1.192957   0.130562   0.175445
    15  H   -0.642183   0.747710   1.206793   0.080269   0.089310  -0.062161
    16  C   -1.795665   1.192957   0.080269   7.042965   0.452706  -0.944517
    17  H   -0.248374   0.130562   0.089310   0.452706   0.558230  -0.108354
    18  C   -0.597979   0.175445  -0.062161  -0.944517  -0.108354  14.121168
    19  C    0.880670  -2.281616  -0.162473   1.842026   0.094492  -8.304387
    20  C   -0.121358   0.154435   0.030332  -0.236441   0.013903   0.983691
    21  H    0.003209   0.011773  -0.001104  -0.003944   0.000465   0.015045
    22  H   -0.002076  -0.001491   0.002583  -0.001939   0.001423   0.091325
    23  C   -0.007197  -0.004177   0.007160   0.033884   0.001722   0.147160
    24  H    0.000351  -0.000065  -0.005211   0.006343  -0.000211  -0.045009
    25  H   -0.001014  -0.001170   0.002723  -0.005341   0.000934   0.007432
    26  C   -1.190522   0.032868   0.112526   0.063636  -0.006450   0.066585
    27  H   -0.031441  -0.006298   0.030101   0.008136   0.000381  -0.000470
    28  C   -0.364222   0.008396   0.010343  -0.005022  -0.001562   0.020658
    29  H   -0.000860   0.000372  -0.001142  -0.000409   0.000013   0.000274
    30  C   -0.168978   0.299691   0.031914  -0.997590  -0.049347   0.289393
    31  H    0.004288   0.019043   0.004843  -0.013073   0.000446   0.022016
    32  H   -0.007180  -0.009637  -0.012530   0.006476  -0.000787  -0.025833
    33  C   -1.161245   2.476785   0.420823  -0.417251   0.013599  -0.755363
    34  C    0.267664  -0.894970  -0.219468   0.531376  -0.038815   0.242857
    35  H   -0.032349   0.081868   0.007321   0.043532  -0.004021   0.026972
    36  H   -0.011081  -0.017075   0.000705   0.009872  -0.000864  -0.007787
    37  H    0.031303  -0.042154  -0.031677   0.002230   0.001633   0.031163
    38  C    0.060608  -0.044367  -0.002253  -0.215588  -0.094562   0.453836
    39  H    0.008129   0.013362   0.001225  -0.033553  -0.037208   0.091836
    40  H   -0.010374  -0.005208  -0.001108   0.003368   0.001657   0.047035
    41  H    0.014214  -0.023901  -0.002036   0.017155   0.004680  -0.175240
    42  C    0.125969  -0.181476  -0.090077   0.261006   0.050052  -0.431212
    43  H    0.011292  -0.024855  -0.015012  -0.005399   0.000281  -0.051486
    44  H    0.034272  -0.024657  -0.005362   0.050650  -0.002124  -0.056361
    45  H   -0.142132   0.132866   0.021573  -0.047544  -0.003206   0.103661
              19         20         21         22         23         24
     1  Cl   0.000018   0.000000   0.000000   0.000000  -0.000000  -0.000000
     2  O   -0.006896  -0.000936  -0.000054  -0.000010   0.000230  -0.000001
     3  C   -0.000304   0.000002  -0.000003  -0.000000   0.000002  -0.000000
     4  H    0.000010  -0.000001   0.000000  -0.000000   0.000000  -0.000000
     5  C    0.002290  -0.000080   0.000012  -0.000001  -0.000009   0.000002
     6  C   -0.002523  -0.000059   0.000099  -0.000023  -0.000194   0.000004
     7  H   -0.001735   0.000197  -0.000007   0.000003  -0.000025  -0.000001
     8  C    0.041386  -0.000086   0.000097   0.000031  -0.001021  -0.000049
     9  C   -0.077987   0.010326  -0.000679   0.000143  -0.004153  -0.000615
    10  H    0.005394  -0.000824   0.000116  -0.000359  -0.001844   0.000466
    11  C    0.221807  -0.018101   0.001094  -0.000349  -0.003653   0.000067
    12  H    0.018335  -0.002397   0.000094  -0.000039   0.000266   0.000014
    13  C    0.880670  -0.121358   0.003209  -0.002076  -0.007197   0.000351
    14  C   -2.281616   0.154435   0.011773  -0.001491  -0.004177  -0.000065
    15  H   -0.162473   0.030332  -0.001104   0.002583   0.007160  -0.005211
    16  C    1.842026  -0.236441  -0.003944  -0.001939   0.033884   0.006343
    17  H    0.094492   0.013903   0.000465   0.001423   0.001722  -0.000211
    18  C   -8.304387   0.983691   0.015045   0.091325   0.147160  -0.045009
    19  C   20.943713  -3.143579  -0.008034  -0.166781   0.053504   0.099918
    20  C   -3.143579   8.977821   0.468675   0.525823  -0.392769  -0.040631
    21  H   -0.008034   0.468675   0.434140  -0.003506  -0.026744   0.006064
    22  H   -0.166781   0.525823  -0.003506   0.458189  -0.097752  -0.003255
    23  C    0.053504  -0.392769  -0.026744  -0.097752   6.983273   0.570643
    24  H    0.099918  -0.040631   0.006064  -0.003255   0.570643   0.447151
    25  H   -0.055185  -0.046890  -0.009797  -0.016213   0.401707  -0.016454
    26  C   -0.001852   0.000824  -0.000236   0.000048   0.000180  -0.000052
    27  H    0.000046   0.000083  -0.000005   0.000011  -0.000002  -0.000010
    28  C    0.001446   0.000027  -0.000035   0.000005   0.000030  -0.000004
    29  H    0.000010   0.000000   0.000000  -0.000000   0.000000   0.000000
    30  C   -2.693291  -0.554261  -0.076751  -0.020550  -0.669925  -0.216627
    31  H    0.006276  -0.044590  -0.001244  -0.000930  -0.062969  -0.009704
    32  H   -0.024919   0.033176   0.001898  -0.002329  -0.015836   0.009539
    33  C   -3.812126   0.637553  -0.007456   0.004142   0.181698  -0.020199
    34  C    1.842895  -0.116198  -0.013034  -0.010646  -0.291741   0.032126
    35  H   -0.050577  -0.031122   0.000578  -0.001658  -0.009819  -0.001699
    36  H   -0.011618   0.030546  -0.001624   0.001999  -0.005292   0.002914
    37  H    0.071060  -0.015665   0.002053  -0.001401  -0.000847  -0.000042
    38  C    0.212674  -0.874717   0.003307  -0.029297   0.143726  -0.042167
    39  H   -0.204841   0.032588  -0.006036  -0.000404   0.000465  -0.008051
    40  H   -0.054801  -0.026188   0.003078  -0.007751  -0.005196   0.002154
    41  H    0.210003  -0.014310  -0.003696   0.002203  -0.021681  -0.006481
    42  C   -0.189036   0.181525  -0.021415   0.033158  -0.358731   0.000836
    43  H    0.127235  -0.083215   0.006717  -0.001766   0.019535   0.002274
    44  H    0.038236  -0.068996  -0.005650   0.003335  -0.014506  -0.001023
    45  H   -0.206621   0.176982   0.001319   0.005134  -0.007789   0.001252
              25         26         27         28         29         30
     1  Cl  -0.000000   0.451122   0.016233  -0.023440  -0.020391  -0.000002
     2  O    0.000010  -0.012022   0.000159  -0.001893  -0.000037   0.001606
[...]
 5,-0.00004481,0.00001727,0.00001252,0.00000197,0.00006918,-0.00002526,
 0.00003605,0.00001154,-0.00001415,0.00001079,-0.00042004,-0.00008333,-
 0.00010050,-0.00064744,0.00016947,0.00017510,0.00030404,0.00022561,0.0
 0004145,0.00077158,-0.00039680,-0.00065987,-0.00016519,-0.00034392,0.0
 0026829,-0.00994150,-0.01036135,0.00252108,-0.18116630,-0.01020242,0.0
 1149665,-0.01889346,0.00174106,0.00879165,0.00068505,-0.00084897,-0.00
 156573,0.00058763,-0.00072930,-0.00116204,0.00060424,0.00104232,0.0004
 4442,0.00006393,0.00006751,-0.00009271,-0.00015580,-0.00017322,0.00009
 462,0.00000680,-0.00001040,-0.00000666,0.00000210,-0.00000034,0.000001
 81,-0.00000253,0.00000190,-0.00000108,0.00000064,-0.00000147,0.0000011
 1,-0.00028402,0.00010794,-0.00001255,0.00004532,-0.00007751,0.00000707
 ,0.00010821,-0.00008966,-0.00013826,0.00053989,0.00111955,-0.00121949,
 0.00019498,-0.00014442,0.00002805,0.00003822,0.00008369,0.00002176,0.0
 0003488,0.00012261,0.00001443,-0.00002654,0.00014707,-0.00009188,-0.02
 610982,0.00095478,-0.00447933,0.00134832,-0.00050792,0.00163338,0.0009
 0623,-0.00054733,0.00125494,-0.00032555,0.00084751,-0.00187205,0.46817
 509,0.00002264,-0.00002002,-0.00001278,0.00023090,0.00023643,-0.000470
 86,0.00001004,-0.00001292,-0.00000098,0.00000087,-0.00000222,-0.000000
 41,-0.00003395,0.00002166,0.00001194,0.00000659,-0.00002124,0.00001129
 ,-0.00000264,0.00000322,-0.00000099,0.00002787,0.00000224,-0.00001541,
 -0.00002088,0.00004445,0.00001610,-0.00001407,0.00002979,-0.00002501,0
 .00006124,-0.00003881,-0.00003822,0.00001121,-0.00002651,-0.00000396,-
 0.00058147,0.00022060,0.00074029,-0.00059881,-0.00016875,-0.00040473,0
 .00002262,0.00011925,-0.00002935,-0.00225244,-0.00346882,0.00024314,-0
 .00011139,-0.00025934,0.00005784,-0.03686985,-0.00847552,0.00550234,-0
 .01443090,-0.07693421,-0.00073357,0.01909610,0.00251034,-0.00393492,0.
 00017429,0.00057856,0.00049443,0.00113127,0.00007374,-0.00013818,0.000
 80516,-0.00281460,-0.00268611,-0.00005891,-0.00000825,0.00022736,0.001
 12286,0.00042383,-0.00052410,-0.00001617,0.00000747,0.00001253,0.00000
 368,0.00000778,-0.00000881,0.00000890,0.00000113,-0.00001010,-0.000001
 03,0.00000047,0.00000097,-0.00064003,-0.00053952,-0.00054010,-0.000093
 34,0.00019886,0.00010722,-0.00005204,0.00021087,0.00010792,0.00046581,
 -0.00465198,-0.00200521,0.00127860,-0.00038879,0.00238984,-0.00007020,
 0.00017623,0.00000864,-0.00010778,-0.00000523,0.00001718,-0.00029382,-
 0.00080052,0.00030373,0.01190637,0.00176284,-0.00070191,-0.00088046,-0
 .00000899,-0.00041099,0.00102064,0.00026902,0.00005210,0.00192405,-0.0
 0055093,0.00210724,-0.01860972,0.57219553,-0.00001893,0.00001776,0.000
 01049,0.00012561,0.00031463,-0.00001990,-0.00001186,0.00002998,-0.0000
 0097,0.00000094,0.00000093,0.00000060,0.00004172,-0.00001930,-0.000024
 71,-0.00000333,0.00001994,-0.00002011,0.00000787,-0.00000904,0.0000003
 5,-0.00000501,-0.00000228,0.00000341,-0.00003621,-0.00002931,0.0000698
 5,0.00000874,-0.00001664,0.00003064,-0.00005090,0.00018426,-0.00012353
 ,-0.00002157,0.00002801,-0.00000225,0.00029629,-0.00055877,-0.00013855
 ,0.00011398,0.00076267,0.00007434,-0.00009251,0.00007982,-0.00008391,-
 0.00100161,-0.00127976,0.00103526,-0.00024337,0.00015027,-0.00031297,0
 .00502794,0.00262519,-0.00100567,0.01166053,-0.00039626,-0.07515565,0.
 03155526,0.00227623,-0.00836659,0.00211532,-0.00016921,0.00030395,-0.0
 0057934,0.00049347,0.00043933,0.00106720,-0.00384011,-0.00413563,0.000
 12744,-0.00007132,0.00005565,0.00161364,0.00043674,-0.00057196,-0.0000
 1982,0.00002793,0.00000228,0.00000372,-0.00000407,0.00000739,-0.000007
 85,-0.00000297,0.00000214,0.00000287,0.00000628,-0.00000247,0.00004533
 ,-0.00053331,0.00055638,-0.00002510,0.00017321,-0.00006646,-0.00006224
 ,0.00002011,0.00002164,0.00003430,0.00032331,-0.00006347,-0.00004256,0
 .00014587,-0.00011544,-0.00007351,-0.00000757,-0.00000821,-0.00002176,
 -0.00006881,-0.00005940,0.00002956,0.00001948,0.00001681,-0.03223995,-
 0.00192892,-0.00008051,-0.00063902,-0.00028934,0.00081387,0.00016858,-
 0.00061407,0.00089857,-0.00365970,0.00181587,-0.00496414,0.00842855,0.
 00272719,0.57453384,-0.00000872,0.00000826,0.00000564,-0.00005683,0.00
 002835,0.00010052,-0.00000330,0.00000639,0.00000145,-0.00000033,0.0000
 0052,-0.00000007,0.00001223,-0.00001051,-0.00000965,0.00000058,0.00000
 962,-0.00000193,0.00000155,-0.00000208,-0.00000005,-0.00000759,-0.0000
 0226,0.00000379,0.00000881,-0.00000778,0.00000018,-0.00000597,-0.00000
 603,0.00000469,-0.00001360,0.00002333,-0.00000627,-0.00000393,0.000008
 86,0.00000180,0.00011449,-0.00011276,-0.00010239,-0.00002583,-0.000062
 00,-0.00006083,-0.00000503,-0.00006563,0.00000558,0.00001648,-0.000260
 17,-0.00005948,-0.00004927,0.00009380,0.00007603,0.00126483,0.00136178
 ,-0.00052613,-0.01566952,0.01223460,-0.02581263,0.00090566,-0.00043354
 ,-0.00205822,-0.00007807,0.00039651,0.00128402,0.00004711,-0.00010643,
 0.00008264,0.00021959,-0.00023769,0.00026331,0.00026454,0.00002871,-0.
 00008516,0.00000004,-0.00002291,0.00003879,0.00000293,0.00000225,0.000
 00028,-0.00000325,-0.00000206,0.00000133,-0.00000166,-0.00000107,0.000
 00304,0.00000001,0.00000014,-0.00000101,-0.00002598,0.00007311,0.00002
 570,0.00003596,-0.00001724,-0.00000192,-0.00004134,-0.00003401,0.00004
 485,0.00000378,-0.00026532,0.00051836,-0.00013083,-0.00000205,-0.00007
 855,0.00000797,0.00000437,-0.00000522,0.00001395,-0.00000701,0.0000044
 0,-0.00000739,0.00001909,-0.00001427,-0.00653963,-0.00131865,0.0021204
 9,0.00013605,-0.00021009,0.00007824,0.00014015,0.00007631,0.00026710,-
 0.00105457,0.00065572,-0.00183464,-0.10499571,0.04790953,-0.09849133,0
 .11791849,-0.00001355,0.00001374,0.00000811,-0.00005472,0.00002596,0.0
 0017690,-0.00000751,0.00001379,0.00000082,-0.00000005,0.00000090,0.000
 00029,0.00002312,-0.00001676,-0.00001693,-0.00000032,0.00001609,-0.000
 00500,0.00000311,-0.00000440,-0.00000085,-0.00000862,-0.00000553,0.000
 00674,-0.00000068,-0.00002205,0.00001781,-0.00000583,-0.00000766,0.000
 01221,0.00000178,0.00006233,-0.00000885,-0.00000901,0.00001225,0.00000
 020,0.00015704,-0.00024410,-0.00026169,0.00032543,0.00018192,0.0002642
 5,-0.00003442,-0.00004160,0.00007694,-0.00014493,0.00047748,-0.0003808
 3,-0.00006968,0.00001816,0.00003546,-0.00002464,0.00032224,-0.00084659
 ,-0.00318463,0.00054142,-0.00440225,0.00039397,-0.00046978,0.00059186,
 0.00049537,-0.00002098,-0.00056047,0.00003011,0.00009501,0.00008583,-0
 .00008598,0.00006169,-0.00035786,-0.00012160,-0.00003698,0.00002557,0.
 00003560,-0.00001722,-0.00000444,-0.00000273,0.00001051,-0.00000039,-0
 .00000276,-0.00000284,0.00000395,-0.00000234,-0.00000346,0.00000538,0.
 00000080,0.00000189,-0.00000166,-0.00002280,0.00007176,-0.00000619,0.0
 0001108,-0.00002478,-0.00001446,0.00002292,-0.00002218,-0.00006208,0.0
 0002508,0.00015140,0.00031582,0.00005467,-0.00002984,-0.00003792,-0.00
 000108,-0.00000878,-0.00000373,0.00002662,0.00003078,-0.00000508,-0.00
 000971,0.00003371,-0.00001625,-0.00095307,0.00007149,-0.00006606,0.000
 03151,-0.00003313,0.00029480,-0.00020150,0.00037528,-0.00027714,-0.000
 20304,0.00067160,-0.00012092,0.04861733,-0.08427379,0.08003898,-0.0523
 4864,0.08668585,-0.00000560,0.00000715,0.00000342,0.00002834,-0.000010
 87,0.00011407,-0.00000349,0.00000762,0.00000082,-0.00000096,-0.0000000
 2,-0.00000093,0.00001317,-0.00000904,-0.00000808,0.00000163,0.00000762
 ,0.00000106,-0.00000094,-0.00000434,-0.00000436,-0.00000070,-0.0000065
 9,0.00000438,0.00000201,-0.00001632,0.00002524,-0.00001385,-0.00000132
 ,-0.00000125,0.00000275,0.00001889,0.00000061,-0.00000890,0.00000083,-
 0.00000709,0.00002971,-0.00012639,-0.00013281,0.00032322,-0.00015678,0
 .00024393,-0.00004123,-0.00009473,0.00004562,-0.00014037,0.00031348,-0
 .00048547,-0.00003842,0.00008907,0.00011887,-0.00031241,0.00020676,0.0
 0043178,0.00226073,-0.00205673,0.00163269,0.00056064,-0.00038317,0.000
 93006,0.00016064,0.00014480,0.00002415,0.00010875,-0.00007926,-0.00004
 925,-0.00010073,0.00006498,0.00017656,0.00010411,-0.00001556,0.0000305
 4,-0.00005404,-0.00002436,0.00004485,-0.00000325,0.00000969,0.00000299
 ,-0.00000365,-0.00000193,-0.00000119,0.00000081,-0.00000239,0.00000395
 ,-0.00000053,0.00000120,-0.00000221,0.00001505,0.00001928,-0.00003578,
 0.00000504,-0.00001392,-0.00000078,0.00000661,-0.00001155,0.00002233,-
 0.00008991,-0.00039165,0.00001553,-0.00006365,0.00001708,-0.00000473,-
 0.00001310,-0.00002764,-0.00001041,0.00000497,-0.00002867,-0.00000379,
 -0.00000605,-0.00002223,0.00002564,-0.00012779,-0.00043744,0.00073135,
 0.00026079,0.00010967,0.00030508,0.00024328,-0.00010155,0.00000235,-0.
 00001350,0.00012576,0.00015819,-0.09983404,0.07972886,-0.21057115,0.10
 900567,-0.08703200,0.22607090,-0.00000078,0.00000122,-0.00000007,0.000
 03420,0.00006002,-0.00002279,-0.00000238,0.00000496,-0.00000137,0.0000
 0027,-0.00000040,-0.00000039,0.00000856,-0.00000096,-0.00000155,-0.000
 00190,0.00000162,-0.00000460,0.00000131,-0.00000242,-0.00000133,0.0000
 0302,-0.00000364,-0.00000408,-0.00001867,-0.00000140,0.00003459,-0.000
 01010,-0.00000019,0.00000427,0.00000631,0.00003512,-0.00003526,-0.0000
 0519,0.00000120,-0.00000542,0.00005897,-0.00018281,-0.00000730,0.00039
 805,0.00005271,0.00004073,-0.00009978,-0.00004415,0.00001373,-0.000414
 70,0.00064165,0.00045304,-0.00001108,0.00000407,-0.00013336,-0.0065020
 3,0.00059947,0.00071028,-0.00803962,-0.03226835,0.00239338,0.00125510,
 -0.00141924,-0.00066399,0.00006277,0.00016263,0.00008349,-0.00043412,0
 .00087197,0.00023244,0.00001300,0.00013582,-0.00030221,0.00004089,-0.0
 0000087,-0.00000447,0.00004907,0.00004197,-0.00002432,-0.00000985,0.00
 001132,0.00000741,0.00000011,0.00000091,-0.00000170,0.00000194,-0.0000
 0094,-0.00000034,-0.00000014,0.00000196,-0.00000095,0.00007407,-0.0002
 1751,-0.00020918,-0.00004713,0.00011979,0.00003545,-0.00003265,0.00007
 895,0.00004693,0.00000942,-0.00159684,-0.00039299,0.00030706,-0.000046
 78,0.00072074,-0.00002845,0.00001969,-0.00002526,-0.00003802,-0.000054
 67,0.00000294,-0.00009546,-0.00026654,0.00010109,0.00143612,-0.0010167
 3,0.00082703,-0.00005312,0.00009715,-0.00004151,-0.00034379,0.00074146
 ,-0.00057098,0.00025415,0.00037533,0.00020121,-0.05569242,-0.05110354,
 0.00277652,0.00268393,0.01521690,0.00042643,0.06375757,0.00003036,-0.0
 0002973,-0.00001775,0.00010161,-0.00013754,-0.00026138,0.00001485,-0.0
 0002854,-0.00000274,0.00000049,-0.00000153,-0.00000001,-0.00005314,0.0
 0003576,0.00003198,0.00000502,-0.00003065,0.00001572,-0.00000615,0.000
 00983,0.00000169,0.00001527,0.00000637,-0.00001168,0.00000272,0.000047
 54,-0.00003202,0.00001221,0.00001694,-0.00002521,-0.00000347,-0.000135
 89,0.00002615,0.00001966,-0.00002645,0.00000096,-0.00025381,0.00047000
 ,0.00036891,-0.00008433,-0.00006761,-0.00017861,0.00001631,0.00001821,
 -0.00001299,-0.00019943,-0.00009370,0.00022591,0.00008880,0.00001487,0
 .00013115,-0.00124931,0.00072439,0.00003338,0.00007671,-0.00466798,0.0
 0072975,0.00108657,0.00065048,-0.00057028,-0.00024997,-0.00017867,0.00
 015694,-0.00025919,0.00030153,0.00042589,-0.00027929,0.00018253,0.0001
 8831,0.00003518,-0.00000467,-0.00002249,-0.00005676,0.00001745,0.00001
 989,0.00000348,-0.00002009,-0.00000022,0.00000540,0.00000661,-0.000006
 87,0.00000797,0.00000566,-0.00000939,-0.00000210,-0.00000344,0.0000029
 8,0.00017189,0.00008885,-0.00006061,-0.00003555,0.00011115,-0.00002359
 ,-0.00003425,0.00001362,0.00004574,0.00017758,-0.00020381,-0.00072461,
 0.00006521,-0.00001836,0.00024105,-0.00000710,0.00004269,0.00001229,-0
 .00005165,-0.00003413,0.00001369,-0.00002359,-0.00007755,0.00003274,0.
 00045819,0.00028069,-0.00003835,-0.00003480,-0.00005680,0.00010702,-0.
 00038419,0.00022785,-0.00040948,-0.00005451,0.00032109,-0.00007324,-0.
 05226001,-0.29546321,0.01670368,-0.00245774,-0.00983676,-0.00080286,0.
 05849661,0.31989038,0.00000400,-0.00000406,-0.00000276,-0.00001380,-0.
 00007823,-0.00003352,0.00000189,-0.00000700,-0.00000057,-0.00000008,0.
 00000010,0.00000023,-0.00000896,0.00000481,0.00000694,-0.00000057,-0.0
 0000509,0.00000477,-0.00000132,0.00000229,0.00000089,0.00000164,0.,0.0
 0000123,0.00001170,0.00000562,-0.00002255,0.00000198,0.00000371,-0.000
 00954,0.00000182,-0.00004876,0.00002666,0.00000644,-0.00000800,0.00000
 334,-0.00008921,0.00019330,0.00007744,-0.00014897,-0.00011330,-0.00002
 641,0.00003557,-0.00002416,0.00001922,0.00021457,-0.00027280,-0.000339
 88,0.00003619,0.00003848,0.00021978,0.00106939,-0.00013129,0.00049835,
 0.00131049,0.00355249,-0.00142330,0.00028062,0.00075906,0.00019176,-0.
 00021731,0.00024512,-0.00022951,0.00046451,-0.00020227,0.00011444,-0.0
 0010210,-0.00012237,-0.00013090,-0.00011483,-0.00002828,0.00001330,0.0
 0000915,-0.00000263,-0.00000603,0.00000549,-0.00000802,-0.00000383,-0.
 00000026,0.00000033,-0.00000073,0.00000146,0.00000065,0.00000021,-0.00
 000017,-0.00000157,0.00000077,-0.00003515,0.00015081,0.00004321,0.0000
 1839,-0.00004724,-0.00001689,-0.00000608,-0.00002986,-0.00001695,0.000
 03224,0.00009328,0.00024487,-0.00012617,-0.00004313,-0.00014426,0.0000
 0667,0.00001285,0.00002524,0.00000913,0.00001352,0.00002041,0.00000717
 ,0.00006274,-0.00002296,-0.00018089,-0.00080919,-0.00008050,-0.0000126
 5,-0.00012627,-0.00001772,-0.00043197,0.00019511,0.00009298,0.00012153
 ,0.00009648,-0.00008608,0.00272418,0.01656131,-0.04706985,0.00645770,0
 .02429168,-0.00092795,-0.00488167,-0.01852655,0.04628070,-0.00001119,0
 .00001106,0.00000648,-0.00018304,0.00005346,0.00016785,-0.00000527,0.0
 0001223,0.00000094,-0.00000005,0.00000044,0.00000010,0.00001938,-0.000
 01287,-0.00001288,-0.00000141,0.00001326,-0.00001071,0.00000408,-0.000
 00353,0.00000025,-0.00000692,-0.00000088,0.00000685,-0.00000557,-0.000
 01069,0.00001679,-0.00001051,-0.00000899,0.00001976,0.00002166,0.00007
 512,-0.00001650,-0.00000719,0.00001752,0.00000048,0.00020420,-0.000326
 75,-0.00027031,-0.00003608,0.00005930,-0.00039784,-0.00003736,0.000068
 75,-0.00002199,-0.00054015,-0.00095213,0.00085054,-0.00038530,-0.00092
 254,-0.00055193,0.00125921,0.00115788,-0.00056958,-0.01011478,0.015909
 97,0.02642554,-0.00659020,-0.00233086,-0.00045537,0.00009504,-0.000236
 98,0.00008650,0.00000117,0.00009682,-0.00016839,0.00000881,0.00156596,
 0.00172777,0.00002804,0.00001544,-0.00009149,-0.00070302,-0.00022333,0
 .00027155,-0.00000730,0.00001003,0.00000113,-0.00000191,-0.00000243,0.
 00000332,-0.00000264,-0.00000208,0.00000298,0.00000073,0.00000239,-0.0
 0000112,0.00003565,0.00024216,-0.00023146,0.00000459,-0.00009336,0.000
 00683,0.00003038,-0.00003992,-0.00000366,-0.00007019,-0.00012781,0.000
 30281,-0.00001616,0.00004840,-0.00008403,0.00001943,-0.00005848,-0.000
 04087,0.00002732,0.00000438,0.00000147,0.00001222,0.00000819,-0.000001
 59,0.00166057,0.00029342,0.00156505,-0.00049171,-0.00019482,-0.0010408
 4,-0.00003346,0.00004755,-0.00013637,0.00040196,-0.00030519,-0.0000929
 8,-0.07570851,0.03960221,0.07209558,0.00492921,-0.00795861,-0.01268726
 ,0.00142548,-0.00285173,-0.00646178,0.08478078,-0.00001567,0.00001565,
 0.00000916,0.00002888,0.00037751,0.00002914,-0.00000756,0.00001588,0.0
 0000201,-0.00000032,0.00000060,-0.00000039,0.00002875,-0.00001838,-0.0
 0001698,-0.00000350,0.00001421,-0.00000923,0.00000332,-0.00000516,-0.0
 0000090,-0.00000220,-0.00000133,0.00000431,-0.00000627,-0.00001249,0.0
 0000925,-0.00000771,-0.00000103,0.00000998,0.00003971,0.00007068,-0.00
 003206,-0.00000459,0.00000847,0.00000283,-0.00016604,-0.00036932,0.000
 13634,0.00004844,-0.00034216,-0.00000955,0.00007675,0.00011808,-0.0000
 0619,-0.00105792,-0.00124912,0.00016559,-0.00111260,-0.00110226,-0.000
 38040,0.00074806,0.00068963,0.00040550,-0.00131790,0.00115167,0.004649
 12,-0.00016602,0.00046277,0.00008048,-0.00021086,-0.00015500,-0.000052
 05,-0.00036880,0.00040274,0.00018376,-0.00038059,0.00039360,0.00001617
 ,0.00004028,0.00000367,0.00001360,-0.00003844,-0.00003105,0.00003647,-
 0.00000286,0.00001307,0.00000285,-0.00000267,-0.00000311,0.00000306,-0
 .00000481,-0.00000337,0.00000333,0.00000100,0.00000212,-0.00000146,0.0
 0011835,0.00007811,-0.00004884,0.00001531,0.00003828,-0.00003220,0.000
 01409,-0.00002285,-0.00002675,0.00008431,-0.00008985,-0.00003065,-0.00
 004309,0.00001947,-0.00004537,0.00000390,-0.00000050,-0.00000669,0.000
 01577,-0.00000555,-0.00000488,0.00000687,0.00003074,-0.00000665,0.0002
 1834,-0.00003840,-0.00006479,0.00038069,0.00019926,0.00009777,0.000072
 08,-0.00016927,-0.00018228,-0.00008526,-0.00005529,0.00020772,0.040206
 78,-0.10016012,-0.09958071,-0.00494757,0.00517537,0.01098658,0.0104535
 1,-0.01236739,-0.02564368,-0.04265193,0.10692141,0.00001835,-0.0000198
 3,-0.00001019,-0.00003140,-0.00001325,-0.00021342,0.00001155,-0.000027
 25,0.00000055,0.00000042,-0.00000058,0.00000034,-0.00004091,0.00002254
 ,0.00002453,-0.00000039,-0.00002308,0.00001153,-0.00000459,0.00001026,
 0.00000425,0.00000925,0.00000976,-0.00000507,0.00002785,0.00004289,-0.
 00007383,0.00001085,0.00001349,-0.00002415,0.00001871,-0.00014664,0.00
 005804,0.00002410,-0.00002128,0.00000818,-0.00033362,0.00057293,0.0004
 3642,-0.00044874,-0.00031505,-0.00027097,0.00015494,0.00006941,-0.0000
 0460,0.00046490,-0.00036133,-0.00033962,-0.00052538,-0.00065710,0.0002
 0453,0.00026024,-0.00040742,-0.00001149,-0.00023839,-0.00064473,-0.002
 97439,0.00088967,0.00084761,0.00016544,0.00002069,0.00010492,0.0006082
 9,-0.00002073,-0.00015702,0.00000312,-0.00009127,-0.00050357,0.0002868
 2,0.00019642,0.00004796,-0.00003751,0.00011775,0.00004899,0.00001382,0
 .00001520,-0.00002906,-0.00000654,0.00000222,0.00000470,-0.00000425,0.
 00000400,0.00000497,-0.00000660,-0.00000163,-0.00000568,0.00000376,-0.
 00004898,-0.00008032,0.00009919,0.00001962,0.00004923,0.00000266,-0.00
 004550,0.00002322,0.00003281,0.00005736,0.00016765,-0.00016560,-0.0000
 3861,-0.00003268,-0.00001264,0.00002579,0.00006798,0.00003966,-0.00002
 346,0.00002008,0.00002244,-0.00000023,0.00000912,-0.00002060,-0.000694
 66,0.00039905,0.00080158,0.00006861,-0.00026688,0.00024415,0.00016963,
 0.00009170,-0.00002416,0.00005188,0.00015823,0.00010427,0.07318055,-0.
 09873278,-0.22591327,0.00875417,-0.01176398,-0.01891973,-0.00177460,0.
 00229512,0.00272596,-0.08021163,0.10912767,0.24313628\\0.00000078,0.,-
 0.00000261,-0.00000172,-0.00000031,-0.00000002,0.00000175,-0.00000028,
 -0.00000159,0.00000112,0.00000029,-0.00000180,-0.00000016,0.00000034,-
 0.00000188,0.00000065,0.00000106,-0.00000213,-0.00000031,0.00000039,-0
 .00000172,0.00000045,0.00000070,-0.00000113,0.00000031,-0.00000028,-0.
 00000143,0.00000026,-0.00000055,-0.00000016,-0.00000091,-0.00000017,-0
 .00000096,-0.00000070,0.00000054,-0.00000128,0.00000123,0.00000189,-0.
 00000119,-0.00000081,-0.00000081,0.00000003,0.00000025,0.00000050,-0.0
 0000077,-0.00000200,-0.00000071,-0.00000020,-0.00000079,0.00000075,0.0
 0000006,0.00000127,0.00000098,0.00000039,-0.00000098,0.00000043,0.0000
 0126,-0.00000006,0.00000012,0.00000050,0.00000067,-0.00000050,0.000000
 36,-0.00000013,-0.00000009,0.00000124,-0.00000028,-0.00000040,0.000001
 56,0.,-0.00000046,0.00000195,0.00000026,-0.00000048,0.00000176,0.00000
 076,0.00000002,-0.00000090,0.00000094,-0.00000023,-0.00000018,0.000000
 46,0.,-0.00000076,0.00000154,-0.00000032,-0.00000093,0.00000009,-0.000
 00065,0.00000057,0.00000066,-0.00000054,0.00000184,0.00000093,-0.00000
 053,0.00000128,-0.00000022,-0.00000162,0.00000083,0.00000042,0.0000006
 7,0.00000109,0.00000013,-0.00000047,0.00000057,0.00000064,-0.00000042,
 0.00000129,0.00000077,-0.00000069,0.00000046,-0.00000127,0.00000002,0.
 00000130,-0.00000123,0.,0.00000084,-0.00000131,0.00000046,0.00000093,-
 0.00000093,0.00000004,0.00000147,-0.00000069,0.00000003,0.00000028,-0.
 00000028,0.00000031,-0.00000046,-0.00000054,0.00000031,0.00000007,-0.0
 0000103,0.00000063,0.00000017\\\@


 At the touch of love, everyone becomes a poet.
                                -- Plato
 Job cpu time:       1 days  6 hours 39 minutes 35.4 seconds.
 Elapsed time:       0 days  1 hours 55 minutes 27.1 seconds.
 File lengths (MBytes):  RWF=   1613 Int=      0 D2E=      0 Chk=     40 Scr=      1
 Normal termination of Gaussian 16 at Wed Oct  1 15:24:33 2025.
