 Entering Gaussian System, Link 0=g16
 Input=CPEE0096.gjf
 Output=CPEE0096.log
 Initial command:
 /usr/local/g16/l1.exe "/dados_01/scratch/Gau-2012246.inp" -scrdir="/dados_01/scratch/"
 Entering Link 1 = /usr/local/g16/l1.exe PID=   2012247.
  
 Copyright (c) 1988-2017, Gaussian, Inc.  All Rights Reserved.
  
 This is part of the Gaussian(R) 16 program.  It is based on
 the Gaussian(R) 09 system (copyright 2009, Gaussian, Inc.),
 the Gaussian(R) 03 system (copyright 2003, Gaussian, Inc.),
 the Gaussian(R) 98 system (copyright 1998, Gaussian, Inc.),
 the Gaussian(R) 94 system (copyright 1995, Gaussian, Inc.),
 the Gaussian 92(TM) system (copyright 1992, Gaussian, Inc.),
 the Gaussian 90(TM) system (copyright 1990, Gaussian, Inc.),
 the Gaussian 88(TM) system (copyright 1988, Gaussian, Inc.),
 the Gaussian 86(TM) system (copyright 1986, Carnegie Mellon
 University), and the Gaussian 82(TM) system (copyright 1983,
 Carnegie Mellon University). Gaussian is a federally registered
 trademark of Gaussian, Inc.
  
 This software contains proprietary and confidential information,
 including trade secrets, belonging to Gaussian, Inc.
  
 This software is provided under written license and may be
 used, copied, transmitted, or stored only in accord with that
 written license.
  
 The following legend is applicable only to US Government
 contracts under FAR:
  
                    RESTRICTED RIGHTS LEGEND
  
 Use, reproduction and disclosure by the US Government is
 subject to restrictions as set forth in subparagraphs (a)
 and (c) of the Commercial Computer Software - Restricted
 Rights clause in FAR 52.227-19.
  
 Gaussian, Inc.
 340 Quinnipiac St., Bldg. 40, Wallingford CT 06492
  
  
 ---------------------------------------------------------------
 Warning -- This program may not be used in any manner that
 competes with the business of Gaussian, Inc. or will provide
 assistance to any competitor of Gaussian, Inc.  The licensee
 of this program is prohibited from giving any competitor of
 Gaussian, Inc. access to this program.  By using this program,
 the user acknowledges that Gaussian, Inc. is engaged in the
 business of creating and licensing software in the field of
 computational chemistry and represents and warrants to the
 licensee that it is not a competitor of Gaussian, Inc. and that
 it will not use this program in any manner prohibited above.
 ---------------------------------------------------------------
  

 Cite this work as:
 Gaussian 16, Revision B.01,
 M. J. Frisch, G. W. Trucks, H. B. Schlegel, G. E. Scuseria, 
 M. A. Robb, J. R. Cheeseman, G. Scalmani, V. Barone, 
 G. A. Petersson, H. Nakatsuji, X. Li, M. Caricato, A. V. Marenich, 
 J. Bloino, B. G. Janesko, R. Gomperts, B. Mennucci, H. P. Hratchian, 
 J. V. Ortiz, A. F. Izmaylov, J. L. Sonnenberg, D. Williams-Young, 
 F. Ding, F. Lipparini, F. Egidi, J. Goings, B. Peng, A. Petrone, 
 T. Henderson, D. Ranasinghe, V. G. Zakrzewski, J. Gao, N. Rega, 
 G. Zheng, W. Liang, M. Hada, M. Ehara, K. Toyota, R. Fukuda, 
 J. Hasegawa, M. Ishida, T. Nakajima, Y. Honda, O. Kitao, H. Nakai, 
 T. Vreven, K. Throssell, J. A. Montgomery, Jr., J. E. Peralta, 
 F. Ogliaro, M. J. Bearpark, J. J. Heyd, E. N. Brothers, K. N. Kudin, 
 V. N. Staroverov, T. A. Keith, R. Kobayashi, J. Normand, 
 K. Raghavachari, A. P. Rendell, J. C. Burant, S. S. Iyengar, 
 J. Tomasi, M. Cossi, J. M. Millam, M. Klene, C. Adamo, R. Cammi, 
 J. W. Ochterski, R. L. Martin, K. Morokuma, O. Farkas, 
 J. B. Foresman, and D. J. Fox, Gaussian, Inc., Wallingford CT, 2016.
 
 ******************************************
 Gaussian 16:  ES64L-G16RevB.01 20-Dec-2017
                19-Sep-2025 
 ******************************************
 %nprocs=16
 Will use up to   16 processors via shared memory.
 %mem=40GB
 %chk=CPEE0096.chk
 ----------------------------------------------------------------------
 # opt freq=noraman M08HX/6-311++G** scf=xqc Empiricaldispersion=pfd In
 t(Grid=ultraFine)
 ----------------------------------------------------------------------
 1/18=20,19=15,26=4,38=1/1,3;
 2/9=110,12=2,17=6,18=5,40=1/2;
 3/5=4,6=6,7=1111,11=2,25=1,30=1,71=1,74=-74,75=-5,124=11/1,2,3;
 4//1;
 5/5=2,8=3,13=1,38=5/2,8;
 6/7=2,8=2,9=2,10=2,28=1/1;
 7//1,2,3,16;
 1/18=20,19=15,26=4/3(2);
 2/9=110/2;
 99//99;
 2/9=110/2;
 3/5=4,6=6,7=1111,11=2,25=1,30=1,71=1,74=-74,75=-5,124=11/1,2,3;
 4/5=5,16=3,69=1/1;
 5/5=2,8=3,13=1,38=5/2,8;
 7//1,2,3,16;
 1/18=20,19=15,26=4/3(-5);
 2/9=110/2;
 6/7=2,8=2,9=2,10=2,19=2,28=1/1;
 99/9=1/99;
 --------
 CPEE0096
 --------
 Symbolic Z-matrix:
 Charge =  0 Multiplicity = 1
 C                    -1.0551   -0.658     0.2446 
 C                    -0.9716    0.7805   -0.2349 
 C                     0.2952   -1.2327   -0.1536 
 C                     0.4469    1.1915    0.1309 
 C                     1.2846   -0.0814    0.013 
 H                    -1.1742   -0.6896    1.334 
 H                    -1.8887   -1.202    -0.2082 
 H                    -1.1092    0.8265   -1.3217 
 H                    -1.724     1.422     0.2327 
 H                     0.5683   -2.1041    0.4489 
 H                     0.2713   -1.5481   -1.2036 
 H                     0.821     1.9934   -0.5127 
 H                     0.4759    1.556     1.1648 
 H                     1.8979   -0.2164    0.9106 
 H                     1.9655   -0.0323   -0.8435 
 

 GradGradGradGradGradGradGradGradGradGradGradGradGradGradGradGradGradGrad
 Berny optimization.
 Initialization pass.
                           ----------------------------
                           !    Initial Parameters    !
                           ! (Angstroms and Degrees)  !
 --------------------------                            --------------------------
 ! Name  Definition              Value          Derivative Info.                !
 --------------------------------------------------------------------------------
 ! R1    R(1,2)                  1.5186         estimate D2E/DX2                !
 ! R2    R(1,3)                  1.5206         estimate D2E/DX2                !
 ! R3    R(1,6)                  1.0963         estimate D2E/DX2                !
 ! R4    R(1,7)                  1.0936         estimate D2E/DX2                !
 ! R5    R(2,4)                  1.5215         estimate D2E/DX2                !
 ! R6    R(2,8)                  1.0964         estimate D2E/DX2                !
 ! R7    R(2,9)                  1.0937         estimate D2E/DX2                !
 ! R8    R(3,5)                  1.5271         estimate D2E/DX2                !
 ! R9    R(3,10)                 1.094          estimate D2E/DX2                !
 ! R10   R(3,11)                 1.0966         estimate D2E/DX2                !
 ! R11   R(4,5)                  1.5284         estimate D2E/DX2                !
 ! R12   R(4,12)                 1.0942         estimate D2E/DX2                !
 ! R13   R(4,13)                 1.0967         estimate D2E/DX2                !
 ! R14   R(5,14)                 1.0955         estimate D2E/DX2                !
 ! R15   R(5,15)                 1.0953         estimate D2E/DX2                !
 ! A1    A(2,1,3)              103.0909         estimate D2E/DX2                !
 ! A2    A(2,1,6)              110.3054         estimate D2E/DX2                !
 ! A3    A(2,1,7)              112.482          estimate D2E/DX2                !
 ! A4    A(3,1,6)              110.23           estimate D2E/DX2                !
 ! A5    A(3,1,7)              112.3633         estimate D2E/DX2                !
 ! A6    A(6,1,7)              108.3181         estimate D2E/DX2                !
 ! A7    A(1,2,4)              103.3696         estimate D2E/DX2                !
 ! A8    A(1,2,8)              110.2314         estimate D2E/DX2                !
 ! A9    A(1,2,9)              112.5049         estimate D2E/DX2                !
 ! A10   A(4,2,8)              110.1196         estimate D2E/DX2                !
 ! A11   A(4,2,9)              112.3417         estimate D2E/DX2                !
 ! A12   A(8,2,9)              108.2296         estimate D2E/DX2                !
 ! A13   A(1,3,5)              105.1784         estimate D2E/DX2                !
 ! A14   A(1,3,10)             112.2401         estimate D2E/DX2                !
 ! A15   A(1,3,11)             109.8826         estimate D2E/DX2                !
 ! A16   A(5,3,10)             112.2512         estimate D2E/DX2                !
 ! A17   A(5,3,11)             109.5973         estimate D2E/DX2                !
 ! A18   A(10,3,11)            107.6776         estimate D2E/DX2                !
 ! A19   A(2,4,5)              105.5143         estimate D2E/DX2                !
 ! A20   A(2,4,12)             112.044          estimate D2E/DX2                !
 ! A21   A(2,4,13)             109.9443         estimate D2E/DX2                !
 ! A22   A(5,4,12)             112.1856         estimate D2E/DX2                !
 ! A23   A(5,4,13)             109.5756         estimate D2E/DX2                !
 ! A24   A(12,4,13)            107.5726         estimate D2E/DX2                !
 ! A25   A(3,5,4)              106.3313         estimate D2E/DX2                !
 ! A26   A(3,5,14)             111.0509         estimate D2E/DX2                !
 ! A27   A(3,5,15)             110.5639         estimate D2E/DX2                !
 ! A28   A(4,5,14)             110.2602         estimate D2E/DX2                !
 ! A29   A(4,5,15)             111.3292         estimate D2E/DX2                !
 ! A30   A(14,5,15)            107.3513         estimate D2E/DX2                !
 ! D1    D(3,1,2,4)            -40.9944         estimate D2E/DX2                !
 ! D2    D(3,1,2,8)             76.6774         estimate D2E/DX2                !
 ! D3    D(3,1,2,9)           -162.4205         estimate D2E/DX2                !
 ! D4    D(6,1,2,4)             76.6889         estimate D2E/DX2                !
 ! D5    D(6,1,2,8)           -165.6392         estimate D2E/DX2                !
 ! D6    D(6,1,2,9)            -44.7371         estimate D2E/DX2                !
 ! D7    D(7,1,2,4)           -162.2593         estimate D2E/DX2                !
 ! D8    D(7,1,2,8)            -44.5875         estimate D2E/DX2                !
 ! D9    D(7,1,2,9)             76.3146         estimate D2E/DX2                !
 ! D10   D(2,1,3,5)             34.5111         estimate D2E/DX2                !
 ! D11   D(2,1,3,10)           156.843          estimate D2E/DX2                !
 ! D12   D(2,1,3,11)           -83.3721         estimate D2E/DX2                !
 ! D13   D(6,1,3,5)            -83.2253         estimate D2E/DX2                !
 ! D14   D(6,1,3,10)            39.1066         estimate D2E/DX2                !
 ! D15   D(6,1,3,11)           158.8915         estimate D2E/DX2                !
 ! D16   D(7,1,3,5)            155.8565         estimate D2E/DX2                !
 ! D17   D(7,1,3,10)           -81.8116         estimate D2E/DX2                !
 ! D18   D(7,1,3,11)            37.9733         estimate D2E/DX2                !
 ! D19   D(1,2,4,5)             31.8536         estimate D2E/DX2                !
 ! D20   D(1,2,4,12)           154.2109         estimate D2E/DX2                !
 ! D21   D(1,2,4,13)           -86.222          estimate D2E/DX2                !
 ! D22   D(8,2,4,5)            -85.8964         estimate D2E/DX2                !
 ! D23   D(8,2,4,12)            36.4609         estimate D2E/DX2                !
 ! D24   D(8,2,4,13)           156.028          estimate D2E/DX2                !
 ! D25   D(9,2,4,5)            153.3897         estimate D2E/DX2                !
 ! D26   D(9,2,4,12)           -84.253          estimate D2E/DX2                !
 ! D27   D(9,2,4,13)            35.3141         estimate D2E/DX2                !
 ! D28   D(1,3,5,4)            -14.8305         estimate D2E/DX2                !
 ! D29   D(1,3,5,14)           105.1315         estimate D2E/DX2                !
 ! D30   D(1,3,5,15)          -135.8105         estimate D2E/DX2                !
 ! D31   D(10,3,5,4)          -137.1552         estimate D2E/DX2                !
 ! D32   D(10,3,5,14)          -17.1933         estimate D2E/DX2                !
 ! D33   D(10,3,5,15)          101.8648         estimate D2E/DX2                !
 ! D34   D(11,3,5,4)           103.2455         estimate D2E/DX2                !
 ! D35   D(11,3,5,14)         -136.7926         estimate D2E/DX2                !
 ! D36   D(11,3,5,15)          -17.7345         estimate D2E/DX2                !
 ! D37   D(2,4,5,3)            -10.5267         estimate D2E/DX2                !
 ! D38   D(2,4,5,14)          -131.0004         estimate D2E/DX2                !
 ! D39   D(2,4,5,15)           109.9606         estimate D2E/DX2                !
 ! D40   D(12,4,5,3)          -132.7931         estimate D2E/DX2                !
 ! D41   D(12,4,5,14)          106.7332         estimate D2E/DX2                !
 ! D42   D(12,4,5,15)          -12.3057         estimate D2E/DX2                !
 ! D43   D(13,4,5,3)           107.796          estimate D2E/DX2                !
 ! D44   D(13,4,5,14)          -12.6778         estimate D2E/DX2                !
 ! D45   D(13,4,5,15)         -131.7167         estimate D2E/DX2                !
 --------------------------------------------------------------------------------
 Trust Radius=3.00D-01 FncErr=1.00D-07 GrdErr=1.00D-06 EigMax=2.50D+02 EigMin=1.00D-04
 Number of steps in this run=    100 maximum allowed number of steps=    100.
 GradGradGradGradGradGradGradGradGradGradGradGradGradGradGradGradGradGrad

                          Input orientation:                          
 ---------------------------------------------------------------------
 Center     Atomic      Atomic             Coordinates (Angstroms)
 Number     Number       Type             X           Y           Z
 ---------------------------------------------------------------------
      1          6           0       -1.055100   -0.658000    0.244600
      2          6           0       -0.971600    0.780500   -0.234900
      3          6           0        0.295200   -1.232700   -0.153600
      4          6           0        0.446900    1.191500    0.130900
      5          6           0        1.284600   -0.081400    0.013000
      6          1           0       -1.174200   -0.689600    1.334000
      7          1           0       -1.888700   -1.202000   -0.208200
      8          1           0       -1.109200    0.826500   -1.321700
      9          1           0       -1.724000    1.422000    0.232700
     10          1           0        0.568300   -2.104100    0.448900
     11          1           0        0.271300   -1.548100   -1.203600
     12          1           0        0.821000    1.993400   -0.512700
     13          1           0        0.475900    1.556000    1.164800
     14          1           0        1.897900   -0.216400    0.910600
     15          1           0        1.965500   -0.032300   -0.843500
 ---------------------------------------------------------------------
                    Distance matrix (angstroms):
                    1          2          3          4          5
     1  C    0.000000
     2  C    1.518609   0.000000
     3  C    1.520577   2.379993   0.000000
     4  C    2.385284   1.521471   2.445547   0.000000
     5  C    2.420806   2.427914   1.527141   1.528370   0.000000
     6  H    1.096347   2.159557   2.160335   2.759339   2.856684
     7  H    1.093551   2.184512   2.184798   3.361377   3.372611
     8  H    2.158695   1.096442   2.752654   2.159796   2.887211
     9  H    2.184941   1.093745   3.357652   2.185475   3.370483
    10  H    2.183660   3.340627   1.094042   3.313132   2.189614
    11  H    2.156130   2.811682   1.096608   3.052398   2.158264
    12  H    3.335143   2.182135   3.288334   1.094173   2.189996
    13  H    2.844736   2.157734   3.089932   1.096654   2.159101
    14  H    3.059212   3.246538   2.175784   2.166914   1.095467
    15  H    3.271007   3.107667   2.169522   2.180204   1.095275
                    6          7          8          9         10
     6  H    0.000000
     7  H    1.775231   0.000000
     8  H    3.058681   2.441785   0.000000
     9  H    2.444176   2.665876   1.774474   0.000000
    10  H    2.412575   2.698595   3.812800   4.211266   0.000000
    11  H    3.043995   2.403374   2.749264   3.855603   1.768644
    12  H    3.819635   4.200688   2.396207   2.712774   4.216401
    13  H    2.791806   3.883687   3.037663   2.392974   3.730601
    14  H    3.137034   4.069577   3.887603   4.032625   2.354658
    15  H    3.877018   4.077580   3.228001   4.109210   2.813329
                   11         12         13         14         15
    11  H    0.000000
    12  H    3.649895   0.000000
    13  H    3.909810   1.767603   0.000000
    14  H    2.981458   2.840548   2.286505   0.000000
    15  H    2.301659   2.350057   2.962241   1.765030   0.000000
 Stoichiometry    C5H10
 Framework group  C1[X(C5H10)]
 Deg. of freedom    39
 Full point group                 C1      NOp   1
 Largest Abelian subgroup         C1      NOp   1
 Largest concise Abelian subgroup C1      NOp   1
                         Standard orientation:                         
 ---------------------------------------------------------------------
 Center     Atomic      Atomic             Coordinates (Angstroms)
 Number     Number       Type             X           Y           Z
 ---------------------------------------------------------------------
      1          6           0       -1.039845   -0.684910    0.247539
      2          6           0       -0.994553    0.753677   -0.236808
      3          6           0        0.324856   -1.225198   -0.149745
      4          6           0        0.412875    1.203093    0.126573
      5          6           0        1.283715   -0.047704    0.012290
      6          1           0       -1.157361   -0.715988    1.337126
      7          1           0       -1.859131   -1.252175   -0.202831
      8          1           0       -1.134024    0.792402   -1.323653
      9          1           0       -1.763273    1.376712    0.229211
     10          1           0        0.621192   -2.087087    0.455450
     11          1           0        0.308582   -1.544630   -1.198671
     12          1           0        0.765317    2.012404   -0.519969
     13          1           0        0.432944    1.571688    1.159232
     14          1           0        1.900941   -0.163510    0.909881
     15          1           0        1.962528    0.016434   -0.844872
 ---------------------------------------------------------------------
 Rotational constants (GHZ):           6.6271253           6.6189417           3.8323877
 Standard basis: 6-311++G(d,p) (5D, 7F)
 There are   185 symmetry adapted cartesian basis functions of A   symmetry.
 There are   180 symmetry adapted basis functions of A   symmetry.
   180 basis functions,   270 primitive gaussians,   185 cartesian basis functions
    20 alpha electrons       20 beta electrons
       nuclear repulsion energy       189.1078142253 Hartrees.
 NAtoms=   15 NActive=   15 NUniq=   15 SFac= 1.00D+00 NAtFMM=   60 NAOKFM=F Big=F
 Integral buffers will be    131072 words long.
 Raffenetti 2 integral format.
 Two-electron integral symmetry is turned on.
 R6APFD:  NTU= -4 IXU= 1 FactS= 1.050
 Nuclear repulsion after empirical dispersion term =      189.1004915450 Hartrees.
 One-electron integrals computed using PRISM.
 NBasis=   180 RedAO= T EigKep=  1.08D-05  NBF=   180
 NBsUse=   180 1.00D-06 EigRej= -1.00D+00 NBFU=   180
 ExpMin= 3.60D-02 ExpMax= 4.56D+03 ExpMxC= 6.82D+02 IAcc=3 IRadAn=         5 AccDes= 0.00D+00
 Harris functional with IExCor= 1009 and IRadAn=       5 diagonalized for initial guess.
 HarFok:  IExCor= 1009 AccDes= 0.00D+00 IRadAn=         5 IDoV= 1 UseB2=F ITyADJ=14
 ICtDFT=  3500011 ScaDFX=  1.000000  1.000000  1.000000  1.000000
 FoFCou: FMM=F IPFlag=           0 FMFlag=      100000 FMFlg1=           0
         NFxFlg=           0 DoJE=T BraDBF=F KetDBF=T FulRan=T
         wScrn=  0.000000 ICntrl=       500 IOpCl=  0 I1Cent=   200000004 NGrid=           0
         NMat0=    1 NMatS0=      1 NMatT0=    0 NMatD0=    1 NMtDS0=    0 NMtDT0=    0
 Petite list used in FoFCou.
 Requested convergence on RMS density matrix=1.00D-08 within  32 cycles.
 Requested convergence on MAX density matrix=1.00D-06.
 Requested convergence on             energy=1.00D-06.
 No special actions if energy rises.
 SCF Done:  E(RM08HX) =  -196.565939177     A.U. after   11 cycles
            NFock= 11  Conv=0.26D-08     -V/T= 2.0051
 QCSCF skips out because SCF is already converged.

 **********************************************************************

            Population analysis using the SCF Density.

 **********************************************************************

 Orbital symmetries:
       Occupied  (A) (A) (A) (A) (A) (A) (A) (A) (A) (A) (A) (A)
                 (A) (A) (A) (A) (A) (A) (A) (A)
       Virtual   (A) (A) (A) (A) (A) (A) (A) (A) (A) (A) (A) (A)
                 (A) (A) (A) (A) (A) (A) (A) (A) (A) (A) (A) (A)
                 (A) (A) (A) (A) (A) (A) (A) (A) (A) (A) (A) (A)
                 (A) (A) (A) (A) (A) (A) (A) (A) (A) (A) (A) (A)
                 (A) (A) (A) (A) (A) (A) (A) (A) (A) (A) (A) (A)
                 (A) (A) (A) (A) (A) (A) (A) (A) (A) (A) (A) (A)
                 (A) (A) (A) (A) (A) (A) (A) (A) (A) (A) (A) (A)
                 (A) (A) (A) (A) (A) (A) (A) (A) (A) (A) (A) (A)
                 (A) (A) (A) (A) (A) (A) (A) (A) (A) (A) (A) (A)
                 (A) (A) (A) (A) (A) (A) (A) (A) (A) (A) (A) (A)
                 (A) (A) (A) (A) (A) (A) (A) (A) (A) (A) (A) (A)
                 (A) (A) (A) (A) (A) (A) (A) (A) (A) (A) (A) (A)
                 (A) (A) (A) (A) (A) (A) (A) (A) (A) (A) (A) (A)
                 (A) (A) (A) (A)
 The electronic state is 1-A.
 Alpha  occ. eigenvalues --  -10.51416 -10.51379 -10.51332 -10.51314 -10.51255
 Alpha  occ. eigenvalues --   -0.94627  -0.80514  -0.80511  -0.65021  -0.63951
 Alpha  occ. eigenvalues --   -0.55747  -0.55143  -0.48386  -0.48256  -0.39741
 Alpha  occ. eigenvalues --   -0.39696  -0.39633  -0.39237  -0.38293  -0.37023
 Alpha virt. eigenvalues --   -0.02637  -0.01126  -0.00502  -0.00485   0.02005
 Alpha virt. eigenvalues --    0.02047   0.02367   0.02465   0.02568   0.06320
 Alpha virt. eigenvalues --    0.07657   0.08023   0.08418   0.08842   0.09045
 Alpha virt. eigenvalues --    0.09288   0.11903   0.12017   0.12711   0.12927
 Alpha virt. eigenvalues --    0.14005   0.14163   0.14372   0.14954   0.15162
 Alpha virt. eigenvalues --    0.15423   0.15780   0.16066   0.16480   0.18391
 Alpha virt. eigenvalues --    0.19155   0.24167   0.24474   0.26997   0.27235
 Alpha virt. eigenvalues --    0.29078   0.29948   0.31611   0.32083   0.33441
 Alpha virt. eigenvalues --    0.33988   0.36103   0.37899   0.38356   0.39940
 Alpha virt. eigenvalues --    0.46180   0.49730   0.50554   0.51685   0.52701
 Alpha virt. eigenvalues --    0.53181   0.54725   0.57442   0.60929   0.69293
 Alpha virt. eigenvalues --    0.69730   0.69829   0.70498   0.70748   0.71220
 Alpha virt. eigenvalues --    0.71498   0.71919   0.72306   0.75338   0.76536
 Alpha virt. eigenvalues --    0.77463   0.77921   0.78170   0.78949   0.80153
 Alpha virt. eigenvalues --    0.84703   0.95347   1.00520   1.00943   1.04790
 Alpha virt. eigenvalues --    1.20023   1.22674   1.24765   1.29921   1.31114
 Alpha virt. eigenvalues --    1.36070   1.44452   1.46007   1.52101   1.55265
 Alpha virt. eigenvalues --    1.55787   1.57532   1.62424   1.62965   1.63576
 Alpha virt. eigenvalues --    1.66013   1.66734   1.69565   1.70057   1.72614
 Alpha virt. eigenvalues --    1.72738   1.76536   1.78300   1.83101   1.83494
 Alpha virt. eigenvalues --    1.83999   1.84344   1.89515   1.91785   1.92804
 Alpha virt. eigenvalues --    1.95390   2.03464   2.06736   2.14849   2.18739
 Alpha virt. eigenvalues --    2.23217   2.24272   2.25479   2.25666   2.30583
 Alpha virt. eigenvalues --    2.31448   2.39393   2.42766   2.48431   2.49665
 Alpha virt. eigenvalues --    2.52191   2.54060   2.57934   2.58185   2.62055
 Alpha virt. eigenvalues --    2.62883   2.66125   2.67449   2.70382   2.71142
 Alpha virt. eigenvalues --    2.75282   2.75840   2.77912   2.81028   2.82859
 Alpha virt. eigenvalues --    2.84353   2.85255   2.87327   2.91188   2.96049
 Alpha virt. eigenvalues --    3.12451   3.20544   3.31317   3.36728   3.41983
 Alpha virt. eigenvalues --    3.57903   3.79376   3.79660   4.00802   4.10719
 Alpha virt. eigenvalues --    4.16225   4.17336   4.33651   4.43074   4.51987
 Alpha virt. eigenvalues --   23.94766  23.96250  23.96777  24.01309  24.01661
          Condensed to atoms (all electrons):
               1          2          3          4          5          6
     1  C    6.319773  -0.200434  -0.470394  -0.228110   0.208405   0.507456
     2  C   -0.200434   6.377861  -0.289272  -0.559558   0.312643  -0.046939
     3  C   -0.470394  -0.289272   6.792798   0.608957  -0.909571  -0.084317
     4  C   -0.228110  -0.559558   0.608957   6.876780  -0.949350  -0.023344
     5  C    0.208405   0.312643  -0.909571  -0.949350   7.118387   0.017049
     6  H    0.507456  -0.046939  -0.084317  -0.023344   0.017049   0.441267
     7  H    0.461538  -0.070452  -0.068819   0.010377   0.009836  -0.008144
     8  H   -0.045046   0.513909  -0.028615  -0.093867   0.023084   0.001492
     9  H   -0.073157   0.466238   0.010779  -0.071623   0.010799  -0.001808
    10  H   -0.084718   0.014299   0.497031   0.013548  -0.090587  -0.002284
    11  H   -0.063076  -0.019223   0.535805   0.029994  -0.120639   0.000162
    12  H    0.017084  -0.087412   0.011819   0.503423  -0.093536  -0.003242
    13  H   -0.013984  -0.068043   0.029938   0.534380  -0.121018   0.000472
    14  H   -0.002785   0.033697  -0.085995  -0.106455   0.519057   0.000179
    15  H    0.032985  -0.001368  -0.102449  -0.089472   0.517372  -0.001170
               7          8          9         10         11         12
     1  C    0.461538  -0.045046  -0.073157  -0.084718  -0.063076   0.017084
     2  C   -0.070452   0.513909   0.466238   0.014299  -0.019223  -0.087412
     3  C   -0.068819  -0.028615   0.010779   0.497031   0.535805   0.011819
     4  C    0.010377  -0.093867  -0.071623   0.013548   0.029994   0.503423
     5  C    0.009836   0.023084   0.010799  -0.090587  -0.120639  -0.093536
     6  H   -0.008144   0.001492  -0.001808  -0.002284   0.000162  -0.003242
     7  H    0.459823  -0.001720  -0.001454  -0.005118   0.001594   0.000784
     8  H   -0.001720   0.440728  -0.007005  -0.003588   0.000681  -0.002762
     9  H   -0.001454  -0.007005   0.456598   0.001005  -0.003119  -0.005516
    10  H   -0.005118  -0.003588   0.001005   0.450522  -0.006283   0.001292
    11  H    0.001594   0.000681  -0.003119  -0.006283   0.440769  -0.001786
    12  H    0.000784  -0.002762  -0.005516   0.001292  -0.001786   0.452818
    13  H   -0.002526  -0.000170   0.002382  -0.001992   0.001366  -0.007944
    14  H    0.000110  -0.000618  -0.000997   0.001491  -0.000049  -0.002456
    15  H   -0.000628   0.000009   0.000441  -0.003311  -0.003956   0.000758
              13         14         15
     1  C   -0.013984  -0.002785   0.032985
     2  C   -0.068043   0.033697  -0.001368
     3  C    0.029938  -0.085995  -0.102449
     4  C    0.534380  -0.106455  -0.089472
     5  C   -0.121018   0.519057   0.517372
     6  H    0.000472   0.000179  -0.001170
     7  H   -0.002526   0.000110  -0.000628
     8  H   -0.000170  -0.000618   0.000009
     9  H    0.002382  -0.000997   0.000441
    10  H   -0.001992   0.001491  -0.003311
    11  H    0.001366  -0.000049  -0.003956
    12  H   -0.007944  -0.002456   0.000758
    13  H    0.443137  -0.003546   0.000056
    14  H   -0.003546   0.458764  -0.014084
    15  H    0.000056  -0.014084   0.460232
 Mulliken charges:
               1
     1  C   -0.365537
     2  C   -0.375946
     3  C   -0.447696
     4  C   -0.455680
     5  C   -0.451930
     6  H    0.203172
     7  H    0.214800
     8  H    0.203488
     9  H    0.216438
    10  H    0.218695
    11  H    0.207761
    12  H    0.216677
    13  H    0.207489
    14  H    0.203685
    15  H    0.204584
 Sum of Mulliken charges =  -0.00000
 Mulliken charges with hydrogens summed into heavy atoms:
               1
     1  C    0.052435
     2  C    0.043980
     3  C   -0.021240
     4  C   -0.031513
     5  C   -0.043661
 Electronic spatial extent (au):  <R**2>=            407.9685
 Charge=             -0.0000 electrons
 Dipole moment (field-independent basis, Debye):
    X=             -0.0223    Y=             -0.0018    Z=             -0.0004  Tot=              0.0224
 Quadrupole moment (field-independent basis, Debye-Ang):
   XX=            -34.3875   YY=            -34.3763   ZZ=            -32.9522
   XY=              0.0012   XZ=             -0.0165   YZ=             -0.0787
 Traceless Quadrupole moment (field-independent basis, Debye-Ang):
   XX=             -0.4822   YY=             -0.4709   ZZ=              0.9531
   XY=              0.0012   XZ=             -0.0165   YZ=             -0.0787
 Octapole moment (field-independent basis, Debye-Ang**2):
  XXX=             -0.7608  YYY=             -0.0754  ZZZ=              0.0084  XYY=             -0.1546
  XXY=              0.0050  XXZ=             -0.1419  XZZ=              0.5838  YZZ=              0.0434
  YYZ=              0.1228  XYZ=             -1.0557
 Hexadecapole moment (field-independent basis, Debye-Ang**3):
 XXXX=           -253.6535 YYYY=           -252.8030 ZZZZ=            -79.8477 XXXY=              0.2420
 XXXZ=             -0.1699 YYYX=             -0.2540 YYYZ=             -2.1733 ZZZX=              0.0786
 ZZZY=              0.3802 XXYY=            -83.1150 XXZZ=            -53.4905 YYZZ=            -53.7133
 XXYZ=              0.7251 YYXZ=             -0.1291 ZZXY=              0.0158
 N-N= 1.891004915450D+02 E-N=-8.328123200434D+02  KE= 1.955630804975D+02
 R6APFD:  NTU= -4 IXU= 1 FactS= 1.050
 Calling FoFJK, ICntrl=      2127 FMM=F ISym2X=0 I1Cent= 0 IOpClX= 0 NMat=1 NMatS=1 NMatT=0.
 ***** Axes restored to original set *****
 -------------------------------------------------------------------
 Center     Atomic                   Forces (Hartrees/Bohr)
 Number     Number              X              Y              Z
 -------------------------------------------------------------------
      1        6          -0.006592463   -0.004182089   -0.001648083
      2        6          -0.006458564    0.005044630    0.001201053
      3        6           0.000798360   -0.010365841   -0.001277985
      4        6           0.002179054    0.010788325    0.001561087
      5        6           0.013042840   -0.001036950    0.000226695
      6        1          -0.000906532    0.000552609    0.002537473
      7        1          -0.002825536   -0.002016528    0.001760762
      8        1          -0.001264642   -0.000610924   -0.002363641
      9        1          -0.002422141    0.002276848   -0.001726792
     10        1           0.000588340   -0.002891391   -0.001191161
     11        1          -0.001274862   -0.001843432   -0.001149802
     12        1           0.000823078    0.002753941    0.001077895
     13        1          -0.000829649    0.002139600    0.000770065
     14        1           0.002527670   -0.000501008   -0.000391698
     15        1           0.002615048   -0.000107791    0.000614131
 -------------------------------------------------------------------
 Cartesian Forces:  Max     0.013042840 RMS     0.003732410

 GradGradGradGradGradGradGradGradGradGradGradGradGradGradGradGradGradGrad
 Berny optimization.
 FormGI is forming the generalized inverse of G from B-inverse, IUseBI=4.
 Internal  Forces:  Max     0.015005914 RMS     0.003095534
 Search for a local minimum.
 Step number   1 out of a maximum of  100
 All quantities printed in internal units (Hartrees-Bohrs-Radians)
 Mixed Optimization -- RFO/linear search
 Second derivative matrix not updated -- first step.
 ITU=  0
     Eigenvalues ---    0.00448   0.00672   0.02165   0.02183   0.04239
     Eigenvalues ---    0.04356   0.04548   0.04929   0.05205   0.05287
     Eigenvalues ---    0.05628   0.05749   0.06226   0.06877   0.06918
     Eigenvalues ---    0.07176   0.07223   0.07332   0.08802   0.08814
     Eigenvalues ---    0.11107   0.11345   0.20291   0.20655   0.27713
     Eigenvalues ---    0.27784   0.29217   0.29855   0.30102   0.34055
     Eigenvalues ---    0.34060   0.34079   0.34089   0.34188   0.34210
     Eigenvalues ---    0.34335   0.34350   0.34383   0.34406
 RFO step:  Lambda=-3.48046389D-03 EMin= 4.47871453D-03
 Linear search not attempted -- first point.
 Iteration  1 RMS(Cart)=  0.02348300 RMS(Int)=  0.00019874
 Iteration  2 RMS(Cart)=  0.00020994 RMS(Int)=  0.00002723
 Iteration  3 RMS(Cart)=  0.00000001 RMS(Int)=  0.00002723
 Variable       Old X    -DE/DX   Delta X   Delta X   Delta X     New X
                                 (Linear)    (Quad)   (Total)
    R1        2.86976   0.00987   0.00000   0.03104   0.03102   2.90078
    R2        2.87347   0.01085   0.00000   0.03491   0.03490   2.90837
    R3        2.07179   0.00260   0.00000   0.00756   0.00756   2.07935
    R4        2.06651   0.00243   0.00000   0.00699   0.00699   2.07350
    R5        2.87516   0.01136   0.00000   0.03692   0.03692   2.91208
    R6        2.07197   0.00248   0.00000   0.00719   0.00719   2.07916
    R7        2.06688   0.00226   0.00000   0.00652   0.00652   2.07340
    R8        2.88588   0.01450   0.00000   0.04903   0.04904   2.93492
    R9        2.06744   0.00179   0.00000   0.00517   0.00517   2.07261
   R10        2.07229   0.00166   0.00000   0.00483   0.00483   2.07711
   R11        2.88820   0.01501   0.00000   0.05108   0.05109   2.93929
   R12        2.06769   0.00166   0.00000   0.00480   0.00480   2.07249
   R13        2.07238   0.00142   0.00000   0.00412   0.00412   2.07650
   R14        2.07013   0.00116   0.00000   0.00335   0.00335   2.07348
   R15        2.06977   0.00114   0.00000   0.00330   0.00330   2.07307
    A1        1.79928   0.00095   0.00000  -0.00010  -0.00020   1.79908
    A2        1.92519  -0.00098   0.00000  -0.01088  -0.01085   1.91434
    A3        1.96318   0.00059   0.00000   0.01417   0.01411   1.97730
    A4        1.92388   0.00036   0.00000   0.00218   0.00218   1.92606
    A5        1.96111  -0.00017   0.00000   0.00965   0.00956   1.97067
    A6        1.89051  -0.00071   0.00000  -0.01441  -0.01436   1.87614
    A7        1.80414   0.00081   0.00000  -0.00053  -0.00061   1.80353
    A8        1.92390  -0.00115   0.00000  -0.01256  -0.01253   1.91137
    A9        1.96358   0.00073   0.00000   0.01443   0.01439   1.97797
   A10        1.92195   0.00065   0.00000   0.00505   0.00504   1.92699
   A11        1.96073  -0.00025   0.00000   0.00870   0.00861   1.96934
   A12        1.88896  -0.00074   0.00000  -0.01453  -0.01448   1.87448
   A13        1.83571  -0.00004   0.00000  -0.00260  -0.00259   1.83311
   A14        1.95896   0.00076   0.00000   0.00986   0.00983   1.96879
   A15        1.91781  -0.00103   0.00000  -0.01114  -0.01112   1.90669
   A16        1.95915   0.00001   0.00000   0.00787   0.00783   1.96698
   A17        1.91283   0.00134   0.00000   0.01285   0.01283   1.92567
   A18        1.87933  -0.00101   0.00000  -0.01635  -0.01636   1.86296
   A19        1.84157  -0.00027   0.00000  -0.00306  -0.00304   1.83853
   A20        1.95554   0.00074   0.00000   0.00876   0.00872   1.96426
   A21        1.91889  -0.00083   0.00000  -0.00924  -0.00923   1.90966
   A22        1.95801   0.00016   0.00000   0.00807   0.00803   1.96604
   A23        1.91245   0.00136   0.00000   0.01322   0.01321   1.92566
   A24        1.87750  -0.00111   0.00000  -0.01722  -0.01723   1.86026
   A25        1.85583  -0.00128   0.00000  -0.00587  -0.00583   1.85000
   A26        1.93820   0.00029   0.00000   0.00299   0.00299   1.94119
   A27        1.92970   0.00099   0.00000   0.00891   0.00890   1.93860
   A28        1.92440   0.00111   0.00000   0.01018   0.01017   1.93458
   A29        1.94306   0.00045   0.00000   0.00530   0.00529   1.94835
   A30        1.87363  -0.00151   0.00000  -0.02076  -0.02074   1.85289
    D1       -0.71549  -0.00032   0.00000  -0.01630  -0.01628  -0.73176
    D2        1.33827   0.00035   0.00000  -0.01652  -0.01649   1.32178
    D3       -2.83477  -0.00091   0.00000  -0.03413  -0.03415  -2.86892
    D4        1.33847   0.00017   0.00000  -0.01880  -0.01877   1.31970
    D5       -2.89095   0.00084   0.00000  -0.01902  -0.01899  -2.90994
    D6       -0.78081  -0.00042   0.00000  -0.03663  -0.03664  -0.81746
    D7       -2.83196  -0.00102   0.00000  -0.03526  -0.03528  -2.86724
    D8       -0.77820  -0.00035   0.00000  -0.03548  -0.03550  -0.81369
    D9        1.33194  -0.00161   0.00000  -0.05309  -0.05315   1.27879
   D10        0.60233  -0.00006   0.00000   0.01268   0.01266   0.61499
   D11        2.73743   0.00037   0.00000   0.02634   0.02634   2.76376
   D12       -1.45512  -0.00111   0.00000   0.00458   0.00456  -1.45056
   D13       -1.45255   0.00039   0.00000   0.02435   0.02435  -1.42821
   D14        0.68254   0.00082   0.00000   0.03802   0.03803   0.72057
   D15        2.77318  -0.00066   0.00000   0.01625   0.01625   2.78943
   D16        2.72021   0.00115   0.00000   0.03468   0.03469   2.75490
   D17       -1.42788   0.00158   0.00000   0.04835   0.04837  -1.37951
   D18        0.66276   0.00010   0.00000   0.02658   0.02659   0.68935
   D19        0.55595  -0.00018   0.00000   0.01073   0.01070   0.56666
   D20        2.69149   0.00027   0.00000   0.02375   0.02374   2.71523
   D21       -1.50486  -0.00121   0.00000   0.00155   0.00153  -1.50333
   D22       -1.49918   0.00042   0.00000   0.02326   0.02326  -1.47592
   D23        0.63636   0.00087   0.00000   0.03628   0.03629   0.67266
   D24        2.72320  -0.00061   0.00000   0.01408   0.01408   2.73728
   D25        2.67715   0.00108   0.00000   0.03240   0.03240   2.70956
   D26       -1.47049   0.00153   0.00000   0.04543   0.04544  -1.42505
   D27        0.61635   0.00005   0.00000   0.02322   0.02323   0.63957
   D28       -0.25884   0.00026   0.00000  -0.00486  -0.00485  -0.26369
   D29        1.83489   0.00098   0.00000   0.00552   0.00554   1.84043
   D30       -2.37034  -0.00007   0.00000  -0.01272  -0.01271  -2.38305
   D31       -2.39381  -0.00066   0.00000  -0.01981  -0.01981  -2.41362
   D32       -0.30008   0.00006   0.00000  -0.00942  -0.00942  -0.30950
   D33        1.77788  -0.00099   0.00000  -0.02767  -0.02767   1.75020
   D34        1.80197  -0.00030   0.00000  -0.01295  -0.01296   1.78901
   D35       -2.38748   0.00043   0.00000  -0.00257  -0.00257  -2.39005
   D36       -0.30953  -0.00063   0.00000  -0.02081  -0.02082  -0.33035
   D37       -0.18373   0.00020   0.00000  -0.00270  -0.00269  -0.18641
   D38       -2.28639  -0.00001   0.00000  -0.00844  -0.00843  -2.29482
   D39        1.91918   0.00087   0.00000   0.00747   0.00749   1.92666
   D40       -2.31768  -0.00062   0.00000  -0.01617  -0.01618  -2.33385
   D41        1.86285  -0.00083   0.00000  -0.02192  -0.02192   1.84093
   D42       -0.21478   0.00005   0.00000  -0.00600  -0.00600  -0.22077
   D43        1.88139  -0.00024   0.00000  -0.00856  -0.00857   1.87282
   D44       -0.22127  -0.00045   0.00000  -0.01430  -0.01432  -0.23559
   D45       -2.29889   0.00042   0.00000   0.00161   0.00161  -2.29729
         Item               Value     Threshold  Converged?
 Maximum Force            0.015006     0.000450     NO 
 RMS     Force            0.003096     0.000300     NO 
 Maximum Displacement     0.068225     0.001800     NO 
 RMS     Displacement     0.023443     0.001200     NO 
 Predicted change in Energy=-1.808197D-03
 GradGradGradGradGradGradGradGradGradGradGradGradGradGradGradGradGradGrad

                          Input orientation:                          
 ---------------------------------------------------------------------
 Center     Atomic      Atomic             Coordinates (Angstroms)
 Number     Number       Type             X           Y           Z
 ---------------------------------------------------------------------
      1          6           0       -1.065213   -0.663944    0.250468
      2          6           0       -0.981759    0.787841   -0.241119
      3          6           0        0.297021   -1.249949   -0.161329
      4          6           0        0.451101    1.209633    0.137963
      5          6           0        1.306981   -0.083199    0.014082
      6          1           0       -1.173053   -0.678860    1.345414
      7          1           0       -1.913467   -1.216991   -0.172097
      8          1           0       -1.113234    0.814213   -1.333164
      9          1           0       -1.747614    1.439767    0.197393
     10          1           0        0.571153   -2.138152    0.420792
     11          1           0        0.253618   -1.562473   -1.214230
     12          1           0        0.828230    2.027325   -0.488083
     13          1           0        0.461853    1.576873    1.173558
     14          1           0        1.928684   -0.226855    0.906709
     15          1           0        1.999500   -0.029927   -0.835055
 ---------------------------------------------------------------------
                    Distance matrix (angstroms):
                    1          2          3          4          5
     1  C    0.000000
     2  C    1.535025   0.000000
     3  C    1.539046   2.407121   0.000000
     4  C    2.412915   1.541006   2.482511   0.000000
     5  C    2.453660   2.462147   1.553091   1.555408   0.000000
     6  H    1.100345   2.169077   2.181177   2.768072   2.877120
     7  H    1.097249   2.211831   2.210760   3.402327   3.419274
     8  H    2.166828   1.100247   2.760938   2.183510   2.911677
     9  H    2.212258   1.097194   3.397614   2.211525   3.418125
    10  H    2.209071   3.378031   1.096776   3.361855   2.220289
    11  H    2.166105   2.827910   1.099162   3.090631   2.192390
    12  H    3.372464   2.207571   3.336086   1.096712   2.221640
    13  H    2.864488   2.169769   3.130497   1.098834   2.194189
    14  H    3.095984   3.289041   2.202214   2.199482   1.097239
    15  H    3.312522   3.147921   2.200180   2.209256   1.097021
                    6          7          8          9         10
     6  H    0.000000
     7  H    1.772184   0.000000
     8  H    3.067185   2.472699   0.000000
     9  H    2.477227   2.687451   1.770977   0.000000
    10  H    2.454936   2.715399   3.824915   4.269436   0.000000
    11  H    3.060708   2.429332   2.744279   3.874410   1.762252
    12  H    3.832790   4.259382   2.440305   2.729482   4.271222
    13  H    2.791198   3.906227   3.057156   2.419389   3.792099
    14  H    3.165050   4.111729   3.918433   4.098283   2.394172
    15  H    3.903927   4.142456   3.263403   4.155335   2.839355
                   11         12         13         14         15
    11  H    0.000000
    12  H    3.707306   0.000000
    13  H    3.949733   1.760166   0.000000
    14  H    3.014648   2.870151   2.340136   0.000000
    15  H    2.353843   2.392603   2.996780   1.754291   0.000000
 Stoichiometry    C5H10
 Framework group  C1[X(C5H10)]
 Deg. of freedom    39
 Full point group                 C1      NOp   1
 Largest Abelian subgroup         C1      NOp   1
 Largest concise Abelian subgroup C1      NOp   1
                         Standard orientation:                         
 ---------------------------------------------------------------------
 Center     Atomic      Atomic             Coordinates (Angstroms)
 Number     Number       Type             X           Y           Z
 ---------------------------------------------------------------------
      1          6           0       -0.821476   -0.951485    0.256935
      2          6           0       -1.175677    0.455195   -0.245157
      3          6           0        0.653890   -1.106344   -0.152912
      4          6           0        0.065287    1.288900    0.128532
      5          6           0        1.268660    0.310269    0.012484
      6          1           0       -0.920536   -0.989952    1.352136
      7          1           0       -1.465310   -1.735947   -0.160262
      8          1           0       -1.308410    0.433056   -1.337144
      9          1           0       -2.101678    0.851480    0.189948
     10          1           0        1.180743   -1.867656    0.435092
     11          1           0        0.706515   -1.425244   -1.203478
     12          1           0        0.181005    2.177344   -0.503967
     13          1           0       -0.034847    1.650120    1.161455
     14          1           0        1.904373    0.365621    0.905086
     15          1           0        1.914041    0.561964   -0.838155
 ---------------------------------------------------------------------
 Rotational constants (GHZ):           6.4700181           6.4654887           3.7359100
 Standard basis: 6-311++G(d,p) (5D, 7F)
 There are   185 symmetry adapted cartesian basis functions of A   symmetry.
 There are   180 symmetry adapted basis functions of A   symmetry.
   180 basis functions,   270 primitive gaussians,   185 cartesian basis functions
    20 alpha electrons       20 beta electrons
       nuclear repulsion energy       187.0435400480 Hartrees.
 NAtoms=   15 NActive=   15 NUniq=   15 SFac= 1.00D+00 NAtFMM=   60 NAOKFM=F Big=F
 Integral buffers will be    131072 words long.
 Raffenetti 2 integral format.
 Two-electron integral symmetry is turned on.
 R6APFD:  NTU= -4 IXU= 1 FactS= 1.050
 Nuclear repulsion after empirical dispersion term =      187.0359834581 Hartrees.
 One-electron integrals computed using PRISM.
 NBasis=   180 RedAO= T EigKep=  1.17D-05  NBF=   180
 NBsUse=   180 1.00D-06 EigRej= -1.00D+00 NBFU=   180
 Initial guess from the checkpoint file:  "CPEE0096.chk"
 B after Tr=    -0.000000   -0.000000    0.000000
         Rot=    0.990399    0.001598   -0.000116   -0.138232 Ang=  15.89 deg.
 ExpMin= 3.60D-02 ExpMax= 4.56D+03 ExpMxC= 6.82D+02 IAcc=3 IRadAn=         5 AccDes= 0.00D+00
 Harris functional with IExCor= 1009 and IRadAn=       5 diagonalized for initial guess.
 HarFok:  IExCor= 1009 AccDes= 0.00D+00 IRadAn=         5 IDoV= 1 UseB2=F ITyADJ=14
 ICtDFT=  3500011 ScaDFX=  1.000000  1.000000  1.000000  1.000000
 FoFCou: FMM=F IPFlag=           0 FMFlag=      100000 FMFlg1=           0
         NFxFlg=           0 DoJE=T BraDBF=F KetDBF=T FulRan=T
         wScrn=  0.000000 ICntrl=       500 IOpCl=  0 I1Cent=   200000004 NGrid=           0
         NMat0=    1 NMatS0=      1 NMatT0=    0 NMatD0=    1 NMtDS0=    0 NMtDT0=    0
 Petite list used in FoFCou.
 Requested convergence on RMS density matrix=1.00D-08 within  32 cycles.
 Requested convergence on MAX density matrix=1.00D-06.
 Requested convergence on             energy=1.00D-06.
 No special actions if energy rises.
 SCF Done:  E(RM08HX) =  -196.567549952     A.U. after    9 cycles
            NFock=  9  Conv=0.27D-08     -V/T= 2.0063
 QCSCF skips out because SCF is already converged.
 R6APFD:  NTU= -4 IXU= 1 FactS= 1.050
 Calling FoFJK, ICntrl=      2127 FMM=F ISym2X=0 I1Cent= 0 IOpClX= 0 NMat=1 NMatS=1 NMatT=0.
 ***** Axes restored to original set *****
 -------------------------------------------------------------------
 Center     Atomic                   Forces (Hartrees/Bohr)
 Number     Number              X              Y              Z
 -------------------------------------------------------------------
      1        6           0.000547329    0.000437884   -0.000706290
      2        6           0.000575971   -0.000502565    0.000678187
      3        6          -0.000508124    0.000674816    0.000546964
      4        6          -0.000530391   -0.000623267   -0.000443739
      5        6          -0.000611290    0.000038899   -0.000068880
      6        1           0.000526964    0.000222949    0.000264787
      7        1           0.000119688    0.000022155    0.000499186
      8        1           0.000527465   -0.000262059   -0.000254341
      9        1           0.000136012   -0.000045102   -0.000442818
     10        1           0.000076455    0.000224190   -0.000119699
     11        1           0.000108989    0.000695649   -0.000182237
     12        1           0.000030255   -0.000277328    0.000042835
     13        1          -0.000007267   -0.000709779    0.000172298
     14        1          -0.000531905   -0.000017870    0.000133599
     15        1          -0.000460151    0.000121428   -0.000119852
 -------------------------------------------------------------------
 Cartesian Forces:  Max     0.000709779 RMS     0.000403817

 GradGradGradGradGradGradGradGradGradGradGradGradGradGradGradGradGradGrad
 Berny optimization.
 Using GEDIIS/GDIIS optimizer.
 FormGI is forming the generalized inverse of G from B-inverse, IUseBI=4.
 Internal  Forces:  Max     0.001564693 RMS     0.000351681
 Search for a local minimum.
 Step number   2 out of a maximum of  100
 All quantities printed in internal units (Hartrees-Bohrs-Radians)
 Mixed Optimization -- En-DIIS/RFO-DIIS
 Update second derivatives using D2CorX and points    1    2
 DE= -1.61D-03 DEPred=-1.81D-03 R= 8.91D-01
 TightC=F SS=  1.41D+00  RLast= 1.96D-01 DXNew= 5.0454D-01 5.8824D-01
 Trust test= 8.91D-01 RLast= 1.96D-01 DXMaxT set to 5.05D-01
 ITU=  1  0
 Use linear search instead of GDIIS.
     Eigenvalues ---    0.00449   0.00650   0.02144   0.02164   0.04194
     Eigenvalues ---    0.04297   0.04534   0.04898   0.05206   0.05292
     Eigenvalues ---    0.05662   0.05744   0.06306   0.06908   0.06956
     Eigenvalues ---    0.07199   0.07280   0.07325   0.08821   0.08833
     Eigenvalues ---    0.11133   0.11304   0.20198   0.20586   0.27792
     Eigenvalues ---    0.27864   0.29202   0.29858   0.32893   0.33999
     Eigenvalues ---    0.34057   0.34071   0.34085   0.34196   0.34228
     Eigenvalues ---    0.34340   0.34361   0.34395   0.34711
 RFO step:  Lambda=-1.63069720D-04 EMin= 4.49323167D-03
 Quartic linear search produced a step of -0.05639.
 Iteration  1 RMS(Cart)=  0.01498202 RMS(Int)=  0.00012057
 Iteration  2 RMS(Cart)=  0.00014254 RMS(Int)=  0.00003189
 Iteration  3 RMS(Cart)=  0.00000001 RMS(Int)=  0.00003189
 Variable       Old X    -DE/DX   Delta X   Delta X   Delta X     New X
                                 (Linear)    (Quad)   (Total)
    R1        2.90078  -0.00096  -0.00175  -0.00133  -0.00311   2.89767
    R2        2.90837  -0.00119  -0.00197  -0.00111  -0.00309   2.90528
    R3        2.07935   0.00021  -0.00043   0.00121   0.00079   2.08014
    R4        2.07350  -0.00029  -0.00039  -0.00021  -0.00061   2.07290
    R5        2.91208  -0.00128  -0.00208  -0.00106  -0.00315   2.90893
    R6        2.07916   0.00018  -0.00041   0.00112   0.00071   2.07987
    R7        2.07340  -0.00030  -0.00037  -0.00026  -0.00063   2.07277
    R8        2.93492  -0.00148  -0.00277   0.00023  -0.00252   2.93240
    R9        2.07261  -0.00023  -0.00029  -0.00018  -0.00048   2.07213
   R10        2.07711  -0.00003  -0.00027   0.00034   0.00007   2.07718
   R11        2.93929  -0.00156  -0.00288   0.00025  -0.00260   2.93669
   R12        2.07249  -0.00022  -0.00027  -0.00020  -0.00047   2.07201
   R13        2.07650  -0.00007  -0.00023   0.00015  -0.00008   2.07642
   R14        2.07348  -0.00019  -0.00019  -0.00024  -0.00043   2.07305
   R15        2.07307  -0.00019  -0.00019  -0.00025  -0.00043   2.07263
    A1        1.79908  -0.00020   0.00001  -0.00724  -0.00737   1.79171
    A2        1.91434   0.00009   0.00061  -0.00032   0.00031   1.91465
    A3        1.97730   0.00008  -0.00080   0.00422   0.00348   1.98078
    A4        1.92606  -0.00001  -0.00012  -0.00035  -0.00045   1.92561
    A5        1.97067   0.00001  -0.00054   0.00257   0.00210   1.97277
    A6        1.87614   0.00002   0.00081   0.00084   0.00162   1.87776
    A7        1.80353  -0.00014   0.00003  -0.00672  -0.00682   1.79671
    A8        1.91137   0.00010   0.00071  -0.00036   0.00036   1.91174
    A9        1.97797   0.00005  -0.00081   0.00400   0.00324   1.98121
   A10        1.92699  -0.00004  -0.00028  -0.00037  -0.00063   1.92636
   A11        1.96934  -0.00002  -0.00049   0.00212   0.00169   1.97104
   A12        1.87448   0.00005   0.00082   0.00109   0.00187   1.87635
   A13        1.83311   0.00002   0.00015  -0.00395  -0.00389   1.82922
   A14        1.96879   0.00007  -0.00055   0.00321   0.00269   1.97147
   A15        1.90669   0.00004   0.00063  -0.00050   0.00014   1.90683
   A16        1.96698  -0.00019  -0.00044   0.00020  -0.00020   1.96678
   A17        1.92567  -0.00015  -0.00072  -0.00151  -0.00222   1.92345
   A18        1.86296   0.00020   0.00092   0.00239   0.00329   1.86626
   A19        1.83853   0.00005   0.00017  -0.00355  -0.00346   1.83507
   A20        1.96426   0.00006  -0.00049   0.00266   0.00219   1.96646
   A21        1.90966  -0.00000   0.00052  -0.00067  -0.00014   1.90952
   A22        1.96604  -0.00021  -0.00045  -0.00004  -0.00045   1.96559
   A23        1.92566  -0.00013  -0.00074  -0.00130  -0.00203   1.92363
   A24        1.86026   0.00023   0.00097   0.00276   0.00371   1.86398
   A25        1.85000   0.00004   0.00033  -0.00271  -0.00244   1.84756
   A26        1.94119  -0.00020  -0.00017  -0.00130  -0.00145   1.93974
   A27        1.93860   0.00006  -0.00050   0.00130   0.00081   1.93941
   A28        1.93458   0.00003  -0.00057   0.00070   0.00014   1.93472
   A29        1.94835  -0.00022  -0.00030  -0.00106  -0.00134   1.94702
   A30        1.85289   0.00027   0.00117   0.00304   0.00420   1.85709
    D1       -0.73176  -0.00020   0.00092  -0.02783  -0.02689  -0.75866
    D2        1.32178  -0.00028   0.00093  -0.03195  -0.03102   1.29076
    D3       -2.86892  -0.00011   0.00193  -0.02819  -0.02624  -2.89516
    D4        1.31970  -0.00027   0.00106  -0.03217  -0.03112   1.28858
    D5       -2.90994  -0.00035   0.00107  -0.03629  -0.03525  -2.94518
    D6       -0.81746  -0.00019   0.00207  -0.03253  -0.03046  -0.84792
    D7       -2.86724  -0.00013   0.00199  -0.02852  -0.02651  -2.89375
    D8       -0.81369  -0.00021   0.00200  -0.03264  -0.03064  -0.84433
    D9        1.27879  -0.00004   0.00300  -0.02888  -0.02585   1.25294
   D10        0.61499   0.00020  -0.00071   0.02318   0.02245   0.63743
   D11        2.76376   0.00003  -0.00149   0.02265   0.02115   2.78491
   D12       -1.45056   0.00035  -0.00026   0.02732   0.02706  -1.42350
   D13       -1.42821   0.00020  -0.00137   0.02758   0.02621  -1.40200
   D14        0.72057   0.00003  -0.00214   0.02706   0.02491   0.74548
   D15        2.78943   0.00035  -0.00092   0.03172   0.03083   2.82026
   D16        2.75490   0.00018  -0.00196   0.02500   0.02303   2.77793
   D17       -1.37951   0.00001  -0.00273   0.02448   0.02173  -1.35778
   D18        0.68935   0.00033  -0.00150   0.02915   0.02765   0.71700
   D19        0.56666   0.00022  -0.00060   0.02181   0.02119   0.58784
   D20        2.71523   0.00002  -0.00134   0.02096   0.01961   2.73484
   D21       -1.50333   0.00035  -0.00009   0.02562   0.02554  -1.47779
   D22       -1.47592   0.00020  -0.00131   0.02601   0.02471  -1.45121
   D23        0.67266   0.00001  -0.00205   0.02517   0.02312   0.69578
   D24        2.73728   0.00033  -0.00079   0.02983   0.02906   2.76634
   D25        2.70956   0.00018  -0.00183   0.02345   0.02161   2.73117
   D26       -1.42505  -0.00001  -0.00256   0.02261   0.02003  -1.40502
   D27        0.63957   0.00031  -0.00131   0.02727   0.02596   0.66553
   D28       -0.26369  -0.00012   0.00027  -0.00969  -0.00941  -0.27309
   D29        1.84043  -0.00016  -0.00031  -0.01125  -0.01156   1.82888
   D30       -2.38305   0.00008   0.00072  -0.00745  -0.00672  -2.38976
   D31       -2.41362  -0.00011   0.00112  -0.01111  -0.00998  -2.42360
   D32       -0.30950  -0.00016   0.00053  -0.01267  -0.01213  -0.32163
   D33        1.75020   0.00009   0.00156  -0.00886  -0.00729   1.74291
   D34        1.78901  -0.00014   0.00073  -0.01323  -0.01250   1.77651
   D35       -2.39005  -0.00018   0.00015  -0.01479  -0.01465  -2.40470
   D36       -0.33035   0.00007   0.00117  -0.01098  -0.00981  -0.34016
   D37       -0.18641  -0.00010   0.00015  -0.00745  -0.00729  -0.19370
   D38       -2.29482   0.00010   0.00048  -0.00460  -0.00412  -2.29894
   D39        1.92666  -0.00012  -0.00042  -0.00819  -0.00861   1.91805
   D40       -2.33385  -0.00008   0.00091  -0.00832  -0.00740  -2.34125
   D41        1.84093   0.00012   0.00124  -0.00547  -0.00423   1.83670
   D42       -0.22077  -0.00010   0.00034  -0.00906  -0.00872  -0.22950
   D43        1.87282  -0.00014   0.00048  -0.01090  -0.01042   1.86241
   D44       -0.23559   0.00005   0.00081  -0.00805  -0.00725  -0.24283
   D45       -2.29729  -0.00016  -0.00009  -0.01164  -0.01174  -2.30903
         Item               Value     Threshold  Converged?
 Maximum Force            0.001565     0.000450     NO 
 RMS     Force            0.000352     0.000300     NO 
 Maximum Displacement     0.056993     0.001800     NO 
 RMS     Displacement     0.015020     0.001200     NO 
 Predicted change in Energy=-9.318908D-05
 GradGradGradGradGradGradGradGradGradGradGradGradGradGradGradGradGradGrad

                          Input orientation:                          
 ---------------------------------------------------------------------
 Center     Atomic      Atomic             Coordinates (Angstroms)
 Number     Number       Type             X           Y           Z
 ---------------------------------------------------------------------
      1          6           0       -1.061853   -0.660134    0.260071
      2          6           0       -0.979089    0.783407   -0.250419
      3          6           0        0.293522   -1.246746   -0.167099
      4          6           0        0.447563    1.207008    0.143012
      5          6           0        1.304117   -0.083259    0.014423
      6          1           0       -1.150310   -0.661230    1.357272
      7          1           0       -1.916679   -1.217730   -0.141938
      8          1           0       -1.093735    0.793819   -1.345004
      9          1           0       -1.750889    1.440656    0.168453
     10          1           0        0.571325   -2.141111    0.403252
     11          1           0        0.242814   -1.544143   -1.224085
     12          1           0        0.829202    2.029706   -0.473225
     13          1           0        0.449368    1.561887    1.182916
     14          1           0        1.922446   -0.232150    0.908257
     15          1           0        1.995999   -0.024681   -0.834587
 ---------------------------------------------------------------------
                    Distance matrix (angstroms):
                    1          2          3          4          5
     1  C    0.000000
     2  C    1.533382   0.000000
     3  C    1.537409   2.397499   0.000000
     4  C    2.403801   1.539338   2.478065   0.000000
     5  C    2.447639   2.456477   1.551759   1.554030   0.000000
     6  H    1.100762   2.168171   2.179722   2.741887   2.856835
     7  H    1.096929   2.212554   2.210535   3.398558   3.418333
     8  H    2.165933   1.100622   2.734200   2.181861   2.892577
     9  H    2.212800   1.096861   3.393278   2.210979   3.417470
    10  H    2.209313   3.374001   1.096524   3.360498   2.218767
    11  H    2.164797   2.803313   1.099198   3.078914   2.189623
    12  H    3.368835   2.207447   3.334037   1.096461   2.219902
    13  H    2.841269   2.168173   3.120136   1.098792   2.191456
    14  H    3.083724   3.285238   2.199816   2.198193   1.097013
    15  H    3.309461   3.137739   2.199411   2.206900   1.096791
                    6          7          8          9         10
     6  H    0.000000
     7  H    1.773314   0.000000
     8  H    3.069637   2.484137   0.000000
     9  H    2.488355   2.681575   1.772230   0.000000
    10  H    2.462566   2.709249   3.800348   4.275145   0.000000
    11  H    3.063289   2.437417   2.695747   3.850070   1.764233
    12  H    3.809242   4.265613   2.446447   2.723160   4.269711
    13  H    2.744380   3.883258   3.059654   2.425895   3.786152
    14  H    3.134893   4.100385   3.902198   4.103532   2.392632
    15  H    3.886991   4.148756   3.236808   4.146380   2.835704
                   11         12         13         14         15
    11  H    0.000000
    12  H    3.698654   0.000000
    13  H    3.934939   1.762365   0.000000
    14  H    3.014858   2.866996   2.337513   0.000000
    15  H    2.352473   2.390084   2.996596   1.756690   0.000000
 Stoichiometry    C5H10
 Framework group  C1[X(C5H10)]
 Deg. of freedom    39
 Full point group                 C1      NOp   1
 Largest Abelian subgroup         C1      NOp   1
 Largest concise Abelian subgroup C1      NOp   1
                         Standard orientation:                         
 ---------------------------------------------------------------------
 Center     Atomic      Atomic             Coordinates (Angstroms)
 Number     Number       Type             X           Y           Z
 ---------------------------------------------------------------------
      1          6           0       -0.933806   -0.833459    0.266747
      2          6           0       -1.103568    0.598552   -0.254586
      3          6           0        0.502772   -1.178641   -0.158363
      4          6           0        0.227818    1.266796    0.133261
      5          6           0        1.295676    0.144221    0.012797
      6          1           0       -1.020303   -0.841577    1.364074
      7          1           0       -1.678780   -1.534267   -0.129657
      8          1           0       -1.218698    0.580541   -1.349021
      9          1           0       -1.977754    1.114723    0.160708
     10          1           0        0.932113   -2.006697    0.418138
     11          1           0        0.504156   -1.488355   -1.213025
     12          1           0        0.460316    2.138618   -0.489714
     13          1           0        0.168273    1.624480    1.170499
     14          1           0        1.930821    0.111939    0.906658
     15          1           0        1.966498    0.315776   -0.837801
 ---------------------------------------------------------------------
 Rotational constants (GHZ):           6.4891413           6.4830304           3.7602513
 Standard basis: 6-311++G(d,p) (5D, 7F)
 There are   185 symmetry adapted cartesian basis functions of A   symmetry.
 There are   180 symmetry adapted basis functions of A   symmetry.
   180 basis functions,   270 primitive gaussians,   185 cartesian basis functions
    20 alpha electrons       20 beta electrons
       nuclear repulsion energy       187.3243495512 Hartrees.
 NAtoms=   15 NActive=   15 NUniq=   15 SFac= 1.00D+00 NAtFMM=   60 NAOKFM=F Big=F
 Integral buffers will be    131072 words long.
 Raffenetti 2 integral format.
 Two-electron integral symmetry is turned on.
 R6APFD:  NTU= -4 IXU= 1 FactS= 1.050
 Nuclear repulsion after empirical dispersion term =      187.3167491862 Hartrees.
 One-electron integrals computed using PRISM.
 NBasis=   180 RedAO= T EigKep=  1.15D-05  NBF=   180
 NBsUse=   180 1.00D-06 EigRej= -1.00D+00 NBFU=   180
 Initial guess from the checkpoint file:  "CPEE0096.chk"
 B after Tr=     0.000000    0.000000    0.000000
         Rot=    0.997925    0.000214    0.000011    0.064390 Ang=   7.38 deg.
 ExpMin= 3.60D-02 ExpMax= 4.56D+03 ExpMxC= 6.82D+02 IAcc=3 IRadAn=         5 AccDes= 0.00D+00
 Harris functional with IExCor= 1009 and IRadAn=       5 diagonalized for initial guess.
 HarFok:  IExCor= 1009 AccDes= 0.00D+00 IRadAn=         5 IDoV= 1 UseB2=F ITyADJ=14
 ICtDFT=  3500011 ScaDFX=  1.000000  1.000000  1.000000  1.000000
 FoFCou: FMM=F IPFlag=           0 FMFlag=      100000 FMFlg1=           0
         NFxFlg=           0 DoJE=T BraDBF=F KetDBF=T FulRan=T
         wScrn=  0.000000 ICntrl=       500 IOpCl=  0 I1Cent=   200000004 NGrid=           0
         NMat0=    1 NMatS0=      1 NMatT0=    0 NMatD0=    1 NMtDS0=    0 NMtDT0=    0
 Petite list used in FoFCou.
 Requested convergence on RMS density matrix=1.00D-08 within  32 cycles.
 Requested convergence on MAX density matrix=1.00D-06.
 Requested convergence on             energy=1.00D-06.
 No special actions if energy rises.
 SCF Done:  E(RM08HX) =  -196.567671368     A.U. after    9 cycles
            NFock=  9  Conv=0.16D-08     -V/T= 2.0062
 QCSCF skips out because SCF is already converged.
 R6APFD:  NTU= -4 IXU= 1 FactS= 1.050
 Calling FoFJK, ICntrl=      2127 FMM=F ISym2X=0 I1Cent= 0 IOpClX= 0 NMat=1 NMatS=1 NMatT=0.
 ***** Axes restored to original set *****
 -------------------------------------------------------------------
 Center     Atomic                   Forces (Hartrees/Bohr)
 Number     Number              X              Y              Z
 -------------------------------------------------------------------
      1        6           0.000006083   -0.000217439   -0.001174612
      2        6           0.000033130    0.000204429    0.001114559
      3        6           0.000046408    0.000059084    0.000766208
      4        6          -0.000077603   -0.000059732   -0.000704452
      5        6          -0.000219637   -0.000061863   -0.000059594
      6        1           0.000370701    0.000247681    0.000060342
      7        1          -0.000026873   -0.000053733    0.000321174
      8        1           0.000338054   -0.000281957   -0.000049102
      9        1          -0.000008488    0.000084398   -0.000293881
     10        1           0.000030961   -0.000007365   -0.000171947
     11        1          -0.000114618    0.000362456   -0.000069963
     12        1           0.000014498    0.000007957    0.000146551
     13        1          -0.000142570   -0.000330361    0.000081672
     14        1          -0.000138574    0.000044491    0.000028832
     15        1          -0.000111471    0.000001954    0.000004211
 -------------------------------------------------------------------
 Cartesian Forces:  Max     0.001174612 RMS     0.000327875

 GradGradGradGradGradGradGradGradGradGradGradGradGradGradGradGradGradGrad
 Berny optimization.
 Using GEDIIS/GDIIS optimizer.
 FormGI is forming the generalized inverse of G from B-inverse, IUseBI=4.
 Internal  Forces:  Max     0.000490954 RMS     0.000127374
 Search for a local minimum.
 Step number   3 out of a maximum of  100
 All quantities printed in internal units (Hartrees-Bohrs-Radians)
 Mixed Optimization -- En-DIIS/RFO-DIIS
 Swapping is turned off.
 Update second derivatives using D2CorX and points    1    2    3
 DE= -1.21D-04 DEPred=-9.32D-05 R= 1.30D+00
 TightC=F SS=  1.41D+00  RLast= 1.43D-01 DXNew= 8.4853D-01 4.2909D-01
 Trust test= 1.30D+00 RLast= 1.43D-01 DXMaxT set to 5.05D-01
 ITU=  1  1  0
     Eigenvalues ---    0.00389   0.00451   0.02159   0.02174   0.04216
     Eigenvalues ---    0.04325   0.04788   0.04928   0.05231   0.05275
     Eigenvalues ---    0.05670   0.05771   0.06432   0.06846   0.06891
     Eigenvalues ---    0.07163   0.07294   0.07301   0.08790   0.08808
     Eigenvalues ---    0.11086   0.11238   0.20113   0.20514   0.27759
     Eigenvalues ---    0.27868   0.29108   0.29860   0.31774   0.34032
     Eigenvalues ---    0.34057   0.34066   0.34084   0.34193   0.34214
     Eigenvalues ---    0.34338   0.34355   0.34395   0.34495
 En-DIIS/RFO-DIIS/Sim-DIIS IScMMF=       -3 using points:     3    2
 RFO step:  Lambda=-7.29601334D-05.
 DidBck=F Rises=F RFO-DIIS coefs:    1.88558   -0.88558
 Iteration  1 RMS(Cart)=  0.01250866 RMS(Int)=  0.00010077
 Iteration  2 RMS(Cart)=  0.00010179 RMS(Int)=  0.00003883
 Iteration  3 RMS(Cart)=  0.00000000 RMS(Int)=  0.00003883
 Variable       Old X    -DE/DX   Delta X   Delta X   Delta X     New X
                                 (Linear)    (Quad)   (Total)
    R1        2.89767  -0.00025  -0.00275   0.00126  -0.00152   2.89615
    R2        2.90528  -0.00043  -0.00274   0.00048  -0.00228   2.90301
    R3        2.08014   0.00003   0.00070  -0.00026   0.00044   2.08058
    R4        2.07290  -0.00007  -0.00054   0.00027  -0.00026   2.07263
    R5        2.90893  -0.00049  -0.00279   0.00033  -0.00247   2.90646
    R6        2.07987   0.00001   0.00063  -0.00031   0.00032   2.08019
    R7        2.07277  -0.00006  -0.00056   0.00035  -0.00021   2.07256
    R8        2.93240  -0.00041  -0.00223   0.00107  -0.00113   2.93127
    R9        2.07213  -0.00007  -0.00042   0.00011  -0.00031   2.07182
   R10        2.07718  -0.00003   0.00006  -0.00007  -0.00001   2.07717
   R11        2.93669  -0.00034  -0.00231   0.00166  -0.00062   2.93607
   R12        2.07201  -0.00007  -0.00042   0.00012  -0.00030   2.07171
   R13        2.07642  -0.00003  -0.00007  -0.00000  -0.00007   2.07635
   R14        2.07305  -0.00006  -0.00038   0.00010  -0.00028   2.07277
   R15        2.07263  -0.00007  -0.00038   0.00004  -0.00034   2.07229
    A1        1.79171   0.00005  -0.00653   0.00247  -0.00424   1.78747
    A2        1.91465  -0.00015   0.00027  -0.00461  -0.00433   1.91031
    A3        1.98078   0.00011   0.00308   0.00265   0.00581   1.98659
    A4        1.92561  -0.00011  -0.00040  -0.00315  -0.00355   1.92207
    A5        1.97277   0.00004   0.00186   0.00236   0.00429   1.97706
    A6        1.87776   0.00005   0.00143  -0.00005   0.00136   1.87913
    A7        1.79671   0.00001  -0.00604   0.00193  -0.00429   1.79242
    A8        1.91174  -0.00013   0.00032  -0.00445  -0.00412   1.90762
    A9        1.98121   0.00014   0.00287   0.00317   0.00611   1.98732
   A10        1.92636  -0.00009  -0.00056  -0.00285  -0.00340   1.92296
   A11        1.97104   0.00001   0.00150   0.00192   0.00349   1.97452
   A12        1.87635   0.00005   0.00166  -0.00006   0.00158   1.87793
   A13        1.82922  -0.00000  -0.00345   0.00080  -0.00277   1.82645
   A14        1.97147   0.00009   0.00238   0.00201   0.00443   1.97591
   A15        1.90683  -0.00011   0.00012  -0.00422  -0.00410   1.90273
   A16        1.96678  -0.00001  -0.00018   0.00239   0.00226   1.96904
   A17        1.92345  -0.00004  -0.00196  -0.00059  -0.00256   1.92090
   A18        1.86626   0.00007   0.00292  -0.00063   0.00227   1.86853
   A19        1.83507   0.00002  -0.00306   0.00091  -0.00226   1.83281
   A20        1.96646   0.00007   0.00194   0.00199   0.00396   1.97042
   A21        1.90952  -0.00011  -0.00012  -0.00376  -0.00387   1.90565
   A22        1.96559  -0.00001  -0.00040   0.00250   0.00215   1.96774
   A23        1.92363  -0.00005  -0.00180  -0.00088  -0.00268   1.92095
   A24        1.86398   0.00007   0.00329  -0.00097   0.00230   1.86628
   A25        1.84756   0.00003  -0.00216   0.00072  -0.00151   1.84605
   A26        1.93974  -0.00006  -0.00129   0.00070  -0.00056   1.93917
   A27        1.93941   0.00002   0.00072  -0.00011   0.00062   1.94003
   A28        1.93472  -0.00000   0.00012  -0.00048  -0.00034   1.93438
   A29        1.94702  -0.00006  -0.00118   0.00087  -0.00029   1.94673
   A30        1.85709   0.00006   0.00372  -0.00167   0.00204   1.85913
    D1       -0.75866   0.00011  -0.02382   0.00733  -0.01648  -0.77514
    D2        1.29076  -0.00005  -0.02747   0.00309  -0.02438   1.26637
    D3       -2.89516   0.00001  -0.02324   0.00197  -0.02125  -2.91641
    D4        1.28858  -0.00006  -0.02756   0.00298  -0.02458   1.26400
    D5       -2.94518  -0.00021  -0.03121  -0.00126  -0.03249  -2.97767
    D6       -0.84792  -0.00015  -0.02698  -0.00238  -0.02935  -0.87727
    D7       -2.89375  -0.00002  -0.02348   0.00140  -0.02206  -2.91580
    D8       -0.84433  -0.00018  -0.02713  -0.00284  -0.02996  -0.87429
    D9        1.25294  -0.00012  -0.02289  -0.00396  -0.02683   1.22611
   D10        0.63743  -0.00010   0.01988  -0.00615   0.01371   0.65115
   D11        2.78491  -0.00007   0.01873  -0.00146   0.01726   2.80217
   D12       -1.42350   0.00000   0.02397  -0.00383   0.02013  -1.40337
   D13       -1.40200   0.00009   0.02321  -0.00076   0.02246  -1.37954
   D14        0.74548   0.00013   0.02206   0.00393   0.02600   0.77148
   D15        2.82026   0.00019   0.02730   0.00156   0.02887   2.84913
   D16        2.77793   0.00007   0.02039  -0.00005   0.02032   2.79825
   D17       -1.35778   0.00011   0.01925   0.00464   0.02386  -1.33392
   D18        0.71700   0.00018   0.02448   0.00226   0.02674   0.74373
   D19        0.58784  -0.00011   0.01876  -0.00619   0.01256   0.60040
   D20        2.73484  -0.00007   0.01736  -0.00130   0.01604   2.75088
   D21       -1.47779  -0.00000   0.02262  -0.00378   0.01883  -1.45896
   D22       -1.45121   0.00008   0.02188  -0.00081   0.02107  -1.43014
   D23        0.69578   0.00012   0.02048   0.00407   0.02455   0.72033
   D24        2.76634   0.00019   0.02573   0.00159   0.02734   2.79368
   D25        2.73117   0.00007   0.01914  -0.00002   0.01909   2.75026
   D26       -1.40502   0.00011   0.01774   0.00486   0.02258  -1.38244
   D27        0.66553   0.00018   0.02299   0.00238   0.02536   0.69090
   D28       -0.27309   0.00003  -0.00833   0.00241  -0.00591  -0.27900
   D29        1.82888   0.00002  -0.01024   0.00267  -0.00756   1.82131
   D30       -2.38976   0.00007  -0.00595   0.00096  -0.00497  -2.39474
   D31       -2.42360  -0.00007  -0.00884  -0.00202  -0.01085  -2.43445
   D32       -0.32163  -0.00009  -0.01074  -0.00176  -0.01250  -0.33413
   D33        1.74291  -0.00003  -0.00646  -0.00347  -0.00991   1.73300
   D34        1.77651  -0.00013  -0.01107  -0.00239  -0.01346   1.76305
   D35       -2.40470  -0.00014  -0.01297  -0.00213  -0.01511  -2.41982
   D36       -0.34016  -0.00008  -0.00869  -0.00384  -0.01252  -0.35268
   D37       -0.19370   0.00002  -0.00645   0.00224  -0.00421  -0.19791
   D38       -2.29894   0.00007  -0.00365   0.00122  -0.00242  -2.30136
   D39        1.91805   0.00003  -0.00763   0.00306  -0.00456   1.91349
   D40       -2.34125  -0.00007  -0.00655  -0.00231  -0.00886  -2.35011
   D41        1.83670  -0.00002  -0.00374  -0.00333  -0.00707   1.82963
   D42       -0.22950  -0.00006  -0.00772  -0.00149  -0.00921  -0.23871
   D43        1.86241  -0.00012  -0.00922  -0.00211  -0.01134   1.85106
   D44       -0.24283  -0.00007  -0.00642  -0.00314  -0.00955  -0.25239
   D45       -2.30903  -0.00011  -0.01040  -0.00129  -0.01170  -2.32073
         Item               Value     Threshold  Converged?
 Maximum Force            0.000491     0.000450     NO 
 RMS     Force            0.000127     0.000300     YES
 Maximum Displacement     0.047631     0.001800     NO 
 RMS     Displacement     0.012526     0.001200     NO 
 Predicted change in Energy=-3.705051D-05
 GradGradGradGradGradGradGradGradGradGradGradGradGradGradGradGradGradGrad

                          Input orientation:                          
 ---------------------------------------------------------------------
 Center     Atomic      Atomic             Coordinates (Angstroms)
 Number     Number       Type             X           Y           Z
 ---------------------------------------------------------------------
      1          6           0       -1.059584   -0.657861    0.265894
      2          6           0       -0.977521    0.780717   -0.256173
      3          6           0        0.291142   -1.245158   -0.170623
      4          6           0        0.444941    1.205629    0.145818
      5          6           0        1.302233   -0.083493    0.014658
      6          1           0       -1.130124   -0.645752    1.364558
      7          1           0       -1.920415   -1.219565   -0.116732
      8          1           0       -1.076870    0.776105   -1.352463
      9          1           0       -1.754456    1.443121    0.144392
     10          1           0        0.571439   -2.145937    0.387978
     11          1           0        0.232621   -1.528510   -1.231052
     12          1           0        0.829916    2.034123   -0.460213
     13          1           0        0.437839    1.548994    1.189519
     14          1           0        1.918272   -0.234980    0.909454
     15          1           0        1.994367   -0.022134   -0.833715
 ---------------------------------------------------------------------
                    Distance matrix (angstroms):
                    1          2          3          4          5
     1  C    0.000000
     2  C    1.532578   0.000000
     3  C    1.536205   2.391860   0.000000
     4  C    2.398043   1.538034   2.475914   0.000000
     5  C    2.443603   2.453057   1.551161   1.553702   0.000000
     6  H    1.100993   2.164456   2.176251   2.719149   2.838085
     7  H    1.096789   2.215766   2.212362   3.397854   3.419559
     8  H    2.162322   1.100792   2.711772   2.178358   2.875423
     9  H    2.216244   1.096750   3.392721   2.212183   3.419171
    10  H    2.211223   3.373353   1.096359   3.362683   2.219708
    11  H    2.160711   2.783408   1.099192   3.068610   2.187222
    12  H    3.368118   2.208957   3.335840   1.096304   2.221010
    13  H    2.822333   2.164145   3.111076   1.098755   2.189176
    14  H    3.075813   3.282674   2.198767   2.197544   1.096865
    15  H    3.307552   3.132131   2.199194   2.206266   1.096609
                    6          7          8          9         10
     6  H    0.000000
     7  H    1.774273   0.000000
     8  H    3.067037   2.494253   0.000000
     9  H    2.498397   2.680602   1.773304   0.000000
    10  H    2.469733   2.705962   3.779469   4.283744   0.000000
    11  H    3.061623   2.443916   2.653443   3.830263   1.765580
    12  H    3.788572   4.274201   2.452458   2.719156   4.273071
    13  H    2.702971   3.864269   3.058329   2.430979   3.783230
    14  H    3.109433   4.093652   3.887086   4.109779   2.395340
    15  H    3.870885   4.156131   3.215398   4.142142   2.833337
                   11         12         13         14         15
    11  H    0.000000
    12  H    3.693685   0.000000
    13  H    3.920754   1.763716   0.000000
    14  H    3.016025   2.865194   2.335099   0.000000
    15  H    2.351764   2.392414   2.997449   1.757763   0.000000
 Stoichiometry    C5H10
 Framework group  C1[X(C5H10)]
 Deg. of freedom    39
 Full point group                 C1      NOp   1
 Largest Abelian subgroup         C1      NOp   1
 Largest concise Abelian subgroup C1      NOp   1
                         Standard orientation:                         
 ---------------------------------------------------------------------
 Center     Atomic      Atomic             Coordinates (Angstroms)
 Number     Number       Type             X           Y           Z
 ---------------------------------------------------------------------
      1          6           0       -0.662134   -1.057965    0.272897
      2          6           0       -1.223992    0.264422   -0.260399
      3          6           0        0.809824   -0.990491   -0.161511
      4          6           0       -0.136980    1.277846    0.135738
      5          6           0        1.202375    0.499998    0.012981
      6          1           0       -0.732727   -1.069834    1.371560
      7          1           0       -1.184981   -1.945462   -0.103833
      8          1           0       -1.309082    0.207878   -1.356439
      9          1           0       -2.214520    0.517858    0.136445
     10          1           0        1.458681   -1.670001    0.403515
     11          1           0        0.884593   -1.278670   -1.219616
     12          1           0       -0.157141    2.186464   -0.477359
     13          1           0       -0.297120    1.590684    1.176771
[...]
 ! D40   D(12,4,5,3)          -131.3719         -DE/DX =    0.0                 !
 ! D41   D(12,4,5,14)          108.5892         -DE/DX =    0.0                 !
 ! D42   D(12,4,5,15)           -9.9817         -DE/DX =    0.0                 !
 ! D43   D(13,4,5,3)           109.5149         -DE/DX =    0.0                 !
 ! D44   D(13,4,5,14)          -10.5241         -DE/DX =    0.0                 !
 ! D45   D(13,4,5,15)         -129.095          -DE/DX =    0.0                 !
 --------------------------------------------------------------------------------
 GradGradGradGradGradGradGradGradGradGradGradGradGradGradGradGradGradGrad


 ----------------------------------------------------------------------

 Electric dipole moment (input orientation):
 (Debye = 10**-18 statcoulomb cm , SI units = C m)
                  (au)            (Debye)         (10**-30 SI)
   Tot        0.889805D-02      0.226166D-01      0.754408D-01
   x         -0.888963D-02     -0.225952D-01     -0.753694D-01
   y         -0.386197D-03     -0.981615D-03     -0.327432D-02
   z          0.265155D-04      0.673957D-04      0.224808D-03

 Dipole polarizability, Alpha (input orientation).
 (esu units = cm**3 , SI units = C**2 m**2 J**-1)
 Alpha(0;0):
               (au)            (10**-24 esu)      (10**-40 SI)
   iso        0.574462D+02      0.851265D+01      0.947160D+01
   aniso      0.712491D+01      0.105580D+01      0.117474D+01
   xx         0.598473D+02      0.886845D+01      0.986748D+01
   yx        -0.139020D-01     -0.206007D-02     -0.229213D-02
   yy         0.597874D+02      0.885958D+01      0.985761D+01
   zx         0.488545D-01      0.723949D-02      0.805502D-02
   zy         0.224902D+00      0.333271D-01      0.370813D-01
   zz         0.527038D+02      0.780990D+01      0.868969D+01

 ----------------------------------------------------------------------

 Dipole orientation:
     6          0.54600914         -1.13246844          2.05588146
     6         -0.55639620          1.53141996          1.78002288
     6         -0.21772595         -2.38636810         -0.44849266
     6          0.18088343          2.24963946         -0.93808347
     6          0.04645035         -0.26266954         -2.45160340
     1          2.61858097         -1.01375394          2.19425156
     1         -0.13837791         -2.15299692          3.72499270
     1         -2.62665701          1.44092203          1.96179116
     1          0.13859600          2.87716003          3.19475288
     1          0.91304252         -4.06247969         -0.90064838
     1         -2.19713833         -3.00301407         -0.32074066
     1         -1.02741764          3.73116804         -1.73625725
     1          2.12320824          2.98346896         -0.94695971
     1          1.75379986         -0.52534054         -3.59718338
     1         -1.55388321         -0.27306408         -3.76811896

 Electric dipole moment (dipole orientation):
 (Debye = 10**-18 statcoulomb cm , SI units = C m)
                  (au)            (Debye)         (10**-30 SI)
   Tot        0.889805D-02      0.226166D-01      0.754408D-01
   x          0.000000D+00      0.000000D+00      0.000000D+00
   y          0.000000D+00      0.000000D+00      0.000000D+00
   z          0.889805D-02      0.226166D-01      0.754408D-01

 Dipole polarizability, Alpha (dipole orientation).
 (esu units = cm**3 , SI units = C**2 m**2 J**-1)
 Alpha(0;0):
               (au)            (10**-24 esu)      (10**-40 SI)
   iso        0.574462D+02      0.851265D+01      0.947160D+01
   aniso      0.712491D+01      0.105580D+01      0.117474D+01
   xx         0.526983D+02      0.780908D+01      0.868877D+01
   yx        -0.855147D-01     -0.126720D-01     -0.140995D-01
   yy         0.597947D+02      0.886066D+01      0.985881D+01
   zx        -0.805189D-01     -0.119317D-01     -0.132758D-01
   zy         0.136262D-01      0.201919D-02      0.224666D-02
   zz         0.598455D+02      0.886819D+01      0.986720D+01

 ----------------------------------------------------------------------
 1\1\GINC-PITOMBA\Freq\RM08HX\6-311++G(d,p)\C5H10\VALTER\19-Sep-2025\0\
 \#N Geom=AllCheck Guess=TCheck SCRF=Check GenChk RM08HX/6-311++G(d,p) 
 Freq\\CPEE0096\\0,1\C,-1.059583693,-0.6578609733,0.2658939155\C,-0.977
 5214139,0.7807167142,-0.2561734924\C,0.2911421784,-1.2451579877,-0.170
 6228511\C,0.4449409326,1.2056293634,0.1458182625\C,1.3022330488,-0.083
 492953,0.0146583563\H,-1.1301244226,-0.6457515706,1.364558098\H,-1.920
 4152,-1.2195653674,-0.1167322579\H,-1.0768698125,0.7761051585,-1.35246
 29915\H,-1.7544561937,1.4431214633,0.144391632\H,0.571438632,-2.145936
 5873,0.3879782926\H,0.2326214909,-1.5285099393,-1.2310524818\H,0.82991
 62177,2.0341232718,-0.4602132832\H,0.4378386104,1.5489938879,1.1895194
 497\H,1.9182724601,-0.2349803596,0.9094540207\H,1.9943671647,-0.022134
 121,-0.8337146694\\Version=ES64L-G16RevB.01\State=1-A\HF=-196.5677155\
 RMSD=3.562e-10\RMSF=6.697e-05\ZeroPoint=0.1404732\Thermal=0.1447559\Di
 pole=-0.0088896,-0.0003862,0.0000265\DipoleDeriv=0.0459295,0.0178371,0
 .0321749,0.0185059,0.0256103,0.031392,0.0023759,0.0107765,0.1258591,0.
 0407466,-0.0194056,-0.0250848,-0.0177206,0.0295519,0.037072,0.0051062,
 0.0124648,0.1287907,0.0179342,-0.0007805,0.0272669,-0.0080343,0.056306
 1,-0.0256011,0.0234537,0.0137161,0.1355301,0.0177979,0.0036702,-0.0283
 385,0.0126193,0.0554041,-0.0181104,-0.0250003,0.019078,0.135445,0.0541
 965,-0.0018268,-0.0038826,-0.0052707,0.0120066,-0.0138109,-0.0010961,-
 0.0367561,0.1341879,0.0370002,0.0158669,-0.0035834,0.0164357,0.027891,
 -0.0157137,0.0415793,0.0148319,-0.1695112,-0.110129,-0.0984081,-0.0285
 119,-0.1010748,-0.0236568,-0.0211016,-0.0660704,-0.042693,0.0410793,0.
 0302315,-0.0167403,-0.0037762,-0.0191053,0.0320983,-0.0170578,-0.04574
 21,0.0198466,-0.1681863,-0.0813754,0.1037468,0.026755,0.1084594,-0.050
 5912,-0.0274558,0.0614447,-0.0522633,0.0397966,0.019479,0.0584418,-0.0
 20684,0.0450681,-0.1312216,0.0564741,-0.0285921,0.1025078,0.016031,0.0
 17445,-0.0193548,-0.0138658,-0.013847,0.0215157,-0.0263135,-0.0004417,
 -0.0886257,-0.1467018,0.0048442,-0.0725893,0.0301371,-0.0575341,-0.107
 3702,0.0589496,0.0438543,0.1053786,0.0067186,0.0222246,0.0183087,0.006
 199,0.0107643,0.0076287,-0.0368309,-0.0144824,-0.0975183,-0.1389331,-0
 .0472535,0.0124586,-0.0695746,0.0301346,0.0188911,0.0144528,-0.1309955
 ,0.0186566,-0.0780128,-0.0690711,-0.0012245,0.0747689,-0.0194003,0.025
 9361,0.0036551,0.1346065,0.0005996,-0.062093\Polar=59.8472765,-0.01390
 2,59.7874244,0.0488545,0.2249021,52.7038311\Quadrupole=-0.2625217,-0.2
 421052,0.5046269,-0.0010119,-0.0093708,-0.0393872\PG=C01 [X(C5H10)]\NI
 mag=1\\0.53934946,0.08783557,0.46639565,0.02073407,0.02301872,0.570326
 30,-0.06981596,-0.00953397,0.00262580,0.51400304,-0.00197952,-0.170868
 45,0.03799984,-0.09290045,0.49002084,0.00115980,0.03841173,-0.09541944
 ,-0.01610175,0.02814587,0.57113034,-0.15599780,0.04068875,0.02839373,-
 0.00981699,0.01671101,0.00054423,0.42081144,0.03525855,-0.08695604,-0.
 01491146,0.02639082,-0.02926497,-0.00767921,-0.04873475,0.56148603,0.0
 3065282,-0.01509520,-0.09079378,-0.00926846,0.00734447,0.00713274,0.02
 608824,-0.02347571,0.57477900,-0.01484955,-0.01807863,-0.00086247,-0.1
 6343307,-0.03148864,-0.02803183,0.01001827,-0.00671925,-0.00163755,0.4
 3119907,-0.02785167,-0.02290367,-0.00686413,-0.02684542,-0.07934391,-0
 .01125803,0.00137513,-0.03381600,-0.00006582,0.06315577,0.54321519,0.0
 1061922,0.00654246,0.00679510,-0.02987614,-0.01036798,-0.08924332,0.00
 268190,-0.00125583,0.00024565,-0.02845677,-0.01745271,0.57801773,-0.03
 297481,-0.01604070,-0.00322217,-0.02892906,0.01997373,0.00293520,-0.11
 429826,-0.04965017,-0.01293414,-0.10048967,0.04638966,0.00915341,0.552
 17643,-0.00661383,0.00414277,0.00220356,0.01081720,0.00163653,0.001551
 76,-0.04931666,-0.12432945,-0.01093877,0.04525158,-0.13620349,-0.01010
 337,-0.00865453,0.39675713,0.00796936,0.00769864,0.00382495,-0.0056518
 6,0.00825021,0.00301962,-0.00750294,-0.00944234,-0.08014059,0.00374941
 ,-0.00642937,-0.07877618,-0.00473137,-0.02105219,0.58671036,-0.0492652
 7,-0.00309079,0.01324123,-0.00062073,0.00068036,-0.00139918,-0.0020054
 7,0.00177057,0.02966830,0.00036565,-0.00015664,0.00048108,0.00086232,0
 .00040559,-0.00024451,0.05146301,-0.00315408,-0.04537920,-0.00478915,-
 0.00165521,-0.00123928,0.03380004,0.00177852,-0.00207996,-0.01614497,0
 .00089412,0.00116145,0.00033646,-0.00007753,0.00003876,0.00012397,-0.0
 0157957,0.05245842,0.01328239,-0.00470368,-0.29851170,-0.00020086,0.00
 058998,-0.01190807,0.00034926,-0.00107852,-0.00828146,-0.00004189,-0.0
 0053417,0.00039099,0.00025870,0.00017320,-0.00004410,-0.01751725,0.002
 62639,0.32492312,-0.20651512,-0.10488731,-0.07448378,0.00205426,0.0022
 7398,0.00126732,-0.01738138,-0.01485840,-0.00975116,-0.00064007,0.0012
 4563,0.00027615,-0.00339134,0.00145107,0.00197502,0.00175784,0.0015502
 8,0.00096824,0.22481059,-0.10497406,-0.11456905,-0.04824389,-0.0233388
 2,-0.01145079,-0.01240087,0.01199625,0.00843133,0.00577269,-0.00033386
 ,-0.00546746,0.00321675,0.00270101,-0.00191704,-0.00092333,0.00037464,
 -0.00038643,0.00018993,0.11525312,0.12345792,-0.07658523,-0.04966017,-
 0.08279731,0.00981631,0.00499814,0.00349292,0.00743121,0.00568022,0.00
 241332,0.00125770,0.00161347,-0.00028754,0.00224824,0.00058177,0.00015
 116,-0.02482695,-0.01620473,-0.01065384,0.07942307,0.05234344,0.085636
 54,-0.00032193,-0.00077508,0.00524931,-0.04930918,0.00328137,-0.019971
 31,0.00027036,0.00033050,-0.00045278,-0.00325461,-0.00214412,-0.031309
 93,0.00059418,-0.00050261,0.00030294,0.00081381,-0.00128660,0.00020850
 ,0.00000101,0.00027752,0.00033617,0.05293491,0.00247303,-0.00153886,0.
 03342541,0.00338413,-0.04613750,-0.00370105,-0.00082659,0.00136148,0.0
 0052059,-0.00217073,-0.00187189,-0.01226870,-0.00004393,0.00001123,-0.
 00002972,0.00052638,-0.00585902,0.00231890,-0.00049075,0.00137643,-0.0
 0044931,0.00193742,0.05236950,-0.00000018,0.00064987,-0.01219764,-0.01
 995414,-0.00355926,-0.29836779,0.00002181,-0.00073918,0.00038513,-0.00
 055374,-0.00097894,-0.00723932,-0.00027396,0.00019051,-0.00014990,0.00
 011581,0.00237596,0.00086130,0.00033985,0.00033476,0.00059637,0.024277
 09,0.00089553,0.32441349,0.00404960,-0.00400646,-0.00280669,-0.1765146
 4,0.11155511,0.07033686,-0.00082479,-0.00177187,0.00006473,-0.01669166
 ,0.01787191,0.01054506,-0.00377540,-0.00120434,-0.00163408,0.00002944,
 0.00065272,-0.00028217,-0.00007274,0.00040288,-0.00028893,0.00211030,-
 0.00224871,-0.00126932,0.19205367,0.02109462,-0.01371835,-0.01275712,0
 .11163134,-0.14146252,-0.05955385,-0.00017189,-0.00557098,0.00325828,-
 0.00891196,0.00767634,0.00454378,-0.00240452,-0.00141551,-0.00057685,-
 0.00010665,0.00143753,0.00033931,-0.00045108,-0.00031051,-0.00034234,-
 0.00059350,-0.00001418,0.00030964,-0.12247014,0.15288382,-0.00915959,0
 .00625265,0.00377970,0.07225906,-0.06128281,-0.08613084,-0.00098453,0.
 00175281,-0.00038843,-0.00642383,0.00614613,0.00232213,-0.00216177,0.0
 0085109,0.00019559,-0.00037283,-0.00047338,0.00061654,0.00025019,-0.00
 037997,0.00005416,0.02240174,-0.01914852,-0.01117086,-0.07476574,0.064
 74433,0.08925699,-0.00478154,0.02289785,-0.01642906,-0.00572861,0.0019
 5010,0.00235348,-0.06256719,0.05515431,-0.03494995,-0.00249579,-0.0023
 7800,0.00027663,0.00532746,-0.01776295,0.01076646,0.00160283,-0.000691
 99,0.00023654,-0.00054710,-0.00019401,-0.00031092,-0.00009092,-0.00035
 906,0.00003374,0.00045338,0.00178995,-0.00040003,0.06850962,0.00080814
 ,-0.00677898,0.00465386,0.00105328,-0.00121458,-0.00134629,0.05497975,
 -0.22053163,0.11238422,-0.00122601,-0.00212375,0.00038234,0.00640229,-
 0.01492875,0.01026747,-0.00008876,0.00017861,-0.00034286,0.00049209,-0
 .00023770,-0.00012334,-0.00008609,0.00010663,0.00014510,0.00010529,-0.
 00059333,0.00033287,-0.05986749,0.24049025,0.00259585,-0.00991746,0.00
 523895,0.00131069,-0.00139089,-0.00033702,-0.03594298,0.11494244,-0.12
 004405,-0.00004020,-0.00177443,0.00000287,0.00173313,-0.00558048,0.002
 00362,-0.00050810,-0.00011334,0.00089376,-0.00020361,0.00036735,-0.000
 00726,0.00012432,-0.00036261,0.00038552,0.00005170,-0.00048947,0.00041
 073,0.03886305,-0.12093902,0.12599419,-0.00112374,0.00752408,0.0320210
 8,0.00078787,-0.00106430,0.00042440,-0.04408184,-0.00112804,-0.0151148
 5,-0.00107022,-0.00008847,-0.00039166,-0.00483237,-0.00674081,-0.02147
 042,-0.00489228,0.00353326,0.00172545,0.00105874,-0.00090936,0.0000454
 2,0.00025074,0.00041345,-0.00054762,-0.00009108,-0.00028212,-0.0002562
 9,-0.00061275,-0.00243898,-0.00839650,0.05560462,-0.00059746,-0.002818
 39,-0.01112951,-0.00031148,0.00065470,-0.00072463,-0.00140809,-0.06434
 546,-0.06034624,-0.00090222,-0.00049016,0.00019880,-0.00313546,-0.0059
 9482,-0.02182165,0.00164337,-0.00029797,-0.00037364,-0.00025989,0.0006
 3535,0.00050398,0.00050456,-0.00038161,0.00043843,0.00001323,0.0000988
 1,0.00037044,0.00087452,0.00712922,0.02575920,0.00509906,0.06761022,0.
 00079411,-0.00149851,-0.01025378,-0.00062877,0.00019344,0.00011653,-0.
 01500919,-0.06052965,-0.28753191,0.00001627,-0.00005171,0.00000840,-0.
 00007347,0.00062280,-0.00172096,0.00192996,-0.00077354,0.00110582,0.00
 051578,0.00019451,0.00069277,-0.00009835,-0.00059447,0.00031562,0.0001
 8245,-0.00007646,0.00032583,-0.00052816,-0.00437701,-0.01585889,0.0129
 5706,0.06782245,0.31002875,-0.00606401,-0.00125187,-0.00230641,-0.0078
 1379,-0.02210279,0.01788374,-0.00180738,0.00220636,-0.00036537,-0.0778
 4009,-0.06937540,0.05196217,0.00582632,0.01441095,-0.01028562,-0.00002
 996,0.00034315,0.00000341,0.00021735,-0.00182949,0.00041947,0.00176224
 ,0.00043952,-0.00028134,-0.00075572,0.00015533,0.00025492,0.00057513,0
 .00038410,0.00011242,0.00012492,0.00011088,-0.00000425,0.08563200,-0.0
 0060903,-0.00096559,-0.00102659,-0.00098857,-0.00398624,0.00302174,0.0
 0106438,-0.00256794,0.00062736,-0.06911423,-0.19321074,0.11155346,-0.0
 0876756,-0.01541326,0.01276681,0.00010096,0.00003932,0.00012775,-0.000
 19102,-0.00038073,0.00028699,-0.00007964,0.00016704,-0.00028863,-0.000
 44178,-0.00024889,-0.00015208,-0.00056960,-0.00076296,-0.00026288,-0.0
 0017964,-0.00032260,-0.00018255,0.07520298,0.21058663,-0.00146027,-0.0
 0114224,-0.00023085,-0.00388923,-0.00891543,0.00538014,-0.00019255,-0.
 00151448,-0.00008633,0.05326220,0.11390140,-0.13279900,-0.00212309,-0.
 00457554,0.00182682,-0.00014728,-0.00035714,0.00035011,-0.00009651,-0.
 00045095,0.00036228,0.00042324,-0.00018293,0.00100153,0.00018922,0.000
 31970,-0.00001936,-0.00010116,-0.00019843,-0.00003529,-0.00008587,-0.0
 0010395,-0.00003095,-0.05687903,-0.12016216,0.13978126,0.00087530,0.00
 096097,-0.00043703,-0.00258278,-0.00892469,-0.03283028,-0.00120984,0.0
 0027074,0.00040807,-0.04373058,-0.00212550,0.00396552,-0.00314659,0.00
 752217,0.01778436,0.00018062,-0.00043127,0.00057830,-0.00005594,0.0002
 4352,0.00031653,-0.00551192,-0.00294584,-0.00159042,0.00123155,0.00081
 499,-0.00005632,0.00015110,0.00012974,0.00007986,0.00003625,0.00010295
 ,0.00004546,-0.00006407,0.00387757,0.01136155,0.05415623,0.00036977,0.
 00048945,-0.00063461,0.00045509,-0.00225924,-0.00725982,0.00121649,-0.
 00102277,0.00018072,-0.00184945,-0.07104984,-0.07366134,0.00247875,-0.
 00882850,-0.02374923,-0.00045714,-0.00025095,0.00040912,-0.00003484,0.
 00004673,0.00035089,-0.00099148,0.00024393,-0.00005512,0.00019937,0.00
 059856,0.00048917,-0.00024304,-0.00039484,-0.00012576,-0.00010516,-0.0
 0003386,0.00005637,0.00031454,0.00777956,0.02337670,-0.00282192,0.0766
 8143,0.00052022,0.00000737,0.00008482,-0.00111775,-0.00143772,-0.00902
 188,-0.00002445,0.00005254,0.00012814,0.00390006,-0.07380833,-0.282232
 86,-0.00005110,0.00109408,-0.00064214,0.00003131,-0.00058135,0.0002216
 8,-0.00017790,-0.00008436,0.00026767,-0.00184617,-0.00050783,0.0011592
 0,-0.00050367,0.00024088,0.00074003,-0.00002549,-0.00016434,-0.0000363
 8,-0.00000075,0.00010208,-0.00000469,-0.00020349,-0.00567589,-0.017089
 73,-0.00032992,0.08132649,0.30357374,-0.00032423,0.00000019,-0.0005800
 0,-0.00167351,0.00190149,0.00089521,-0.00912804,0.00266119,-0.01677104
 ,-0.00888628,0.00255425,-0.01250898,-0.12597980,0.01918403,-0.11807339
 ,-0.00035747,0.00010499,0.00037213,-0.00034908,-0.00002561,0.00040603,
 0.00006482,-0.00004499,-0.00003395,-0.00080000,-0.00015366,-0.00024522
 ,0.00133878,0.00012780,0.00023037,-0.00196474,-0.00180181,0.00006005,-
 0.00101784,0.00081983,-0.00001431,0.00089427,0.00005879,0.00006969,0.1
 3623639,-0.00047891,-0.00068126,-0.00030793,0.00101829,-0.00395656,-0.
 00050958,-0.01327969,0.00072422,-0.02270526,0.01577732,-0.00471575,0.0
 2124637,0.01945676,-0.04847170,0.03136448,-0.00010152,0.00026066,0.000
 16660,-0.00023567,0.00018063,0.00024149,-0.00004239,-0.00004904,0.0001
 1634,0.00091117,0.00043381,0.00019688,0.00052341,0.00098592,-0.0002471
 0,-0.00389920,-0.00283961,-0.00070886,0.00149556,-0.00189780,0.0001559
 6,-0.00009906,0.00137419,-0.00002332,-0.02229609,0.05906346,-0.0001300
 3,0.00004122,-0.00017901,0.00073015,-0.00059363,0.00039224,0.00000812,
 -0.00059494,-0.00215773,0.00471282,-0.00190768,0.00372821,-0.11946499,
 0.03144250,-0.22666499,-0.00011856,0.00010764,-0.00008282,-0.00013038,
 0.00003117,0.00000157,0.00031121,0.00002325,0.00008178,0.00009615,0.00
 000754,0.00002996,-0.00004074,-0.00047754,0.00117588,-0.00064320,-0.00
 063023,0.00107884,-0.00028617,-0.00020229,0.00032904,0.00025432,-0.000
 15904,0.00186828,0.12909333,-0.03080819,0.24153555,-0.00224042,-0.0022
 4259,-0.00113761,-0.00060684,0.00013322,0.00053411,-0.01198109,-0.0011
 8054,0.01436315,-0.00820139,-0.00162715,0.01258234,-0.14696940,-0.0082
 4687,0.12704663,0.00009564,0.00001921,0.00005925,-0.00094702,0.0003562
 7,0.00031187,-0.00031380,-0.00004334,-0.00028360,-0.00040192,0.0000593
 0,-0.00033976,-0.00113440,-0.00077515,-0.00001002,0.00080589,0.0000678
 5,-0.00015893,0.00125489,-0.00012465,-0.00024691,-0.00122361,0.0014102
 6,-0.00024060,0.01194672,0.00125003,-0.01439202,0.15991674,-0.00158112
 ,-0.00385002,-0.00063700,0.00082377,-0.00112803,-0.00049781,-0.0160725
 9,-0.00151787,0.01868365,0.01571619,-0.00085631,-0.02291049,-0.0086278
 2,-0.04508391,0.01355310,0.00007921,-0.00008194,0.00009171,-0.00085722
 ,0.00059131,0.00017952,0.00017015,0.00021588,0.00016499,0.00043162,0.0
 0020538,0.00030039,-0.00112400,-0.00132411,0.00013445,0.00026623,0.001
 39616,-0.00009682,-0.00050380,0.00118420,-0.00015049,0.00342564,-0.003
 37386,-0.00054030,-0.00309040,-0.00041117,0.00372022,0.01094416,0.0540
 3431,-0.00099255,-0.00060540,0.00033368,-0.00005305,0.00002576,-0.0002
 3618,-0.00586186,-0.00120668,0.00434030,-0.00085016,-0.00053567,-0.000
 93288,0.12870737,0.01353908,-0.20959326,-0.00033303,0.00006715,0.00011
 866,-0.00017228,0.00003277,0.00007718,0.00004402,0.00006146,-0.0000744
 2,0.00008442,0.00003263,-0.00002217,0.00025561,-0.00019703,0.00021338,
 -0.00026626,-0.00006553,0.00172862,-0.00002444,-0.00043104,0.00126034,
 0.00045000,-0.00054453,0.00098411,0.01710009,0.00182214,-0.02113681,-0
 .13808788,-0.01199511,0.22293944\\0.00018546,0.00013008,0.00006082,0.0
 0006345,-0.00013644,-0.00006057,0.00000542,0.00000334,-0.00015274,0.00
 000638,-0.00001873,0.00009603,-0.00003788,-0.00001059,0.00003444,0.000
 01271,0.00000950,-0.00009326,-0.00006025,-0.00003916,-0.00003394,0.000
 02797,-0.00002459,0.00008120,-0.00002809,0.00007129,0.00004638,0.00001
 084,-0.00001355,0.00007379,-0.00002928,0.00005217,0.00010637,0.0000094
 1,0.00001057,-0.00006404,-0.00004161,-0.00006600,-0.00007709,-0.000061
 46,-0.00004759,-0.00001061,-0.00006307,0.00007971,-0.00000678\\\@


 THERE IS SOMETHING FASCINATING ABOUT SCIENCE.
 ONE GETS SUCH WHOLESALE CONJECTURE OUT OF SUCH TRIFLING INVESTMENTS.

                                                       -- MARK TWAIN
 Job cpu time:       0 days  0 hours 54 minutes 48.9 seconds.
 Elapsed time:       0 days  0 hours  3 minutes 27.1 seconds.
 File lengths (MBytes):  RWF=     47 Int=      0 D2E=      0 Chk=      4 Scr=      1
 Normal termination of Gaussian 16 at Fri Sep 19 04:52:26 2025.
