 Entering Gaussian System, Link 0=g16
 Input=CPHC0097.gjf
 Output=CPHC0097.log
 Initial command:
 /usr/local/g16/l1.exe "/dados_01/scratch/Gau-2013411.inp" -scrdir="/dados_01/scratch/"
 Entering Link 1 = /usr/local/g16/l1.exe PID=   2013412.
  
 Copyright (c) 1988-2017, Gaussian, Inc.  All Rights Reserved.
  
 This is part of the Gaussian(R) 16 program.  It is based on
 the Gaussian(R) 09 system (copyright 2009, Gaussian, Inc.),
 the Gaussian(R) 03 system (copyright 2003, Gaussian, Inc.),
 the Gaussian(R) 98 system (copyright 1998, Gaussian, Inc.),
 the Gaussian(R) 94 system (copyright 1995, Gaussian, Inc.),
 the Gaussian 92(TM) system (copyright 1992, Gaussian, Inc.),
 the Gaussian 90(TM) system (copyright 1990, Gaussian, Inc.),
 the Gaussian 88(TM) system (copyright 1988, Gaussian, Inc.),
 the Gaussian 86(TM) system (copyright 1986, Carnegie Mellon
 University), and the Gaussian 82(TM) system (copyright 1983,
 Carnegie Mellon University). Gaussian is a federally registered
 trademark of Gaussian, Inc.
  
 This software contains proprietary and confidential information,
 including trade secrets, belonging to Gaussian, Inc.
  
 This software is provided under written license and may be
 used, copied, transmitted, or stored only in accord with that
 written license.
  
 The following legend is applicable only to US Government
 contracts under FAR:
  
                    RESTRICTED RIGHTS LEGEND
  
 Use, reproduction and disclosure by the US Government is
 subject to restrictions as set forth in subparagraphs (a)
 and (c) of the Commercial Computer Software - Restricted
 Rights clause in FAR 52.227-19.
  
 Gaussian, Inc.
 340 Quinnipiac St., Bldg. 40, Wallingford CT 06492
  
  
 ---------------------------------------------------------------
 Warning -- This program may not be used in any manner that
 competes with the business of Gaussian, Inc. or will provide
 assistance to any competitor of Gaussian, Inc.  The licensee
 of this program is prohibited from giving any competitor of
 Gaussian, Inc. access to this program.  By using this program,
 the user acknowledges that Gaussian, Inc. is engaged in the
 business of creating and licensing software in the field of
 computational chemistry and represents and warrants to the
 licensee that it is not a competitor of Gaussian, Inc. and that
 it will not use this program in any manner prohibited above.
 ---------------------------------------------------------------
  

 Cite this work as:
 Gaussian 16, Revision B.01,
 M. J. Frisch, G. W. Trucks, H. B. Schlegel, G. E. Scuseria, 
 M. A. Robb, J. R. Cheeseman, G. Scalmani, V. Barone, 
 G. A. Petersson, H. Nakatsuji, X. Li, M. Caricato, A. V. Marenich, 
 J. Bloino, B. G. Janesko, R. Gomperts, B. Mennucci, H. P. Hratchian, 
 J. V. Ortiz, A. F. Izmaylov, J. L. Sonnenberg, D. Williams-Young, 
 F. Ding, F. Lipparini, F. Egidi, J. Goings, B. Peng, A. Petrone, 
 T. Henderson, D. Ranasinghe, V. G. Zakrzewski, J. Gao, N. Rega, 
 G. Zheng, W. Liang, M. Hada, M. Ehara, K. Toyota, R. Fukuda, 
 J. Hasegawa, M. Ishida, T. Nakajima, Y. Honda, O. Kitao, H. Nakai, 
 T. Vreven, K. Throssell, J. A. Montgomery, Jr., J. E. Peralta, 
 F. Ogliaro, M. J. Bearpark, J. J. Heyd, E. N. Brothers, K. N. Kudin, 
 V. N. Staroverov, T. A. Keith, R. Kobayashi, J. Normand, 
 K. Raghavachari, A. P. Rendell, J. C. Burant, S. S. Iyengar, 
 J. Tomasi, M. Cossi, J. M. Millam, M. Klene, C. Adamo, R. Cammi, 
 J. W. Ochterski, R. L. Martin, K. Morokuma, O. Farkas, 
 J. B. Foresman, and D. J. Fox, Gaussian, Inc., Wallingford CT, 2016.
 
 ******************************************
 Gaussian 16:  ES64L-G16RevB.01 20-Dec-2017
                19-Sep-2025 
 ******************************************
 %nprocs=16
 Will use up to   16 processors via shared memory.
 %mem=40GB
 %chk=CPHC0097.chk
 ----------------------------------------------------------------------
 # opt freq=noraman M08HX/6-311++G** scf=xqc Empiricaldispersion=pfd In
 t(Grid=ultraFine)
 ----------------------------------------------------------------------
 1/18=20,19=15,26=4,38=1/1,3;
 2/9=110,12=2,17=6,18=5,40=1/2;
 3/5=4,6=6,7=1111,11=2,25=1,30=1,71=1,74=-74,75=-5,124=11/1,2,3;
 4//1;
 5/5=2,8=3,13=1,38=5/2,8;
 6/7=2,8=2,9=2,10=2,28=1/1;
 7//1,2,3,16;
 1/18=20,19=15,26=4/3(2);
 2/9=110/2;
 99//99;
 2/9=110/2;
 3/5=4,6=6,7=1111,11=2,25=1,30=1,71=1,74=-74,75=-5,124=11/1,2,3;
 4/5=5,16=3,69=1/1;
 5/5=2,8=3,13=1,38=5/2,8;
 7//1,2,3,16;
 1/18=20,19=15,26=4/3(-5);
 2/9=110/2;
 6/7=2,8=2,9=2,10=2,19=2,28=1/1;
 99/9=1/99;
 --------
 CPHC0097
 --------
 Symbolic Z-matrix:
 Charge =  0 Multiplicity = 1
 O                    -1.2252    1.2457   -0.2074 
 O                     0.5484    2.6283   -0.2047 
 O                    -2.9654   -0.1935   -0.2207 
 C                     0.5106   -0.9567   -0.5456 
 C                     1.0151    0.2866    0.2188 
 C                    -0.8054   -1.1264    0.222 
 C                     0.7821   -0.0555    1.7092 
 C                    -0.4314   -0.9947    1.705 
 C                     0.3311   -0.7592   -2.0628 
 C                     1.4079   -2.2047   -0.3694 
 C                     2.4774    0.6468   -0.0507 
 C                     0.1126    1.4843   -0.0929 
 C                    -1.7578   -0.001    -0.1008 
 H                    -1.2985   -2.0797    0.0041 
 H                     0.5837    0.8346    2.3175 
 H                     1.6453   -0.5657    2.1522 
 H                    -0.1547   -1.9679    2.1258 
 H                    -1.2465   -0.5921    2.3164 
 H                     1.3005   -0.6286   -2.5568 
 H                    -0.153    -1.6356   -2.5091 
 H                    -0.2779    0.1099   -2.3258 
 H                     1.6671   -2.4088    0.6732 
 H                     0.9042   -3.0976   -0.7579 
 H                     2.3489   -2.096    -0.9204 
 H                     3.156    -0.1707    0.2127 
 H                     2.6372    0.8946   -1.1056 
 H                     2.7844    1.5188    0.5385 
 

 GradGradGradGradGradGradGradGradGradGradGradGradGradGradGradGradGradGrad
 Berny optimization.
 Initialization pass.
                           ----------------------------
                           !    Initial Parameters    !
                           ! (Angstroms and Degrees)  !
 --------------------------                            --------------------------
 ! Name  Definition              Value          Derivative Info.                !
 --------------------------------------------------------------------------------
 ! R1    R(1,12)                 1.3637         estimate D2E/DX2                !
 ! R2    R(1,13)                 1.3599         estimate D2E/DX2                !
 ! R3    R(2,12)                 1.2293         estimate D2E/DX2                !
 ! R4    R(3,13)                 1.2287         estimate D2E/DX2                !
 ! R5    R(4,5)                  1.5442         estimate D2E/DX2                !
 ! R6    R(4,6)                  1.5329         estimate D2E/DX2                !
 ! R7    R(4,9)                  1.5405         estimate D2E/DX2                !
 ! R8    R(4,10)                 1.5472         estimate D2E/DX2                !
 ! R9    R(5,7)                  1.5468         estimate D2E/DX2                !
 ! R10   R(5,11)                 1.5299         estimate D2E/DX2                !
 ! R11   R(5,12)                 1.5317         estimate D2E/DX2                !
 ! R12   R(6,8)                  1.5351         estimate D2E/DX2                !
 ! R13   R(6,13)                 1.5092         estimate D2E/DX2                !
 ! R14   R(6,14)                 1.0952         estimate D2E/DX2                !
 ! R15   R(7,8)                  1.5345         estimate D2E/DX2                !
 ! R16   R(7,15)                 1.0962         estimate D2E/DX2                !
 ! R17   R(7,16)                 1.0962         estimate D2E/DX2                !
 ! R18   R(8,17)                 1.0958         estimate D2E/DX2                !
 ! R19   R(8,18)                 1.0956         estimate D2E/DX2                !
 ! R20   R(9,19)                 1.0958         estimate D2E/DX2                !
 ! R21   R(9,20)                 1.0962         estimate D2E/DX2                !
 ! R22   R(9,21)                 1.0933         estimate D2E/DX2                !
 ! R23   R(10,22)                1.0936         estimate D2E/DX2                !
 ! R24   R(10,23)                1.0963         estimate D2E/DX2                !
 ! R25   R(10,24)                1.0959         estimate D2E/DX2                !
 ! R26   R(11,25)                1.0946         estimate D2E/DX2                !
 ! R27   R(11,26)                1.0953         estimate D2E/DX2                !
 ! R28   R(11,27)                1.0963         estimate D2E/DX2                !
 ! A1    A(12,1,13)            122.5491         estimate D2E/DX2                !
 ! A2    A(5,4,6)               96.992          estimate D2E/DX2                !
 ! A3    A(5,4,9)              114.9841         estimate D2E/DX2                !
 ! A4    A(5,4,10)             113.8034         estimate D2E/DX2                !
 ! A5    A(6,4,9)              114.0373         estimate D2E/DX2                !
 ! A6    A(6,4,10)             110.5833         estimate D2E/DX2                !
 ! A7    A(9,4,10)             106.4488         estimate D2E/DX2                !
 ! A8    A(4,5,7)              104.4584         estimate D2E/DX2                !
 ! A9    A(4,5,11)             114.4953         estimate D2E/DX2                !
 ! A10   A(4,5,12)             109.6535         estimate D2E/DX2                !
 ! A11   A(7,5,11)             111.4551         estimate D2E/DX2                !
 ! A12   A(7,5,12)             106.2757         estimate D2E/DX2                !
 ! A13   A(11,5,12)            110.0732         estimate D2E/DX2                !
 ! A14   A(4,6,8)              105.3726         estimate D2E/DX2                !
 ! A15   A(4,6,13)             110.6157         estimate D2E/DX2                !
 ! A16   A(4,6,14)             112.5361         estimate D2E/DX2                !
 ! A17   A(8,6,13)             107.2413         estimate D2E/DX2                !
 ! A18   A(8,6,14)             112.1224         estimate D2E/DX2                !
 ! A19   A(13,6,14)            108.8078         estimate D2E/DX2                !
 ! A20   A(5,7,8)              104.587          estimate D2E/DX2                !
 ! A21   A(5,7,15)             112.4798         estimate D2E/DX2                !
 ! A22   A(5,7,16)             111.9443         estimate D2E/DX2                !
 ! A23   A(8,7,15)             110.8161         estimate D2E/DX2                !
 ! A24   A(8,7,16)             109.8135         estimate D2E/DX2                !
 ! A25   A(15,7,16)            107.2284         estimate D2E/DX2                !
 ! A26   A(6,8,7)              104.3487         estimate D2E/DX2                !
 ! A27   A(6,8,17)             110.8737         estimate D2E/DX2                !
 ! A28   A(6,8,18)             112.9166         estimate D2E/DX2                !
 ! A29   A(7,8,17)             110.0502         estimate D2E/DX2                !
 ! A30   A(7,8,18)             111.2177         estimate D2E/DX2                !
 ! A31   A(17,8,18)            107.4534         estimate D2E/DX2                !
 ! A32   A(4,9,19)             110.8662         estimate D2E/DX2                !
 ! A33   A(4,9,20)             110.4838         estimate D2E/DX2                !
 ! A34   A(4,9,21)             113.8113         estimate D2E/DX2                !
 ! A35   A(19,9,20)            107.603          estimate D2E/DX2                !
 ! A36   A(19,9,21)            106.8324         estimate D2E/DX2                !
 ! A37   A(20,9,21)            106.954          estimate D2E/DX2                !
 ! A38   A(4,10,22)            113.3657         estimate D2E/DX2                !
 ! A39   A(4,10,23)            110.4964         estimate D2E/DX2                !
 ! A40   A(4,10,24)            111.1455         estimate D2E/DX2                !
 ! A41   A(22,10,23)           107.1424         estimate D2E/DX2                !
 ! A42   A(22,10,24)           107.119          estimate D2E/DX2                !
 ! A43   A(23,10,24)           107.2854         estimate D2E/DX2                !
 ! A44   A(5,11,25)            111.9822         estimate D2E/DX2                !
 ! A45   A(5,11,26)            111.2449         estimate D2E/DX2                !
 ! A46   A(5,11,27)            111.1162         estimate D2E/DX2                !
 ! A47   A(25,11,26)           108.0751         estimate D2E/DX2                !
 ! A48   A(25,11,27)           106.9248         estimate D2E/DX2                !
 ! A49   A(26,11,27)           107.2664         estimate D2E/DX2                !
 ! A50   A(1,12,2)             120.196          estimate D2E/DX2                !
 ! A51   A(1,12,5)             117.2765         estimate D2E/DX2                !
 ! A52   A(2,12,5)             122.5005         estimate D2E/DX2                !
 ! A53   A(1,13,3)             121.3927         estimate D2E/DX2                !
 ! A54   A(1,13,6)             116.951          estimate D2E/DX2                !
 ! A55   A(3,13,6)             121.618          estimate D2E/DX2                !
 ! D1    D(13,1,12,2)          179.5639         estimate D2E/DX2                !
 ! D2    D(13,1,12,5)           -2.279          estimate D2E/DX2                !
 ! D3    D(12,1,13,3)         -179.272          estimate D2E/DX2                !
 ! D4    D(12,1,13,6)            2.9452         estimate D2E/DX2                !
 ! D5    D(6,4,5,7)             46.0813         estimate D2E/DX2                !
 ! D6    D(6,4,5,11)           168.2609         estimate D2E/DX2                !
 ! D7    D(6,4,5,12)           -67.4603         estimate D2E/DX2                !
 ! D8    D(9,4,5,7)            166.7382         estimate D2E/DX2                !
 ! D9    D(9,4,5,11)           -71.0822         estimate D2E/DX2                !
 ! D10   D(9,4,5,12)            53.1966         estimate D2E/DX2                !
 ! D11   D(10,4,5,7)           -70.1015         estimate D2E/DX2                !
 ! D12   D(10,4,5,11)           52.0782         estimate D2E/DX2                !
 ! D13   D(10,4,5,12)          176.357          estimate D2E/DX2                !
 ! D14   D(5,4,6,8)            -46.4705         estimate D2E/DX2                !
 ! D15   D(5,4,6,13)            69.1146         estimate D2E/DX2                !
 ! D16   D(5,4,6,14)          -168.9455         estimate D2E/DX2                !
 ! D17   D(9,4,6,8)           -167.8454         estimate D2E/DX2                !
 ! D18   D(9,4,6,13)           -52.2603         estimate D2E/DX2                !
 ! D19   D(9,4,6,14)            69.6796         estimate D2E/DX2                !
 ! D20   D(10,4,6,8)            72.2417         estimate D2E/DX2                !
 ! D21   D(10,4,6,13)         -172.1732         estimate D2E/DX2                !
 ! D22   D(10,4,6,14)          -50.2333         estimate D2E/DX2                !
 ! D23   D(5,4,9,19)            68.3662         estimate D2E/DX2                !
 ! D24   D(5,4,9,20)          -172.432          estimate D2E/DX2                !
 ! D25   D(5,4,9,21)           -52.0942         estimate D2E/DX2                !
 ! D26   D(6,4,9,19)           179.152          estimate D2E/DX2                !
 ! D27   D(6,4,9,20)           -61.6462         estimate D2E/DX2                !
 ! D28   D(6,4,9,21)            58.6915         estimate D2E/DX2                !
 ! D29   D(10,4,9,19)          -58.6356         estimate D2E/DX2                !
 ! D30   D(10,4,9,20)           60.5662         estimate D2E/DX2                !
 ! D31   D(10,4,9,21)         -179.0961         estimate D2E/DX2                !
 ! D32   D(5,4,10,22)           48.2591         estimate D2E/DX2                !
 ! D33   D(5,4,10,23)          168.5424         estimate D2E/DX2                !
 ! D34   D(5,4,10,24)          -72.4649         estimate D2E/DX2                !
 ! D35   D(6,4,10,22)          -59.6665         estimate D2E/DX2                !
 ! D36   D(6,4,10,23)           60.6169         estimate D2E/DX2                !
 ! D37   D(6,4,10,24)          179.6095         estimate D2E/DX2                !
 ! D38   D(9,4,10,22)          175.9624         estimate D2E/DX2                !
 ! D39   D(9,4,10,23)          -63.7542         estimate D2E/DX2                !
 ! D40   D(9,4,10,24)           55.2385         estimate D2E/DX2                !
 ! D41   D(4,5,7,8)            -29.5305         estimate D2E/DX2                !
 ! D42   D(4,5,7,15)          -149.8678         estimate D2E/DX2                !
 ! D43   D(4,5,7,16)            89.3155         estimate D2E/DX2                !
 ! D44   D(11,5,7,8)          -153.6827         estimate D2E/DX2                !
 ! D45   D(11,5,7,15)           85.98           estimate D2E/DX2                !
 ! D46   D(11,5,7,16)          -34.8367         estimate D2E/DX2                !
 ! D47   D(12,5,7,8)            86.3892         estimate D2E/DX2                !
 ! D48   D(12,5,7,15)          -33.9481         estimate D2E/DX2                !
 ! D49   D(12,5,7,16)         -154.7648         estimate D2E/DX2                !
 ! D50   D(4,5,11,25)          -58.9809         estimate D2E/DX2                !
 ! D51   D(4,5,11,26)           62.078          estimate D2E/DX2                !
 ! D52   D(4,5,11,27)         -178.4813         estimate D2E/DX2                !
 ! D53   D(7,5,11,25)           59.3044         estimate D2E/DX2                !
 ! D54   D(7,5,11,26)         -179.6366         estimate D2E/DX2                !
 ! D55   D(7,5,11,27)          -60.1959         estimate D2E/DX2                !
 ! D56   D(12,5,11,25)         176.9637         estimate D2E/DX2                !
 ! D57   D(12,5,11,26)         -61.9774         estimate D2E/DX2                !
 ! D58   D(12,5,11,27)          57.4633         estimate D2E/DX2                !
 ! D59   D(4,5,12,1)            38.2806         estimate D2E/DX2                !
 ! D60   D(4,5,12,2)          -143.608          estimate D2E/DX2                !
 ! D61   D(7,5,12,1)           -74.0815         estimate D2E/DX2                !
 ! D62   D(7,5,12,2)           104.0299         estimate D2E/DX2                !
 ! D63   D(11,5,12,1)          165.0965         estimate D2E/DX2                !
 ! D64   D(11,5,12,2)          -16.7921         estimate D2E/DX2                !
 ! D65   D(4,6,8,7)             29.7548         estimate D2E/DX2                !
 ! D66   D(4,6,8,17)           -88.6883         estimate D2E/DX2                !
 ! D67   D(4,6,8,18)           150.6667         estimate D2E/DX2                !
 ! D68   D(13,6,8,7)           -88.1281         estimate D2E/DX2                !
 ! D69   D(13,6,8,17)          153.4288         estimate D2E/DX2                !
 ! D70   D(13,6,8,18)           32.7837         estimate D2E/DX2                !
 ! D71   D(14,6,8,7)           152.4954         estimate D2E/DX2                !
 ! D72   D(14,6,8,17)           34.0523         estimate D2E/DX2                !
 ! D73   D(14,6,8,18)          -86.5927         estimate D2E/DX2                !
 ! D74   D(4,6,13,1)           -40.2738         estimate D2E/DX2                !
 ! D75   D(4,6,13,3)           141.9488         estimate D2E/DX2                !
 ! D76   D(8,6,13,1)            74.1388         estimate D2E/DX2                !
 ! D77   D(8,6,13,3)          -103.6386         estimate D2E/DX2                !
 ! D78   D(14,6,13,1)         -164.3785         estimate D2E/DX2                !
 ! D79   D(14,6,13,3)           17.8441         estimate D2E/DX2                !
 ! D80   D(5,7,8,6)              0.0903         estimate D2E/DX2                !
 ! D81   D(5,7,8,17)           119.0942         estimate D2E/DX2                !
 ! D82   D(5,7,8,18)          -121.9466         estimate D2E/DX2                !
 ! D83   D(15,7,8,6)           121.5315         estimate D2E/DX2                !
 ! D84   D(15,7,8,17)         -119.4647         estimate D2E/DX2                !
 ! D85   D(15,7,8,18)           -0.5055         estimate D2E/DX2                !
 ! D86   D(16,7,8,6)          -120.1887         estimate D2E/DX2                !
 ! D87   D(16,7,8,17)           -1.1848         estimate D2E/DX2                !
 ! D88   D(16,7,8,18)          117.7744         estimate D2E/DX2                !
 --------------------------------------------------------------------------------
 Trust Radius=3.00D-01 FncErr=1.00D-07 GrdErr=1.00D-06 EigMax=2.50D+02 EigMin=1.00D-04
 Number of steps in this run=    162 maximum allowed number of steps=    162.
 GradGradGradGradGradGradGradGradGradGradGradGradGradGradGradGradGradGrad

                          Input orientation:                          
 ---------------------------------------------------------------------
 Center     Atomic      Atomic             Coordinates (Angstroms)
 Number     Number       Type             X           Y           Z
 ---------------------------------------------------------------------
      1          8           0       -1.225200    1.245700   -0.207400
      2          8           0        0.548400    2.628300   -0.204700
      3          8           0       -2.965400   -0.193500   -0.220700
      4          6           0        0.510600   -0.956700   -0.545600
      5          6           0        1.015100    0.286600    0.218800
      6          6           0       -0.805400   -1.126400    0.222000
      7          6           0        0.782100   -0.055500    1.709200
      8          6           0       -0.431400   -0.994700    1.705000
      9          6           0        0.331100   -0.759200   -2.062800
     10          6           0        1.407900   -2.204700   -0.369400
     11          6           0        2.477400    0.646800   -0.050700
     12          6           0        0.112600    1.484300   -0.092900
     13          6           0       -1.757800   -0.001000   -0.100800
     14          1           0       -1.298500   -2.079700    0.004100
     15          1           0        0.583700    0.834600    2.317500
     16          1           0        1.645300   -0.565700    2.152200
     17          1           0       -0.154700   -1.967900    2.125800
     18          1           0       -1.246500   -0.592100    2.316400
     19          1           0        1.300500   -0.628600   -2.556800
     20          1           0       -0.153000   -1.635600   -2.509100
     21          1           0       -0.277900    0.109900   -2.325800
     22          1           0        1.667100   -2.408800    0.673200
     23          1           0        0.904200   -3.097600   -0.757900
     24          1           0        2.348900   -2.096000   -0.920400
     25          1           0        3.156000   -0.170700    0.212700
     26          1           0        2.637200    0.894600   -1.105600
     27          1           0        2.784400    1.518800    0.538500
 ---------------------------------------------------------------------
                    Distance matrix (angstroms):
                    1          2          3          4          5
     1  O    0.000000
     2  O    2.248832   0.000000
     3  O    2.258267   4.506618   0.000000
     4  C    2.824526   3.601370   3.573599   0.000000
     5  C    2.473957   2.425020   4.033365   1.544222   0.000000
     6  C    2.446932   4.014053   2.394136   1.532927   2.304517
     7  C    3.065246   3.304605   4.217501   2.443358   1.546808
     8  C    3.050702   4.211068   3.281981   2.440084   2.437803
     9  C    3.143915   3.869743   3.818411   1.540494   2.601394
    10  C    4.343354   4.911594   4.815889   1.547158   2.589758
    11  C    3.753996   2.769675   5.509907   2.585428   1.529933
    12  C    1.363726   1.229291   3.507910   2.514323   1.531714
    13  C    1.359885   3.498939   1.228711   2.501369   2.806035
    14  H    3.332925   5.061611   2.527220   2.199123   3.316356
    15  H    3.133088   3.095173   4.482807   3.378082   2.211550
    16  H    4.133842   4.118228   5.198821   2.952719   2.204904
    17  H    4.113030   5.201022   4.068733   2.932836   3.176138
    18  H    3.122103   4.466384   3.090368   3.378073   3.207316
    19  H    3.925792   4.087227   4.883091   2.185524   2.936494
    20  H    3.840485   4.897251   3.902053   2.180964   3.535640
    21  H    2.583609   3.394728   3.427266   2.220018   2.859731
    22  H    4.743019   5.233983   5.212165   2.220712   2.810118
    23  H    4.868434   5.763554   4.867873   2.187109   3.524067
    24  H    4.944645   5.106176   5.687783   2.194955   2.958645
    25  H    4.623590   3.848143   6.136766   2.861985   2.189204
    26  H    3.980976   2.860144   5.775477   2.874602   2.180575
    27  H    4.087523   2.604426   6.047194   3.531790   2.179667
                    6          7          8          9         10
     6  C    0.000000
     7  C    2.424613   0.000000
     8  C    1.535093   1.534502   0.000000
     9  C    2.578135   3.863493   3.851387   0.000000
    10  C    2.532031   3.054712   3.024940   2.473170   0.000000
    11  C    3.741040   2.542541   3.773344   3.260673   3.062099
    12  C    2.785254   2.463083   3.110277   2.993583   3.919563
    13  C    1.509235   3.119321   2.451059   2.964425   3.866535
    14  H    1.095175   3.366548   2.195939   2.944723   2.734909
    15  H    3.188454   1.096207   2.179891   4.668087   4.139575
    16  H    3.169541   1.096206   2.167190   4.419365   3.016811
    17  H    2.180823   2.169890   1.095789   4.386494   2.953611
    18  H    2.206027   2.184456   1.095575   4.657697   4.106074
    19  H    3.521981   4.335428   4.614807   1.095823   2.698211
    20  H    2.853737   4.600563   4.271639   1.096181   2.708985
    21  H    2.880621   4.175186   4.182231   1.093337   3.467967
    22  H    2.821593   2.719291   2.732763   3.462914   1.093552
    23  H    2.787215   3.918656   3.503126   2.738489   1.096319
    24  H    3.492107   3.678763   3.979404   2.676496   1.095855
    25  H    4.075063   2.808591   3.971823   3.674819   2.744422
    26  H    4.206953   3.502454   4.570036   2.994893   3.414503
    27  H    4.470338   2.803242   4.244970   4.239661   4.072283
                   11         12         13         14         15
    11  C    0.000000
    12  C    2.509077   0.000000
    13  C    4.284749   2.388425   0.000000
    14  H    4.657706   3.834411   2.131421   0.000000
    15  H    3.038049   2.540487   3.468288   4.169849   0.000000
    16  H    2.648644   3.404724   4.120192   3.946199   1.764981
    17  H    4.301367   4.112391   3.375851   2.412963   2.904478
    18  H    4.583172   3.458803   2.540410   2.749980   2.320583
    19  H    3.048323   3.456336   3.972281   3.926665   5.139412
    20  H    4.262873   3.955040   3.323734   2.797422   5.471808
    21  H    3.613311   2.650907   2.674515   3.356249   4.777843
    22  H    3.243040   4.261409   4.257525   3.057905   3.794354
    23  H    4.122575   4.697091   4.136056   2.543354   5.002300
    24  H    2.880250   4.301667   4.682494   3.762777   4.710450
    25  H    1.094616   3.477744   4.926714   4.850811   3.472397
    26  H    1.095333   2.783328   4.596493   5.056444   3.992252
    27  H    1.096262   2.745609   4.832192   5.468533   2.911366
                   16         17         18         19         20
    16  H    0.000000
    17  H    2.281855   0.000000
    18  H    2.896578   1.766687   0.000000
    19  H    4.722025   5.083117   5.498783   0.000000
    20  H    5.109431   4.646797   5.056687   1.768894   0.000000
    21  H    4.920124   4.914181   4.793851   1.757865   1.759537
    22  H    2.363246   2.371370   3.806517   3.706266   3.746683
    23  H    3.927904   3.273105   4.511581   3.080431   2.514322
    24  H    3.503961   3.945093   5.066112   2.435202   2.999240
    25  H    2.489960   4.224999   4.897462   3.364919   4.528091
    26  H    3.705348   5.141066   5.385489   2.492566   4.019570
    27  H    2.871710   4.828551   4.885180   4.048971   5.278866
                   21         22         23         24         25
    21  H    0.000000
    22  H    4.372742   0.000000
    23  H    3.760815   1.761962   0.000000
    24  H    3.706915   1.761322   1.765437   0.000000
    25  H    4.279531   2.727265   3.818300   2.375312   0.000000
    26  H    3.256140   3.875265   4.365987   3.010167   1.772550
    27  H    4.423448   4.085651   5.150432   3.922350   1.760296
                   26         27
    26  H    0.000000
    27  H    1.764754   0.000000
 Stoichiometry    C10H14O3
 Framework group  C1[X(C10H14O3)]
 Deg. of freedom    75
 Full point group                 C1      NOp   1
 Largest Abelian subgroup         C1      NOp   1
 Largest concise Abelian subgroup C1      NOp   1
                         Standard orientation:                         
 ---------------------------------------------------------------------
 Center     Atomic      Atomic             Coordinates (Angstroms)
 Number     Number       Type             X           Y           Z
 ---------------------------------------------------------------------
      1          8           0       -1.344943    1.229079   -0.242655
      2          8           0        0.366345    2.688090   -0.247846
      3          8           0       -3.020243   -0.285228   -0.246330
      4          6           0        0.490061   -0.901770   -0.507584
      5          6           0        0.928807    0.379141    0.234971
      6          6           0       -0.828087   -1.112165    0.246129
      7          6           0        0.689733    0.060206    1.729541
      8          6           0       -0.481395   -0.931334    1.730586
      9          6           0        0.323770   -0.746001   -2.031135
     10          6           0        1.438418   -2.104878   -0.291139
     11          6           0        2.377672    0.797270   -0.023204
     12          6           0       -0.020614    1.528781   -0.115852
     13          6           0       -1.824039   -0.037179   -0.114809
     14          1           0       -1.275912   -2.090827    0.043438
     15          1           0        0.443980    0.953966    2.314748
     16          1           0        1.567989   -0.401589    2.195458
     17          1           0       -0.168477   -1.881863    2.177053
     18          1           0       -1.321945   -0.551545    2.321789
     19          1           0        1.293489   -0.583849   -2.515057
     20          1           0       -0.115165   -1.652517   -2.463775
     21          1           0       -0.318801    0.089428   -2.321902
     22          1           0        1.691385   -2.274242    0.759185
     23          1           0        0.979800   -3.027457   -0.665885
     24          1           0        2.381537   -1.967111   -0.831921
     25          1           0        3.087510    0.016449    0.267714
     26          1           0        2.541529    1.028442   -1.081252
     27          1           0        2.637848    1.694764    0.550035
 ---------------------------------------------------------------------
 Rotational constants (GHZ):           1.0547543           0.9152735           0.7345097
 Standard basis: 6-311++G(d,p) (5D, 7F)
 There are   397 symmetry adapted cartesian basis functions of A   symmetry.
 There are   384 symmetry adapted basis functions of A   symmetry.
   384 basis functions,   594 primitive gaussians,   397 cartesian basis functions
    49 alpha electrons       49 beta electrons
       nuclear repulsion energy       896.1557855905 Hartrees.
 NAtoms=   27 NActive=   27 NUniq=   27 SFac= 1.00D+00 NAtFMM=   60 NAOKFM=F Big=F
 Integral buffers will be    131072 words long.
 Raffenetti 2 integral format.
 Two-electron integral symmetry is turned on.
 R6APFD:  NTU= -4 IXU= 1 FactS= 1.050
 Nuclear repulsion after empirical dispersion term =      896.1250113295 Hartrees.
 One-electron integrals computed using PRISM.
 NBasis=   384 RedAO= T EigKep=  2.22D-06  NBF=   384
 NBsUse=   384 1.00D-06 EigRej= -1.00D+00 NBFU=   384
 ExpMin= 3.60D-02 ExpMax= 8.59D+03 ExpMxC= 1.30D+03 IAcc=3 IRadAn=         5 AccDes= 0.00D+00
 Harris functional with IExCor= 1009 and IRadAn=       5 diagonalized for initial guess.
 HarFok:  IExCor= 1009 AccDes= 0.00D+00 IRadAn=         5 IDoV= 1 UseB2=F ITyADJ=14
 ICtDFT=  3500011 ScaDFX=  1.000000  1.000000  1.000000  1.000000
 FoFCou: FMM=F IPFlag=           0 FMFlag=      100000 FMFlg1=           0
         NFxFlg=           0 DoJE=T BraDBF=F KetDBF=T FulRan=T
         wScrn=  0.000000 ICntrl=       500 IOpCl=  0 I1Cent=   200000004 NGrid=           0
         NMat0=    1 NMatS0=      1 NMatT0=    0 NMatD0=    1 NMtDS0=    0 NMtDT0=    0
 Petite list used in FoFCou.
 Requested convergence on RMS density matrix=1.00D-08 within  32 cycles.
 Requested convergence on MAX density matrix=1.00D-06.
 Requested convergence on             energy=1.00D-06.
 No special actions if energy rises.
 SCF Done:  E(RM08HX) =  -615.206853192     A.U. after   16 cycles
            NFock= 16  Conv=0.35D-08     -V/T= 2.0050
 QCSCF skips out because SCF is already converged.

 **********************************************************************

            Population analysis using the SCF Density.

 **********************************************************************

 Orbital symmetries:
       Occupied  (A) (A) (A) (A) (A) (A) (A) (A) (A) (A) (A) (A)
                 (A) (A) (A) (A) (A) (A) (A) (A) (A) (A) (A) (A)
                 (A) (A) (A) (A) (A) (A) (A) (A) (A) (A) (A) (A)
                 (A) (A) (A) (A) (A) (A) (A) (A) (A) (A) (A) (A)
                 (A)
       Virtual   (A) (A) (A) (A) (A) (A) (A) (A) (A) (A) (A) (A)
                 (A) (A) (A) (A) (A) (A) (A) (A) (A) (A) (A) (A)
                 (A) (A) (A) (A) (A) (A) (A) (A) (A) (A) (A) (A)
                 (A) (A) (A) (A) (A) (A) (A) (A) (A) (A) (A) (A)
                 (A) (A) (A) (A) (A) (A) (A) (A) (A) (A) (A) (A)
                 (A) (A) (A) (A) (A) (A) (A) (A) (A) (A) (A) (A)
                 (A) (A) (A) (A) (A) (A) (A) (A) (A) (A) (A) (A)
                 (A) (A) (A) (A) (A) (A) (A) (A) (A) (A) (A) (A)
                 (A) (A) (A) (A) (A) (A) (A) (A) (A) (A) (A) (A)
                 (A) (A) (A) (A) (A) (A) (A) (A) (A) (A) (A) (A)
                 (A) (A) (A) (A) (A) (A) (A) (A) (A) (A) (A) (A)
                 (A) (A) (A) (A) (A) (A) (A) (A) (A) (A) (A) (A)
                 (A) (A) (A) (A) (A) (A) (A) (A) (A) (A) (A) (A)
                 (A) (A) (A) (A) (A) (A) (A) (A) (A) (A) (A) (A)
                 (A) (A) (A) (A) (A) (A) (A) (A) (A) (A) (A) (A)
                 (A) (A) (A) (A) (A) (A) (A) (A) (A) (A) (A) (A)
                 (A) (A) (A) (A) (A) (A) (A) (A) (A) (A) (A) (A)
                 (A) (A) (A) (A) (A) (A) (A) (A) (A) (A) (A) (A)
                 (A) (A) (A) (A) (A) (A) (A) (A) (A) (A) (A) (A)
                 (A) (A) (A) (A) (A) (A) (A) (A) (A) (A) (A) (A)
                 (A) (A) (A) (A) (A) (A) (A) (A) (A) (A) (A) (A)
                 (A) (A) (A) (A) (A) (A) (A) (A) (A) (A) (A) (A)
                 (A) (A) (A) (A) (A) (A) (A) (A) (A) (A) (A) (A)
                 (A) (A) (A) (A) (A) (A) (A) (A) (A) (A) (A) (A)
                 (A) (A) (A) (A) (A) (A) (A) (A) (A) (A) (A) (A)
                 (A) (A) (A) (A) (A) (A) (A) (A) (A) (A) (A) (A)
                 (A) (A) (A) (A) (A) (A) (A) (A) (A) (A) (A) (A)
                 (A) (A) (A) (A) (A) (A) (A) (A) (A) (A) (A)
 The electronic state is 1-A.
 Alpha  occ. eigenvalues --  -19.70295 -19.62538 -19.62185 -10.69873 -10.69623
 Alpha  occ. eigenvalues --  -10.58350 -10.58053 -10.57051 -10.55751 -10.55701
 Alpha  occ. eigenvalues --  -10.54581 -10.54239 -10.53629  -1.28537  -1.18863
 Alpha  occ. eigenvalues --   -1.14893  -1.01788  -0.90075  -0.89932  -0.82762
 Alpha  occ. eigenvalues --   -0.81403  -0.79743  -0.76667  -0.70042  -0.69542
 Alpha  occ. eigenvalues --   -0.61672  -0.60684  -0.59550  -0.58771  -0.55891
 Alpha  occ. eigenvalues --   -0.54317  -0.54061  -0.52157  -0.51521  -0.49892
 Alpha  occ. eigenvalues --   -0.49001  -0.48114  -0.48062  -0.47218  -0.45035
 Alpha  occ. eigenvalues --   -0.43997  -0.43007  -0.42935  -0.42187  -0.41823
 Alpha  occ. eigenvalues --   -0.39926  -0.39699  -0.37286  -0.35774
 Alpha virt. eigenvalues --   -0.03967  -0.02470  -0.02109  -0.01603  -0.01480
 Alpha virt. eigenvalues --   -0.00018   0.00081   0.00363   0.01183   0.01318
 Alpha virt. eigenvalues --    0.02862   0.03141   0.03492   0.04106   0.04440
 Alpha virt. eigenvalues --    0.04463   0.04682   0.05120   0.06371   0.07758
 Alpha virt. eigenvalues --    0.07939   0.08552   0.08892   0.09256   0.09710
 Alpha virt. eigenvalues --    0.09986   0.10245   0.10454   0.10712   0.10962
 Alpha virt. eigenvalues --    0.11388   0.12220   0.12431   0.12664   0.13248
 Alpha virt. eigenvalues --    0.13384   0.14067   0.14186   0.14637   0.14728
 Alpha virt. eigenvalues --    0.15315   0.15577   0.15762   0.15941   0.16507
 Alpha virt. eigenvalues --    0.16885   0.17264   0.17713   0.17926   0.18660
 Alpha virt. eigenvalues --    0.19481   0.19634   0.20023   0.21001   0.21428
 Alpha virt. eigenvalues --    0.21709   0.22975   0.23471   0.23719   0.24311
 Alpha virt. eigenvalues --    0.25263   0.25713   0.26457   0.27130   0.27476
 Alpha virt. eigenvalues --    0.28257   0.28614   0.29006   0.29453   0.30602
 Alpha virt. eigenvalues --    0.30903   0.31266   0.31957   0.32499   0.33200
 Alpha virt. eigenvalues --    0.33390   0.33877   0.34396   0.34656   0.35591
 Alpha virt. eigenvalues --    0.35985   0.36829   0.37109   0.37541   0.37643
 Alpha virt. eigenvalues --    0.38071   0.38924   0.40061   0.40749   0.41524
 Alpha virt. eigenvalues --    0.42290   0.43528   0.45168   0.46355   0.47847
 Alpha virt. eigenvalues --    0.48615   0.49481   0.51685   0.52377   0.52914
 Alpha virt. eigenvalues --    0.53974   0.56159   0.56435   0.57354   0.59651
 Alpha virt. eigenvalues --    0.60881   0.61989   0.63189   0.63898   0.64350
 Alpha virt. eigenvalues --    0.64948   0.66244   0.66542   0.67695   0.67985
 Alpha virt. eigenvalues --    0.68409   0.69146   0.69561   0.70521   0.71099
 Alpha virt. eigenvalues --    0.71890   0.72980   0.73500   0.73887   0.75298
 Alpha virt. eigenvalues --    0.76589   0.76666   0.77454   0.78346   0.78978
 Alpha virt. eigenvalues --    0.79792   0.80468   0.80984   0.81657   0.82706
 Alpha virt. eigenvalues --    0.84686   0.87236   0.88352   0.90169   0.92914
 Alpha virt. eigenvalues --    0.94307   0.96463   0.98512   1.01798   1.03797
 Alpha virt. eigenvalues --    1.07212   1.08048   1.11655   1.14247   1.15320
 Alpha virt. eigenvalues --    1.18128   1.19203   1.20259   1.23039   1.23577
 Alpha virt. eigenvalues --    1.24254   1.24950   1.27860   1.28848   1.29924
 Alpha virt. eigenvalues --    1.30934   1.32506   1.32891   1.33657   1.35304
 Alpha virt. eigenvalues --    1.38287   1.39780   1.40854   1.44813   1.46015
 Alpha virt. eigenvalues --    1.47153   1.48990   1.49765   1.52544   1.53014
 Alpha virt. eigenvalues --    1.54043   1.55321   1.56333   1.58201   1.59280
 Alpha virt. eigenvalues --    1.60188   1.61218   1.62025   1.62567   1.64041
 Alpha virt. eigenvalues --    1.65207   1.66417   1.66538   1.67353   1.69088
 Alpha virt. eigenvalues --    1.69488   1.71384   1.72110   1.73155   1.74388
 Alpha virt. eigenvalues --    1.74753   1.75549   1.76371   1.78717   1.79204
 Alpha virt. eigenvalues --    1.81161   1.82467   1.84671   1.85627   1.86184
 Alpha virt. eigenvalues --    1.86896   1.87672   1.88708   1.90804   1.91910
 Alpha virt. eigenvalues --    1.93934   1.95120   1.97253   1.99017   2.00528
 Alpha virt. eigenvalues --    2.03713   2.05396   2.05686   2.10003   2.10258
 Alpha virt. eigenvalues --    2.15462   2.15988   2.17233   2.18766   2.19179
 Alpha virt. eigenvalues --    2.21523   2.22491   2.23453   2.26648   2.31251
 Alpha virt. eigenvalues --    2.36294   2.37309   2.38860   2.40758   2.41409
 Alpha virt. eigenvalues --    2.43867   2.48133   2.49507   2.51368   2.53669
 Alpha virt. eigenvalues --    2.54177   2.54716   2.55552   2.57715   2.58394
 Alpha virt. eigenvalues --    2.59468   2.59644   2.61228   2.61999   2.63117
 Alpha virt. eigenvalues --    2.65510   2.67025   2.69377   2.70837   2.71910
 Alpha virt. eigenvalues --    2.74763   2.76784   2.78070   2.78377   2.80389
 Alpha virt. eigenvalues --    2.81244   2.84038   2.85391   2.86599   2.87293
 Alpha virt. eigenvalues --    2.90304   2.91928   2.93303   2.97286   2.98953
 Alpha virt. eigenvalues --    2.99752   3.01510   3.03198   3.06708   3.06786
 Alpha virt. eigenvalues --    3.09106   3.12509   3.14418   3.18751   3.21113
 Alpha virt. eigenvalues --    3.24494   3.26217   3.32615   3.33875   3.37926
 Alpha virt. eigenvalues --    3.38653   3.42541   3.43406   3.45603   3.52516
 Alpha virt. eigenvalues --    3.59815   3.63556   3.63896   3.71606   3.74472
 Alpha virt. eigenvalues --    3.79785   3.80884   3.81848   3.82613   3.85077
 Alpha virt. eigenvalues --    3.86414   3.88479   3.99803   4.10616   4.12457
 Alpha virt. eigenvalues --    4.19145   4.22965   4.29279   4.31950   4.36683
 Alpha virt. eigenvalues --    4.42596   4.44787   4.52679   5.12165   5.20351
 Alpha virt. eigenvalues --    5.21107   5.30287   5.33264   5.45469   5.66723
 Alpha virt. eigenvalues --    5.83487   6.10616  23.80730  23.84573  23.87287
 Alpha virt. eigenvalues --   23.89135  23.98349  24.00670  24.01756  24.02588
 Alpha virt. eigenvalues --   24.03732  24.08129  49.89909  50.02296  50.05264
          Condensed to atoms (all electrons):
               1          2          3          4          5          6
     1  O    8.346602  -0.086411  -0.079584   1.351059  -1.134034  -0.351636
     2  O   -0.086411   7.807795   0.004119   0.040135  -0.033843  -0.169654
     3  O   -0.079584   0.004119   7.805332   0.057571  -0.041910  -0.112009
     4  C    1.351059   0.040135   0.057571  48.914098 -19.797871 -24.707123
     5  C   -1.134034  -0.033843  -0.041910 -19.797871  26.494661   4.700657
     6  C   -0.351636  -0.169654  -0.112009 -24.707123   4.700657  33.421645
     7  C    0.195128  -0.135160  -0.021958  -3.692535  -3.272790   5.410661
     8  C    0.056708   0.050296  -0.025642   5.540469  -0.049599  -8.035432
     9  C   -0.199393   0.025649  -0.015643  -6.107546   2.580481   1.665343
    10  C    0.061730   0.013638   0.026542   1.001026  -0.361371  -1.092020
    11  C   -0.224191   0.107106   0.001276  -2.629007  -0.174958  -1.006875
    12  C    0.196826   0.501631  -0.005360   3.253271  -3.126738   0.338114
    13  C   -0.212186   0.046272   0.575804   2.719537   0.663687  -4.657852
    14  H   -0.020231  -0.002039  -0.013847  -0.807543   0.185123   1.225663
    15  H    0.000730   0.003151   0.001791   0.385230  -0.321365  -0.279298
    16  H    0.011248   0.002849   0.001814   0.090574  -0.116741   0.061761
    17  H    0.001599   0.002307   0.004203   0.362498  -0.063909  -0.471185
    18  H    0.005068  -0.001341  -0.002120   0.035383  -0.102675  -0.061561
    19  H   -0.014671   0.002824  -0.002576  -0.301882   0.089665   0.298146
    20  H   -0.001436  -0.000941   0.000728   0.344186  -0.065192  -0.339273
    21  H    0.053012   0.003072   0.004832   0.401752  -0.247041  -0.245706
    22  H   -0.006626  -0.002450  -0.002762  -0.116939   0.091561   0.026800
    23  H    0.004473   0.000220   0.001811   0.009199   0.051172  -0.103033
    24  H    0.005050   0.000360   0.000652   0.000374  -0.073252   0.160686
    25  H    0.002851   0.006904  -0.000360  -0.108770  -0.007826   0.000676
    26  H    0.003978  -0.020527  -0.000145   0.242223  -0.129954  -0.110488
    27  H   -0.006955  -0.015315  -0.000003  -0.013742  -0.059522  -0.009333
               7          8          9         10         11         12
     1  O    0.195128   0.056708  -0.199393   0.061730  -0.224191   0.196826
     2  O   -0.135160   0.050296   0.025649   0.013638   0.107106   0.501631
     3  O   -0.021958  -0.025642  -0.015643   0.026542   0.001276  -0.005360
     4  C   -3.692535   5.540469  -6.107546   1.001026  -2.629007   3.253271
     5  C   -3.272790  -0.049599   2.580481  -0.361371  -0.174958  -3.126738
     6  C    5.410661  -8.035432   1.665343  -1.092020  -1.006875   0.338114
     7  C   13.731675  -4.125189  -0.164064  -0.311764   0.034857  -1.112989
     8  C   -4.125189  11.591138  -0.518890   0.403464  -0.300003   0.572052
     9  C   -0.164064  -0.518890   9.638457  -0.793812   1.134411  -1.211554
    10  C   -0.311764   0.403464  -0.793812   6.671089  -0.164693   0.009341
    11  C    0.034857  -0.300003   1.134411  -0.164693  10.559643  -2.086760
    12  C   -1.112989   0.572052  -1.211554   0.009341  -2.086760   9.052446
    13  C   -0.554576   0.702394  -0.514432  -0.081114   0.430227  -0.348852
    14  H    0.077680  -0.256542   0.053284  -0.027508  -0.040983   0.035688
    15  H    0.532326  -0.054554  -0.032186  -0.003899   0.006485   0.005331
    16  H    0.471291  -0.047530  -0.041927   0.036284  -0.163677   0.065029
    17  H   -0.151110   0.602036  -0.000540  -0.012799   0.026061   0.000095
    18  H   -0.103361   0.617308  -0.039629   0.001127  -0.048819   0.052769
    19  H    0.043646  -0.045349   0.369704  -0.075969  -0.034844   0.057411
    20  H   -0.061775   0.057577   0.341433  -0.012043   0.011471   0.023969
    21  H   -0.083532   0.016931   0.408435   0.058316  -0.058387  -0.007514
    22  H   -0.026347   0.000924   0.093913   0.251435   0.079533  -0.019396
    23  H   -0.011887   0.021973  -0.064489   0.480443  -0.013672  -0.012305
    24  H    0.066506  -0.028428  -0.083349   0.441888  -0.127827   0.016131
    25  H    0.007052  -0.015257   0.084715  -0.035886   0.410157  -0.000504
    26  H   -0.021040   0.032164  -0.086716   0.039179   0.375100   0.003461
    27  H   -0.016434  -0.018493   0.007684  -0.001684   0.552478  -0.062872
              13         14         15         16         17         18
     1  O   -0.212186  -0.020231   0.000730   0.011248   0.001599   0.005068
     2  O    0.046272  -0.002039   0.003151   0.002849   0.002307  -0.001341
     3  O    0.575804  -0.013847   0.001791   0.001814   0.004203  -0.002120
     4  C    2.719537  -0.807543   0.385230   0.090574   0.362498   0.035383
     5  C    0.663687   0.185123  -0.321365  -0.116741  -0.063909  -0.102675
     6  C   -4.657852   1.225663  -0.279298   0.061761  -0.471185  -0.061561
     7  C   -0.554576   0.077680   0.532326   0.471291  -0.151110  -0.103361
     8  C    0.702394  -0.256542  -0.054554  -0.047530   0.602036   0.617308
     9  C   -0.514432   0.053284  -0.032186  -0.041927  -0.000540  -0.039629
    10  C   -0.081114  -0.027508  -0.003899   0.036284  -0.012799   0.001127
    11  C    0.430227  -0.040983   0.006485  -0.163677   0.026061  -0.048819
    12  C   -0.348852   0.035688   0.005331   0.065029   0.000095   0.052769
    13  C    7.847830  -0.182027   0.060827  -0.032664   0.071295  -0.063347
    14  H   -0.182027   0.382996  -0.007132   0.001851  -0.023904  -0.001396
    15  H    0.060827  -0.007132   0.394717   0.002496   0.006162  -0.002867
    16  H   -0.032664   0.001851   0.002496   0.408900  -0.000275   0.003509
    17  H    0.071295  -0.023904   0.006162  -0.000275   0.406446   0.003831
    18  H   -0.063347  -0.001396  -0.002867   0.003509   0.003831   0.390574
    19  H   -0.022925   0.014299  -0.000381  -0.000282  -0.001892   0.000906
    20  H    0.066783  -0.016458   0.001135  -0.000415   0.002770  -0.000369
    21  H   -0.062000  -0.004845  -0.002147   0.003626   0.003543  -0.004046
    22  H    0.000305   0.005046  -0.001499  -0.036967  -0.014823  -0.001420
    23  H    0.011049  -0.008179   0.000184   0.002966   0.004622  -0.000310
    24  H   -0.027775   0.006400  -0.001647   0.014016  -0.003267   0.001306
    25  H   -0.000487   0.000203  -0.000232   0.000905   0.000362  -0.000830
    26  H    0.008974  -0.003249   0.001329  -0.002903   0.000493   0.000288
    27  H    0.006666  -0.000411   0.002676  -0.005149   0.000288  -0.001147
              19         20         21         22         23         24
     1  O   -0.014671  -0.001436   0.053012  -0.006626   0.004473   0.005050
     2  O    0.002824  -0.000941   0.003072  -0.002450   0.000220   0.000360
     3  O   -0.002576   0.000728   0.004832  -0.002762   0.001811   0.000652
     4  C   -0.301882   0.344186   0.401752  -0.116939   0.009199   0.000374
     5  C    0.089665  -0.065192  -0.247041   0.091561   0.051172  -0.073252
     6  C    0.298146  -0.339273  -0.245706   0.026800  -0.103033   0.160686
     7  C    0.043646  -0.061775  -0.083532  -0.026347  -0.011887   0.066506
     8  C   -0.045349   0.057577   0.016931   0.000924   0.021973  -0.028428
     9  C    0.369704   0.341433   0.408435   0.093913  -0.064489  -0.083349
    10  C   -0.075969  -0.012043   0.058316   0.251435   0.480443   0.441888
    11  C   -0.034844   0.011471  -0.058387   0.079533  -0.013672  -0.127827
    12  C    0.057411   0.023969  -0.007514  -0.019396  -0.012305   0.016131
    13  C   -0.022925   0.066783  -0.062000   0.000305   0.011049  -0.027775
    14  H    0.014299  -0.016458  -0.004845   0.005046  -0.008179   0.006400
    15  H   -0.000381   0.001135  -0.002147  -0.001499   0.000184  -0.001647
    16  H   -0.000282  -0.000415   0.003626  -0.036967   0.002966   0.014016
    17  H   -0.001892   0.002770   0.003543  -0.014823   0.004622  -0.003267
    18  H    0.000906  -0.000369  -0.004046  -0.001420  -0.000310   0.001306
    19  H    0.511548  -0.035824  -0.051495   0.003088  -0.002780  -0.003137
    20  H   -0.035824   0.457289  -0.022491   0.000244   0.000331  -0.005283
    21  H   -0.051495  -0.022491   0.540814  -0.010111   0.004091   0.008391
    22  H    0.003088   0.000244  -0.010111   0.550891  -0.050421  -0.055419
    23  H   -0.002780   0.000331   0.004091  -0.050421   0.469823  -0.022848
    24  H   -0.003137  -0.005283   0.008391  -0.055419  -0.022848   0.495212
    25  H    0.002812  -0.002015   0.001057   0.006873  -0.000904  -0.014598
    26  H   -0.015441   0.001701   0.004756   0.001179  -0.001331   0.004367
    27  H    0.000080   0.000897  -0.002277  -0.000173   0.000360  -0.002488
              25         26         27
     1  O    0.002851   0.003978  -0.006955
     2  O    0.006904  -0.020527  -0.015315
     3  O   -0.000360  -0.000145  -0.000003
     4  C   -0.108770   0.242223  -0.013742
     5  C   -0.007826  -0.129954  -0.059522
     6  C    0.000676  -0.110488  -0.009333
     7  C    0.007052  -0.021040  -0.016434
     8  C   -0.015257   0.032164  -0.018493
     9  C    0.084715  -0.086716   0.007684
    10  C   -0.035886   0.039179  -0.001684
    11  C    0.410157   0.375100   0.552478
    12  C   -0.000504   0.003461  -0.062872
    13  C   -0.000487   0.008974   0.006666
    14  H    0.000203  -0.003249  -0.000411
    15  H   -0.000232   0.001329   0.002676
    16  H    0.000905  -0.002903  -0.005149
    17  H    0.000362   0.000493   0.000288
    18  H   -0.000830   0.000288  -0.001147
    19  H    0.002812  -0.015441   0.000080
    20  H   -0.002015   0.001701   0.000897
    21  H    0.001057   0.004756  -0.002277
    22  H    0.006873   0.001179  -0.000173
    23  H   -0.000904  -0.001331   0.000360
    24  H   -0.014598   0.004367  -0.002488
    25  H    0.527150  -0.043580  -0.037162
    26  H   -0.043580   0.481922  -0.018094
    27  H   -0.037162  -0.018094   0.420825
 Mulliken charges:
               1
     1  O    0.041294
     2  O   -0.150645
     3  O   -0.162559
     4  C   -0.465624
     5  C    0.323584
     6  C    0.442328
     7  C   -0.704310
     8  C   -0.744528
     9  C   -0.529339
    10  C   -0.520943
    11  C   -0.654112
    12  C   -0.188721
    13  C   -0.451412
    14  H    0.428060
    15  H    0.302637
    16  H    0.269412
    17  H    0.245094
    18  H    0.323169
    19  H    0.215318
    20  H    0.253002
    21  H    0.288963
    22  H    0.233561
    23  H    0.229440
    24  H    0.227981
    25  H    0.216693
    26  H    0.252354
    27  H    0.279302
 Sum of Mulliken charges =  -0.00000
 Mulliken charges with hydrogens summed into heavy atoms:
               1
     1  O    0.041294
     2  O   -0.150645
     3  O   -0.162559
     4  C   -0.465624
     5  C    0.323584
     6  C    0.870388
     7  C   -0.132261
     8  C   -0.176265
     9  C    0.227944
    10  C    0.170038
    11  C    0.094237
    12  C   -0.188721
    13  C   -0.451412
 Electronic spatial extent (au):  <R**2>=           1930.9164
 Charge=             -0.0000 electrons
 Dipole moment (field-independent basis, Debye):
    X=              4.0292    Y=             -4.1097    Z=              1.2914  Tot=              5.8984
 Quadrupole moment (field-independent basis, Debye-Ang):
   XX=            -90.4967   YY=            -87.3049   ZZ=            -73.9323
   XY=             -1.0967   XZ=             -1.8074   YZ=              1.7611
 Traceless Quadrupole moment (field-independent basis, Debye-Ang):
   XX=             -6.5854   YY=             -3.3936   ZZ=              9.9790
   XY=             -1.0967   XZ=             -1.8074   YZ=              1.7611
 Octapole moment (field-independent basis, Debye-Ang**2):
  XXX=             41.2703  YYY=            -30.0050  ZZZ=              0.3982  XYY=             -4.9245
  XXY=              4.7362  XXZ=              4.9374  XZZ=             -3.7457  YZZ=              2.8328
  YYZ=              4.1621  XYZ=             -0.6153
 Hexadecapole moment (field-independent basis, Debye-Ang**3):
 XXXX=          -1213.1657 YYYY=           -963.4719 ZZZZ=           -591.1038 XXXY=            -10.5385
 XXXZ=            -15.2659 YYYX=             -1.8732 YYYZ=             13.0624 ZZZX=              0.2627
 ZZZY=             -3.7481 XXYY=           -330.9073 XXZZ=           -270.6780 YYZZ=           -239.5677
 XXYZ=             -0.4616 YYXZ=              4.3903 ZZXY=             -1.2778
 N-N= 8.961250113295D+02 E-N=-3.225503270702D+03  KE= 6.121570982372D+02
 R6APFD:  NTU= -4 IXU= 1 FactS= 1.050
 Calling FoFJK, ICntrl=      2127 FMM=F ISym2X=0 I1Cent= 0 IOpClX= 0 NMat=1 NMatS=1 NMatT=0.
 ***** Axes restored to original set *****
 -------------------------------------------------------------------
 Center     Atomic                   Forces (Hartrees/Bohr)
 Number     Number              X              Y              Z
 -------------------------------------------------------------------
      1        8          -0.009318775    0.012565740   -0.000856538
      2        8          -0.030313851   -0.054553695    0.004019823
      3        8           0.056723464    0.021893238    0.003566682
      4        6           0.000687354   -0.005633201   -0.003750793
      5        6           0.023002042    0.001675583   -0.000441988
      6        6          -0.004557426   -0.010942913   -0.004693310
      7        6          -0.003953983    0.000501278    0.004843978
      8        6           0.000791521   -0.002197055    0.008545521
      9        6          -0.000721537    0.002770717    0.004101592
     10        6          -0.000769133    0.006342706    0.003804217
     11        6          -0.001080969    0.006460171   -0.001674737
     12        6           0.039155211    0.046239019   -0.005317402
     13        6          -0.057220328   -0.031877414   -0.005634960
     14        1          -0.004505000    0.002666612   -0.001644902
     15        1           0.003839489    0.002363807   -0.001577501
     16        1           0.003935521    0.003198101   -0.003832091
     17        1          -0.003126948   -0.001416274   -0.001231114
     18        1          -0.002918302   -0.002969386   -0.001579121
     19        1           0.001459900   -0.000385348    0.001111652
     20        1           0.000135484   -0.001221139    0.001068086
     21        1          -0.002573609    0.003264343    0.000972524
     22        1          -0.000164976    0.001020707    0.003282368
     23        1          -0.002353007    0.001082049   -0.001076809
     24        1          -0.000236695    0.001559311   -0.000929902
     25        1          -0.003376862   -0.003809450    0.001020247
     26        1          -0.000310246    0.000841467   -0.001210713
     27        1          -0.002228340    0.000561027   -0.000884808
 -------------------------------------------------------------------
 Cartesian Forces:  Max     0.057220328 RMS     0.014521911

 GradGradGradGradGradGradGradGradGradGradGradGradGradGradGradGradGradGrad
 Berny optimization.
 FormGI is forming the generalized inverse of G from B-inverse, IUseBI=4.
 Internal  Forces:  Max     0.061881367 RMS     0.007356010
 Search for a local minimum.
 Step number   1 out of a maximum of  162
 All quantities printed in internal units (Hartrees-Bohrs-Radians)
 Mixed Optimization -- RFO/linear search
 Second derivative matrix not updated -- first step.
 ITU=  0
     Eigenvalues ---    0.00230   0.00230   0.00370   0.00386   0.00737
     Eigenvalues ---    0.00995   0.01577   0.01622   0.02119   0.02354
     Eigenvalues ---    0.03482   0.03964   0.04410   0.04516   0.04850
     Eigenvalues ---    0.04967   0.05131   0.05146   0.05159   0.05343
     Eigenvalues ---    0.05382   0.05453   0.05460   0.05505   0.05718
     Eigenvalues ---    0.06974   0.07015   0.07175   0.07526   0.08971
     Eigenvalues ---    0.09655   0.10074   0.10680   0.14264   0.16000
     Eigenvalues ---    0.16000   0.16000   0.16000   0.16000   0.16000
     Eigenvalues ---    0.16000   0.16000   0.16000   0.17864   0.21223
     Eigenvalues ---    0.24464   0.24981   0.24992   0.25455   0.26555
     Eigenvalues ---    0.27894   0.28019   0.28475   0.28612   0.28655
     Eigenvalues ---    0.29430   0.30892   0.34092   0.34099   0.34105
     Eigenvalues ---    0.34105   0.34108   0.34145   0.34148   0.34152
     Eigenvalues ---    0.34176   0.34204   0.34221   0.34285   0.34405
     Eigenvalues ---    0.34430   0.46503   0.51475   0.91382   0.91626
 RFO step:  Lambda=-1.74874713D-02 EMin= 2.30000000D-03
 Linear search not attempted -- first point.
 Iteration  1 RMS(Cart)=  0.03388401 RMS(Int)=  0.00066678
 Iteration  2 RMS(Cart)=  0.00077593 RMS(Int)=  0.00024904
 Iteration  3 RMS(Cart)=  0.00000087 RMS(Int)=  0.00024904
 Variable       Old X    -DE/DX   Delta X   Delta X   Delta X     New X
                                 (Linear)    (Quad)   (Total)
    R1        2.57707   0.00615   0.00000   0.01001   0.00997   2.58703
    R2        2.56981   0.00656   0.00000   0.01054   0.01052   2.58033
    R3        2.32302  -0.06188   0.00000  -0.06645  -0.06645   2.25658
    R4        2.32193  -0.05953   0.00000  -0.06375  -0.06375   2.25818
    R5        2.91816   0.00076   0.00000   0.00102   0.00123   2.91939
    R6        2.89681   0.00480   0.00000   0.01417   0.01437   2.91118
    R7        2.91111  -0.00638   0.00000  -0.02111  -0.02111   2.89000
    R8        2.92370  -0.00953   0.00000  -0.03216  -0.03216   2.89154
    R9        2.92304   0.00178   0.00000   0.00624   0.00615   2.92919
   R10        2.89115  -0.00525   0.00000  -0.01683  -0.01683   2.87432
   R11        2.89452  -0.00373   0.00000  -0.01180  -0.01182   2.88270
   R12        2.90090   0.00619   0.00000   0.02229   0.02226   2.92317
   R13        2.85204   0.00089   0.00000   0.00262   0.00264   2.85468
   R14        2.06958   0.00003   0.00000   0.00010   0.00010   2.06968
   R15        2.89979   0.01347   0.00000   0.04853   0.04830   2.94809
   R16        2.07153   0.00035   0.00000   0.00098   0.00098   2.07251
   R17        2.07153   0.00006   0.00000   0.00017   0.00017   2.07170
   R18        2.07074  -0.00000   0.00000  -0.00001  -0.00001   2.07073
   R19        2.07034   0.00020   0.00000   0.00055   0.00055   2.07089
   R20        2.07081   0.00074   0.00000   0.00207   0.00207   2.07288
   R21        2.07148   0.00048   0.00000   0.00135   0.00135   2.07283
   R22        2.06611   0.00379   0.00000   0.01049   0.01049   2.07659
   R23        2.06651   0.00290   0.00000   0.00802   0.00802   2.07454
   R24        2.07174   0.00058   0.00000   0.00162   0.00162   2.07336
   R25        2.07087   0.00042   0.00000   0.00117   0.00117   2.07203
   R26        2.06852   0.00100   0.00000   0.00276   0.00276   2.07129
   R27        2.06988   0.00131   0.00000   0.00365   0.00365   2.07353
   R28        2.07163  -0.00065   0.00000  -0.00182  -0.00182   2.06981
    A1        2.13889   0.00006   0.00000   0.00531   0.00526   2.14415
    A2        1.69283   0.00650   0.00000   0.04286   0.04307   1.73590
    A3        2.00685  -0.00409   0.00000  -0.02827  -0.02815   1.97870
    A4        1.98624  -0.00403   0.00000  -0.03086  -0.03075   1.95549
    A5        1.99033  -0.00402   0.00000  -0.01871  -0.01860   1.97172
    A6        1.93004  -0.00216   0.00000  -0.00685  -0.00656   1.92348
    A7        1.85788   0.00695   0.00000   0.03786   0.03761   1.89549
    A8        1.82314  -0.00239   0.00000  -0.01857  -0.01892   1.80422
    A9        1.99832   0.00341   0.00000   0.02103   0.02090   2.01922
   A10        1.91381  -0.00292   0.00000  -0.02490  -0.02490   1.88891
   A11        1.94526   0.00154   0.00000   0.02950   0.02952   1.97477
   A12        1.85486   0.00127   0.00000   0.00216   0.00181   1.85667
   A13        1.92114  -0.00110   0.00000  -0.01083  -0.01072   1.91042
   A14        1.83910  -0.00350   0.00000  -0.02454  -0.02454   1.81455
   A15        1.93061  -0.00254   0.00000  -0.01872  -0.01878   1.91183
   A16        1.96413   0.00373   0.00000   0.02955   0.02952   1.99364
   A17        1.87171   0.00277   0.00000   0.00843   0.00810   1.87982
   A18        1.95690   0.00112   0.00000   0.02418   0.02419   1.98110
   A19        1.89905  -0.00165   0.00000  -0.01970  -0.01961   1.87944
   A20        1.82539   0.00178   0.00000   0.01247   0.01250   1.83789
   A21        1.96314  -0.00204   0.00000  -0.02114  -0.02172   1.94142
   A22        1.95380  -0.00440   0.00000  -0.04553  -0.04584   1.90796
   A23        1.93411   0.00183   0.00000   0.03103   0.03108   1.96519
   A24        1.91661   0.00295   0.00000   0.03207   0.03223   1.94884
   A25        1.87149   0.00007   0.00000  -0.00632  -0.00817   1.86331
   A26        1.82123  -0.00134   0.00000   0.00112   0.00108   1.82231
   A27        1.93511  -0.00113   0.00000  -0.01780  -0.01794   1.91717
   A28        1.97077  -0.00165   0.00000  -0.02242  -0.02248   1.94829
   A29        1.92074   0.00262   0.00000   0.02557   0.02554   1.94628
   A30        1.94112   0.00257   0.00000   0.02518   0.02521   1.96632
   A31        1.87542  -0.00090   0.00000  -0.00984  -0.01077   1.86465
   A32        1.93498  -0.00163   0.00000  -0.00934  -0.00938   1.92560
   A33        1.92831  -0.00135   0.00000  -0.00803  -0.00808   1.92023
   A34        1.98638  -0.00190   0.00000  -0.01012  -0.01015   1.97623
   A35        1.87803   0.00136   0.00000   0.00645   0.00640   1.88443
   A36        1.86458   0.00207   0.00000   0.01247   0.01243   1.87701
   A37        1.86670   0.00183   0.00000   0.01063   0.01060   1.87730
   A38        1.97860  -0.00146   0.00000  -0.00748  -0.00752   1.97109
   A39        1.92853  -0.00313   0.00000  -0.01850  -0.01859   1.90993
   A40        1.93985  -0.00150   0.00000  -0.00834  -0.00839   1.93146
   A41        1.86999   0.00251   0.00000   0.01403   0.01396   1.88395
   A42        1.86958   0.00187   0.00000   0.01206   0.01205   1.88163
   A43        1.87248   0.00217   0.00000   0.01077   0.01066   1.88315
   A44        1.95446  -0.00665   0.00000  -0.03810  -0.03821   1.91625
   A45        1.94159   0.00092   0.00000   0.00483   0.00481   1.94640
   A46        1.93934  -0.00114   0.00000  -0.00550  -0.00557   1.93378
   A47        1.88627   0.00284   0.00000   0.01430   0.01425   1.90052
   A48        1.86619   0.00422   0.00000   0.02441   0.02426   1.89045
   A49        1.87215   0.00030   0.00000   0.00284   0.00286   1.87501
   A50        2.09782  -0.01181   0.00000  -0.04733  -0.04731   2.05050
   A51        2.04686   0.00266   0.00000   0.01590   0.01585   2.06271
   A52        2.13804   0.00916   0.00000   0.03124   0.03125   2.16929
   A53        2.11870  -0.01446   0.00000  -0.05700  -0.05702   2.06169
   A54        2.04118  -0.00090   0.00000   0.00207   0.00210   2.04328
   A55        2.12263   0.01537   0.00000   0.05479   0.05477   2.17741
    D1        3.13398  -0.00170   0.00000  -0.01503  -0.01517   3.11882
    D2       -0.03978  -0.00092   0.00000  -0.02110  -0.02106  -0.06084
    D3       -3.12889   0.00208   0.00000   0.01546   0.01544  -3.11344
    D4        0.05140   0.00139   0.00000   0.01804   0.01782   0.06922
    D5        0.80427   0.00003   0.00000  -0.00853  -0.00835   0.79592
    D6        2.93671   0.00230   0.00000   0.02772   0.02772   2.96443
    D7       -1.17740   0.00104   0.00000   0.00919   0.00898  -1.16842
    D8        2.91013  -0.00244   0.00000  -0.01611  -0.01632   2.89381
    D9       -1.24062  -0.00017   0.00000   0.02014   0.01975  -1.22087
   D10        0.92846  -0.00143   0.00000   0.00160   0.00101   0.92947
   D11       -1.22350   0.00035   0.00000  -0.01340  -0.01283  -1.23634
   D12        0.90894   0.00262   0.00000   0.02285   0.02324   0.93218
   D13        3.07801   0.00136   0.00000   0.00432   0.00450   3.08251
   D14       -0.81106  -0.00034   0.00000   0.00365   0.00330  -0.80776
   D15        1.20628  -0.00024   0.00000  -0.00901  -0.00891   1.19737
   D16       -2.94866  -0.00159   0.00000  -0.02723  -0.02749  -2.97615
   D17       -2.92946   0.00224   0.00000   0.01894   0.01870  -2.91075
   D18       -0.91211   0.00235   0.00000   0.00628   0.00649  -0.90562
   D19        1.21614   0.00100   0.00000  -0.01194  -0.01209   1.20405
   D20        1.26086  -0.00240   0.00000  -0.01214  -0.01223   1.24863
   D21       -3.00499  -0.00230   0.00000  -0.02480  -0.02444  -3.02943
   D22       -0.87674  -0.00364   0.00000  -0.04302  -0.04302  -0.91976
   D23        1.19322  -0.00184   0.00000  -0.02085  -0.02116   1.17206
   D24       -3.00951  -0.00206   0.00000  -0.02397  -0.02427  -3.03377
   D25       -0.90922  -0.00200   0.00000  -0.02307  -0.02337  -0.93259
   D26        3.12679   0.00113   0.00000   0.00314   0.00332   3.13011
   D27       -1.07593   0.00091   0.00000   0.00002   0.00021  -1.07572
   D28        1.02436   0.00097   0.00000   0.00092   0.00110   1.02546
   D29       -1.02338   0.00082   0.00000   0.00970   0.00981  -1.01357
   D30        1.05708   0.00060   0.00000   0.00658   0.00670   1.06378
   D31       -3.12582   0.00067   0.00000   0.00747   0.00759  -3.11822
   D32        0.84228   0.00249   0.00000   0.02014   0.02037   0.86265
   D33        2.94162   0.00247   0.00000   0.01978   0.02002   2.96164
   D34       -1.26475   0.00219   0.00000   0.01588   0.01615  -1.24860
   D35       -1.04138  -0.00199   0.00000  -0.01146  -0.01152  -1.05290
   D36        1.05796  -0.00201   0.00000  -0.01183  -0.01188   1.04608
   D37        3.13478  -0.00229   0.00000  -0.01573  -0.01575   3.11903
   D38        3.07112  -0.00028   0.00000  -0.00907  -0.00928   3.06184
   D39       -1.11272  -0.00029   0.00000  -0.00943  -0.00964  -1.12236
   D40        0.96409  -0.00057   0.00000  -0.01333  -0.01351   0.95059
   D41       -0.51540   0.00227   0.00000   0.02287   0.02278  -0.49263
   D42       -2.61569   0.00005   0.00000  -0.01109  -0.01073  -2.62642
   D43        1.55885   0.00459   0.00000   0.04513   0.04457   1.60342
   D44       -2.68227  -0.00123   0.00000  -0.00779  -0.00762  -2.68988
   D45        1.50063  -0.00345   0.00000  -0.04175  -0.04113   1.45951
   D46       -0.60802   0.00109   0.00000   0.01447   0.01417  -0.59384
   D47        1.50778  -0.00155   0.00000  -0.01261  -0.01265   1.49513
   D48       -0.59251  -0.00377   0.00000  -0.04657  -0.04616  -0.63866
   D49       -2.70116   0.00077   0.00000   0.00966   0.00914  -2.69202
   D50       -1.02941  -0.00077   0.00000  -0.01342  -0.01365  -1.04306
   D51        1.08347  -0.00112   0.00000  -0.01821  -0.01845   1.06502
   D52       -3.11509  -0.00089   0.00000  -0.01507  -0.01537  -3.13046
   D53        1.03506  -0.00039   0.00000  -0.00148  -0.00115   1.03391
   D54       -3.13525  -0.00073   0.00000  -0.00627  -0.00595  -3.14120
   D55       -1.05062  -0.00051   0.00000  -0.00313  -0.00287  -1.05349
   D56        3.08860   0.00144   0.00000   0.01257   0.01255   3.10114
   D57       -1.08171   0.00110   0.00000   0.00778   0.00775  -1.07396
   D58        1.00292   0.00132   0.00000   0.01092   0.01082   1.01375
   D59        0.66812  -0.00250   0.00000  -0.00824  -0.00829   0.65983
   D60       -2.50643  -0.00212   0.00000  -0.01602  -0.01620  -2.52263
   D61       -1.29297   0.00097   0.00000   0.02369   0.02376  -1.26921
   D62        1.81566   0.00135   0.00000   0.01591   0.01586   1.83152
   D63        2.88148  -0.00103   0.00000  -0.00702  -0.00680   2.87468
   D64       -0.29308  -0.00065   0.00000  -0.01481  -0.01470  -0.30778
   D65        0.51932  -0.00164   0.00000  -0.00930  -0.00931   0.51001
   D66       -1.54790  -0.00340   0.00000  -0.03127  -0.03105  -1.57896
   D67        2.62963  -0.00029   0.00000   0.00973   0.00957   2.63920
   D68       -1.53813   0.00170   0.00000   0.02041   0.02041  -1.51771
   D69        2.67784  -0.00006   0.00000  -0.00156  -0.00133   2.67651
   D70        0.57218   0.00305   0.00000   0.03944   0.03929   0.61148
   D71        2.66155   0.00130   0.00000   0.02505   0.02493   2.68647
   D72        0.59433  -0.00046   0.00000   0.00308   0.00319   0.59751
   D73       -1.51133   0.00265   0.00000   0.04408   0.04381  -1.46752
   D74       -0.70291   0.00258   0.00000   0.01727   0.01730  -0.68561
   D75        2.47747   0.00260   0.00000   0.02252   0.02259   2.50007
   D76        1.29397  -0.00133   0.00000  -0.01671  -0.01668   1.27729
   D77       -1.80883  -0.00130   0.00000  -0.01147  -0.01138  -1.82021
   D78       -2.86895   0.00070   0.00000   0.00603   0.00580  -2.86314
   D79        0.31144   0.00072   0.00000   0.01128   0.01110   0.32254
   D80        0.00158  -0.00097   0.00000  -0.01026  -0.01027  -0.00870
   D81        2.07859  -0.00175   0.00000  -0.01787  -0.01804   2.06054
   D82       -2.12837   0.00044   0.00000   0.00230   0.00239  -2.12598
   D83        2.12112  -0.00136   0.00000  -0.01136  -0.01144   2.10968
   D84       -2.08505  -0.00213   0.00000  -0.01897  -0.01921  -2.10426
   D85       -0.00882   0.00006   0.00000   0.00121   0.00122  -0.00760
   D86       -2.09769   0.00170   0.00000   0.01995   0.02016  -2.07753
   D87       -0.02068   0.00092   0.00000   0.01234   0.01239  -0.00829
   D88        2.05555   0.00311   0.00000   0.03251   0.03282   2.08837
         Item               Value     Threshold  Converged?
 Maximum Force            0.061881     0.000450     NO 
 RMS     Force            0.007356     0.000300     NO 
 Maximum Displacement     0.124951     0.001800     NO 
 RMS     Displacement     0.033805     0.001200     NO 
 Predicted change in Energy=-9.398719D-03
 GradGradGradGradGradGradGradGradGradGradGradGradGradGradGradGradGradGrad

                          Input orientation:                          
 ---------------------------------------------------------------------
 Center     Atomic      Atomic             Coordinates (Angstroms)
 Number     Number       Type             X           Y           Z
 ---------------------------------------------------------------------
      1          8           0       -1.210191    1.227044   -0.218456
      2          8           0        0.513322    2.582882   -0.234469
      3          8           0       -2.940740   -0.127379   -0.257845
      4          6           0        0.509991   -0.964806   -0.532177
      5          6           0        1.043764    0.276305    0.217063
      6          6           0       -0.823359   -1.157580    0.214986
      7          6           0        0.794548   -0.069833    1.707288
      8          6           0       -0.437393   -1.026975    1.707228
      9          6           0        0.325430   -0.734684   -2.032781
     10          6           0        1.409126   -2.186718   -0.332655
     11          6           0        2.488054    0.652800   -0.075843
     12          6           0        0.134761    1.457423   -0.108059
     13          6           0       -1.758790   -0.019387   -0.118926
     14          1           0       -1.340253   -2.093557   -0.022265
     15          1           0        0.624703    0.835610    2.302375
     16          1           0        1.685522   -0.557091    2.120340
     17          1           0       -0.180895   -2.012120    2.112736
     18          1           0       -1.270027   -0.643528    2.307741
     19          1           0        1.298297   -0.591510   -2.518850
     20          1           0       -0.156172   -1.607641   -2.490145
     21          1           0       -0.292764    0.143981   -2.263718
     22          1           0        1.654417   -2.369783    0.721613
     23          1           0        0.903658   -3.079308   -0.721989
     24          1           0        2.351464   -2.067285   -0.880368
     25          1           0        3.150286   -0.177625    0.194767
     26          1           0        2.634303    0.892707   -1.136525
     27          1           0        2.785637    1.533259    0.503734
 ---------------------------------------------------------------------
                    Distance matrix (angstroms):
                    1          2          3          4          5
     1  O    0.000000
     2  O    2.192955   0.000000
     3  O    2.197910   4.390513   0.000000
     4  C    2.803864   3.560159   3.561472   0.000000
     5  C    2.484732   2.409470   4.032960   1.544872   0.000000
     6  C    2.454372   3.997472   2.401705   1.540531   2.354183
     7  C    3.067468   3.299455   4.221071   2.428405   1.550061
     8  C    3.063671   4.207744   3.307194   2.432352   2.472439
     9  C    3.081928   3.778290   3.766574   1.529324   2.569027
    10  C    4.304374   4.853987   4.813295   1.530138   2.549934
    11  C    3.745279   2.765854   5.487586   2.595693   1.521025
    12  C    1.369000   1.194130   3.463053   2.487542   1.525460
    13  C    1.365451   3.456537   1.194975   2.492380   2.838067
    14  H    3.328934   5.034864   2.546157   2.226542   3.370023
    15  H    3.142396   3.082360   4.493824   3.359961   2.199309
    16  H    4.127743   4.096170   5.219455   2.929838   2.174595
    17  H    4.121419   5.206280   4.097396   2.927414   3.214071
    18  H    3.143930   4.478045   3.104823   3.367019   3.251254
    19  H    3.858945   3.988902   4.826696   2.169711   2.881512
    20  H    3.782455   4.805911   3.863697   2.165791   3.509711
    21  H    2.489537   3.273510   3.333007   2.207275   2.821009
    22  H    4.693280   5.171565   5.206072   2.203556   2.762109
    23  H    4.823543   5.696529   4.869159   2.159195   3.487347
    24  H    4.896541   5.041825   5.670819   2.174332   2.899456
    25  H    4.599741   3.841643   6.108026   2.849432   2.154991
    26  H    3.966708   2.858139   5.735308   2.885879   2.177606
    27  H    4.072097   2.609611   6.010750   3.534404   2.167081
                    6          7          8          9         10
     6  C    0.000000
     7  C    2.455155   0.000000
     8  C    1.546873   1.560064   0.000000
     9  C    2.559495   3.827560   3.828185   0.000000
    10  C    2.518537   3.003378   2.985927   2.484598   0.000000
    11  C    3.785170   2.563145   3.815655   3.229808   3.048426
    12  C    2.803675   2.462380   3.129674   2.923395   3.867068
    13  C    1.510633   3.139608   2.469041   2.918640   3.844307
    14  H    1.095226   3.412358   2.223489   2.943333   2.768412
    15  H    3.229068   1.096723   2.225189   4.620494   4.085728
    16  H    3.207093   1.096297   2.213192   4.373763   2.957915
    17  H    2.178177   2.210963   1.095782   4.367324   2.922086
    18  H    2.200769   2.225340   1.095868   4.625356   4.065832
    19  H    3.506525   4.287907   4.589334   1.096919   2.708583
    20  H    2.822309   4.570248   4.246669   1.096894   2.727682
    21  H    2.849486   4.122724   4.142520   1.098885   3.472405
    22  H    2.804547   2.645884   2.673993   3.467915   1.097798
    23  H    2.748372   3.869139   3.451317   2.747687   1.097177
    24  H    3.479492   3.620740   3.944061   2.684901   1.096473
    25  H    4.092747   2.801578   3.985019   3.640343   2.710400
    26  H    4.240954   3.521144   4.605152   2.963540   3.410297
    27  H    4.510970   2.825399   4.288486   4.198821   4.053710
                   11         12         13         14         15
    11  C    0.000000
    12  C    2.487256   0.000000
    13  C    4.299927   2.401379   0.000000
    14  H    4.711823   3.846100   2.118183   0.000000
    15  H    3.026783   2.537102   3.503535   4.224337   0.000000
    16  H    2.632701   3.380664   4.143274   4.013327   1.760139
    17  H    4.360615   4.131501   3.382462   2.430838   2.965554
    18  H    4.635203   3.496214   2.552872   2.745259   2.403721
    19  H    2.988663   3.371031   3.928452   3.930780   5.072929
    20  H    4.234427   3.892762   3.273166   2.780035   5.435760
    21  H    3.574723   2.560229   2.603086   3.335854   4.708429
    22  H    3.235257   4.200620   4.228575   3.098016   3.719363
    23  H    4.105660   4.642202   4.100662   2.548814   4.954914
    24  H    2.839855   4.234831   4.654875   3.790224   4.640943
    25  H    1.096078   3.443614   4.921633   4.887007   3.441980
    26  H    1.097265   2.761224   4.600727   5.094747   3.983439
    27  H    1.095297   2.721614   4.842544   5.518464   2.896801
                   16         17         18         19         20
    16  H    0.000000
    17  H    2.366575   0.000000
    18  H    2.962745   1.759909   0.000000
    19  H    4.655450   5.065346   5.467630   0.000000
    20  H    5.074649   4.620685   5.018954   1.774493   0.000000
    21  H    4.860564   4.880025   4.740618   1.771303   1.771471
    22  H    2.289816   2.330561   3.748084   3.713445   3.764901
    23  H    3.879655   3.217268   4.453897   3.094122   2.532867
    24  H    3.424676   3.921039   5.030538   2.443706   3.015110
    25  H    2.448951   4.259195   4.921472   3.311327   4.492924
    26  H    3.689075   5.188550   5.428331   2.428710   3.983814
    27  H    2.862382   4.894784   4.943809   3.982818   5.242405
                   21         22         23         24         25
    21  H    0.000000
    22  H    4.361505   0.000000
    23  H    3.768017   1.775120   0.000000
    24  H    3.714202   1.773054   1.773532   0.000000
    25  H    4.242898   2.705688   3.782532   2.316214   0.000000
    26  H    3.224729   3.880295   4.352457   2.984487   1.784430
    27  H    4.366399   4.069505   5.130305   3.881773   1.776388
                   26         27
    26  H    0.000000
    27  H    1.767389   0.000000
 Stoichiometry    C10H14O3
 Framework group  C1[X(C10H14O3)]
 Deg. of freedom    75
 Full point group                 C1      NOp   1
 Largest Abelian subgroup         C1      NOp   1
 Largest concise Abelian subgroup C1      NOp   1
                         Standard orientation:                         
 ---------------------------------------------------------------------
 Center     Atomic      Atomic             Coordinates (Angstroms)
 Number     Number       Type             X           Y           Z
 ---------------------------------------------------------------------
      1          8           0       -1.349788    1.209169   -0.169397
      2          8           0        0.295110    2.659281   -0.146169
      3          8           0       -3.001795   -0.238417   -0.247976
[...]
 010614,-0.00021895,0.00012870,0.00079828,-0.00126716,-0.00122484,-0.00
 007473,0.00017222,-0.00003607,-0.00047041,0.00000317,0.00004467,0.0001
 1718,0.00005105,0.00001479,-0.00008638,0.00000956,0.00000677,0.0000023
 0,0.00000804,-0.00001005,-0.00002644,-0.00060484,-0.00420952,-0.001680
 55,0.09351962,0.23880291,0.00050622,0.00038783,0.00010924,0.00013785,-
 0.00046862,0.00033586,0.00025731,0.00016131,0.00013172,-0.01374111,-0.
 02807678,-0.01502986,0.00053685,0.00300438,-0.00534694,-0.00060880,-0.
 00079347,0.00176306,-0.00039414,-0.00167985,-0.00077523,-0.00046066,0.
 00002071,0.00002265,-0.04456132,-0.09129296,-0.09193311,0.00042252,-0.
 00137479,0.00118204,0.00046384,0.00010400,-0.00021243,-0.00088374,0.00
 143877,-0.00057246,-0.00038245,-0.00062498,-0.00018105,0.00057216,0.00
 042331,-0.00028135,0.00004174,0.00020891,-0.00065010,-0.00000055,0.000
 04604,-0.00012903,0.00003646,0.00005705,-0.00004305,0.00008550,0.00005
 588,0.00009760,0.00493771,0.01238239,0.00582250,0.05006181,0.09981332,
 0.10346777,-0.00147074,0.00041305,0.00220855,-0.00028840,-0.00068422,0
 .00052133,-0.00037553,-0.00019230,-0.00024628,-0.00342696,0.00118436,-
 0.00001352,-0.00015849,0.00058120,0.00012315,0.00038662,-0.00060400,-0
 .00006447,0.00009371,-0.00010851,-0.00011989,0.00004131,-0.00004516,-0
 .00000683,-0.14210451,0.12315302,-0.02920332,0.00025927,-0.00024663,-0
 .00105030,-0.00008423,-0.00021041,-0.00004211,0.00070768,0.00029293,-0
 .00170474,0.00094365,0.00095918,0.00093330,-0.00000460,-0.00007693,0.0
 0000237,0.00001563,-0.00001463,-0.00004287,-0.00002130,-0.00003348,0.0
 0007374,-0.00002340,-0.00003315,0.00003272,-0.00000491,-0.00001592,-0.
 00003681,-0.01510218,0.02195618,-0.00572364,0.00820776,-0.01075289,0.0
 0312869,0.15162851,0.00033552,-0.00166895,-0.00278434,-0.00015643,-0.0
 0013951,0.00011192,-0.00069469,-0.00009043,-0.00039718,0.00099535,-0.0
 0392634,0.00020356,-0.00039126,0.00042283,-0.00003582,0.00025438,-0.00
 014805,-0.00019761,-0.00005489,0.00006040,0.00006230,-0.00007289,0.000
 14291,0.00014282,0.12309212,-0.20360888,0.03760209,-0.00016788,0.00077
 963,0.00165955,0.00003520,-0.00002421,0.00004290,0.00095604,0.00047028
 ,-0.00075661,0.00035936,0.00037287,0.00132756,0.00005743,-0.00004744,0
 .00003768,-0.00000780,0.00000623,0.00004607,-0.00004277,-0.00000781,-0
 .00004098,-0.00003061,-0.00000661,-0.00009583,-0.00001109,0.00001645,0
 .00004930,-0.00477033,0.00533635,-0.00182489,0.01612263,-0.01817588,0.
 00508232,-0.13614777,0.21981711,0.00131417,-0.00167491,-0.00092334,0.0
 0054278,0.00020315,0.00012267,-0.00031162,-0.00046493,0.00012774,-0.01
 960104,0.02549961,-0.00338261,0.00002286,0.00077491,0.00168220,-0.0006
 2729,0.00019710,0.00165374,0.00026876,-0.00004475,0.00029713,-0.000054
 36,-0.00027152,0.00027414,-0.02834746,0.03648293,-0.05727545,-0.000261
 77,-0.00010897,-0.00668081,0.00004108,-0.00012766,-0.00005030,-0.00232
 834,-0.00201033,-0.00238555,0.00227926,0.00172331,-0.00224109,0.000067
 53,-0.00008247,-0.00004361,0.00004116,-0.00002047,-0.00001269,0.000018
 60,-0.00000293,0.00019206,-0.00000409,-0.00001366,0.00020140,0.0000170
 8,-0.00004609,-0.00001142,0.00731940,-0.01172882,0.00182113,0.00942671
 ,-0.00993524,0.00183512,0.03121701,-0.03992353,0.06501849,-0.00012931,
 -0.00027500,0.00008791,-0.00006824,-0.00013499,0.00005947,0.00013310,-
 0.00012472,0.00002908,-0.00426225,-0.00005424,-0.01861034,0.00054949,-
 0.00065980,-0.00009461,0.00033648,-0.00044121,-0.00062124,0.00031445,0
 .00027832,0.00007021,-0.00097318,0.00073734,0.00041740,-0.00229160,0.0
 0314022,0.00044830,-0.06176257,0.00983014,-0.06134366,0.00037222,-0.00
 006502,0.00042094,0.00007139,-0.00004347,-0.00018877,0.00008263,0.0003
 7692,-0.00006498,-0.00009350,-0.00001860,-0.00002931,0.00000697,-0.000
 21271,0.00009046,0.00032349,-0.00012761,-0.00005662,-0.00138702,0.0001
 1685,0.00157045,0.00015520,-0.00028173,0.00007324,0.00022927,0.0001724
 9,-0.00024956,0.00003419,0.00003093,0.00044125,0.00033947,0.00045258,-
 0.00121630,0.06462348,-0.00040839,-0.00004402,-0.00013474,-0.00019818,
 0.00027963,-0.00011295,-0.00014563,-0.00002516,-0.00003041,0.00368343,
 -0.00276821,0.02601562,-0.00045710,0.00092356,0.00085630,-0.00052564,0
 .00037906,0.00019800,0.00063158,-0.00095710,-0.00043471,0.00062535,0.0
 0003568,-0.00037609,0.00363522,-0.00456522,-0.00029914,0.00968153,-0.0
 5097133,0.03387109,0.00012177,-0.00014237,0.00002006,0.00066572,0.0001
 0447,0.00028399,-0.00002423,0.00012019,0.00015149,0.00003268,-0.000018
 13,-0.00016474,-0.00025380,0.00021722,-0.00003179,-0.00018221,-0.00115
 627,-0.00156916,0.00003452,0.00026059,-0.00016080,-0.00019469,0.000022
 69,-0.00005149,-0.00003378,0.00002424,-0.00033514,0.00017688,0.0001863
 1,0.00009032,0.00047210,-0.00004433,0.00176812,-0.01278266,0.05535624,
 0.00010826,0.00005369,0.00007768,0.00006130,0.00015100,-0.00001938,-0.
 00010634,0.00006919,-0.00001120,-0.00004479,0.00062510,-0.00242205,-0.
 00080385,-0.00000070,-0.00024859,-0.00025151,0.00068801,-0.00018515,0.
 00050428,-0.00072247,-0.00064543,0.00077606,-0.00056541,-0.00097628,-0
 .00108646,0.00127725,0.00088640,-0.06234854,0.03527219,-0.29016606,-0.
 00027284,0.00019086,-0.00007682,0.00005074,-0.00004986,-0.00002418,-0.
 00002719,-0.00016308,0.00000206,-0.00001967,0.00009716,-0.00005399,0.0
 0019974,-0.00009501,0.00016931,0.00023323,-0.00113725,-0.00046341,0.00
 116291,-0.00064207,-0.00040894,0.00007189,-0.00031957,0.00018677,0.000
 00724,-0.00025052,0.00025004,0.00024598,-0.00009509,0.00024090,-0.0000
 6500,0.00000584,-0.00024026,0.06719605,-0.03746903,0.31697149,-0.00031
 127,-0.00044947,0.00000397,-0.00011389,0.00057474,-0.00049573,0.000110
 44,-0.00021802,0.00012962,0.00804987,0.01785753,0.00716179,-0.00327905
 ,0.00347905,-0.00071357,0.00188422,0.00090382,0.00017909,-0.00003084,-
 0.00010939,-0.00037413,0.00010065,-0.00017334,-0.00000132,0.00043755,-
 0.00026510,0.00083404,-0.10410021,-0.10342628,-0.04181191,-0.00074215,
 -0.00009427,-0.00053695,0.00117065,0.00039835,0.00119114,0.00016810,0.
 00056415,-0.00040419,-0.00038772,-0.00039585,-0.00015434,0.00001616,-0
 .00004177,0.00001850,-0.00000147,0.00002312,0.00016127,0.00000449,-0.0
 0017685,-0.00001509,0.00000649,-0.00003713,0.00002444,-0.00006745,-0.0
 0010296,-0.00015108,0.00003171,-0.00024540,-0.00020168,-0.00001038,-0.
 00012303,0.00022862,-0.00406417,-0.00508480,-0.00098512,0.11198268,0.0
 0091561,0.00077475,0.00012767,0.00056957,-0.00092027,0.00067339,0.0002
 4196,0.00022684,-0.00001334,-0.01185884,-0.02298636,-0.00961635,0.0042
 3542,-0.00314232,0.00197913,-0.00170147,0.00091843,0.00022040,-0.00002
 595,0.00018935,0.00067128,-0.00002138,0.00001403,-0.00008618,-0.000856
 06,0.00063030,-0.00099935,-0.10257817,-0.22100518,-0.07121622,0.000640
 33,0.00033776,-0.00004636,-0.00240020,-0.00014633,-0.00170296,-0.00029
 579,-0.00062780,0.00041915,0.00102539,0.00027506,-0.00037151,0.0000011
 0,0.00009133,-0.00010069,-0.00004131,0.00009004,-0.00004877,0.00006905
 ,-0.00008800,-0.00012611,0.00002874,0.00001307,0.00001043,0.00009304,-
 0.00000286,-0.00005732,0.00044538,0.00004014,0.00101055,0.00028044,0.0
 0045891,0.00004074,0.00314689,0.00458442,0.00185945,0.10870221,0.24268
 119,0.00014647,0.00020754,-0.00005103,0.00007688,0.00000027,-0.0000820
 9,0.00002983,0.00007161,-0.00001164,0.00259078,0.00304111,0.00000478,-
 0.00017754,0.00090292,0.00013016,-0.00026573,-0.00055170,0.00007382,-0
 .00028815,-0.00011520,-0.00012490,-0.00023424,-0.00007286,0.00001814,0
 .00054664,0.00060403,0.00048451,-0.04207569,-0.07165920,-0.07503600,-0
 .00008177,0.00017852,0.00019556,-0.00014205,-0.00000304,0.00024072,0.0
 0008392,-0.00016036,0.00002584,0.00045200,-0.00015867,0.00004775,0.000
 17806,-0.00010940,0.00009855,0.00025081,0.00004610,0.00030664,-0.00010
 493,-0.00001495,-0.00018593,0.00006538,0.00002927,-0.00000871,0.000028
 38,0.00007048,0.00000515,-0.00049370,0.00011011,-0.00018674,0.00005415
 ,-0.00019750,-0.00001684,-0.01418055,-0.02540748,-0.00841791,0.0458552
 1,0.07812722,0.07700667,0.00056251,0.00068440,-0.00026933,0.00027811,0
 .00033046,-0.00010724,-0.00072659,0.00055801,-0.00050930,-0.01716756,-
 0.00238539,0.00979164,-0.00030762,-0.00038890,-0.00027886,-0.00145939,
 0.00421510,-0.00142129,0.00003994,-0.00007716,-0.00017445,0.00020436,-
 0.00009788,-0.00063435,0.00049900,-0.00088166,0.00099269,-0.23358281,-
 0.02540942,0.11885555,-0.00031682,-0.00035186,-0.00058430,-0.00058594,
 -0.00037079,0.00017218,-0.00029135,-0.00164495,0.00153048,0.00038068,0
 .00005008,-0.00014818,0.00006048,0.00001482,0.00000924,0.00007410,0.00
 001985,0.00002777,0.00001535,-0.00011301,0.00003775,0.00007006,-0.0000
 7137,0.00009012,0.00011360,0.00064325,-0.00095450,-0.00019440,0.000010
 19,-0.00000608,0.00049831,-0.00001795,-0.00009968,0.00782418,0.0010494
 0,-0.00506768,-0.01162929,-0.00053475,0.00761463,0.25510208,-0.0007236
 4,-0.00038552,0.00010124,-0.00027637,-0.00006255,-0.00004619,0.0006418
 1,-0.00059373,0.00056629,0.02312550,0.00291539,-0.01434081,0.00008617,
 0.00143681,-0.00006698,0.00249338,-0.00484322,0.00103641,-0.00010086,0
 .00003002,0.00000372,-0.00019112,-0.00000996,0.00062014,0.00018953,0.0
 0093478,-0.00123760,-0.02652796,-0.04827712,0.01710241,-0.00032509,-0.
 00032639,-0.00057461,0.00063984,0.00009059,0.00029465,0.00100073,0.001
 79776,-0.00142707,0.00023696,0.00004699,0.00010908,0.00001758,-0.00001
 103,-0.00000454,-0.00003220,-0.00004448,-0.00003819,-0.00001805,0.0000
 0572,-0.00020221,-0.00004535,0.00005127,-0.00005214,-0.00016976,-0.000
 23160,0.00068300,-0.00020401,-0.00003907,0.00015617,-0.00025802,0.0000
 1181,-0.00021461,-0.00328120,-0.00184067,0.00125734,-0.02115685,-0.002
 50003,0.01510727,0.02568992,0.05352797,-0.00021543,-0.00006038,-0.0000
 7784,-0.00015638,-0.00014636,0.00003570,-0.00006195,-0.00006609,-0.000
 12893,-0.00418898,-0.00106761,0.00104901,0.00077959,0.00021256,-0.0001
 4653,-0.00151009,0.00092531,0.00021604,0.00004913,0.00006319,-0.000192
 76,0.00011588,0.00020074,-0.00027274,-0.00124803,0.00019348,0.00059552
 ,0.11948975,0.01621457,-0.12027316,0.00067727,-0.00033017,0.00069561,0
 .00012416,0.00011999,-0.00005943,-0.00011358,0.00021041,0.00046639,0.0
 0009961,0.00012659,-0.00010824,0.00008984,-0.00009912,0.00002648,0.000
 17746,0.00004404,0.00000750,-0.00010516,-0.00035875,0.00031311,0.00007
 839,-0.00023000,0.00010068,-0.00004374,0.00052950,0.00004649,-0.000029
 76,-0.00022080,-0.00001246,-0.00002494,-0.00022233,0.00000095,0.025910
 17,0.00340843,-0.01447784,-0.01032929,-0.00082668,0.00561115,-0.128654
 89,-0.01827183,0.12755283,-0.00293954,0.00082329,-0.00063507,0.0006031
 2,0.00024224,-0.00020570,-0.00039067,-0.00047917,0.00001136,0.00048517
 ,0.00121072,0.00001390,-0.02014033,0.02471500,-0.00837520,0.00034156,-
 0.00002556,0.00004710,0.00092785,0.00071358,-0.00176820,0.00037486,-0.
 00018666,-0.00007857,0.00004779,-0.00015647,0.00000041,-0.00010234,-0.
 00000559,-0.00010865,-0.13870714,0.11858014,-0.04350151,-0.00399939,-0
 .00430616,0.00193028,0.00101169,0.00175101,-0.00009347,0.00000179,-0.0
 0008021,0.00002265,0.00026240,-0.00011107,-0.00005070,0.00020450,-0.00
 041270,0.00126706,-0.00005059,-0.00007175,0.00007621,0.00011012,0.0000
 5782,-0.00001139,-0.00003268,0.00002981,-0.00004450,-0.00003014,-0.000
 02390,-0.00006252,0.00008507,-0.00004335,0.00013944,-0.00025472,-0.000
 50647,0.00033389,0.00047079,0.00004553,0.00009132,0.00026042,-0.000692
 29,-0.00062827,0.15392621,-0.00021159,0.00091661,-0.00025656,0.0014969
 4,0.00084108,-0.00015472,0.00015127,0.00001743,0.00003114,0.00056117,0
 .00006706,-0.00036937,-0.00582398,0.00646554,-0.00230116,0.00020130,0.
 00014832,0.00011229,-0.00013325,0.00035608,-0.00023632,-0.00003733,0.0
 0020738,-0.00005300,0.00003759,-0.00002355,-0.00002909,-0.00070687,-0.
 00144117,-0.00106260,0.12094150,-0.19830751,0.05756738,-0.00284980,-0.
 00232795,0.00086777,-0.00007230,-0.00009476,-0.00002468,0.00006120,0.0
 0002066,-0.00004261,-0.00006507,0.00000159,0.00005381,0.00035733,0.000
 21141,-0.00035934,0.00004086,0.00001104,-0.00000917,-0.00003100,-0.000
 03491,-0.00002011,0.00006891,-0.00002639,-0.00001499,0.00002213,0.0000
 3049,-0.00000205,-0.00000856,-0.00000135,0.00002381,0.00007393,-0.0002
 2855,0.00019819,-0.00032510,0.00011522,0.00010095,-0.00103566,-0.00162
 722,-0.00056614,-0.12956359,0.21549136,0.00027236,-0.00037117,0.000370
 88,-0.00008263,-0.00021721,0.00052209,0.00002208,-0.00001668,0.0000238
 8,-0.00044923,0.00062420,0.00002661,0.00342476,-0.00517352,-0.00018649
 ,-0.00009718,-0.00027779,0.00007434,0.00075749,-0.00123554,0.00068900,
 -0.00005907,0.00006558,-0.00001879,0.00000647,-0.00019486,-0.00017888,
 -0.00041001,-0.00000267,0.00068719,-0.04447659,0.05762321,-0.06778158,
 0.00170615,0.00071215,-0.00027177,-0.00001620,-0.00000363,-0.00012060,
 -0.00005004,-0.00000013,-0.00003579,0.00006344,0.00005362,0.00000695,0
 .00017227,0.00028297,-0.00053317,-0.00003491,-0.00001213,0.00003556,-0
 .00005086,-0.00004656,-0.00000800,-0.00011217,0.00014880,0.00002220,-0
 .00009492,-0.00004121,0.00002118,0.00013384,0.00000116,0.00002301,-0.0
 0002245,0.00010847,-0.00011652,0.00031335,0.00002836,-0.00017463,-0.00
 025290,-0.00101258,-0.00071194,0.04706803,-0.06213271,0.06919813,0.000
 30895,0.00024624,-0.00028498,0.00046434,0.00086388,-0.00061111,0.00001
 075,0.00008484,-0.00002427,0.00128037,0.00027250,0.00035606,-0.0039891
 9,-0.00484287,0.03233673,0.00012571,0.00031456,0.00014741,-0.00551967,
 -0.00107241,-0.00080506,-0.00013355,-0.00008941,0.00145991,-0.00027671
 ,0.00003528,0.00009821,0.00002376,-0.00007891,-0.00029744,-0.05148606,
 -0.00594712,0.03368246,0.00014904,-0.00184138,0.00149485,0.00001733,-0
 .00028297,0.00015394,0.00001775,-0.00003241,-0.00009067,-0.00009523,-0
 .00002841,0.00032237,0.00007901,-0.00019894,-0.00012551,-0.00024931,-0
 .00019826,0.00001161,-0.00024508,-0.00026113,-0.00003522,-0.00021834,-
 0.00078666,-0.00096118,0.00022890,0.00015270,-0.00016603,-0.00012134,0
 .00006627,-0.00003576,-0.00008747,0.00008683,0.00002363,0.00004569,-0.
 00004421,0.00004227,-0.00001981,-0.00011892,0.00001068,0.00256242,0.00
 165258,-0.01881982,0.05688615,-0.00057369,-0.00047713,-0.00005123,-0.0
 0056156,-0.00025974,0.00048791,-0.00009342,-0.00014742,-0.00001335,0.0
 0044368,0.00029448,0.00070217,-0.00070134,-0.00311081,0.00760539,-0.00
 001905,0.00001826,0.00004760,-0.00114039,0.00034741,0.00025595,-0.0003
 2872,0.00020419,0.00025743,-0.00052205,-0.00000516,0.00009886,-0.00018
 582,0.00002602,0.00031296,-0.00629059,-0.05413523,0.04936008,0.0011935
 5,0.00088965,-0.00079521,0.00014458,0.00048562,0.00001243,0.00002003,-
 0.00004142,-0.00003776,-0.00040973,-0.00007102,0.00036757,-0.00020825,
 0.00005096,-0.00037130,0.00002443,-0.00000392,0.00002018,-0.00012167,-
 0.00012321,-0.00004538,-0.00060088,-0.00049535,-0.00095220,0.00022004,
 0.00002557,-0.00005450,0.00014875,-0.00002557,-0.00001198,0.00004132,0
 .00018529,-0.00019419,0.00008990,-0.00000762,-0.00018777,0.00027968,-0
 .00015224,-0.00006914,-0.00490428,-0.00372756,0.02274193,0.00974094,0.
 05467328,-0.00006418,-0.00048401,0.00005378,-0.00071660,-0.00086685,0.
 00055219,0.00004614,-0.00007761,0.00005561,0.00020567,-0.00050372,-0.0
 0047333,0.00120675,0.00070179,-0.00410088,0.00000265,0.00011171,0.0000
 2779,0.00090992,0.00038467,0.00126341,0.00000393,-0.00026199,-0.000365
 75,-0.00012381,-0.00016467,-0.00020284,0.00014686,0.00014701,-0.000033
 01,0.03569709,0.04887407,-0.29853175,0.00039410,0.00197356,-0.00039710
 ,-0.00016227,0.00022618,-0.00016392,0.00007386,0.00002511,0.00002190,-
 0.00003724,-0.00006890,-0.00000289,0.00000574,-0.00026488,0.00036741,0
 .00008151,0.00006723,-0.00000567,0.00011942,0.00014887,0.00001321,-0.0
 0089510,-0.00067529,-0.00017713,-0.00013406,-0.00000252,0.00018233,-0.
 00002149,0.00010480,-0.00000302,-0.00004190,-0.00010095,0.00007826,0.0
 0001448,0.00003994,0.00002612,0.00008132,0.00031537,-0.00013659,0.0009
 7136,-0.00022150,-0.00605390,-0.03984808,-0.05367642,0.32303432,0.0012
 6991,0.00099519,0.00003516,0.00037496,0.00183546,0.00012335,0.00012072
 ,0.00036363,-0.00004050,-0.00544589,0.00123489,0.00264433,-0.00939051,
 -0.02747431,-0.01808031,-0.00066404,-0.00167350,-0.00095305,0.00119991
 ,0.00036040,-0.00074367,-0.00004920,0.00014521,-0.00033554,-0.00002268
 ,-0.00017897,0.00046084,-0.00027127,0.00092854,0.00040094,-0.06175624,
 -0.05506106,-0.03376190,-0.00116595,-0.00302542,-0.00041921,-0.0000417
 4,-0.00122531,0.00003298,-0.00061785,-0.00002955,0.00038731,-0.0001874
 9,0.00010382,0.00046242,0.00006984,0.00007868,0.00020960,0.00006543,0.
 00005931,0.00003700,0.00003111,0.00000734,0.00007148,0.00006666,0.0000
 7336,-0.00008446,0.00002040,0.00001009,-0.00016083,-0.00001003,0.00000
 586,-0.00005675,-0.00002195,-0.00009943,0.00010381,0.00025842,-0.00008
 254,-0.00006239,0.00029841,0.00000027,-0.00029146,0.00497175,0.0151973
 8,0.01108875,0.00024159,0.00431455,0.00208393,0.07065574,-0.00029813,0
 .00006025,-0.00006408,0.00162040,-0.00016100,0.00036193,-0.00014664,0.
 00002822,-0.00004211,-0.00029712,0.00060976,0.00106998,-0.00239892,-0.
 00605486,-0.00310629,-0.00009234,-0.00023890,-0.00025338,0.00028367,0.
 00063208,-0.00017455,-0.00010204,-0.00014191,-0.00006537,-0.00001538,0
 .00005351,0.00012561,-0.00013348,0.00007302,-0.00030788,-0.05751038,-0
 .22848224,-0.11554031,0.00060503,-0.00057032,0.00050074,0.00011330,-0.
 00004042,0.00007121,-0.00007329,0.00004947,0.00013629,-0.00031414,-0.0
 0010048,0.00025778,-0.00004059,-0.00043581,0.00014871,0.00004064,0.000
 03273,-0.00000474,0.00003962,0.00004246,0.00004315,0.00006535,-0.00003
 564,-0.00004047,0.00004616,0.00001014,-0.00007526,-0.00000863,0.000019
 58,-0.00003081,0.00010504,0.00008176,-0.00004100,-0.00016726,-0.000014
 08,0.00004073,-0.00016442,0.00009571,0.00028659,-0.00659994,-0.0170603
 8,-0.01165207,0.00230738,0.00558265,0.00424899,0.06313610,0.24596471,0
 .00061465,0.00071530,-0.00009534,0.00098929,0.00083912,-0.00027929,0.0
 0012232,0.00013654,0.00002716,0.00132842,0.00043520,-0.00026625,0.0016
 1914,0.00721945,0.00296485,0.00026368,0.00031133,0.00021906,-0.0003368
 4,0.00028777,0.00090468,-0.00017381,0.00002275,0.00005930,0.00028141,-
 0.00003784,-0.00005497,0.00027504,0.00002480,0.00003980,-0.03543533,-0
 .11454354,-0.11640820,-0.00129008,-0.00203281,0.00043849,-0.00010857,-
 0.00046388,-0.00001533,0.00015081,0.00004466,-0.00003386,0.00004050,-0
 .00032627,0.00016752,-0.00034264,0.00010115,0.00002147,-0.00002613,-0.
 00002694,-0.00000038,-0.00002609,-0.00001780,-0.00000417,-0.00008084,0
 .00009869,0.00036572,-0.00013005,-0.00002896,0.00014185,-0.00006265,-0
 .00000324,0.00001719,-0.00009464,-0.00009326,0.00009109,0.00005889,0.0
 0000414,0.00002085,-0.00004037,0.00013630,-0.00011901,0.00359075,0.008
 90079,0.00449104,-0.00803500,-0.02581005,-0.01502856,0.03684814,0.1241
 0662,0.12233529\\0.00005987,0.00000991,-0.00000592,0.00001545,-0.00000
 043,-0.00000377,0.00002220,0.00000125,0.00000987,0.00001633,-0.0000096
 3,0.00000419,0.00001247,0.00002008,-0.00000275,-0.00001703,0.00001273,
 -0.00003056,0.00002415,0.00000060,0.00001578,-0.00002408,0.00000229,0.
 00002520,-0.00000072,-0.00000376,-0.00000490,0.00000298,-0.00000657,0.
 00000040,-0.00001030,-0.00000134,-0.00000525,-0.00006644,-0.00001901,-
 0.00000552,-0.00001753,-0.00002168,0.00000029,-0.00000145,0.00000514,0
 .00000025,-0.00000725,0.00000397,-0.00000195,-0.00000652,0.00000449,-0
 .00000070,0.00000303,0.00000152,-0.00000445,0.00000389,0.00000013,0.00
 000444,0.,0.00000171,-0.00000096,-0.00000213,-0.00000376,0.00000279,-0
 .00000390,0.00000285,-0.00000006,0.00000280,0.00000150,0.00000103,-0.0
 0000239,0.00000187,0.00000209,0.00000100,0.00000438,0.00000493,-0.0000
 0289,-0.00000850,-0.00000079,0.00000086,-0.00000060,-0.00000191,-0.000
 00242,0.00000087,-0.00000177\\\@


 IF I HAVE SEEN FARTHER, IT IS BY STANDING ON THE
 SHOULDERS OF GIANTS. -- SIR ISAAC NEWTON
 Job cpu time:       0 days  7 hours 10 minutes 20.6 seconds.
 Elapsed time:       0 days  0 hours 27 minutes  0.3 seconds.
 File lengths (MBytes):  RWF=    358 Int=      0 D2E=      0 Chk=     13 Scr=      1
 Normal termination of Gaussian 16 at Fri Sep 19 05:49:31 2025.
