 Entering Gaussian System, Link 0=g16
 Input=CPHE0012.gjf
 Output=CPHE0012.log
 Initial command:
 /usr/local/g16/l1.exe "/dados_01/scratch/Gau-2381466.inp" -scrdir="/dados_01/scratch/"
 Entering Link 1 = /usr/local/g16/l1.exe PID=   2381467.
  
 Copyright (c) 1988-2017, Gaussian, Inc.  All Rights Reserved.
  
 This is part of the Gaussian(R) 16 program.  It is based on
 the Gaussian(R) 09 system (copyright 2009, Gaussian, Inc.),
 the Gaussian(R) 03 system (copyright 2003, Gaussian, Inc.),
 the Gaussian(R) 98 system (copyright 1998, Gaussian, Inc.),
 the Gaussian(R) 94 system (copyright 1995, Gaussian, Inc.),
 the Gaussian 92(TM) system (copyright 1992, Gaussian, Inc.),
 the Gaussian 90(TM) system (copyright 1990, Gaussian, Inc.),
 the Gaussian 88(TM) system (copyright 1988, Gaussian, Inc.),
 the Gaussian 86(TM) system (copyright 1986, Carnegie Mellon
 University), and the Gaussian 82(TM) system (copyright 1983,
 Carnegie Mellon University). Gaussian is a federally registered
 trademark of Gaussian, Inc.
  
 This software contains proprietary and confidential information,
 including trade secrets, belonging to Gaussian, Inc.
  
 This software is provided under written license and may be
 used, copied, transmitted, or stored only in accord with that
 written license.
  
 The following legend is applicable only to US Government
 contracts under FAR:
  
                    RESTRICTED RIGHTS LEGEND
  
 Use, reproduction and disclosure by the US Government is
 subject to restrictions as set forth in subparagraphs (a)
 and (c) of the Commercial Computer Software - Restricted
 Rights clause in FAR 52.227-19.
  
 Gaussian, Inc.
 340 Quinnipiac St., Bldg. 40, Wallingford CT 06492
  
  
 ---------------------------------------------------------------
 Warning -- This program may not be used in any manner that
 competes with the business of Gaussian, Inc. or will provide
 assistance to any competitor of Gaussian, Inc.  The licensee
 of this program is prohibited from giving any competitor of
 Gaussian, Inc. access to this program.  By using this program,
 the user acknowledges that Gaussian, Inc. is engaged in the
 business of creating and licensing software in the field of
 computational chemistry and represents and warrants to the
 licensee that it is not a competitor of Gaussian, Inc. and that
 it will not use this program in any manner prohibited above.
 ---------------------------------------------------------------
  

 Cite this work as:
 Gaussian 16, Revision B.01,
 M. J. Frisch, G. W. Trucks, H. B. Schlegel, G. E. Scuseria, 
 M. A. Robb, J. R. Cheeseman, G. Scalmani, V. Barone, 
 G. A. Petersson, H. Nakatsuji, X. Li, M. Caricato, A. V. Marenich, 
 J. Bloino, B. G. Janesko, R. Gomperts, B. Mennucci, H. P. Hratchian, 
 J. V. Ortiz, A. F. Izmaylov, J. L. Sonnenberg, D. Williams-Young, 
 F. Ding, F. Lipparini, F. Egidi, J. Goings, B. Peng, A. Petrone, 
 T. Henderson, D. Ranasinghe, V. G. Zakrzewski, J. Gao, N. Rega, 
 G. Zheng, W. Liang, M. Hada, M. Ehara, K. Toyota, R. Fukuda, 
 J. Hasegawa, M. Ishida, T. Nakajima, Y. Honda, O. Kitao, H. Nakai, 
 T. Vreven, K. Throssell, J. A. Montgomery, Jr., J. E. Peralta, 
 F. Ogliaro, M. J. Bearpark, J. J. Heyd, E. N. Brothers, K. N. Kudin, 
 V. N. Staroverov, T. A. Keith, R. Kobayashi, J. Normand, 
 K. Raghavachari, A. P. Rendell, J. C. Burant, S. S. Iyengar, 
 J. Tomasi, M. Cossi, J. M. Millam, M. Klene, C. Adamo, R. Cammi, 
 J. W. Ochterski, R. L. Martin, K. Morokuma, O. Farkas, 
 J. B. Foresman, and D. J. Fox, Gaussian, Inc., Wallingford CT, 2016.
 
 ******************************************
 Gaussian 16:  ES64L-G16RevB.01 20-Dec-2017
                 1-Oct-2025 
 ******************************************
 %nprocs=16
 Will use up to   16 processors via shared memory.
 %mem=40GB
 %chk=CPHE0012.chk
 ----------------------------------------------------------------------
 # opt freq=noraman M08HX/6-311++G** scf=xqc Empiricaldispersion=pfd In
 t(Grid=ultraFine)
 ----------------------------------------------------------------------
 1/18=20,19=15,26=4,38=1/1,3;
 2/9=110,12=2,17=6,18=5,40=1/2;
 3/5=4,6=6,7=1111,11=2,25=1,30=1,71=1,74=-74,75=-5,124=11/1,2,3;
 4//1;
 5/5=2,8=3,13=1,38=5/2,8;
 6/7=2,8=2,9=2,10=2,28=1/1;
 7//1,2,3,16;
 1/18=20,19=15,26=4/3(2);
 2/9=110/2;
 99//99;
 2/9=110/2;
 3/5=4,6=6,7=1111,11=2,25=1,30=1,71=1,74=-74,75=-5,124=11/1,2,3;
 4/5=5,16=3,69=1/1;
 5/5=2,8=3,13=1,38=5/2,8;
 7//1,2,3,16;
 1/18=20,19=15,26=4/3(-5);
 2/9=110/2;
 6/7=2,8=2,9=2,10=2,19=2,28=1/1;
 99/9=1/99;
 --------
 CPHE0012
 --------
 Symbolic Z-matrix:
 Charge =  0 Multiplicity = 1
 C                     0.4716   -1.136     0.4226 
 C                    -0.8814   -0.4897   -0.0276 
 C                     0.9939    1.0363    0.3963 
 C                     1.0208   -0.0998    1.4167 
 C                     1.5561   -1.0449   -0.6752 
 C                     1.8603    0.4636   -0.7379 
 C                    -0.4549    0.9746   -0.0492 
 C                    -1.3688   -0.9861   -1.3958 
 C                    -1.9876   -0.7517    1.0113 
 C                    -1.21      2.0337   -0.3611 
 H                     0.364    -2.1443    0.8309 
 H                     1.3207    2.0084    0.7702 
 H                     2.0322   -0.3363    1.7668 
 H                     0.3818    0.0741    2.2874 
 H                     1.2504   -1.4544   -1.6407 
 H                     2.4558   -1.5894   -0.3632 
 H                     2.9249    0.6399   -0.5474 
 H                     1.6125    0.8893   -1.7163 
 H                    -0.7244   -0.6548   -2.2168 
 H                    -1.4147   -2.0805   -1.4185 
 H                    -2.3732   -0.6076   -1.6195 
 H                    -1.7427   -0.3555    2.0017 
 H                    -2.9339   -0.288     0.7088 
 H                    -2.1667   -1.8273    1.1207 
 H                    -2.2466    1.9165   -0.6569 
 H                    -0.8034    3.0386   -0.3274 
 

 GradGradGradGradGradGradGradGradGradGradGradGradGradGradGradGradGradGrad
 Berny optimization.
 Initialization pass.
                           ----------------------------
                           !    Initial Parameters    !
                           ! (Angstroms and Degrees)  !
 --------------------------                            --------------------------
 ! Name  Definition              Value          Derivative Info.                !
 --------------------------------------------------------------------------------
 ! R1    R(1,2)                  1.5656         estimate D2E/DX2                !
 ! R2    R(1,4)                  1.5374         estimate D2E/DX2                !
 ! R3    R(1,5)                  1.5458         estimate D2E/DX2                !
 ! R4    R(1,11)                 1.0931         estimate D2E/DX2                !
 ! R5    R(2,7)                  1.5253         estimate D2E/DX2                !
 ! R6    R(2,8)                  1.5349         estimate D2E/DX2                !
 ! R7    R(2,9)                  1.54           estimate D2E/DX2                !
 ! R8    R(3,4)                  1.5273         estimate D2E/DX2                !
 ! R9    R(3,6)                  1.5379         estimate D2E/DX2                !
 ! R10   R(3,7)                  1.517          estimate D2E/DX2                !
 ! R11   R(3,12)                 1.0916         estimate D2E/DX2                !
 ! R12   R(4,13)                 1.0961         estimate D2E/DX2                !
 ! R13   R(4,14)                 1.0939         estimate D2E/DX2                !
 ! R14   R(5,6)                  1.5401         estimate D2E/DX2                !
 ! R15   R(5,15)                 1.0924         estimate D2E/DX2                !
 ! R16   R(5,16)                 1.0969         estimate D2E/DX2                !
 ! R17   R(6,17)                 1.0958         estimate D2E/DX2                !
 ! R18   R(6,18)                 1.0954         estimate D2E/DX2                !
 ! R19   R(7,10)                 1.3376         estimate D2E/DX2                !
 ! R20   R(8,19)                 1.095          estimate D2E/DX2                !
 ! R21   R(8,20)                 1.0956         estimate D2E/DX2                !
 ! R22   R(8,21)                 1.0964         estimate D2E/DX2                !
 ! R23   R(9,22)                 1.0945         estimate D2E/DX2                !
 ! R24   R(9,23)                 1.0964         estimate D2E/DX2                !
 ! R25   R(9,24)                 1.0959         estimate D2E/DX2                !
 ! R26   R(10,25)                1.0843         estimate D2E/DX2                !
 ! R27   R(10,26)                1.0846         estimate D2E/DX2                !
 ! A1    A(2,1,4)              102.4993         estimate D2E/DX2                !
 ! A2    A(2,1,5)              112.1951         estimate D2E/DX2                !
 ! A3    A(2,1,11)             113.7736         estimate D2E/DX2                !
 ! A4    A(4,1,5)               99.7219         estimate D2E/DX2                !
 ! A5    A(4,1,11)             114.5404         estimate D2E/DX2                !
 ! A6    A(5,1,11)             112.8718         estimate D2E/DX2                !
 ! A7    A(1,2,7)               99.1333         estimate D2E/DX2                !
 ! A8    A(1,2,8)              113.4064         estimate D2E/DX2                !
 ! A9    A(1,2,9)              110.8887         estimate D2E/DX2                !
 ! A10   A(7,2,8)              112.7456         estimate D2E/DX2                !
 ! A11   A(7,2,9)              111.9457         estimate D2E/DX2                !
 ! A12   A(8,2,9)              108.5554         estimate D2E/DX2                !
 ! A13   A(4,3,6)              101.8764         estimate D2E/DX2                !
 ! A14   A(4,3,7)              100.5311         estimate D2E/DX2                !
 ! A15   A(4,3,12)             115.3606         estimate D2E/DX2                !
 ! A16   A(6,3,7)              107.8373         estimate D2E/DX2                !
 ! A17   A(6,3,12)             114.5563         estimate D2E/DX2                !
 ! A18   A(7,3,12)             115.007          estimate D2E/DX2                !
 ! A19   A(1,4,3)               93.6156         estimate D2E/DX2                !
 ! A20   A(1,4,13)             113.0            estimate D2E/DX2                !
 ! A21   A(1,4,14)             114.4023         estimate D2E/DX2                !
 ! A22   A(3,4,13)             112.9636         estimate D2E/DX2                !
 ! A23   A(3,4,14)             113.7804         estimate D2E/DX2                !
 ! A24   A(13,4,14)            108.6066         estimate D2E/DX2                !
 ! A25   A(1,5,6)              103.0147         estimate D2E/DX2                !
 ! A26   A(1,5,15)             114.1578         estimate D2E/DX2                !
 ! A27   A(1,5,16)             110.1312         estimate D2E/DX2                !
 ! A28   A(6,5,15)             112.734          estimate D2E/DX2                !
 ! A29   A(6,5,16)             109.6188         estimate D2E/DX2                !
 ! A30   A(15,5,16)            107.1477         estimate D2E/DX2                !
 ! A31   A(3,6,5)              102.9116         estimate D2E/DX2                !
 ! A32   A(3,6,17)             111.0519         estimate D2E/DX2                !
 ! A33   A(3,6,18)             112.7413         estimate D2E/DX2                !
 ! A34   A(5,6,17)             110.0231         estimate D2E/DX2                !
 ! A35   A(5,6,18)             111.8589         estimate D2E/DX2                !
 ! A36   A(17,6,18)            108.2121         estimate D2E/DX2                !
 ! A37   A(2,7,3)              107.5737         estimate D2E/DX2                !
 ! A38   A(2,7,10)             127.2708         estimate D2E/DX2                !
 ! A39   A(3,7,10)             125.1288         estimate D2E/DX2                !
 ! A40   A(2,8,19)             112.5576         estimate D2E/DX2                !
 ! A41   A(2,8,20)             110.7828         estimate D2E/DX2                !
 ! A42   A(2,8,21)             111.1689         estimate D2E/DX2                !
 ! A43   A(19,8,20)            108.1402         estimate D2E/DX2                !
 ! A44   A(19,8,21)            106.3605         estimate D2E/DX2                !
 ! A45   A(20,8,21)            107.5918         estimate D2E/DX2                !
 ! A46   A(2,9,22)             112.8392         estimate D2E/DX2                !
 ! A47   A(2,9,23)             111.2171         estimate D2E/DX2                !
 ! A48   A(2,9,24)             110.5924         estimate D2E/DX2                !
 ! A49   A(22,9,23)            106.8405         estimate D2E/DX2                !
 ! A50   A(22,9,24)            107.55           estimate D2E/DX2                !
 ! A51   A(23,9,24)            107.5537         estimate D2E/DX2                !
 ! A52   A(7,10,25)            121.1782         estimate D2E/DX2                !
 ! A53   A(7,10,26)            120.9809         estimate D2E/DX2                !
 ! A54   A(25,10,26)           117.8408         estimate D2E/DX2                !
 ! D1    D(4,1,2,7)             36.7715         estimate D2E/DX2                !
 ! D2    D(4,1,2,8)            156.5278         estimate D2E/DX2                !
 ! D3    D(4,1,2,9)            -81.0367         estimate D2E/DX2                !
 ! D4    D(5,1,2,7)            -69.3248         estimate D2E/DX2                !
 ! D5    D(5,1,2,8)             50.4316         estimate D2E/DX2                !
 ! D6    D(5,1,2,9)            172.8671         estimate D2E/DX2                !
 ! D7    D(11,1,2,7)           161.0013         estimate D2E/DX2                !
 ! D8    D(11,1,2,8)           -79.2423         estimate D2E/DX2                !
 ! D9    D(11,1,2,9)            43.1931         estimate D2E/DX2                !
 ! D10   D(2,1,4,3)            -57.182          estimate D2E/DX2                !
 ! D11   D(2,1,4,13)          -174.0224         estimate D2E/DX2                !
 ! D12   D(2,1,4,14)            61.0041         estimate D2E/DX2                !
 ! D13   D(5,1,4,3)             58.3205         estimate D2E/DX2                !
 ! D14   D(5,1,4,13)           -58.52           estimate D2E/DX2                !
 ! D15   D(5,1,4,14)           176.5066         estimate D2E/DX2                !
 ! D16   D(11,1,4,3)           179.0986         estimate D2E/DX2                !
 ! D17   D(11,1,4,13)           62.2581         estimate D2E/DX2                !
 ! D18   D(11,1,4,14)          -62.7153         estimate D2E/DX2                !
 ! D19   D(2,1,5,6)             68.514          estimate D2E/DX2                !
 ! D20   D(2,1,5,15)           -54.06           estimate D2E/DX2                !
 ! D21   D(2,1,5,16)          -174.6291         estimate D2E/DX2                !
 ! D22   D(4,1,5,6)            -39.3678         estimate D2E/DX2                !
 ! D23   D(4,1,5,15)          -161.9417         estimate D2E/DX2                !
 ! D24   D(4,1,5,16)            77.4892         estimate D2E/DX2                !
 ! D25   D(11,1,5,6)          -161.3472         estimate D2E/DX2                !
 ! D26   D(11,1,5,15)           76.0789         estimate D2E/DX2                !
 ! D27   D(11,1,5,16)          -44.4903         estimate D2E/DX2                !
 ! D28   D(1,2,7,3)             -1.4152         estimate D2E/DX2                !
 ! D29   D(1,2,7,10)          -179.5972         estimate D2E/DX2                !
 ! D30   D(8,2,7,3)           -121.6592         estimate D2E/DX2                !
 ! D31   D(8,2,7,10)            60.1588         estimate D2E/DX2                !
 ! D32   D(9,2,7,3)            115.5933         estimate D2E/DX2                !
 ! D33   D(9,2,7,10)           -62.5887         estimate D2E/DX2                !
 ! D34   D(1,2,8,19)           -67.7818         estimate D2E/DX2                !
 ! D35   D(1,2,8,20)            53.4331         estimate D2E/DX2                !
 ! D36   D(1,2,8,21)           173.0125         estimate D2E/DX2                !
 ! D37   D(7,2,8,19)            43.8741         estimate D2E/DX2                !
 ! D38   D(7,2,8,20)           165.089          estimate D2E/DX2                !
 ! D39   D(7,2,8,21)           -75.3317         estimate D2E/DX2                !
 ! D40   D(9,2,8,19)           168.4984         estimate D2E/DX2                !
 ! D41   D(9,2,8,20)           -70.2867         estimate D2E/DX2                !
 ! D42   D(9,2,8,21)            49.2927         estimate D2E/DX2                !
 ! D43   D(1,2,9,22)            59.0703         estimate D2E/DX2                !
 ! D44   D(1,2,9,23)           179.1176         estimate D2E/DX2                !
 ! D45   D(1,2,9,24)           -61.4448         estimate D2E/DX2                !
 ! D46   D(7,2,9,22)           -50.6205         estimate D2E/DX2                !
 ! D47   D(7,2,9,23)            69.4269         estimate D2E/DX2                !
 ! D48   D(7,2,9,24)          -171.1355         estimate D2E/DX2                !
 ! D49   D(8,2,9,22)          -175.7169         estimate D2E/DX2                !
 ! D50   D(8,2,9,23)           -55.6695         estimate D2E/DX2                !
 ! D51   D(8,2,9,24)            63.7681         estimate D2E/DX2                !
 ! D52   D(6,3,4,1)            -56.4605         estimate D2E/DX2                !
 ! D53   D(6,3,4,13)            60.4104         estimate D2E/DX2                !
 ! D54   D(6,3,4,14)          -175.16           estimate D2E/DX2                !
 ! D55   D(7,3,4,1)             54.4846         estimate D2E/DX2                !
 ! D56   D(7,3,4,13)           171.3555         estimate D2E/DX2                !
 ! D57   D(7,3,4,14)           -64.2149         estimate D2E/DX2                !
 ! D58   D(12,3,4,1)           178.8135         estimate D2E/DX2                !
 ! D59   D(12,3,4,13)          -64.3156         estimate D2E/DX2                !
 ! D60   D(12,3,4,14)           60.114          estimate D2E/DX2                !
 ! D61   D(4,3,6,5)             33.1853         estimate D2E/DX2                !
 ! D62   D(4,3,6,17)           -84.5016         estimate D2E/DX2                !
 ! D63   D(4,3,6,18)           153.8671         estimate D2E/DX2                !
 ! D64   D(7,3,6,5)            -72.1145         estimate D2E/DX2                !
 ! D65   D(7,3,6,17)           170.1985         estimate D2E/DX2                !
 ! D66   D(7,3,6,18)            48.5672         estimate D2E/DX2                !
 ! D67   D(12,3,6,5)           158.446          estimate D2E/DX2                !
 ! D68   D(12,3,6,17)           40.7591         estimate D2E/DX2                !
 ! D69   D(12,3,6,18)          -80.8722         estimate D2E/DX2                !
 ! D70   D(4,3,7,2)            -34.3486         estimate D2E/DX2                !
 ! D71   D(4,3,7,10)           143.8826         estimate D2E/DX2                !
 ! D72   D(6,3,7,2)             71.8948         estimate D2E/DX2                !
 ! D73   D(6,3,7,10)          -109.8741         estimate D2E/DX2                !
 ! D74   D(12,3,7,2)          -158.9198         estimate D2E/DX2                !
 ! D75   D(12,3,7,10)           19.3113         estimate D2E/DX2                !
 ! D76   D(1,5,6,3)              3.9898         estimate D2E/DX2                !
 ! D77   D(1,5,6,17)           122.4002         estimate D2E/DX2                !
 ! D78   D(1,5,6,18)          -117.2946         estimate D2E/DX2                !
 ! D79   D(15,5,6,3)           127.5129         estimate D2E/DX2                !
 ! D80   D(15,5,6,17)         -114.0768         estimate D2E/DX2                !
 ! D81   D(15,5,6,18)            6.2284         estimate D2E/DX2                !
 ! D82   D(16,5,6,3)          -113.23           estimate D2E/DX2                !
 ! D83   D(16,5,6,17)            5.1804         estimate D2E/DX2                !
 ! D84   D(16,5,6,18)          125.4856         estimate D2E/DX2                !
 ! D85   D(2,7,10,25)           -1.0828         estimate D2E/DX2                !
 ! D86   D(2,7,10,26)          179.0074         estimate D2E/DX2                !
 ! D87   D(3,7,10,25)         -178.9636         estimate D2E/DX2                !
 ! D88   D(3,7,10,26)            1.1266         estimate D2E/DX2                !
 --------------------------------------------------------------------------------
 Trust Radius=3.00D-01 FncErr=1.00D-07 GrdErr=1.00D-06 EigMax=2.50D+02 EigMin=1.00D-04
 Number of steps in this run=    156 maximum allowed number of steps=    156.
 GradGradGradGradGradGradGradGradGradGradGradGradGradGradGradGradGradGrad

                          Input orientation:                          
 ---------------------------------------------------------------------
 Center     Atomic      Atomic             Coordinates (Angstroms)
 Number     Number       Type             X           Y           Z
 ---------------------------------------------------------------------
      1          6           0        0.471600   -1.136000    0.422600
      2          6           0       -0.881400   -0.489700   -0.027600
      3          6           0        0.993900    1.036300    0.396300
      4          6           0        1.020800   -0.099800    1.416700
      5          6           0        1.556100   -1.044900   -0.675200
      6          6           0        1.860300    0.463600   -0.737900
      7          6           0       -0.454900    0.974600   -0.049200
      8          6           0       -1.368800   -0.986100   -1.395800
      9          6           0       -1.987600   -0.751700    1.011300
     10          6           0       -1.210000    2.033700   -0.361100
     11          1           0        0.364000   -2.144300    0.830900
     12          1           0        1.320700    2.008400    0.770200
     13          1           0        2.032200   -0.336300    1.766800
     14          1           0        0.381800    0.074100    2.287400
     15          1           0        1.250400   -1.454400   -1.640700
     16          1           0        2.455800   -1.589400   -0.363200
     17          1           0        2.924900    0.639900   -0.547400
     18          1           0        1.612500    0.889300   -1.716300
     19          1           0       -0.724400   -0.654800   -2.216800
     20          1           0       -1.414700   -2.080500   -1.418500
     21          1           0       -2.373200   -0.607600   -1.619500
     22          1           0       -1.742700   -0.355500    2.001700
     23          1           0       -2.933900   -0.288000    0.708800
     24          1           0       -2.166700   -1.827300    1.120700
     25          1           0       -2.246600    1.916500   -0.656900
     26          1           0       -0.803400    3.038600   -0.327400
 ---------------------------------------------------------------------
                    Distance matrix (angstroms):
                    1          2          3          4          5
     1  C    0.000000
     2  C    1.565565   0.000000
     3  C    2.234363   2.454611   0.000000
     4  C    1.537389   2.419998   1.527306   0.000000
     5  C    1.545834   2.582448   2.407400   2.357076   0.000000
     6  C    2.415361   2.988348   1.537870   2.380017   1.540143
     7  C    2.352792   1.525301   1.517003   2.341130   2.917941
     8  C    2.591548   1.534908   3.589439   3.795507   3.012932
     9  C    2.557718   1.540012   3.530511   3.104802   3.935487
    10  C    3.672732   2.566466   2.534884   3.562143   4.150632
    11  H    1.093140   2.241817   3.271371   2.225877   2.213170
    12  H    3.275523   3.424359   1.091594   2.225401   3.386331
    13  H    2.209495   3.425269   2.200084   1.096099   2.586919
    14  H    2.224834   2.696807   2.208337   1.093929   3.377594
    15  H    2.228254   2.842061   3.227809   3.351918   1.092398
    16  H    2.181766   3.529713   3.099725   2.728768   1.096943
    17  H    3.180157   4.004261   2.185512   2.833803   2.174511
    18  H    3.158858   3.312535   2.206208   3.338281   2.197317
    19  H    2.937414   2.201023   3.555371   4.068915   2.780178
    20  H    2.799974   2.179371   4.336968   4.230034   3.232741
    21  H    3.541506   2.184837   4.254788   4.582096   4.064767
    22  H    2.829463   2.208598   3.464592   2.836290   4.303853
    23  H    3.521143   2.189914   4.156806   4.021964   4.759039
    24  H    2.815291   2.181688   4.326009   3.637586   4.206738
    25  H    4.227492   2.837180   3.519208   4.363621   4.819829
    26  H    4.428929   3.541873   2.786258   4.027300   4.728972
                    6          7          8          9         10
     6  C    0.000000
     7  C    2.468923   0.000000
     8  C    3.600215   2.548115   0.000000
     9  C    4.398067   2.540461   2.496395   0.000000
    10  C    3.468996   1.337591   3.196093   3.201031   0.000000
    11  H    3.391340   3.342560   3.049953   2.738960   4.621041
    12  H    2.225296   2.211993   4.570776   4.315221   2.772169
    13  H    2.634941   3.346936   4.689465   4.111220   4.544966
    14  H    3.389707   2.640202   4.213619   2.815037   3.659018
    15  H    2.205844   3.367634   2.671982   4.244000   4.456208
    16  H    2.170214   3.891641   4.007218   4.725970   5.154119
    17  H    1.095785   3.432678   4.668995   5.338422   4.367469
    18  H    1.095396   2.657187   3.536664   4.805560   3.333575
    19  H    3.180981   2.725081   1.095012   3.467808   3.302645
    20  H    4.202533   3.482791   1.095597   2.828047   4.252839
    21  H    4.455021   2.940931   1.096414   2.662811   3.148503
    22  H    4.599776   2.762931   3.475696   1.094460   3.402186
    23  H    5.063813   2.883429   2.714079   1.096361   3.083311
    24  H    4.991928   3.485623   2.770746   1.095883   4.244800
    25  H    4.357076   2.113448   3.121152   3.157414   1.084331
    26  H    3.727524   2.111621   4.202305   4.190563   1.084566
                   11         12         13         14         15
    11  H    0.000000
    12  H    4.261910   0.000000
    13  H    2.632046   2.645196   0.000000
    14  H    2.653867   2.631529   1.778559   0.000000
    15  H    2.714862   4.219996   3.670479   4.303574   0.000000
    16  H    2.471723   3.939189   2.507309   3.754249   1.761596
    17  H    4.026126   2.486427   2.665596   3.850140   2.895746
    18  H    4.153277   2.742301   3.716212   4.267176   2.372712
    19  H    3.562541   4.494134   4.854828   4.694975   2.207054
    20  H    2.868387   5.384415   5.006944   4.647947   2.746658
    21  H    3.982232   5.118498   5.563109   4.828934   3.721290
    22  H    3.001460   4.060669   3.782250   2.186248   4.840796
    23  H    3.786410   4.835167   5.077780   3.690117   4.938523
    24  H    2.566888   5.195903   4.502365   3.386940   4.409190
    25  H    5.051621   3.843265   5.409026   4.355666   4.955788
    26  H    5.437549   2.603428   4.880190   4.126759   5.111741
                   16         17         18         19         20
    16  H    0.000000
    17  H    2.285555   0.000000
    18  H    2.947200   1.775083   0.000000
    19  H    3.797760   4.216697   2.845320   0.000000
    20  H    4.041733   5.195336   4.251157   1.773814   0.000000
    21  H    5.085417   5.547569   4.258625   1.754291   1.768773
    22  H    4.974200   5.410658   5.160467   4.349972   3.844604
    23  H    5.647273   6.063380   5.285537   3.684504   3.169610
    24  H    4.860665   5.898646   5.450765   3.820195   2.660292
    25  H    5.872832   5.327862   4.131600   3.370751   4.153083
    26  H    5.660570   4.438737   3.519248   4.149371   5.269665
                   21         22         23         24         25
    21  H    0.000000
    22  H    3.684315   0.000000
    23  H    2.416094   1.759291   0.000000
    24  H    3.006494   1.766956   1.768531   0.000000
    25  H    2.704387   3.533278   2.682785   4.145152   0.000000
    26  H    4.174754   4.222192   4.083994   5.256668   1.857553
                   26
    26  H    0.000000
 Stoichiometry    C10H16
 Framework group  C1[X(C10H16)]
 Deg. of freedom    72
 Full point group                 C1      NOp   1
 Largest Abelian subgroup         C1      NOp   1
 Largest concise Abelian subgroup C1      NOp   1
                         Standard orientation:                         
 ---------------------------------------------------------------------
 Center     Atomic      Atomic             Coordinates (Angstroms)
 Number     Number       Type             X           Y           Z
 ---------------------------------------------------------------------
      1          6           0        0.450775   -1.110473    0.459882
      2          6           0       -0.872323   -0.417532   -0.009415
      3          6           0        1.063194    1.037297    0.393527
      4          6           0        1.038673   -0.078529    1.436117
      5          6           0        1.542510   -1.086261   -0.634253
      6          6           0        1.909521    0.406757   -0.725041
      7          6           0       -0.385125    1.027063   -0.057656
      8          6           0       -1.374497   -0.920217   -1.369956
      9          6           0       -1.992622   -0.612727    1.029077
     10          6           0       -1.094207    2.110252   -0.393890
     11          1           0        0.299642   -2.105154    0.887343
     12          1           0        1.428698    2.002182    0.749873
     13          1           0        2.037937   -0.349887    1.795656
     14          1           0        0.403992    0.138970    2.300151
     15          1           0        1.223885   -1.501723   -1.593003
     16          1           0        2.417497   -1.661403   -0.307308
     17          1           0        2.979769    0.542393   -0.532904
     18          1           0        1.683581    0.822948   -1.712780
     19          1           0       -0.713579   -0.632293   -2.194176
     20          1           0       -1.465846   -2.011999   -1.371422
     21          1           0       -2.361359   -0.504800   -1.605870
     22          1           0       -1.735397   -0.207531    2.012690
     23          1           0       -2.917571   -0.116173    0.712989
     24          1           0       -2.216799   -1.677579    1.158673
     25          1           0       -2.133597    2.030406   -0.692329
     26          1           0       -0.646246    3.097855   -0.377933
 ---------------------------------------------------------------------
 Rotational constants (GHZ):           1.8577505           1.3976444           1.2168854
 Standard basis: 6-311++G(d,p) (5D, 7F)
 There are   342 symmetry adapted cartesian basis functions of A   symmetry.
 There are   332 symmetry adapted basis functions of A   symmetry.
   332 basis functions,   504 primitive gaussians,   342 cartesian basis functions
    38 alpha electrons       38 beta electrons
       nuclear repulsion energy       575.3555201737 Hartrees.
 NAtoms=   26 NActive=   26 NUniq=   26 SFac= 1.00D+00 NAtFMM=   60 NAOKFM=F Big=F
 Integral buffers will be    131072 words long.
 Raffenetti 2 integral format.
 Two-electron integral symmetry is turned on.
 R6APFD:  NTU= -4 IXU= 1 FactS= 1.050
 Nuclear repulsion after empirical dispersion term =      575.3326561583 Hartrees.
 One-electron integrals computed using PRISM.
 NBasis=   332 RedAO= T EigKep=  1.53D-06  NBF=   332
 NBsUse=   332 1.00D-06 EigRej= -1.00D+00 NBFU=   332
 ExpMin= 3.60D-02 ExpMax= 4.56D+03 ExpMxC= 6.82D+02 IAcc=3 IRadAn=         5 AccDes= 0.00D+00
 Harris functional with IExCor= 1009 and IRadAn=       5 diagonalized for initial guess.
 HarFok:  IExCor= 1009 AccDes= 0.00D+00 IRadAn=         5 IDoV= 1 UseB2=F ITyADJ=14
 ICtDFT=  3500011 ScaDFX=  1.000000  1.000000  1.000000  1.000000
 FoFCou: FMM=F IPFlag=           0 FMFlag=      100000 FMFlg1=           0
         NFxFlg=           0 DoJE=T BraDBF=F KetDBF=T FulRan=T
         wScrn=  0.000000 ICntrl=       500 IOpCl=  0 I1Cent=   200000004 NGrid=           0
         NMat0=    1 NMatS0=      1 NMatT0=    0 NMatD0=    1 NMtDS0=    0 NMtDT0=    0
 Petite list used in FoFCou.
 Requested convergence on RMS density matrix=1.00D-08 within  32 cycles.
 Requested convergence on MAX density matrix=1.00D-06.
 Requested convergence on             energy=1.00D-06.
 No special actions if energy rises.
 SCF Done:  E(RM08HX) =  -390.715528232     A.U. after   13 cycles
            NFock= 13  Conv=0.91D-08     -V/T= 2.0058
 QCSCF skips out because SCF is already converged.

 **********************************************************************

            Population analysis using the SCF Density.

 **********************************************************************

 Orbital symmetries:
       Occupied  (A) (A) (A) (A) (A) (A) (A) (A) (A) (A) (A) (A)
                 (A) (A) (A) (A) (A) (A) (A) (A) (A) (A) (A) (A)
                 (A) (A) (A) (A) (A) (A) (A) (A) (A) (A) (A) (A)
                 (A) (A)
       Virtual   (A) (A) (A) (A) (A) (A) (A) (A) (A) (A) (A) (A)
                 (A) (A) (A) (A) (A) (A) (A) (A) (A) (A) (A) (A)
                 (A) (A) (A) (A) (A) (A) (A) (A) (A) (A) (A) (A)
                 (A) (A) (A) (A) (A) (A) (A) (A) (A) (A) (A) (A)
                 (A) (A) (A) (A) (A) (A) (A) (A) (A) (A) (A) (A)
                 (A) (A) (A) (A) (A) (A) (A) (A) (A) (A) (A) (A)
                 (A) (A) (A) (A) (A) (A) (A) (A) (A) (A) (A) (A)
                 (A) (A) (A) (A) (A) (A) (A) (A) (A) (A) (A) (A)
                 (A) (A) (A) (A) (A) (A) (A) (A) (A) (A) (A) (A)
                 (A) (A) (A) (A) (A) (A) (A) (A) (A) (A) (A) (A)
                 (A) (A) (A) (A) (A) (A) (A) (A) (A) (A) (A) (A)
                 (A) (A) (A) (A) (A) (A) (A) (A) (A) (A) (A) (A)
                 (A) (A) (A) (A) (A) (A) (A) (A) (A) (A) (A) (A)
                 (A) (A) (A) (A) (A) (A) (A) (A) (A) (A) (A) (A)
                 (A) (A) (A) (A) (A) (A) (A) (A) (A) (A) (A) (A)
                 (A) (A) (A) (A) (A) (A) (A) (A) (A) (A) (A) (A)
                 (A) (A) (A) (A) (A) (A) (A) (A) (A) (A) (A) (A)
                 (A) (A) (A) (A) (A) (A) (A) (A) (A) (A) (A) (A)
                 (A) (A) (A) (A) (A) (A) (A) (A) (A) (A) (A) (A)
                 (A) (A) (A) (A) (A) (A) (A) (A) (A) (A) (A) (A)
                 (A) (A) (A) (A) (A) (A) (A) (A) (A) (A) (A) (A)
                 (A) (A) (A) (A) (A) (A) (A) (A) (A) (A) (A) (A)
                 (A) (A) (A) (A) (A) (A) (A) (A) (A) (A) (A) (A)
                 (A) (A) (A) (A) (A) (A) (A) (A) (A) (A) (A) (A)
                 (A) (A) (A) (A) (A) (A)
 The electronic state is 1-A.
 Alpha  occ. eigenvalues --  -10.54483 -10.53306 -10.52952 -10.52939 -10.52049
 Alpha  occ. eigenvalues --  -10.51954 -10.51953 -10.51577 -10.51504 -10.51086
 Alpha  occ. eigenvalues --   -0.99862  -0.89430  -0.85612  -0.81275  -0.78101
 Alpha  occ. eigenvalues --   -0.77484  -0.71445  -0.65151  -0.63650  -0.57526
 Alpha  occ. eigenvalues --   -0.57067  -0.55489  -0.51606  -0.50879  -0.48962
 Alpha  occ. eigenvalues --   -0.47394  -0.45800  -0.45296  -0.44297  -0.42560
 Alpha  occ. eigenvalues --   -0.41280  -0.40661  -0.39441  -0.39041  -0.37689
 Alpha  occ. eigenvalues --   -0.35984  -0.35496  -0.29972
 Alpha virt. eigenvalues --   -0.02819  -0.01703  -0.01326  -0.00990   0.00560
 Alpha virt. eigenvalues --    0.00741   0.00824   0.00941   0.01161   0.03171
 Alpha virt. eigenvalues --    0.03636   0.03889   0.04023   0.04469   0.04623
 Alpha virt. eigenvalues --    0.05013   0.07211   0.07667   0.08150   0.08451
 Alpha virt. eigenvalues --    0.08555   0.09600   0.09789   0.10345   0.10577
 Alpha virt. eigenvalues --    0.11123   0.11408   0.11830   0.12033   0.12417
 Alpha virt. eigenvalues --    0.12858   0.13269   0.13642   0.14154   0.14183
 Alpha virt. eigenvalues --    0.14443   0.14803   0.15197   0.15553   0.15826
 Alpha virt. eigenvalues --    0.16621   0.16967   0.17169   0.17428   0.17589
 Alpha virt. eigenvalues --    0.18699   0.19073   0.19240   0.19640   0.20164
 Alpha virt. eigenvalues --    0.20681   0.20798   0.22043   0.22392   0.22931
 Alpha virt. eigenvalues --    0.23872   0.25331   0.25764   0.25851   0.26447
 Alpha virt. eigenvalues --    0.27185   0.27657   0.29091   0.29155   0.29755
 Alpha virt. eigenvalues --    0.30118   0.30741   0.31672   0.32074   0.32606
 Alpha virt. eigenvalues --    0.34210   0.34490   0.35257   0.35975   0.36494
 Alpha virt. eigenvalues --    0.37178   0.37198   0.38372   0.40482   0.40975
 Alpha virt. eigenvalues --    0.41717   0.43808   0.45171   0.47266   0.47852
 Alpha virt. eigenvalues --    0.50002   0.51141   0.53043   0.54544   0.55195
 Alpha virt. eigenvalues --    0.56877   0.57297   0.57590   0.60577   0.60825
 Alpha virt. eigenvalues --    0.61179   0.62317   0.64163   0.64975   0.66612
 Alpha virt. eigenvalues --    0.67381   0.68761   0.70022   0.70332   0.70920
 Alpha virt. eigenvalues --    0.71401   0.72131   0.72351   0.72639   0.73413
 Alpha virt. eigenvalues --    0.74491   0.75251   0.76816   0.77069   0.77487
 Alpha virt. eigenvalues --    0.78524   0.79314   0.79439   0.80159   0.80226
 Alpha virt. eigenvalues --    0.81277   0.81410   0.83387   0.84167   0.84895
 Alpha virt. eigenvalues --    0.86998   0.90210   0.92272   0.93349   0.93932
 Alpha virt. eigenvalues --    0.96046   0.98350   1.01151   1.04621   1.05875
 Alpha virt. eigenvalues --    1.09024   1.10463   1.12944   1.15275   1.17594
 Alpha virt. eigenvalues --    1.18316   1.21819   1.24275   1.26501   1.31294
 Alpha virt. eigenvalues --    1.34033   1.37757   1.38293   1.43277   1.45503
 Alpha virt. eigenvalues --    1.47983   1.49515   1.51434   1.51817   1.52332
 Alpha virt. eigenvalues --    1.53724   1.54195   1.54818   1.56655   1.57939
 Alpha virt. eigenvalues --    1.59231   1.60668   1.61659   1.63155   1.64373
 Alpha virt. eigenvalues --    1.65199   1.66852   1.66976   1.68510   1.70377
 Alpha virt. eigenvalues --    1.71294   1.72083   1.74520   1.74676   1.76057
 Alpha virt. eigenvalues --    1.77074   1.78470   1.79301   1.80120   1.81851
 Alpha virt. eigenvalues --    1.82217   1.82877   1.84295   1.85162   1.86659
 Alpha virt. eigenvalues --    1.88439   1.89696   1.91684   1.93670   1.95448
 Alpha virt. eigenvalues --    1.96672   1.97444   1.99033   2.00315   2.01471
 Alpha virt. eigenvalues --    2.03488   2.04930   2.06222   2.11782   2.13153
 Alpha virt. eigenvalues --    2.15153   2.17028   2.19388   2.19657   2.19884
 Alpha virt. eigenvalues --    2.22122   2.22995   2.25322   2.28322   2.29991
 Alpha virt. eigenvalues --    2.33521   2.34425   2.37346   2.39438   2.39787
 Alpha virt. eigenvalues --    2.43470   2.44879   2.47667   2.50137   2.52108
 Alpha virt. eigenvalues --    2.53586   2.54187   2.56748   2.57603   2.57634
 Alpha virt. eigenvalues --    2.58706   2.60728   2.61580   2.63684   2.63993
 Alpha virt. eigenvalues --    2.65272   2.67208   2.69370   2.70025   2.71160
 Alpha virt. eigenvalues --    2.72481   2.74387   2.76546   2.77087   2.79193
 Alpha virt. eigenvalues --    2.80218   2.81176   2.82265   2.83419   2.84403
 Alpha virt. eigenvalues --    2.88463   2.90575   2.91828   2.93549   2.96909
 Alpha virt. eigenvalues --    3.00079   3.01504   3.04837   3.06247   3.08103
 Alpha virt. eigenvalues --    3.12446   3.16001   3.20234   3.21256   3.29591
 Alpha virt. eigenvalues --    3.30388   3.33686   3.41823   3.50157   3.59552
 Alpha virt. eigenvalues --    3.67019   3.70745   3.79498   3.81895   3.82514
 Alpha virt. eigenvalues --    3.83200   3.84647   3.86356   3.88648   4.02767
 Alpha virt. eigenvalues --    4.12961   4.18260   4.28708   4.33637   4.35630
 Alpha virt. eigenvalues --    4.35966   4.42947   4.47080   4.53358  23.82572
 Alpha virt. eigenvalues --   23.88885  23.95270  23.98994  24.03105  24.04977
 Alpha virt. eigenvalues --   24.05474  24.09462  24.13869  24.33110
          Condensed to atoms (all electrons):
               1          2          3          4          5          6
     1  C   13.704437  -5.269467  -1.862625  -1.207093  -2.753106   1.179696
     2  C   -5.269467  14.005858   2.204210   0.742024   1.140688  -0.750542
     3  C   -1.862625   2.204210  11.853805  -0.550406   0.507278  -1.622201
     4  C   -1.207093   0.742024  -0.550406   6.878781   0.313294   0.055235
     5  C   -2.753106   1.140688   0.507278   0.313294   8.163666  -1.385939
     6  C    1.179696  -0.750542  -1.622201   0.055235  -1.385939   7.577456
     7  C    2.975509  -6.067380  -2.395924  -0.267958  -0.201304   0.856368
     8  C   -0.195799  -0.131733   0.135996   0.086969   0.043459  -0.119555
     9  C   -0.573811   0.398776   0.352291   0.058728  -0.071343   0.058541
    10  C   -0.705521  -0.392763  -3.583902   0.212017   0.343741   0.201224
    11  H    0.504734  -0.084455   0.023709  -0.034264  -0.068648  -0.009934
    12  H   -0.008152   0.065304   0.559578  -0.056667  -0.001443  -0.081782
    13  H   -0.008976   0.002756  -0.086103   0.476133  -0.054964   0.014741
    14  H   -0.157604   0.073591  -0.189799   0.517481   0.027784   0.013160
    15  H   -0.182488   0.081782   0.039680   0.016098   0.570227  -0.110117
    16  H    0.003803  -0.089649  -0.034136  -0.053567   0.487684  -0.035873
    17  H   -0.013305   0.064353  -0.032715  -0.021208  -0.077077   0.479013
    18  H    0.071934  -0.082926  -0.129367  -0.004913  -0.143113   0.588470
    19  H   -0.103862   0.065157   0.010572  -0.012009   0.037560  -0.008871
    20  H   -0.066341   0.021209   0.032115   0.010239  -0.015005  -0.001956
    21  H    0.147805  -0.113908  -0.038025  -0.011927  -0.020384   0.013160
    22  H   -0.026047   0.040990  -0.016877   0.041808  -0.003763  -0.016460
    23  H    0.113121  -0.016694   0.006182  -0.011044  -0.017616   0.004741
    24  H   -0.115697   0.046037   0.031247  -0.008127   0.006151   0.009393
    25  H   -0.032208   0.116036   0.023061   0.004103   0.003334  -0.003917
    26  H   -0.013755   0.033389  -0.007617   0.004013   0.010223  -0.002867
               7          8          9         10         11         12
     1  C    2.975509  -0.195799  -0.573811  -0.705521   0.504734  -0.008152
     2  C   -6.067380  -0.131733   0.398776  -0.392763  -0.084455   0.065304
     3  C   -2.395924   0.135996   0.352291  -3.583902   0.023709   0.559578
     4  C   -0.267958   0.086969   0.058728   0.212017  -0.034264  -0.056667
     5  C   -0.201304   0.043459  -0.071343   0.343741  -0.068648  -0.001443
     6  C    0.856368  -0.119555   0.058541   0.201224  -0.009934  -0.081782
     7  C   15.956007  -0.359377  -0.306698  -4.304451   0.015742  -0.073384
     8  C   -0.359377   6.409655  -0.578952   0.304999   0.021765   0.003227
     9  C   -0.306698  -0.578952   6.629091  -0.337474  -0.043452  -0.005000
    10  C   -4.304451   0.304999  -0.337474  14.618020  -0.044008  -0.132029
    11  H    0.015742   0.021765  -0.043452  -0.044008   0.360082   0.001097
    12  H   -0.073384   0.003227  -0.005000  -0.132029   0.001097   0.367743
    13  H    0.001196   0.003690   0.004981  -0.019321   0.004043  -0.001565
    14  H    0.004031   0.023670  -0.067426   0.133488   0.000530  -0.004276
    15  H   -0.039931  -0.022781   0.017573  -0.008955  -0.003862  -0.000692
    16  H    0.092612  -0.018487  -0.001832  -0.001004  -0.003332  -0.000357
    17  H   -0.045983   0.006613   0.006643  -0.013964  -0.000828  -0.002466
    18  H    0.078478  -0.018177  -0.004399  -0.010294  -0.000721  -0.001215
    19  H   -0.079462   0.320128   0.030791   0.108245  -0.001784   0.000705
    20  H   -0.028178   0.457065  -0.014940  -0.029129   0.000908   0.000223
    21  H    0.072698   0.415439  -0.056831  -0.038513   0.003785  -0.000040
    22  H   -0.039329   0.031517   0.354700  -0.008480   0.001128   0.000159
    23  H    0.005081  -0.050116   0.421204  -0.093470   0.004268   0.000045
    24  H    0.003000  -0.026415   0.436578  -0.008605  -0.008718   0.000360
    25  H   -0.268198  -0.000626   0.000664   0.526363  -0.000445   0.001362
    26  H   -0.133061   0.002295   0.003035   0.481028  -0.000469  -0.002581
              13         14         15         16         17         18
     1  C   -0.008976  -0.157604  -0.182488   0.003803  -0.013305   0.071934
     2  C    0.002756   0.073591   0.081782  -0.089649   0.064353  -0.082926
     3  C   -0.086103  -0.189799   0.039680  -0.034136  -0.032715  -0.129367
     4  C    0.476133   0.517481   0.016098  -0.053567  -0.021208  -0.004913
     5  C   -0.054964   0.027784   0.570227   0.487684  -0.077077  -0.143113
     6  C    0.014741   0.013160  -0.110117  -0.035873   0.479013   0.588470
     7  C    0.001196   0.004031  -0.039931   0.092612  -0.045983   0.078478
     8  C    0.003690   0.023670  -0.022781  -0.018487   0.006613  -0.018177
     9  C    0.004981  -0.067426   0.017573  -0.001832   0.006643  -0.004399
    10  C   -0.019321   0.133488  -0.008955  -0.001004  -0.013964  -0.010294
    11  H    0.004043   0.000530  -0.003862  -0.003332  -0.000828  -0.000721
    12  H   -0.001565  -0.004276  -0.000692  -0.000357  -0.002466  -0.001215
    13  H    0.400182   0.005626  -0.002547  -0.004035  -0.004658  -0.002742
    14  H    0.005626   0.452326  -0.001596  -0.002827  -0.003430  -0.000814
    15  H   -0.002547  -0.001596   0.455501   0.000828   0.002080   0.000665
    16  H   -0.004035  -0.002827   0.000828   0.415725  -0.004425   0.001734
    17  H   -0.004658  -0.003430   0.002080  -0.004425   0.428029   0.000727
    18  H   -0.002742  -0.000814   0.000665   0.001734   0.000727   0.430272
    19  H   -0.000414   0.000533  -0.006862  -0.001059   0.000184  -0.011723
    20  H    0.000268   0.001040  -0.005168  -0.002381   0.000635   0.000235
    21  H   -0.000173  -0.000707  -0.000376   0.001091  -0.000318   0.002584
    22  H    0.003533  -0.012006   0.001134  -0.001146   0.000077   0.000265
    23  H    0.000685  -0.001683  -0.000535   0.000530   0.000056  -0.000372
    24  H   -0.000952   0.001076   0.000308   0.000952  -0.000264   0.000397
    25  H    0.000093   0.001439   0.000363  -0.000353   0.000451  -0.000683
    26  H   -0.000607   0.001234   0.000009   0.000184  -0.000636  -0.000203
              19         20         21         22         23         24
     1  C   -0.103862  -0.066341   0.147805  -0.026047   0.113121  -0.115697
     2  C    0.065157   0.021209  -0.113908   0.040990  -0.016694   0.046037
     3  C    0.010572   0.032115  -0.038025  -0.016877   0.006182   0.031247
     4  C   -0.012009   0.010239  -0.011927   0.041808  -0.011044  -0.008127
     5  C    0.037560  -0.015005  -0.020384  -0.003763  -0.017616   0.006151
     6  C   -0.008871  -0.001956   0.013160  -0.016460   0.004741   0.009393
     7  C   -0.079462  -0.028178   0.072698  -0.039329   0.005081   0.003000
     8  C    0.320128   0.457065   0.415439   0.031517  -0.050116  -0.026415
     9  C    0.030791  -0.014940  -0.056831   0.354700   0.421204   0.436578
    10  C    0.108245  -0.029129  -0.038513  -0.008480  -0.093470  -0.008605
    11  H   -0.001784   0.000908   0.003785   0.001128   0.004268  -0.008718
    12  H    0.000705   0.000223  -0.000040   0.000159   0.000045   0.000360
    13  H   -0.000414   0.000268  -0.000173   0.003533   0.000685  -0.000952
    14  H    0.000533   0.001040  -0.000707  -0.012006  -0.001683   0.001076
    15  H   -0.006862  -0.005168  -0.000376   0.001134  -0.000535   0.000308
    16  H   -0.001059  -0.002381   0.001091  -0.001146   0.000530   0.000952
    17  H    0.000184   0.000635  -0.000318   0.000077   0.000056  -0.000264
    18  H   -0.011723   0.000235   0.002584   0.000265  -0.000372   0.000397
    19  H    0.503568  -0.024672  -0.048050  -0.004039   0.003524  -0.001919
    20  H   -0.024672   0.473020  -0.034896  -0.000572   0.002981  -0.005749
    21  H   -0.048050  -0.034896   0.515354   0.002027   0.000088   0.002925
    22  H   -0.004039  -0.000572   0.002027   0.524611  -0.044651  -0.033105
    23  H    0.003524   0.002981   0.000088  -0.044651   0.528517  -0.039782
    24  H   -0.001919  -0.005749   0.002925  -0.033105  -0.039782   0.499900
    25  H    0.000383   0.001272  -0.010158  -0.001419  -0.008000   0.002440
    26  H    0.000010   0.000087  -0.000588  -0.001241   0.000038   0.000210
              25         26
     1  C   -0.032208  -0.013755
     2  C    0.116036   0.033389
     3  C    0.023061  -0.007617
     4  C    0.004103   0.004013
     5  C    0.003334   0.010223
     6  C   -0.003917  -0.002867
     7  C   -0.268198  -0.133061
     8  C   -0.000626   0.002295
     9  C    0.000664   0.003035
    10  C    0.526363   0.481028
    11  H   -0.000445  -0.000469
    12  H    0.001362  -0.002581
    13  H    0.000093  -0.000607
    14  H    0.001439   0.001234
    15  H    0.000363   0.000009
    16  H   -0.000353   0.000184
    17  H    0.000451  -0.000636
    18  H   -0.000683  -0.000203
    19  H    0.000383   0.000010
    20  H    0.001272   0.000087
    21  H   -0.010158  -0.000588
    22  H   -0.001419  -0.001241
    23  H   -0.008000   0.000038
    24  H    0.002440   0.000210
    25  H    0.458540  -0.006660
    26  H   -0.006660   0.429862
 Mulliken charges:
               1
     1  C    0.594815
     2  C   -0.102642
     3  C    0.769971
     4  C   -1.177742
     5  C   -0.841386
     6  C   -0.901188
     7  C    0.549895
     8  C   -0.744469
     9  C   -0.711438
    10  C   -1.197245
    11  H    0.363129
    12  H    0.371846
    13  H    0.269129
    14  H    0.185160
    15  H    0.199661
    16  H    0.249317
    17  H    0.232415
    18  H    0.235898
    19  H    0.223365
    20  H    0.227691
    21  H    0.197938
    22  H    0.207187
    23  H    0.192901
    24  H    0.208357
    25  H    0.192763
    26  H    0.204670
 Sum of Mulliken charges =  -0.00000
 Mulliken charges with hydrogens summed into heavy atoms:
               1
     1  C    0.957945
     2  C   -0.102642
     3  C    1.141817
     4  C   -0.723452
     5  C   -0.392408
     6  C   -0.432874
     7  C    0.549895
     8  C   -0.095476
     9  C   -0.102993
    10  C   -0.799813
 Electronic spatial extent (au):  <R**2>=           1297.3789
 Charge=             -0.0000 electrons
 Dipole moment (field-independent basis, Debye):
    X=              0.3523    Y=             -0.5142    Z=              0.1719  Tot=              0.6466
 Quadrupole moment (field-independent basis, Debye-Ang):
   XX=            -63.0935   YY=            -64.7401   ZZ=            -65.5406
   XY=              0.5610   XZ=              0.8542   YZ=             -0.0420
 Traceless Quadrupole moment (field-independent basis, Debye-Ang):
   XX=              1.3646   YY=             -0.2820   ZZ=             -1.0826
   XY=              0.5610   XZ=              0.8542   YZ=             -0.0420
 Octapole moment (field-independent basis, Debye-Ang**2):
  XXX=              1.8351  YYY=              0.7037  ZZZ=              1.7921  XYY=              1.4445
  XXY=              0.1852  XXZ=             -0.3588  XZZ=              1.5966  YZZ=             -2.5104
  YYZ=              0.1868  XYZ=              1.3927
 Hexadecapole moment (field-independent basis, Debye-Ang**3):
 XXXX=           -829.8472 YYYY=           -556.0984 ZZZZ=           -426.8221 XXXY=             -8.4222
 XXXZ=             12.4836 YYYX=              8.0053 YYYZ=             -3.5401 ZZZX=             -4.1263
 ZZZY=              4.5537 XXYY=           -238.8478 XXZZ=           -217.6009 YYZZ=           -175.3342
 XXYZ=             -4.2221 YYXZ=              4.2871 ZZXY=              1.5807
 N-N= 5.753326561583D+02 E-N=-2.054677419651D+03  KE= 3.884803590259D+02
 R6APFD:  NTU= -4 IXU= 1 FactS= 1.050
 Calling FoFJK, ICntrl=      2127 FMM=F ISym2X=0 I1Cent= 0 IOpClX= 0 NMat=1 NMatS=1 NMatT=0.
 ***** Axes restored to original set *****
 -------------------------------------------------------------------
 Center     Atomic                   Forces (Hartrees/Bohr)
 Number     Number              X              Y              Z
 -------------------------------------------------------------------
      1        6           0.000665707   -0.009875220    0.003985072
      2        6           0.006531384   -0.004523018   -0.001068605
      3        6          -0.002932024    0.009017752    0.002252061
      4        6          -0.000324393   -0.003723323    0.002195430
      5        6          -0.004034312   -0.005710536   -0.000625944
      6        6           0.003662860    0.002424780   -0.004771378
      7        6          -0.004744926    0.018467153   -0.001111132
      8        6           0.000830144    0.001903208   -0.000963285
      9        6           0.001714342    0.000688582    0.001018747
     10        6           0.006605027   -0.012962376    0.002249615
     11        1          -0.003655837   -0.003327593   -0.000560133
     12        1          -0.001580745    0.004123662   -0.001943423
     13        1           0.001518188   -0.001057669   -0.000281241
     14        1          -0.001313469    0.000807623    0.000411725
     15        1          -0.001615591   -0.002229148   -0.000907445
     16        1          -0.001820998   -0.002970801    0.001127555
     17        1           0.000893386    0.003268809   -0.000125406
     18        1          -0.000582850    0.003167629    0.000541170
     19        1           0.002408854    0.000762523    0.000535942
     20        1          -0.000153407   -0.002345206    0.000800923
     21        1          -0.001021384    0.001243816    0.001651093
     22        1           0.001921682    0.000817005    0.000309245
     23        1           0.000382123    0.001730971   -0.001917032
     24        1           0.000197093   -0.002289464   -0.001405895
     25        1          -0.004037632   -0.000147087   -0.001565379
     26        1           0.000486776    0.002737930    0.000167719
 -------------------------------------------------------------------
 Cartesian Forces:  Max     0.018467153 RMS     0.003815767

 GradGradGradGradGradGradGradGradGradGradGradGradGradGradGradGradGradGrad
 Berny optimization.
 FormGI is forming the generalized inverse of G from B-inverse, IUseBI=4.
 Internal  Forces:  Max     0.013523383 RMS     0.002359874
 Search for a local minimum.
 Step number   1 out of a maximum of  156
 All quantities printed in internal units (Hartrees-Bohrs-Radians)
 Mixed Optimization -- RFO/linear search
 Second derivative matrix not updated -- first step.
 ITU=  0
     Eigenvalues ---    0.00237   0.00304   0.00369   0.00762   0.01197
     Eigenvalues ---    0.01681   0.02258   0.02914   0.02914   0.02980
     Eigenvalues ---    0.03436   0.03975   0.04188   0.04328   0.04783
     Eigenvalues ---    0.05090   0.05230   0.05284   0.05303   0.05421
     Eigenvalues ---    0.05437   0.05473   0.05486   0.05792   0.06302
     Eigenvalues ---    0.06675   0.06715   0.06777   0.07391   0.07621
     Eigenvalues ---    0.08815   0.09743   0.10096   0.11662   0.12068
     Eigenvalues ---    0.16000   0.16000   0.16000   0.16000   0.16000
     Eigenvalues ---    0.16000   0.16000   0.16000   0.16846   0.22561
     Eigenvalues ---    0.23489   0.24946   0.25040   0.26077   0.26471
     Eigenvalues ---    0.28403   0.28518   0.28975   0.29120   0.29426
     Eigenvalues ---    0.34022   0.34082   0.34088   0.34117   0.34141
     Eigenvalues ---    0.34153   0.34174   0.34196   0.34240   0.34302
     Eigenvalues ---    0.34363   0.34452   0.34537   0.34629   0.35448
     Eigenvalues ---    0.35476   0.57748
 RFO step:  Lambda=-5.65461123D-03 EMin= 2.36671101D-03
 Linear search not attempted -- first point.
 Iteration  1 RMS(Cart)=  0.04111868 RMS(Int)=  0.00066325
 Iteration  2 RMS(Cart)=  0.00079625 RMS(Int)=  0.00026139
 Iteration  3 RMS(Cart)=  0.00000034 RMS(Int)=  0.00026139
 Variable       Old X    -DE/DX   Delta X   Delta X   Delta X     New X
                                 (Linear)    (Quad)   (Total)
    R1        2.95849  -0.00494   0.00000  -0.02054  -0.02052   2.93797
    R2        2.90524   0.00379   0.00000   0.01611   0.01642   2.92167
    R3        2.92120  -0.00182   0.00000  -0.00909  -0.00925   2.91195
    R4        2.06574   0.00322   0.00000   0.00919   0.00919   2.07493
    R5        2.88240   0.00509   0.00000   0.00957   0.00990   2.89230
    R6        2.90056  -0.00297   0.00000  -0.01004  -0.01004   2.89052
    R7        2.91020  -0.00454   0.00000  -0.01560  -0.01560   2.89460
    R8        2.88619   0.00947   0.00000   0.03302   0.03302   2.91921
    R9        2.90615   0.00442   0.00000   0.01957   0.01949   2.92564
   R10        2.86672  -0.00273   0.00000  -0.01013  -0.00998   2.85674
   R11        2.06281   0.00253   0.00000   0.00720   0.00720   2.07001
   R12        2.07133   0.00154   0.00000   0.00444   0.00444   2.07576
   R13        2.06723   0.00122   0.00000   0.00350   0.00350   2.07073
   R14        2.91045   0.01352   0.00000   0.05075   0.05021   2.96066
   R15        2.06433   0.00209   0.00000   0.00595   0.00595   2.07029
   R16        2.07292   0.00030   0.00000   0.00087   0.00087   2.07379
   R17        2.07073   0.00137   0.00000   0.00395   0.00395   2.07468
   R18        2.07000   0.00088   0.00000   0.00253   0.00253   2.07253
   R19        2.52768  -0.01013   0.00000  -0.01738  -0.01738   2.51030
   R20        2.06927   0.00125   0.00000   0.00358   0.00358   2.07286
   R21        2.07038   0.00233   0.00000   0.00672   0.00672   2.07709
   R22        2.07192   0.00103   0.00000   0.00297   0.00297   2.07489
   R23        2.06823   0.00100   0.00000   0.00288   0.00288   2.07111
   R24        2.07182   0.00093   0.00000   0.00268   0.00268   2.07450
   R25        2.07092   0.00208   0.00000   0.00599   0.00599   2.07691
   R26        2.04909   0.00431   0.00000   0.01194   0.01194   2.06103
   R27        2.04953   0.00272   0.00000   0.00756   0.00756   2.05709
    A1        1.78895  -0.00205   0.00000  -0.01026  -0.01098   1.77797
    A2        1.95817  -0.00330   0.00000  -0.04607  -0.04596   1.91221
    A3        1.98572   0.00112   0.00000  -0.00618  -0.00590   1.97982
    A4        1.74048   0.00177   0.00000   0.00552   0.00529   1.74576
    A5        1.99911   0.00166   0.00000   0.03669   0.03651   2.03561
    A6        1.96998   0.00061   0.00000   0.01957   0.01838   1.98837
    A7        1.73020   0.00502   0.00000   0.03879   0.03881   1.76902
    A8        1.97932  -0.00163   0.00000  -0.00324  -0.00280   1.97651
    A9        1.93537  -0.00219   0.00000  -0.00894  -0.00918   1.92620
   A10        1.96778  -0.00222   0.00000  -0.01781  -0.01778   1.95000
   A11        1.95382  -0.00239   0.00000  -0.01375  -0.01392   1.93990
   A12        1.89465   0.00317   0.00000   0.00574   0.00554   1.90019
   A13        1.77808  -0.00128   0.00000  -0.01343  -0.01356   1.76452
   A14        1.75460  -0.00050   0.00000  -0.00234  -0.00258   1.75202
   A15        2.01342   0.00237   0.00000   0.03609   0.03631   2.04973
   A16        1.88212  -0.00166   0.00000  -0.01687  -0.01703   1.86508
   A17        1.99939   0.00103   0.00000   0.00932   0.00883   2.00821
   A18        2.00725  -0.00035   0.00000  -0.01530  -0.01518   1.99207
   A19        1.63390   0.00182   0.00000   0.02192   0.02179   1.65569
   A20        1.97222  -0.00111   0.00000  -0.01027  -0.01021   1.96201
   A21        1.99670  -0.00032   0.00000  -0.00379  -0.00378   1.99292
   A22        1.97159   0.00075   0.00000   0.00217   0.00220   1.97379
   A23        1.98584  -0.00203   0.00000  -0.01320  -0.01308   1.97276
   A24        1.89554   0.00086   0.00000   0.00400   0.00392   1.89946
   A25        1.79795   0.00058   0.00000   0.00229   0.00231   1.80026
   A26        1.99243  -0.00076   0.00000  -0.01637  -0.01644   1.97599
   A27        1.92215  -0.00221   0.00000  -0.02051  -0.02065   1.90150
   A28        1.96758   0.00035   0.00000   0.01035   0.01013   1.97771
   A29        1.91321   0.00225   0.00000   0.03021   0.03042   1.94363
   A30        1.87008  -0.00013   0.00000  -0.00435  -0.00500   1.86508
   A31        1.79615  -0.00080   0.00000   0.00722   0.00736   1.80351
   A32        1.93822  -0.00018   0.00000  -0.01011  -0.01046   1.92776
   A33        1.96771  -0.00190   0.00000  -0.02710  -0.02725   1.94046
   A34        1.92027   0.00203   0.00000   0.02588   0.02601   1.94628
   A35        1.95231   0.00168   0.00000   0.01634   0.01616   1.96847
   A36        1.88866  -0.00069   0.00000  -0.01008  -0.01075   1.87791
   A37        1.87752  -0.00167   0.00000  -0.01239  -0.01258   1.86493
   A38        2.22129  -0.00411   0.00000  -0.01267  -0.01285   2.20844
   A39        2.18391   0.00579   0.00000   0.02608   0.02589   2.20980
   A40        1.96450  -0.00236   0.00000  -0.01434  -0.01440   1.95010
   A41        1.93352  -0.00018   0.00000  -0.00102  -0.00104   1.93249
   A42        1.94026  -0.00226   0.00000  -0.01363  -0.01368   1.92658
   A43        1.88740   0.00138   0.00000   0.00829   0.00828   1.89568
   A44        1.85634   0.00246   0.00000   0.01472   0.01462   1.87096
   A45        1.87783   0.00129   0.00000   0.00794   0.00793   1.88576
   A46        1.96942  -0.00168   0.00000  -0.00980  -0.00986   1.95955
   A47        1.94110  -0.00272   0.00000  -0.01811  -0.01821   1.92290
   A48        1.93020  -0.00112   0.00000  -0.00540  -0.00543   1.92477
   A49        1.86472   0.00212   0.00000   0.01030   0.01017   1.87489
   A50        1.87710   0.00188   0.00000   0.01443   0.01443   1.89154
   A51        1.87717   0.00192   0.00000   0.01096   0.01090   1.88807
   A52        2.11496   0.00011   0.00000   0.00069   0.00069   2.11565
   A53        2.11152   0.00048   0.00000   0.00293   0.00292   2.11444
   A54        2.05671  -0.00060   0.00000  -0.00362  -0.00362   2.05309
    D1        0.64178  -0.00131   0.00000  -0.04436  -0.04439   0.59739
    D2        2.73193  -0.00166   0.00000  -0.04373  -0.04336   2.68857
    D3       -1.41436  -0.00035   0.00000  -0.04533  -0.04502  -1.45937
    D4       -1.20995  -0.00117   0.00000  -0.02955  -0.03007  -1.24001
    D5        0.88020  -0.00152   0.00000  -0.02893  -0.02903   0.85117
    D6        3.01710  -0.00021   0.00000  -0.03052  -0.03069   2.98641
    D7        2.81000  -0.00003   0.00000  -0.00970  -0.01033   2.79968
    D8       -1.38304  -0.00038   0.00000  -0.00908  -0.00929  -1.39233
    D9        0.75386   0.00093   0.00000  -0.01067  -0.01095   0.74291
   D10       -0.99801   0.00307   0.00000   0.04234   0.04214  -0.95588
   D11       -3.03726   0.00163   0.00000   0.03170   0.03163  -3.00563
   D12        1.06472   0.00166   0.00000   0.03808   0.03795   1.10267
   D13        1.01788  -0.00047   0.00000  -0.00801  -0.00819   1.00969
   D14       -1.02137  -0.00191   0.00000  -0.01865  -0.01870  -1.04006
   D15        3.08062  -0.00188   0.00000  -0.01226  -0.01238   3.06824
   D16        3.12586   0.00217   0.00000   0.03619   0.03622  -3.12111
   D17        1.08661   0.00072   0.00000   0.02555   0.02571   1.11232
   D18       -1.09459   0.00075   0.00000   0.03194   0.03203  -1.06256
   D19        1.19579  -0.00115   0.00000  -0.00836  -0.00873   1.18706
   D20       -0.94352  -0.00155   0.00000  -0.01347  -0.01353  -0.95706
   D21       -3.04785   0.00078   0.00000   0.01860   0.01826  -3.02959
   D22       -0.68710   0.00133   0.00000   0.01487   0.01489  -0.67221
   D23       -2.82642   0.00093   0.00000   0.00975   0.01008  -2.81633
   D24        1.35244   0.00325   0.00000   0.04182   0.04188   1.39432
   D25       -2.81604  -0.00199   0.00000  -0.04090  -0.04131  -2.85735
   D26        1.32783  -0.00239   0.00000  -0.04602  -0.04612   1.28171
   D27       -0.77650  -0.00007   0.00000  -0.01395  -0.01432  -0.79082
   D28       -0.02470   0.00055   0.00000   0.03381   0.03411   0.00941
   D29       -3.13456   0.00001   0.00000  -0.00114  -0.00014  -3.13471
   D30       -2.12335   0.00050   0.00000   0.02280   0.02285  -2.10051
   D31        1.04997  -0.00004   0.00000  -0.01215  -0.01141   1.03856
   D32        2.01748  -0.00020   0.00000   0.03899   0.03874   2.05623
   D33       -1.09238  -0.00074   0.00000   0.00404   0.00449  -1.08789
   D34       -1.18302  -0.00163   0.00000   0.00841   0.00832  -1.17470
   D35        0.93258  -0.00163   0.00000   0.00838   0.00826   0.94085
   D36        3.01964  -0.00161   0.00000   0.00875   0.00861   3.02825
   D37        0.76575   0.00225   0.00000   0.04382   0.04393   0.80967
   D38        2.88135   0.00225   0.00000   0.04379   0.04387   2.92522
   D39       -1.31479   0.00227   0.00000   0.04416   0.04422  -1.27057
   D40        2.94085  -0.00003   0.00000   0.01793   0.01798   2.95884
   D41       -1.22673  -0.00003   0.00000   0.01790   0.01793  -1.20880
   D42        0.86032  -0.00001   0.00000   0.01827   0.01828   0.87860
   D43        1.03097   0.00155   0.00000  -0.02456  -0.02477   1.00620
   D44        3.12619   0.00118   0.00000  -0.03096  -0.03112   3.09507
   D45       -1.07241   0.00109   0.00000  -0.03253  -0.03269  -1.10511
   D46       -0.88349  -0.00198   0.00000  -0.05889  -0.05882  -0.94231
   D47        1.21173  -0.00234   0.00000  -0.06529  -0.06517   1.14656
   D48       -2.98688  -0.00244   0.00000  -0.06686  -0.06674  -3.05362
   D49       -3.06684   0.00023   0.00000  -0.03071  -0.03067  -3.09751
   D50       -0.97162  -0.00014   0.00000  -0.03711  -0.03702  -1.00864
   D51        1.11296  -0.00024   0.00000  -0.03868  -0.03859   1.07437
   D52       -0.98542   0.00136   0.00000   0.01672   0.01651  -0.96891
   D53        1.05436   0.00124   0.00000   0.01693   0.01686   1.07122
   D54       -3.05712   0.00137   0.00000   0.01340   0.01337  -3.04375
   D55        0.95094  -0.00091   0.00000  -0.00560  -0.00590   0.94503
   D56        2.99072  -0.00103   0.00000  -0.00539  -0.00555   2.98517
   D57       -1.12076  -0.00090   0.00000  -0.00892  -0.00904  -1.12980
   D58        3.12088  -0.00040   0.00000  -0.00633  -0.00633   3.11455
   D59       -1.12252  -0.00051   0.00000  -0.00612  -0.00598  -1.12850
   D60        1.04919  -0.00038   0.00000  -0.00965  -0.00947   1.03971
   D61        0.57919  -0.00090   0.00000  -0.01220  -0.01195   0.56724
   D62       -1.47483  -0.00274   0.00000  -0.04174  -0.04153  -1.51636
   D63        2.68549  -0.00037   0.00000  -0.00205  -0.00216   2.68333
   D64       -1.25864   0.00066   0.00000   0.00077   0.00097  -1.25766
   D65        2.97052  -0.00118   0.00000  -0.02877  -0.02861   2.94192
   D66        0.84766   0.00119   0.00000   0.01092   0.01077   0.85843
   D67        2.76541   0.00174   0.00000   0.02856   0.02891   2.79432
   D68        0.71138  -0.00010   0.00000  -0.00097  -0.00067   0.71071
   D69       -1.41149   0.00228   0.00000   0.03872   0.03871  -1.37278
   D70       -0.59950   0.00137   0.00000  -0.01109  -0.01063  -0.61013
   D71        2.51122   0.00168   0.00000   0.02205   0.02277   2.53400
   D72        1.25480  -0.00070   0.00000  -0.03148  -0.03106   1.22374
   D73       -1.91766  -0.00039   0.00000   0.00166   0.00235  -1.91532
   D74       -2.77367  -0.00101   0.00000  -0.04554  -0.04514  -2.81882
   D75        0.33705  -0.00071   0.00000  -0.01241  -0.01174   0.32531
   D76        0.06964  -0.00124   0.00000  -0.00486  -0.00488   0.06475
   D77        2.13629  -0.00094   0.00000  -0.00084  -0.00073   2.13555
   D78       -2.04718   0.00066   0.00000   0.01471   0.01488  -2.03229
   D79        2.22552  -0.00159   0.00000  -0.01756  -0.01779   2.20773
   D80       -1.99102  -0.00129   0.00000  -0.01353  -0.01364  -2.00466
   D81        0.10871   0.00031   0.00000   0.00201   0.00198   0.11068
   D82       -1.97624   0.00001   0.00000   0.00416   0.00409  -1.97214
   D83        0.09041   0.00031   0.00000   0.00818   0.00824   0.09865
   D84        2.19014   0.00191   0.00000   0.02372   0.02386   2.21399
   D85       -0.01890  -0.00009   0.00000   0.01071   0.01075  -0.00814
   D86        3.12427   0.00001   0.00000   0.01362   0.01367   3.13793
   D87       -3.12350  -0.00055   0.00000  -0.02921  -0.02925   3.13043
   D88        0.01966  -0.00045   0.00000  -0.02630  -0.02634  -0.00668
         Item               Value     Threshold  Converged?
 Maximum Force            0.013523     0.000450     NO 
 RMS     Force            0.002360     0.000300     NO 
 Maximum Displacement     0.185924     0.001800     NO 
 RMS     Displacement     0.041239     0.001200     NO 
 Predicted change in Energy=-3.076589D-03
 GradGradGradGradGradGradGradGradGradGradGradGradGradGradGradGradGradGrad

                          Input orientation:                          
 ---------------------------------------------------------------------
 Center     Atomic      Atomic             Coordinates (Angstroms)
 Number     Number       Type             X           Y           Z
 ---------------------------------------------------------------------
      1          6           0        0.470511   -1.157526    0.456865
      2          6           0       -0.851686   -0.488371   -0.013382
      3          6           0        0.994428    1.057031    0.402596
      4          6           0        1.035598   -0.096561    1.429176
      5          6           0        1.519306   -1.075162   -0.669073
      6          6           0        1.832362    0.457659   -0.753039
      7          6           0       -0.453941    0.989538   -0.025160
      8          6           0       -1.310556   -0.962268   -1.393427
      9          6           0       -1.971305   -0.751294    0.998354
     10          6           0       -1.232156    2.015338   -0.351884
     11          1           0        0.328708   -2.168874    0.860204
     12          1           0        1.315231    2.047502    0.743129
     13          1           0        2.052978   -0.337063    1.766347
     14          1           0        0.406437    0.088182    2.307108
     15          1           0        1.169538   -1.498829   -1.616909
     16          1           0        2.406578   -1.648683   -0.372228
     17          1           0        2.900227    0.659604   -0.597431
     18          1           0        1.548932    0.896858   -1.717198
     19          1           0       -0.626013   -0.632386   -2.184494
     20          1           0       -1.380534   -2.058743   -1.424727
     21          1           0       -2.301106   -0.551355   -1.629070
     22          1           0       -1.717527   -0.390888    2.001791
     23          1           0       -2.890638   -0.238134    0.687528
     24          1           0       -2.183731   -1.827840    1.060289
     25          1           0       -2.267610    1.863946   -0.659189
     26          1           0       -0.857332    3.037017   -0.326278
 ---------------------------------------------------------------------
                    Distance matrix (angstroms):
                    1          2          3          4          5
     1  C    0.000000
     2  C    1.554705   0.000000
     3  C    2.276335   2.443244   0.000000
     4  C    1.546079   2.407557   1.544777   0.000000
     5  C    1.540938   2.529003   2.443403   2.365223   0.000000
     6  C    2.434610   2.940438   1.548184   2.388316   1.566714
     7  C    2.386807   1.530540   1.511722   2.348070   2.927681
     8  C    2.575637   1.529597   3.551932   3.771071   2.923278
     9  C    2.533911   1.531759   3.524278   3.107370   3.881954
    10  C    3.690558   2.554975   2.538753   3.574214   4.149981
    11  H    1.098005   2.231720   3.325515   2.262278   2.225403
    12  H    3.326817   3.420306   1.095404   2.268450   3.433219
    13  H    2.211811   3.409898   2.218973   1.098447   2.600167
    14  H    2.231434   2.701844   2.216206   1.095782   3.383711
    15  H    2.214873   2.770861   3.262129   3.356029   1.095548
    16  H    2.162634   3.477266   3.148875   2.744764   1.097404
    17  H    3.212012   3.966839   2.188624   2.855830   2.218443
    18  H    3.179628   3.253431   2.196965   3.339171   2.233451
    19  H    2.907733   2.187555   3.488982   4.013312   2.663634
    20  H    2.789076   2.176613   4.322916   4.222868   3.153969
    21  H    3.521425   2.171459   4.192269   4.548989   3.973855
    22  H    2.786045   2.195474   3.465342   2.827405   4.251921
    23  H    3.492251   2.170535   4.105165   3.998177   4.689199
    24  H    2.803291   2.172853   4.342319   3.673892   4.155682
    25  H    4.227550   2.820514   3.524115   4.372190   4.793661
    26  H    4.468856   3.539251   2.807243   4.060064   4.761925
                    6          7          8          9         10
     6  C    0.000000
     7  C    2.457618   0.000000
     8  C    3.507738   2.532882   0.000000
     9  C    4.358534   2.525959   2.490324   0.000000
    10  C    3.461006   1.328395   3.155487   3.166028   0.000000
    11  H    3.429607   3.372236   3.036765   2.705306   4.627428
    12  H    2.243557   2.199893   4.529719   4.324317   2.772953
    13  H    2.650954   3.354700   4.657083   4.117797   4.562105
    14  H    3.396215   2.644271   4.212538   2.840989   3.670035
    15  H    2.239073   3.370656   2.547295   4.154913   4.440472
    16  H    2.216171   3.906820   3.915495   4.674362   5.163899
    17  H    1.097876   3.418595   4.582006   5.316859   4.356018
    18  H    1.096737   2.623562   3.426054   4.741591   3.293862
    19  H    3.046452   2.706098   1.096908   3.457523   3.276631
    20  H    4.135957   3.479853   1.099151   2.815982   4.215584
    21  H    4.344088   2.891176   1.097983   2.655579   3.059701
    22  H    4.572836   2.758760   3.466931   1.095985   3.400779
    23  H    4.986591   2.820035   2.711347   1.097780   2.984808
    24  H    4.963936   3.479654   2.744516   1.099051   4.203540
    25  H    4.335461   2.110918   3.072872   3.110422   1.090652
    26  H    3.750955   2.108451   4.163953   4.164959   1.088566
                   11         12         13         14         15
    11  H    0.000000
    12  H    4.331832   0.000000
    13  H    2.673899   2.697665   0.000000
    14  H    2.682140   2.666622   1.784475   0.000000
    15  H    2.700379   4.262332   3.684643   4.301027   0.000000
    16  H    2.471241   4.012088   2.533553   3.767772   1.761237
    17  H    4.091173   2.497114   2.701597   3.870641   2.948466
    18  H    4.186963   2.726134   3.729840   4.260785   2.427615
    19  H    3.541536   4.418281   4.782610   4.664725   2.072892
    20  H    2.855617   5.369171   4.993610   4.661453   2.617882
    21  H    3.965952   5.045720   5.525652   4.820093   3.597670
    22  H    2.941349   4.089939   3.778233   2.198625   4.760007
    23  H    3.757894   4.787125   5.060927   3.687849   4.835785
    24  H    2.543361   5.230832   4.546497   3.454659   4.303492
    25  H    5.031208   3.851875   5.421729   4.370674   4.903006
    26  H    5.469528   2.615875   4.922743   4.150599   5.133013
                   16         17         18         19         20
    16  H    0.000000
    17  H    2.371201   0.000000
    18  H    3.004044   1.770922   0.000000
    19  H    3.676109   4.077055   2.699507   0.000000
    20  H    3.951977   5.137971   4.171676   1.783547   0.000000
    21  H    4.994604   5.439170   4.114351   1.766635   1.778040
    22  H    4.922018   5.402143   5.114579   4.332979   3.825746
    23  H    5.583300   5.999265   5.175006   3.678650   3.171222
    24  H    4.811978   5.897630   5.391769   3.792652   2.621782
    25  H    5.853968   5.306674   4.076840   3.354559   4.093951
    26  H    5.710605   4.454757   3.507854   4.119586   5.238998
                   21         22         23         24         25
    21  H    0.000000
    22  H    3.680960   0.000000
    23  H    2.410867   1.768280   0.000000
    24  H    2.979235   1.780057   1.779280   0.000000
    25  H    2.602973   3.530961   2.573043   4.073441   0.000000
    26  H    4.081441   4.232065   3.986070   5.229602   1.864352
                   26
    26  H    0.000000
 Stoichiometry    C10H16
 Framework group  C1[X(C10H16)]
 Deg. of freedom    72
 Full point group                 C1      NOp   1
 Largest Abelian subgroup         C1      NOp   1
 Largest concise Abelian subgroup C1      NOp   1
                         Standard orientation:                         
 ---------------------------------------------------------------------
 Center     Atomic      Atomic             Coordinates (Angstroms)
 Number     Number       Type             X           Y           Z
 ---------------------------------------------------------------------
      1          6           0        0.474563   -1.121930    0.482549
      2          6           0       -0.834553   -0.436436   -0.000589
      3          6           0        1.037862    1.081945    0.396931
      4          6           0        1.056389   -0.056926    1.440466
      5          6           0        1.526997   -1.074801   -0.642018
      6          6           0        1.867416    0.450820   -0.747794
      7          6           0       -0.410584    1.033850   -0.033179
      8          6           0       -1.298899   -0.922427   -1.374583
      9          6           0       -1.960771   -0.664504    1.012280
     10          6           0       -1.169766    2.068361   -0.376782
     11          1           0        0.313970   -2.124543    0.900392
     12          1           0        1.375506    2.071486    0.723605
     13          1           0        2.068630   -0.310436    1.783522
     14          1           0        0.428785    0.151879    2.314109
     15          1           0        1.171729   -1.506134   -1.584335
     16          1           0        2.403317   -1.659529   -0.334689
     17          1           0        2.938375    0.636066   -0.592673
     18          1           0        1.593843    0.880706   -1.718972
     19          1           0       -0.606957   -0.616445   -2.168812
     20          1           0       -1.388285   -2.017831   -1.389911
     21          1           0       -2.281498   -0.497530   -1.618567
     22          1           0       -1.702718   -0.293893    2.010898
     23          1           0       -2.870191   -0.139759    0.691784
     24          1           0       -2.192422   -1.736083    1.089550
     25          1           0       -2.207104    1.930842   -0.684252
     26          1           0       -0.776899    3.083497   -0.365333
 ---------------------------------------------------------------------
 Rotational constants (GHZ):           1.8485879           1.4208747           1.2326016
 Standard basis: 6-311++G(d,p) (5D, 7F)
 There are   342 symmetry adapted cartesian basis functions of A   symmetry.
 There are   332 symmetry adapted basis functions of A   symmetry.
   332 basis functions,   504 primitive gaussians,   342 cartesian basis functions
    38 alpha electrons       38 beta electrons
       nuclear repulsion energy       576.3665233980 Hartrees.
 NAtoms=   26 NActive=   26 NUniq=   26 SFac= 1.00D+00 NAtFMM=   60 NAOKFM=F Big=F
 Integral buffers will be    131072 words long.
 Raffenetti 2 integral format.
 Two-electron integral symmetry is turned on.
 R6APFD:  NTU= -4 IXU= 1 FactS= 1.050
 Nuclear repulsion after empirical dispersion term =      576.3433360674 Hartrees.
 One-electron integrals computed using PRISM.
 NBasis=   332 RedAO= T EigKep=  1.54D-06  NBF=   332
 NBsUse=   332 1.00D-06 EigRej= -1.00D+00 NBFU=   332
 Initial guess from the checkpoint file:  "CPHE0012.chk"
 B after Tr=    -0.000000   -0.000000    0.000000
         Rot=    0.999921   -0.002436   -0.001200   -0.012299 Ang=  -1.44 deg.
 ExpMin= 3.60D-02 ExpMax= 4.56D+03 ExpMxC= 6.82D+02 IAcc=3 IRadAn=         5 AccDes= 0.00D+00
 Harris functional with IExCor= 1009 and IRadAn=       5 diagonalized for initial guess.
 HarFok:  IExCor= 1009 AccDes= 0.00D+00 IRadAn=         5 IDoV= 1 UseB2=F ITyADJ=14
 ICtDFT=  3500011 ScaDFX=  1.000000  1.000000  1.000000  1.000000
 FoFCou: FMM=F IPFlag=           0 FMFlag=      100000 FMFlg1=           0
         NFxFlg=           0 DoJE=T BraDBF=F KetDBF=T FulRan=T
[...]
 0348,-0.00133650,-0.00032356,0.00040214,-0.00037655,-0.00002157,-0.000
 02880,0.00003821,0.00002111,0.00002314,0.00003884,0.00002796,0.0000808
 4,0.00004729,0.00002345,-0.00000339,0.00005871,-0.00254206,0.00101306,
 -0.00132321,0.00006454,-0.00013669,-0.00026038,0.00005363,0.00010179,0
 .00009104,-0.00007240,-0.00033796,0.00018374,0.16859037,-0.00019525,-0
 .00023295,0.00053565,0.00718083,0.00111696,-0.00747248,0.00004978,-0.0
 0002410,-0.00006578,0.00027304,0.00010227,-0.00006921,-0.00015323,0.00
 049366,0.00070691,-0.00012951,0.00044073,-0.00038327,0.00046958,0.0008
 0512,-0.00094785,-0.05258586,-0.07031972,0.05813241,-0.00072006,-0.000
 52563,-0.00225765,0.00020206,0.00004547,0.00049933,-0.00002481,0.00004
 946,-0.00005833,0.00007376,-0.00001966,-0.00001976,0.00001545,-0.00000
 636,0.00006077,0.00001230,-0.00005227,-0.00001770,0.00124840,-0.000557
 61,0.00022360,-0.00011317,-0.00017891,-0.00026619,0.00005864,-0.000099
 41,0.00007058,-0.00027214,-0.00025558,0.00021465,0.05625968,0.07252044
 ,0.00116821,-0.00017719,0.00013108,0.01934174,0.00817301,-0.01926839,-
 0.00006759,-0.00024230,-0.00031193,0.00002893,0.00005286,0.00024716,-0
 .00003651,0.00002828,-0.00023711,-0.00010666,-0.00039654,-0.00025995,0
 .00048974,0.00186453,0.00052419,0.11956353,0.05683676,-0.17849383,-0.0
 0333407,-0.00229356,-0.00541786,-0.00003493,-0.00033298,0.00062490,-0.
 00000570,-0.00008513,0.00010957,-0.00010577,0.00001295,0.00003480,-0.0
 0013525,-0.00002164,-0.00000729,0.00005497,0.00010408,0.00017135,-0.00
 073868,0.00065955,0.00058925,0.00019055,0.00008260,0.00053248,0.000093
 02,0.00002180,0.00021603,-0.00040009,-0.00035764,0.00016239,-0.1303594
 3,-0.06049725,0.19590087,0.00052129,-0.00053270,0.00053027,-0.00245578
 ,-0.01172692,-0.00135376,0.00007066,-0.00016210,0.00021103,0.00007503,
 -0.00001957,0.00001927,0.00007302,-0.00028968,-0.00015720,-0.00005692,
 -0.00003589,0.00022080,0.00049725,0.00025282,-0.00250814,-0.04704430,-
 0.01961972,0.00090379,-0.00027269,0.00061450,0.00041713,-0.00013776,-0
 .00023260,-0.00012493,0.00008832,0.00024192,-0.00014796,-0.00013822,-0
 .00002642,0.00000732,-0.00001274,0.00005079,0.00000230,0.00001020,0.00
 006120,0.00005942,-0.00033364,-0.00009753,0.00049976,0.00004749,0.0001
 3208,0.00011928,-0.00001753,0.00008193,-0.00007682,0.00004779,0.000152
 08,-0.00009638,-0.00149794,-0.02005200,-0.00210903,0.04656840,0.000631
 96,0.00060227,0.00001269,-0.00138460,-0.00956941,0.00043230,0.00027846
 ,-0.00028653,-0.00002819,-0.00010543,-0.00002590,-0.00001381,-0.000229
 55,0.00010049,-0.00021273,0.00012245,-0.00001298,0.00011815,0.00006474
 ,0.00034224,-0.00200336,-0.01915043,-0.30357979,-0.00644618,-0.0000709
 6,0.00009883,0.00047680,-0.00050318,0.00016604,-0.00041465,-0.00066433
 ,0.00004045,-0.00041856,-0.00018177,0.00008487,-0.00005832,-0.00005211
 ,0.00004856,-0.00005375,0.00002021,0.00001135,0.00002306,-0.00034903,-
 0.00020345,0.00018952,-0.00007975,0.00003886,0.00003041,-0.00005626,0.
 00010778,0.00001003,0.00007667,0.00005822,-0.00004518,0.00071764,-0.00
 765857,-0.00091501,0.02274877,0.32979944,0.00059708,0.00002527,0.00168
 035,-0.00206769,-0.03124858,-0.00148059,-0.00010727,-0.00091552,0.0000
 6875,0.00039855,-0.00007443,0.00010073,-0.00026763,0.00029914,0.000229
 43,0.00008227,0.00009632,-0.00027835,-0.00109978,0.00020727,-0.0049680
 2,0.00056723,-0.00677456,-0.04640220,-0.00061334,-0.00075858,0.0015912
 8,-0.00039242,-0.00064775,0.00045070,-0.00004089,0.00047005,-0.0002116
 4,-0.00035372,-0.00001416,-0.00003793,0.00002380,0.00010521,0.00000707
 ,0.00002329,-0.00001122,0.00002991,-0.00019438,0.00000674,-0.00010757,
 -0.00000055,-0.00001435,0.00004147,-0.00000118,0.00004883,0.00013217,-
 0.00004086,-0.00011733,0.00005830,-0.00019605,0.02213779,0.00104740,0.
 00194086,0.00999912,0.04934939,0.00064814,-0.00148709,-0.00069206,-0.0
 0991603,0.00394912,-0.00193713,0.00003262,0.00003763,-0.00000761,-0.00
 048935,0.00048652,-0.00023611,0.00021223,0.00035759,-0.00010049,0.0001
 7607,0.00022765,0.00007848,-0.00017705,0.00126907,-0.00007854,-0.25717
 505,0.09394096,-0.04663593,0.00071710,-0.00004081,0.00157195,0.0000196
 8,-0.00026067,0.00043165,-0.00013561,0.00011233,-0.00014617,0.00001784
 ,-0.00008820,0.00000335,0.00000927,-0.00027550,-0.00016392,0.00003391,
 -0.00005243,-0.00009692,0.00014712,-0.00034770,-0.00032952,-0.00012573
 ,-0.00009777,-0.00019686,-0.00000032,-0.00008399,-0.00008017,0.0000518
 7,0.00007766,0.00002731,-0.01690932,0.00808055,-0.00469391,0.00346200,
 -0.00214206,0.00117150,0.27802329,-0.00033898,-0.00011825,-0.00147656,
 -0.00908810,0.00335731,-0.00242399,-0.00004215,0.00012907,0.00004964,-
 0.00041959,0.00017651,-0.00031965,-0.00005007,0.00011976,-0.00030263,0
 .00012357,0.00001203,0.00015009,-0.00032001,0.00083707,0.00081581,0.09
 452638,-0.08752509,0.02114846,-0.00027663,0.00041525,0.00035882,-0.000
 09521,-0.00008177,0.00002024,-0.00030025,0.00006031,-0.00029647,0.0000
 1990,0.00001420,-0.00000363,-0.00006456,-0.00012169,-0.00008725,0.0000
 0789,0.00003718,0.00003391,-0.00009859,-0.00015254,0.00018416,-0.00002
 110,0.00000901,-0.00003120,0.00001418,0.00003722,-0.00004361,0.0000183
 9,0.00005325,-0.00002264,-0.00971377,0.00330955,-0.00259101,0.02871261
 ,-0.01094528,0.00604003,-0.10301042,0.09126188,-0.00005334,-0.00353523
 ,-0.00487671,-0.02750337,0.01276153,-0.00850862,0.00000016,0.00030059,
 -0.00003460,-0.00181439,0.00097858,-0.00038548,0.00107311,-0.00052056,
 -0.00066514,0.00004108,-0.00006055,0.00002140,0.00056176,0.00101872,0.
 00048005,-0.04568862,0.02055152,-0.05388765,-0.00155583,0.00079389,0.0
 0132567,-0.00000149,0.00004357,-0.00014916,-0.00006133,0.00014716,-0.0
 0002590,0.00002365,-0.00006222,0.00007587,-0.00030362,-0.00055852,-0.0
 0036730,0.00004684,0.00001329,-0.00002860,0.00016476,0.00035600,0.0005
 4382,0.00002001,0.00010874,0.00030510,0.00003340,-0.00001908,0.0000319
 3,-0.00008059,-0.00010868,0.00005239,0.01990083,-0.00982055,0.00467503
 ,0.00128569,-0.00027422,-0.00102917,0.05244250,-0.02097675,0.06274173,
 0.00123563,0.00027920,-0.00017489,0.00723986,0.00629236,0.02209485,-0.
 00017660,-0.00005351,0.00011676,-0.00118652,-0.00039782,0.00045713,0.0
 0019108,-0.00009407,-0.00002383,-0.00006202,-0.00002803,-0.00007184,0.
 00102298,0.00092334,-0.00012845,-0.00374476,-0.00115410,0.00294667,-0.
 06595844,-0.01820165,-0.06964393,-0.00027377,0.00014228,-0.00028751,0.
 00007140,0.00018994,-0.00023424,0.00000129,0.00004350,-0.00003819,0.00
 024250,-0.00001004,-0.00020725,-0.00139319,-0.00058586,-0.00024068,0.0
 0011046,-0.00003811,-0.00008427,0.00003005,-0.00000606,-0.00005170,-0.
 00002173,0.00002009,0.00000628,0.00003932,0.00002568,-0.00007385,0.000
 60939,0.00038743,0.00149150,-0.00010294,0.00003008,-0.00010862,0.00016
 463,-0.00021541,0.00016661,0.07157463,0.00009162,0.00027096,-0.0007637
 7,0.00268244,-0.00013730,0.00587253,-0.00015931,0.00015899,0.00005678,
 -0.00026025,-0.00001018,0.00005427,0.00007241,-0.00021025,0.00006232,0
 .00001496,-0.00001461,0.00010058,0.00036094,0.00065842,0.00022675,-0.0
 0058639,0.00032869,0.00081920,-0.01838346,-0.06223374,-0.06132701,0.00
 050074,-0.00014149,-0.00020098,-0.00005713,-0.00029701,-0.00010521,0.0
 0004039,-0.00001274,0.00001052,0.00008011,-0.00003185,-0.00003821,-0.0
 0061035,0.00049213,0.00003248,-0.00001959,-0.00001837,0.00001048,0.000
 02889,-0.00000296,-0.00001998,0.00000730,-0.00002692,-0.00000895,-0.00
 001602,-0.00001462,0.00002910,-0.00007249,0.00065178,0.00021881,-0.000
 07970,0.00034934,0.00046203,-0.00030037,-0.00009753,-0.00015301,0.0210
 0990,0.06209070,-0.00103326,0.00008180,-0.00016686,-0.00654419,-0.0050
 0146,-0.01838770,-0.00002166,0.00037095,-0.00007756,-0.00019293,-0.000
 31461,-0.00056927,0.00002476,-0.00003435,0.00001899,0.00000606,-0.0001
 6464,0.00006608,-0.00027461,-0.00142719,0.00033024,0.00425462,0.001884
 36,-0.00225748,-0.06831085,-0.06062774,-0.27552309,-0.00025474,0.00055
 694,0.00036983,0.00028554,-0.00014579,-0.00003385,0.00009614,0.0000030
 9,0.00006899,-0.00019893,0.00005789,0.00040887,-0.00064166,0.00023270,
 0.00112877,-0.00012508,0.00009045,0.00011007,0.00009386,0.00000891,0.0
 0004131,0.00000820,0.00001013,0.00001138,-0.00005919,-0.00004416,0.000
 07918,-0.00025175,-0.00061355,-0.00134674,-0.00002598,-0.00012403,0.00
 017370,0.00016920,0.00001862,0.00048594,0.07334471,0.06657733,0.300440
 63,-0.00217284,-0.00172249,0.00481880,-0.02171169,0.01230291,-0.006166
 01,0.00015837,0.00002859,-0.00026187,0.00034821,0.00040843,0.00026856,
 -0.00115355,0.00068093,-0.00115086,0.00028022,0.00024480,0.00007977,0.
 00023543,0.00214465,-0.00075905,0.00047540,-0.00029889,-0.00156089,-0.
 21453690,0.11509451,-0.05223775,0.00047900,-0.00050023,-0.00022908,0.0
 0027086,-0.00005771,-0.00000846,-0.00000917,-0.00010466,0.00003093,-0.
 00005990,-0.00012512,-0.00000049,0.00005960,0.00006453,0.00006437,0.00
 007325,0.00002684,0.00008223,-0.00045575,-0.00007976,0.00045227,0.0000
 5579,-0.00009885,-0.00005058,-0.00003037,-0.00005773,0.00008937,0.0002
 6227,-0.00028959,-0.00004684,0.00007295,-0.00013913,-0.00003745,0.0006
 4181,0.00010657,0.00079154,-0.00659770,0.00407075,-0.00107739,0.235475
 44,-0.00108846,-0.00010465,0.00060190,-0.00540584,0.00223488,-0.001112
 86,0.00022027,0.00005976,-0.00001911,0.00008468,0.00009100,-0.00005481
 ,-0.00042737,0.00040708,0.00008509,0.00007693,0.00015300,0.00002162,-0
 .00069295,0.00062703,-0.00097827,0.00021703,-0.00025884,-0.00016464,0.
 11665205,-0.12384149,0.03534911,-0.00008474,-0.00014625,0.00006686,-0.
 00026081,0.00034572,-0.00013500,0.00001934,0.00000506,0.00001694,-0.00
 001271,0.00000923,0.00009699,-0.00001741,0.00003162,0.00011917,0.00002
 475,-0.00001954,-0.00004029,-0.00011043,-0.00003215,0.00007872,0.00003
 389,0.00003097,-0.00002711,-0.00001126,0.00002359,-0.00000594,-0.00023
 910,0.00002200,-0.00010308,0.00008927,0.00004578,0.00010246,0.00009204
 ,0.00015289,-0.00056885,-0.00780227,0.00405289,-0.00210330,-0.12605475
 ,0.13140286,0.00249355,0.00090095,-0.00318734,0.01777179,-0.01181338,0
 .00396835,-0.00024072,-0.00003283,0.00014487,-0.00005412,-0.00017177,-
 0.00034181,0.00111900,-0.00047782,0.00063753,-0.00002509,-0.00019588,0
 .00010200,-0.00065882,-0.00049532,0.00056935,0.00088131,-0.00063290,0.
 00153936,-0.05321210,0.03568237,-0.06086148,0.00030192,-0.00025996,-0.
 00019680,-0.00002174,-0.00011368,-0.00016055,-0.00001314,0.00001363,0.
 00000774,-0.00003198,0.00006199,0.00012060,0.00003425,0.00030081,0.000
 31570,-0.00006652,-0.00003481,0.00007009,0.00038345,0.00004252,-0.0002
 5436,-0.00001489,0.00000584,0.00000035,-0.00001777,0.00004192,0.000024
 00,-0.00023651,0.00015641,0.00022603,0.00000042,0.00003182,-0.00009178
 ,-0.00021099,0.00015834,-0.00084265,-0.02317209,0.01691805,-0.00629811
 ,0.05371227,-0.03959163,0.06599501,0.00161142,-0.00153228,-0.00003626,
 -0.00802636,-0.02440656,0.00075328,0.00027636,-0.00079772,-0.00021560,
 -0.00016517,0.00004410,-0.00037604,0.00006940,0.00026127,0.00011282,0.
 00025241,0.00005944,-0.00012133,-0.00271546,0.00113453,0.00328917,0.00
 064037,-0.00016777,-0.00141496,-0.06104711,-0.06116427,-0.00279920,-0.
 00000508,-0.00051218,-0.00013848,-0.00055209,0.00076697,-0.00028191,-0
 .00025337,0.00000102,-0.00013277,-0.00008791,-0.00000971,0.00007184,-0
 .00006662,0.00007781,0.00015296,-0.00000011,0.00000467,0.00000849,0.00
 000550,0.00002764,0.00000115,0.00002205,0.00003742,-0.00002343,0.00002
 274,0.00003312,-0.00001490,-0.00011057,0.00018808,-0.00026581,0.000251
 42,0.00046908,0.00044247,-0.00004844,0.00024048,0.00012738,-0.00313889
 ,-0.00829075,0.00060274,0.00732175,0.02482223,0.00141159,0.06543347,0.
 00038304,0.00023064,-0.00002729,-0.00091898,-0.00620940,-0.00054727,0.
 00020764,-0.00024376,0.00029917,0.00008454,0.00007151,-0.00012810,-0.0
 0011515,0.00029321,-0.00003536,0.00005318,-0.00001669,-0.00012384,-0.0
 0071475,0.00042516,0.00123044,0.00047789,0.00050453,-0.00052337,-0.061
 02809,-0.29052625,-0.00623335,-0.00071148,0.00027559,0.00009566,-0.000
 56386,0.00026897,-0.00022022,-0.00008558,0.00006263,-0.00003993,-0.000
 06459,0.00004646,0.00003536,0.00001960,-0.00002003,0.00012630,-0.00000
 864,0.00001443,0.00004021,-0.00007434,0.00000479,0.00005189,-0.0000642
 2,0.00008088,0.00001886,0.00002406,0.00000088,-0.00002229,0.00007775,0
 .00030292,0.00001978,0.00001760,0.00026716,0.00064965,-0.00014449,-0.0
 0018679,0.00013746,-0.00068892,-0.00587710,0.00074878,-0.00518931,-0.0
 1473702,-0.00107777,0.06894233,0.31487318,-0.00101444,-0.00019272,0.00
 021869,0.00554635,0.02163512,-0.00107134,-0.00003683,0.00091089,-0.000
 06420,-0.00013076,-0.00022026,-0.00055418,-0.00010526,0.00010846,-0.00
 003389,-0.00010939,-0.00000789,0.00007194,0.00325597,-0.00007761,-0.00
 229812,-0.00012551,0.00094660,0.00116698,-0.00243988,-0.00711258,-0.04
 634186,0.00023488,0.00047363,0.00028342,-0.00004640,-0.00017651,0.0002
 3155,0.00024723,-0.00001300,0.00011868,-0.00012693,-0.00004162,0.00018
 124,-0.00007153,0.00003129,0.00029648,0.00002652,-0.00002035,-0.000027
 23,-0.00002852,-0.00002813,-0.00001052,0.00000677,-0.00001582,-0.00001
 910,-0.00001007,0.00002098,0.00001265,-0.00018182,-0.00022100,0.000292
 49,0.00032452,-0.00054116,-0.00048002,-0.00022340,0.00005848,-0.000005
 76,-0.00608969,-0.02886078,0.00102386,0.00259672,0.00761790,-0.0011422
 8,-0.00134224,0.00577959,0.04807497,0.00016937,0.00014225,0.00000230,-
 0.00113516,-0.00123237,0.00202542,0.00261081,0.00229636,-0.00362386,-0
 .00151067,-0.00006718,-0.00006461,0.00003143,-0.00005340,0.00000067,0.
 00065781,0.00000332,-0.00007932,-0.01637096,-0.00389400,-0.00542761,-0
 .00017078,0.00018586,-0.00000266,-0.00007669,-0.00013310,-0.00005975,-
 0.30112124,-0.04192405,-0.07805034,0.00000341,0.00012007,-0.00000207,0
 .00014512,-0.00014420,0.00012211,0.00005689,0.00046630,-0.00027750,0.0
 0000208,-0.00003346,-0.00003882,-0.00001890,0.00006001,0.00006140,0.00
 002487,0.00002100,-0.00000284,0.00008232,-0.00006037,-0.00001419,0.000
 03677,-0.00003450,0.00015395,-0.00005897,0.00010365,-0.00005049,0.0002
 4717,-0.00004576,0.00024883,0.00044301,0.00017381,0.00020433,0.0000602
 1,-0.00006855,0.00005478,0.00018914,-0.00017115,0.00002873,0.00000985,
 0.00006734,-0.00008104,0.32089557,0.00003442,0.00032353,-0.00002652,-0
 .00012218,0.00046699,-0.00055838,0.00032012,-0.00296971,0.00120010,0.0
 0090590,0.00023425,0.00027339,-0.00007735,0.00009254,-0.00003838,0.000
 14448,0.00022677,0.00027729,0.02513082,0.00830155,0.00695281,0.0002896
 7,-0.00021286,0.00009674,0.00017772,-0.00023110,-0.00000300,-0.0445810
 3,-0.06172385,-0.01113074,-0.00006205,0.00002944,-0.00002853,0.0002856
 7,0.00012919,0.00017831,-0.00001906,-0.00033517,0.00018227,-0.00001341
 ,0.00000802,0.00002018,0.00002713,-0.00003163,-0.00003263,-0.00004442,
 -0.00000250,0.00001163,0.00008828,-0.00008993,-0.00011887,-0.00003622,
 -0.00002730,-0.00010212,-0.00004664,0.00005199,0.00004667,-0.00025091,
 0.00015728,-0.00001673,-0.00028717,-0.00081949,-0.00053005,-0.00004629
 ,0.00008961,-0.00011298,-0.00041309,-0.00065446,0.00060450,-0.00010760
 ,0.00012519,-0.00009935,0.04288206,0.05763207,-0.00013521,-0.00011356,
 -0.00022770,0.00241513,-0.00107673,-0.00643498,-0.00304545,0.00128818,
 0.01174628,0.00201670,-0.00004560,0.00060782,0.00008993,-0.00011446,0.
 00005317,-0.00277900,0.00006352,-0.00090378,-0.00824143,-0.00122028,0.
 00117851,-0.00002834,-0.00051621,0.00017989,-0.00021245,0.00085022,0.0
 0001322,-0.07793065,-0.01020317,-0.05555626,0.00001922,0.00004786,-0.0
 0003807,0.00047472,0.00010238,0.00002669,-0.00000105,-0.00058560,0.000
 18014,0.00011467,0.00015503,-0.00013060,0.00000304,0.00005554,-0.00002
 627,0.00002568,0.00002234,-0.00001111,-0.00048220,0.00043105,0.0005313
 5,-0.00002406,-0.00001450,-0.00017169,0.00016561,-0.00013166,-0.000003
 67,-0.00035723,0.00015432,-0.00022640,-0.00028968,-0.00048434,-0.00007
 912,-0.00009986,0.00009283,0.00006496,0.00067856,0.00073170,-0.0003021
 1,0.00063198,-0.00023005,-0.00002933,0.08714690,0.01008927,0.04770326,
 0.00014630,0.00081739,-0.00017710,-0.00125182,0.00086654,-0.00361966,0
 .00049821,0.00085894,0.00307795,0.00042828,-0.00002408,0.00002810,0.00
 005252,-0.00000020,-0.00005511,-0.00050188,-0.00000622,-0.00022539,0.0
 0981236,0.01987828,-0.00026117,-0.00041886,-0.00033145,-0.00021904,-0.
 00030740,0.00053129,0.00007211,-0.08401865,-0.09254684,-0.00866763,-0.
 00025619,0.00019529,-0.00009921,0.00006760,-0.00051053,-0.00016093,-0.
 00000932,-0.00011937,0.00004805,0.00002217,-0.00002497,0.00001785,-0.0
 0001365,0.00000041,0.00001188,-0.00001037,-0.00002180,0.00002467,-0.00
 008881,0.00007179,0.00009938,0.00000047,-0.00001938,0.00002337,0.00004
 649,-0.00006761,0.00006858,0.00003747,-0.00000571,0.00002593,0.0001763
 3,0.00011109,0.00017894,0.00006310,-0.00005610,0.00007161,0.00032837,0
 .00004677,-0.00016181,0.00030043,0.00001742,-0.00007523,-0.00520244,-0
 .02417886,-0.00015551,0.08009927,-0.00070479,-0.00104490,-0.00002930,0
 .00347924,0.00075019,0.00169752,-0.00120964,0.00112777,-0.00102929,-0.
 00015759,0.00005530,0.00004739,-0.00001856,-0.00000115,0.00012684,0.00
 020070,-0.00003853,-0.00001103,-0.00998410,-0.02099884,-0.00107978,0.0
 0004011,0.00032644,0.00027414,0.00021962,0.00006847,-0.00023458,-0.089
 11622,-0.30305068,-0.00551897,0.00042323,-0.00009118,0.00015439,0.0010
 4498,0.00004412,0.00042116,0.00004356,0.00008602,0.00001585,-0.0000307
 3,-0.00003262,0.00001377,-0.00002042,0.00004118,-0.00000220,0.00007655
 ,0.00004980,-0.00004029,0.00004664,-0.00001361,-0.00004375,0.00002534,
 -0.00010521,-0.00010035,0.00001156,0.00001841,-0.00010835,-0.00002984,
 -0.00003709,-0.00005669,-0.00001244,0.00006592,-0.00002279,-0.00002166
 ,-0.00001685,0.00007184,-0.00004221,0.00009904,-0.00002140,-0.00012135
 ,-0.00003107,0.00004585,0.00134005,-0.00077043,0.00065192,0.09451794,0
 .32349949,0.00060410,0.00056684,0.00036209,-0.00434268,0.00164091,0.00
 916778,0.00306940,0.00003107,-0.00734766,-0.00119317,-0.00018704,-0.00
 024226,0.00001349,-0.00000724,-0.00011604,0.00148909,-0.00024432,0.000
 65006,0.00178016,0.00774865,0.00521157,0.00006728,0.00127238,-0.000049
 94,-0.00038868,-0.00143330,0.00010176,-0.00880444,-0.00672525,-0.03377
 248,-0.00015195,0.00006329,-0.00001951,-0.00050314,-0.00047988,-0.0000
 8486,0.00003298,0.00036122,-0.00011380,-0.00008166,-0.00007202,-0.0000
 1483,0.00001564,-0.00004849,0.00000008,-0.00000364,0.00000254,-0.00002
 142,0.00024195,-0.00022261,-0.00032878,0.00004429,-0.00003421,-0.00008
 334,0.00003201,0.00010413,-0.00013826,0.00041558,0.00007097,0.00035301
 ,0.00022350,0.00002313,0.00014694,0.00010639,-0.00006614,-0.00016216,-
 0.00007864,0.00001646,-0.00004173,-0.00044294,-0.00002431,0.00010486,-
 0.00227430,-0.00713486,0.00185580,0.01012939,0.00477810,0.02458311\\0.
 00003018,-0.00001778,0.00000167,0.00000482,-0.00000049,0.00000692,-0.0
 0002573,0.00001128,0.00003568,-0.00003711,0.00001392,-0.00000642,-0.00
 000677,-0.00000893,-0.00001389,0.00002022,-0.00000215,-0.00001576,0.00
 000467,0.00000601,-0.00000912,0.00000120,0.00000083,-0.00000199,-0.000
 02181,0.00001176,0.00000896,0.00001061,-0.00000599,0.00000322,-0.00000
 164,-0.00000281,0.00000698,0.00001159,-0.00000537,0.00000406,-0.000007
 61,-0.00000493,-0.00000417,-0.00000403,0.00000411,0.00000391,0.0000007
 4,0.00000096,-0.00000143,-0.00000607,-0.00000010,0.00000142,-0.0000022
 1,-0.00000066,-0.00000002,0.00000211,0.00000190,0.00000261,-0.00000025
 ,-0.00000362,-0.00000361,-0.00000050,0.00000415,-0.00000229,0.00000134
 ,-0.00000234,-0.00000289,0.00000003,-0.00000323,0.00000294,0.00001421,
 -0.00000206,-0.00001019,0.00001157,0.00000172,-0.00000373,0.00000381,0
 .00000460,-0.00000190,-0.00000336,-0.00000077,-0.00000098\\\@


 KNOWLEDGE IS CHIMERA - FOR BEYOND IT LIES OTHER KNOWLEDGE,
 AND THE INCOMPLETENESS OF WHAT IS KNOWN RENDERS THE KNOWING FALSE.
     -- THE THOMAS COVENANT CHRONICLES
 Job cpu time:       0 days  5 hours  0 minutes  0.5 seconds.
 Elapsed time:       0 days  0 hours 18 minutes 50.0 seconds.
 File lengths (MBytes):  RWF=    240 Int=      0 D2E=      0 Chk=     10 Scr=      1
 Normal termination of Gaussian 16 at Wed Oct  1 15:57:06 2025.
