 Entering Gaussian System, Link 0=g16
 Input=CTRL0022.gjf
 Output=CTRL0022.log
 Initial command:
 /usr/local/g16/l1.exe "/dados_01/scratch/Gau-2383213.inp" -scrdir="/dados_01/scratch/"
 Entering Link 1 = /usr/local/g16/l1.exe PID=   2383214.
  
 Copyright (c) 1988-2017, Gaussian, Inc.  All Rights Reserved.
  
 This is part of the Gaussian(R) 16 program.  It is based on
 the Gaussian(R) 09 system (copyright 2009, Gaussian, Inc.),
 the Gaussian(R) 03 system (copyright 2003, Gaussian, Inc.),
 the Gaussian(R) 98 system (copyright 1998, Gaussian, Inc.),
 the Gaussian(R) 94 system (copyright 1995, Gaussian, Inc.),
 the Gaussian 92(TM) system (copyright 1992, Gaussian, Inc.),
 the Gaussian 90(TM) system (copyright 1990, Gaussian, Inc.),
 the Gaussian 88(TM) system (copyright 1988, Gaussian, Inc.),
 the Gaussian 86(TM) system (copyright 1986, Carnegie Mellon
 University), and the Gaussian 82(TM) system (copyright 1983,
 Carnegie Mellon University). Gaussian is a federally registered
 trademark of Gaussian, Inc.
  
 This software contains proprietary and confidential information,
 including trade secrets, belonging to Gaussian, Inc.
  
 This software is provided under written license and may be
 used, copied, transmitted, or stored only in accord with that
 written license.
  
 The following legend is applicable only to US Government
 contracts under FAR:
  
                    RESTRICTED RIGHTS LEGEND
  
 Use, reproduction and disclosure by the US Government is
 subject to restrictions as set forth in subparagraphs (a)
 and (c) of the Commercial Computer Software - Restricted
 Rights clause in FAR 52.227-19.
  
 Gaussian, Inc.
 340 Quinnipiac St., Bldg. 40, Wallingford CT 06492
  
  
 ---------------------------------------------------------------
 Warning -- This program may not be used in any manner that
 competes with the business of Gaussian, Inc. or will provide
 assistance to any competitor of Gaussian, Inc.  The licensee
 of this program is prohibited from giving any competitor of
 Gaussian, Inc. access to this program.  By using this program,
 the user acknowledges that Gaussian, Inc. is engaged in the
 business of creating and licensing software in the field of
 computational chemistry and represents and warrants to the
 licensee that it is not a competitor of Gaussian, Inc. and that
 it will not use this program in any manner prohibited above.
 ---------------------------------------------------------------
  

 Cite this work as:
 Gaussian 16, Revision B.01,
 M. J. Frisch, G. W. Trucks, H. B. Schlegel, G. E. Scuseria, 
 M. A. Robb, J. R. Cheeseman, G. Scalmani, V. Barone, 
 G. A. Petersson, H. Nakatsuji, X. Li, M. Caricato, A. V. Marenich, 
 J. Bloino, B. G. Janesko, R. Gomperts, B. Mennucci, H. P. Hratchian, 
 J. V. Ortiz, A. F. Izmaylov, J. L. Sonnenberg, D. Williams-Young, 
 F. Ding, F. Lipparini, F. Egidi, J. Goings, B. Peng, A. Petrone, 
 T. Henderson, D. Ranasinghe, V. G. Zakrzewski, J. Gao, N. Rega, 
 G. Zheng, W. Liang, M. Hada, M. Ehara, K. Toyota, R. Fukuda, 
 J. Hasegawa, M. Ishida, T. Nakajima, Y. Honda, O. Kitao, H. Nakai, 
 T. Vreven, K. Throssell, J. A. Montgomery, Jr., J. E. Peralta, 
 F. Ogliaro, M. J. Bearpark, J. J. Heyd, E. N. Brothers, K. N. Kudin, 
 V. N. Staroverov, T. A. Keith, R. Kobayashi, J. Normand, 
 K. Raghavachari, A. P. Rendell, J. C. Burant, S. S. Iyengar, 
 J. Tomasi, M. Cossi, J. M. Millam, M. Klene, C. Adamo, R. Cammi, 
 J. W. Ochterski, R. L. Martin, K. Morokuma, O. Farkas, 
 J. B. Foresman, and D. J. Fox, Gaussian, Inc., Wallingford CT, 2016.
 
 ******************************************
 Gaussian 16:  ES64L-G16RevB.01 20-Dec-2017
                 1-Oct-2025 
 ******************************************
 %nprocs=16
 Will use up to   16 processors via shared memory.
 %mem=40GB
 %chk=CTRL0022.chk
 ----------------------------------------------------------------------
 # opt freq=noraman M08HX/6-311++G** scf=xqc Empiricaldispersion=pfd In
 t(Grid=ultraFine)
 ----------------------------------------------------------------------
 1/18=20,19=15,26=4,38=1/1,3;
 2/9=110,12=2,17=6,18=5,40=1/2;
 3/5=4,6=6,7=1111,11=2,25=1,30=1,71=1,74=-74,75=-5,124=11/1,2,3;
 4//1;
 5/5=2,8=3,13=1,38=5/2,8;
 6/7=2,8=2,9=2,10=2,28=1/1;
 7//1,2,3,16;
 1/18=20,19=15,26=4/3(2);
 2/9=110/2;
 99//99;
 2/9=110/2;
 3/5=4,6=6,7=1111,11=2,25=1,30=1,71=1,74=-74,75=-5,124=11/1,2,3;
 4/5=5,16=3,69=1/1;
 5/5=2,8=3,13=1,38=5/2,8;
 7//1,2,3,16;
 1/18=20,19=15,26=4/3(-5);
 2/9=110/2;
 6/7=2,8=2,9=2,10=2,19=2,28=1/1;
 99/9=1/99;
 --------
 CTRL0022
 --------
 Symbolic Z-matrix:
 Charge =  0 Multiplicity = 1
 O                    -3.9102   -1.3533    0.2222 
 C                    -0.2255    1.8055    0.7006 
 C                     1.2716    1.6169    0.421 
 C                    -1.1145    0.832    -0.0468 
 C                     1.7628    0.2455    0.7937 
 C                     2.4207   -0.64      0.0216 
 C                    -1.0442    0.9377   -1.55 
 C                    -1.9511   -0.0609    0.5124 
 C                     2.8424   -1.972     0.5828 
 C                     2.7849   -0.4332   -1.4212 
 C                    -2.8368   -0.9782   -0.2363 
 H                    -0.5156    2.8297    0.4348 
 H                    -0.4034    1.7117    1.7801 
 H                     1.4821    1.8708   -0.6208 
 H                     1.8269    2.3458    1.0246 
 H                     1.5675   -0.0304    1.8297 
 H                    -1.9846    0.6847   -2.0481 
 H                    -0.2507    0.2947   -1.9429 
 H                    -0.8236    1.9688   -1.8495 
 H                     3.9302   -2.0815    0.5214 
 H                     2.3782   -2.7858    0.0161 
 H                     2.5555   -2.0935    1.6327 
 H                     3.8691   -0.5197   -1.5492 
 H                     2.4905    0.5393   -1.8187 
 H                     2.3045   -1.1975   -2.0414 
 H                    -2.0507   -0.0994    1.5935 
 H                    -2.4954   -1.287    -1.2366 
 

 GradGradGradGradGradGradGradGradGradGradGradGradGradGradGradGradGradGrad
 Berny optimization.
 Initialization pass.
                           ----------------------------
                           !    Initial Parameters    !
                           ! (Angstroms and Degrees)  !
 --------------------------                            --------------------------
 ! Name  Definition              Value          Derivative Info.                !
 --------------------------------------------------------------------------------
 ! R1    R(1,11)                 1.226          estimate D2E/DX2                !
 ! R2    R(2,3)                  1.5346         estimate D2E/DX2                !
 ! R3    R(2,4)                  1.5155         estimate D2E/DX2                !
 ! R4    R(2,12)                 1.0972         estimate D2E/DX2                !
 ! R5    R(2,13)                 1.0981         estimate D2E/DX2                !
 ! R6    R(3,5)                  1.5036         estimate D2E/DX2                !
 ! R7    R(3,14)                 1.0928         estimate D2E/DX2                !
 ! R8    R(3,15)                 1.0973         estimate D2E/DX2                !
 ! R9    R(4,7)                  1.5086         estimate D2E/DX2                !
 ! R10   R(4,8)                  1.3453         estimate D2E/DX2                !
 ! R11   R(5,6)                  1.3465         estimate D2E/DX2                !
 ! R12   R(5,16)                 1.0898         estimate D2E/DX2                !
 ! R13   R(6,9)                  1.5057         estimate D2E/DX2                !
 ! R14   R(6,10)                 1.5024         estimate D2E/DX2                !
 ! R15   R(7,17)                 1.0938         estimate D2E/DX2                !
 ! R16   R(7,18)                 1.0943         estimate D2E/DX2                !
 ! R17   R(7,19)                 1.0961         estimate D2E/DX2                !
 ! R18   R(8,11)                 1.4787         estimate D2E/DX2                !
 ! R19   R(8,26)                 1.0864         estimate D2E/DX2                !
 ! R20   R(9,20)                 1.095          estimate D2E/DX2                !
 ! R21   R(9,21)                 1.0949         estimate D2E/DX2                !
 ! R22   R(9,22)                 1.0952         estimate D2E/DX2                !
 ! R23   R(10,23)                1.0952         estimate D2E/DX2                !
 ! R24   R(10,24)                1.0911         estimate D2E/DX2                !
 ! R25   R(10,25)                1.0953         estimate D2E/DX2                !
 ! R26   R(11,27)                1.1011         estimate D2E/DX2                !
 ! A1    A(3,2,4)              113.7956         estimate D2E/DX2                !
 ! A2    A(3,2,12)             109.1794         estimate D2E/DX2                !
 ! A3    A(3,2,13)             109.0665         estimate D2E/DX2                !
 ! A4    A(4,2,12)             108.9697         estimate D2E/DX2                !
 ! A5    A(4,2,13)             109.5682         estimate D2E/DX2                !
 ! A6    A(12,2,13)            105.9659         estimate D2E/DX2                !
 ! A7    A(2,3,5)              112.6821         estimate D2E/DX2                !
 ! A8    A(2,3,14)             109.455          estimate D2E/DX2                !
 ! A9    A(2,3,15)             108.1702         estimate D2E/DX2                !
 ! A10   A(5,3,14)             112.6619         estimate D2E/DX2                !
 ! A11   A(5,3,15)             107.7098         estimate D2E/DX2                !
 ! A12   A(14,3,15)            105.8197         estimate D2E/DX2                !
 ! A13   A(2,4,7)              114.7769         estimate D2E/DX2                !
 ! A14   A(2,4,8)              125.8843         estimate D2E/DX2                !
 ! A15   A(7,4,8)              119.3192         estimate D2E/DX2                !
 ! A16   A(3,5,6)              128.1176         estimate D2E/DX2                !
 ! A17   A(3,5,16)             114.0797         estimate D2E/DX2                !
 ! A18   A(6,5,16)             117.7875         estimate D2E/DX2                !
 ! A19   A(5,6,9)              120.3246         estimate D2E/DX2                !
 ! A20   A(5,6,10)             125.3522         estimate D2E/DX2                !
 ! A21   A(9,6,10)             114.3198         estimate D2E/DX2                !
 ! A22   A(4,7,17)             113.4211         estimate D2E/DX2                !
 ! A23   A(4,7,18)             110.5114         estimate D2E/DX2                !
 ! A24   A(4,7,19)             110.3375         estimate D2E/DX2                !
 ! A25   A(17,7,18)            108.9054         estimate D2E/DX2                !
 ! A26   A(17,7,19)            105.4366         estimate D2E/DX2                !
 ! A27   A(18,7,19)            107.9806         estimate D2E/DX2                !
 ! A28   A(4,8,11)             125.0127         estimate D2E/DX2                !
 ! A29   A(4,8,26)             119.6161         estimate D2E/DX2                !
 ! A30   A(11,8,26)            115.2761         estimate D2E/DX2                !
 ! A31   A(6,9,20)             110.2304         estimate D2E/DX2                !
 ! A32   A(6,9,21)             110.2346         estimate D2E/DX2                !
 ! A33   A(6,9,22)             112.4639         estimate D2E/DX2                !
 ! A34   A(20,9,21)            108.5306         estimate D2E/DX2                !
 ! A35   A(20,9,22)            107.6322         estimate D2E/DX2                !
 ! A36   A(21,9,22)            107.6171         estimate D2E/DX2                !
 ! A37   A(6,10,23)            109.9602         estimate D2E/DX2                !
 ! A38   A(6,10,24)            114.0265         estimate D2E/DX2                !
 ! A39   A(6,10,25)            109.9638         estimate D2E/DX2                !
 ! A40   A(23,10,24)           107.1544         estimate D2E/DX2                !
 ! A41   A(23,10,25)           108.236          estimate D2E/DX2                !
 ! A42   A(24,10,25)           107.2979         estimate D2E/DX2                !
 ! A43   A(1,11,8)             121.6592         estimate D2E/DX2                !
 ! A44   A(1,11,27)            121.6936         estimate D2E/DX2                !
 ! A45   A(8,11,27)            116.6298         estimate D2E/DX2                !
 ! D1    D(4,2,3,5)            -59.5694         estimate D2E/DX2                !
 ! D2    D(4,2,3,14)            66.6237         estimate D2E/DX2                !
 ! D3    D(4,2,3,15)          -178.5275         estimate D2E/DX2                !
 ! D4    D(12,2,3,5)           178.457          estimate D2E/DX2                !
 ! D5    D(12,2,3,14)          -55.35           estimate D2E/DX2                !
 ! D6    D(12,2,3,15)           59.4989         estimate D2E/DX2                !
 ! D7    D(13,2,3,5)            63.0938         estimate D2E/DX2                !
 ! D8    D(13,2,3,14)         -170.7131         estimate D2E/DX2                !
 ! D9    D(13,2,3,15)          -55.8643         estimate D2E/DX2                !
 ! D10   D(3,2,4,7)            -62.1973         estimate D2E/DX2                !
 ! D11   D(3,2,4,8)            119.4359         estimate D2E/DX2                !
 ! D12   D(12,2,4,7)            59.8922         estimate D2E/DX2                !
 ! D13   D(12,2,4,8)          -118.4746         estimate D2E/DX2                !
 ! D14   D(13,2,4,7)           175.4152         estimate D2E/DX2                !
 ! D15   D(13,2,4,8)            -2.9516         estimate D2E/DX2                !
 ! D16   D(2,3,5,6)            125.7312         estimate D2E/DX2                !
 ! D17   D(2,3,5,16)           -55.7358         estimate D2E/DX2                !
 ! D18   D(14,3,5,6)             1.281          estimate D2E/DX2                !
 ! D19   D(14,3,5,16)          179.814          estimate D2E/DX2                !
 ! D20   D(15,3,5,6)          -115.0428         estimate D2E/DX2                !
 ! D21   D(15,3,5,16)           63.4902         estimate D2E/DX2                !
 ! D22   D(2,4,7,17)          -148.5722         estimate D2E/DX2                !
 ! D23   D(2,4,7,18)            88.8083         estimate D2E/DX2                !
 ! D24   D(2,4,7,19)           -30.5433         estimate D2E/DX2                !
 ! D25   D(8,4,7,17)            29.9102         estimate D2E/DX2                !
 ! D26   D(8,4,7,18)           -92.7093         estimate D2E/DX2                !
 ! D27   D(8,4,7,19)           147.9391         estimate D2E/DX2                !
 ! D28   D(2,4,8,11)           178.3069         estimate D2E/DX2                !
 ! D29   D(2,4,8,26)             2.0263         estimate D2E/DX2                !
 ! D30   D(7,4,8,11)             0.0076         estimate D2E/DX2                !
 ! D31   D(7,4,8,26)          -176.273          estimate D2E/DX2                !
 ! D32   D(3,5,6,9)            179.5528         estimate D2E/DX2                !
 ! D33   D(3,5,6,10)            -1.1517         estimate D2E/DX2                !
 ! D34   D(16,5,6,9)             1.0667         estimate D2E/DX2                !
 ! D35   D(16,5,6,10)         -179.6378         estimate D2E/DX2                !
 ! D36   D(5,6,9,20)          -120.3054         estimate D2E/DX2                !
 ! D37   D(5,6,9,21)           119.9041         estimate D2E/DX2                !
 ! D38   D(5,6,9,22)            -0.1925         estimate D2E/DX2                !
 ! D39   D(10,6,9,20)           60.3251         estimate D2E/DX2                !
 ! D40   D(10,6,9,21)          -59.4654         estimate D2E/DX2                !
 ! D41   D(10,6,9,22)         -179.562          estimate D2E/DX2                !
 ! D42   D(5,6,10,23)          121.9042         estimate D2E/DX2                !
 ! D43   D(5,6,10,24)            1.5419         estimate D2E/DX2                !
 ! D44   D(5,6,10,25)         -119.0083         estimate D2E/DX2                !
 ! D45   D(9,6,10,23)          -58.7631         estimate D2E/DX2                !
 ! D46   D(9,6,10,24)         -179.1254         estimate D2E/DX2                !
 ! D47   D(9,6,10,25)           60.3244         estimate D2E/DX2                !
 ! D48   D(4,8,11,1)          -149.6851         estimate D2E/DX2                !
 ! D49   D(4,8,11,27)           28.8222         estimate D2E/DX2                !
 ! D50   D(26,8,11,1)           26.7392         estimate D2E/DX2                !
 ! D51   D(26,8,11,27)        -154.7534         estimate D2E/DX2                !
 --------------------------------------------------------------------------------
 Trust Radius=3.00D-01 FncErr=1.00D-07 GrdErr=1.00D-06 EigMax=2.50D+02 EigMin=1.00D-04
 Number of steps in this run=    132 maximum allowed number of steps=    162.
 GradGradGradGradGradGradGradGradGradGradGradGradGradGradGradGradGradGrad

                          Input orientation:                          
 ---------------------------------------------------------------------
 Center     Atomic      Atomic             Coordinates (Angstroms)
 Number     Number       Type             X           Y           Z
 ---------------------------------------------------------------------
      1          8           0       -3.910200   -1.353300    0.222200
      2          6           0       -0.225500    1.805500    0.700600
      3          6           0        1.271600    1.616900    0.421000
      4          6           0       -1.114500    0.832000   -0.046800
      5          6           0        1.762800    0.245500    0.793700
      6          6           0        2.420700   -0.640000    0.021600
      7          6           0       -1.044200    0.937700   -1.550000
      8          6           0       -1.951100   -0.060900    0.512400
      9          6           0        2.842400   -1.972000    0.582800
     10          6           0        2.784900   -0.433200   -1.421200
     11          6           0       -2.836800   -0.978200   -0.236300
     12          1           0       -0.515600    2.829700    0.434800
     13          1           0       -0.403400    1.711700    1.780100
     14          1           0        1.482100    1.870800   -0.620800
     15          1           0        1.826900    2.345800    1.024600
     16          1           0        1.567500   -0.030400    1.829700
     17          1           0       -1.984600    0.684700   -2.048100
     18          1           0       -0.250700    0.294700   -1.942900
     19          1           0       -0.823600    1.968800   -1.849500
     20          1           0        3.930200   -2.081500    0.521400
     21          1           0        2.378200   -2.785800    0.016100
     22          1           0        2.555500   -2.093500    1.632700
     23          1           0        3.869100   -0.519700   -1.549200
     24          1           0        2.490500    0.539300   -1.818700
     25          1           0        2.304500   -1.197500   -2.041400
     26          1           0       -2.050700   -0.099400    1.593500
     27          1           0       -2.495400   -1.287000   -1.236600
 ---------------------------------------------------------------------
                    Distance matrix (angstroms):
                    1          2          3          4          5
     1  O    0.000000
     2  C    4.876874   0.000000
     3  C    5.976007   1.534619   0.000000
     4  C    3.558628   1.515464   2.555069   0.000000
     5  C    5.921630   2.528953   1.503636   3.054387   0.000000
     6  C    6.374114   3.666590   2.563893   3.830026   1.346507
     7  C    4.074718   2.547263   3.115940   1.508551   3.721736
     8  C    2.364865   2.548836   3.634441   1.345316   3.737120
     9  C    6.790466   4.867791   3.920943   4.890385   2.475343
    10  C    6.954977   4.310026   3.144310   4.323775   2.532016
    11  C    1.226014   3.930096   4.903625   2.505804   4.869770
    12  H    5.391289   1.097175   2.159898   2.140426   3.463814
    13  H    4.911102   1.098074   2.159112   2.148744   2.795559
    14  H    6.338956   2.160153   1.092759   2.854980   2.172833
    15  H    6.873245   2.146915   1.097263   3.477258   2.113926
    16  H    5.859976   2.803613   2.187599   3.384983   1.089752
    17  H    3.607720   3.450504   4.191454   2.187230   4.723529
    18  H    4.560209   3.044872   3.107030   2.151752   3.397879
    19  H    4.985518   2.624386   3.109480   2.150968   4.079918
    20  H    7.879827   5.693042   4.555919   5.853233   3.191661
    21  H    6.452791   5.322389   4.557661   5.029054   3.189382
    22  H    6.659030   4.879034   4.108976   4.984794   2.608297
    23  H    8.021861   5.218611   3.897917   5.377785   3.242100
    24  H    6.979697   3.914945   2.768248   4.027571   2.727728
    25  H    6.615939   4.789308   3.879580   4.448242   3.226992
    26  H    2.628777   2.785188   3.918944   2.105840   3.911703
    27  H    2.033261   4.297528   5.036920   2.795115   4.960135
                    6          7          8          9         10
     6  C    0.000000
     7  C    4.118810   0.000000
     8  C    4.437215   2.464379   0.000000
     9  C    1.505656   5.302910   5.160901   0.000000
    10  C    1.502358   4.069148   5.129046   2.527297   0.000000
    11  C    5.274675   2.934262   1.478667   5.823390   5.771007
    12  H    4.564144   2.792582   3.228351   5.861262   4.998455
    13  H    4.074108   3.478400   2.672929   5.053552   5.001417
    14  H    2.756404   2.848909   4.099082   4.250433   2.765202
    15  H    3.205247   4.105426   4.508640   4.457558   3.823943
    16  H    2.090165   4.379562   3.757227   2.636274   3.494662
    17  H    5.044319   1.093830   2.667059   6.105704   4.938708
    18  H    3.445185   1.094286   3.007708   4.591771   3.164945
    19  H    4.564245   1.096144   3.312025   5.906399   4.355952
    20  H    2.146232   6.176643   6.218729   1.095020   2.793260
    21  H    2.146228   5.294331   5.139478   1.094943   2.786748
    22  H    2.174046   5.681161   5.069120   1.095155   3.483608
    23  H    2.140034   5.124893   6.191560   2.776457   1.095151
    24  H    2.186853   3.567215   5.051938   3.492515   1.091070
    25  H    2.140158   4.001793   5.091550   2.788478   1.095256
    26  H    4.770381   3.459799   1.086361   5.335782   5.708140
    27  H    5.115634   2.674601   2.204220   5.680805   5.352067
                   11         12         13         14         15
    11  C    0.000000
    12  H    4.509817   0.000000
    13  H    4.150044   1.752811   0.000000
    14  H    5.188211   2.454503   3.056917   0.000000
    15  H    5.864209   2.463601   2.438668   1.746955   0.000000
    16  H    4.956263   3.803317   2.630935   3.102709   2.522261
    17  H    2.602710   3.594966   4.267322   3.932178   5.169939
    18  H    3.349727   3.485664   3.986469   2.689728   4.162870
    19  H    3.916656   2.460496   3.662877   2.614490   3.927815
    20  H    6.898092   6.625143   5.895149   4.787326   4.927278
    21  H    5.525156   6.331132   5.574630   4.784617   5.258738
    22  H    5.814977   5.924907   4.822485   4.684669   4.539607
    23  H    6.848578   5.863474   5.858126   3.503453   4.359601
    24  H    5.760809   4.400095   4.764508   2.055414   3.433389
    25  H    5.453388   5.504804   5.513622   3.479786   4.709929
    26  H    2.176789   3.504104   2.455300   4.611452   4.619354
    27  H    1.101141   4.864196   4.740163   5.115801   6.082149
                   16         17         18         19         20
    16  H    0.000000
    17  H    5.307176   0.000000
    18  H    4.200482   1.780330   0.000000
    19  H    4.821895   1.742491   1.771877   0.000000
    20  H    3.391314   7.017054   5.403612   6.680173   0.000000
    21  H    3.396853   5.944688   4.498697   6.028118   1.777659
    22  H    2.295939   6.471413   5.134508   6.328216   1.767748
    23  H    4.117492   5.997106   4.217938   5.320173   2.594289
    24  H    3.806220   4.483334   2.754892   3.609387   3.797025
    25  H    4.109830   4.683919   2.960644   4.455030   3.161060
    26  H    3.626558   3.725645   3.987661   4.199699   6.391344
    27  H    5.242938   2.192499   2.835368   3.710902   6.708959
                   21         22         23         24         25
    21  H    0.000000
    22  H    1.767515   0.000000
    23  H    3.131798   3.785086   0.000000
    24  H    3.799394   4.341431   1.759162   0.000000
    25  H    2.600276   3.790096   1.774724   1.760871   0.000000
    26  H    5.414803   5.019467   6.715448   5.716078   5.778070
    27  H    5.250489   5.864718   6.418203   5.341667   4.867726
                   26         27
    26  H    0.000000
    27  H    3.101228   0.000000
 Stoichiometry    C10H16O
 Framework group  C1[X(C10H16O)]
 Deg. of freedom    75
 Full point group                 C1      NOp   1
 Largest Abelian subgroup         C1      NOp   1
 Largest concise Abelian subgroup C1      NOp   1
                         Standard orientation:                         
 ---------------------------------------------------------------------
 Center     Atomic      Atomic             Coordinates (Angstroms)
 Number     Number       Type             X           Y           Z
 ---------------------------------------------------------------------
      1          8           0        3.948299   -1.452804   -0.211377
      2          6           0        0.346478    1.783311   -0.793049
      3          6           0       -1.156110    1.639901   -0.516073
      4          6           0        1.207384    0.808339   -0.015294
      5          6           0       -1.680062    0.271694   -0.854311
      6          6           0       -2.363442   -0.575900   -0.062063
      7          6           0        1.133173    0.956257    1.484151
      8          6           0        2.023671   -0.120000   -0.546082
      9          6           0       -2.816096   -1.911558   -0.589436
     10          6           0       -2.728645   -0.321213    1.372804
     11          6           0        2.882688   -1.038693    0.231447
     12          1           0        0.661118    2.806712   -0.553370
     13          1           0        0.526695    1.656012   -1.868727
     14          1           0       -1.364717    1.926993    0.517457
     15          1           0       -1.690218    2.365952   -1.141825
     16          1           0       -1.487229   -0.036845   -1.881529
     17          1           0        2.064706    0.693287    1.993619
     18          1           0        0.322010    0.344174    1.890145
     19          1           0        0.937305    2.000262    1.754746
     20          1           0       -3.906568   -1.992063   -0.530629
     21          1           0       -2.375036   -2.721162    0.001248
     22          1           0       -2.527743   -2.068472   -1.634230
     23          1           0       -3.815231   -0.377029    1.497586
     24          1           0       -2.411587    0.653966    1.745543
     25          1           0       -2.270378   -1.080315    2.015720
     26          1           0        2.127013   -0.190118   -1.625240
     27          1           0        2.529230   -1.311758    1.237933
 ---------------------------------------------------------------------
 Rotational constants (GHZ):           1.4714134           0.5465772           0.4858231
 Standard basis: 6-311++G(d,p) (5D, 7F)
 There are   365 symmetry adapted cartesian basis functions of A   symmetry.
 There are   354 symmetry adapted basis functions of A   symmetry.
   354 basis functions,   540 primitive gaussians,   365 cartesian basis functions
    42 alpha electrons       42 beta electrons
       nuclear repulsion energy       590.8448521550 Hartrees.
 NAtoms=   27 NActive=   27 NUniq=   27 SFac= 1.00D+00 NAtFMM=   60 NAOKFM=F Big=F
 Integral buffers will be    131072 words long.
 Raffenetti 2 integral format.
 Two-electron integral symmetry is turned on.
 R6APFD:  NTU= -4 IXU= 1 FactS= 1.050
 Nuclear repulsion after empirical dispersion term =      590.8258192679 Hartrees.
 One-electron integrals computed using PRISM.
 NBasis=   354 RedAO= T EigKep=  3.29D-06  NBF=   354
 NBsUse=   354 1.00D-06 EigRej= -1.00D+00 NBFU=   354
 ExpMin= 3.60D-02 ExpMax= 8.59D+03 ExpMxC= 1.30D+03 IAcc=3 IRadAn=         5 AccDes= 0.00D+00
 Harris functional with IExCor= 1009 and IRadAn=       5 diagonalized for initial guess.
 HarFok:  IExCor= 1009 AccDes= 0.00D+00 IRadAn=         5 IDoV= 1 UseB2=F ITyADJ=14
 ICtDFT=  3500011 ScaDFX=  1.000000  1.000000  1.000000  1.000000
 FoFCou: FMM=F IPFlag=           0 FMFlag=      100000 FMFlg1=           0
         NFxFlg=           0 DoJE=T BraDBF=F KetDBF=T FulRan=T
         wScrn=  0.000000 ICntrl=       500 IOpCl=  0 I1Cent=   200000004 NGrid=           0
         NMat0=    1 NMatS0=      1 NMatT0=    0 NMatD0=    1 NMtDS0=    0 NMtDT0=    0
 Petite list used in FoFCou.
 Requested convergence on RMS density matrix=1.00D-08 within  32 cycles.
 Requested convergence on MAX density matrix=1.00D-06.
 Requested convergence on             energy=1.00D-06.
 No special actions if energy rises.
 SCF Done:  E(RM08HX) =  -465.895341087     A.U. after   15 cycles
            NFock= 15  Conv=0.39D-08     -V/T= 2.0054
 QCSCF skips out because SCF is already converged.

 **********************************************************************

            Population analysis using the SCF Density.

 **********************************************************************

 Orbital symmetries:
       Occupied  (A) (A) (A) (A) (A) (A) (A) (A) (A) (A) (A) (A)
                 (A) (A) (A) (A) (A) (A) (A) (A) (A) (A) (A) (A)
                 (A) (A) (A) (A) (A) (A) (A) (A) (A) (A) (A) (A)
                 (A) (A) (A) (A) (A) (A)
       Virtual   (A) (A) (A) (A) (A) (A) (A) (A) (A) (A) (A) (A)
                 (A) (A) (A) (A) (A) (A) (A) (A) (A) (A) (A) (A)
                 (A) (A) (A) (A) (A) (A) (A) (A) (A) (A) (A) (A)
                 (A) (A) (A) (A) (A) (A) (A) (A) (A) (A) (A) (A)
                 (A) (A) (A) (A) (A) (A) (A) (A) (A) (A) (A) (A)
                 (A) (A) (A) (A) (A) (A) (A) (A) (A) (A) (A) (A)
                 (A) (A) (A) (A) (A) (A) (A) (A) (A) (A) (A) (A)
                 (A) (A) (A) (A) (A) (A) (A) (A) (A) (A) (A) (A)
                 (A) (A) (A) (A) (A) (A) (A) (A) (A) (A) (A) (A)
                 (A) (A) (A) (A) (A) (A) (A) (A) (A) (A) (A) (A)
                 (A) (A) (A) (A) (A) (A) (A) (A) (A) (A) (A) (A)
                 (A) (A) (A) (A) (A) (A) (A) (A) (A) (A) (A) (A)
                 (A) (A) (A) (A) (A) (A) (A) (A) (A) (A) (A) (A)
                 (A) (A) (A) (A) (A) (A) (A) (A) (A) (A) (A) (A)
                 (A) (A) (A) (A) (A) (A) (A) (A) (A) (A) (A) (A)
                 (A) (A) (A) (A) (A) (A) (A) (A) (A) (A) (A) (A)
                 (A) (A) (A) (A) (A) (A) (A) (A) (A) (A) (A) (A)
                 (A) (A) (A) (A) (A) (A) (A) (A) (A) (A) (A) (A)
                 (A) (A) (A) (A) (A) (A) (A) (A) (A) (A) (A) (A)
                 (A) (A) (A) (A) (A) (A) (A) (A) (A) (A) (A) (A)
                 (A) (A) (A) (A) (A) (A) (A) (A) (A) (A) (A) (A)
                 (A) (A) (A) (A) (A) (A) (A) (A) (A) (A) (A) (A)
                 (A) (A) (A) (A) (A) (A) (A) (A) (A) (A) (A) (A)
                 (A) (A) (A) (A) (A) (A) (A) (A) (A) (A) (A) (A)
                 (A) (A) (A) (A) (A) (A) (A) (A) (A) (A) (A) (A)
                 (A) (A) (A) (A) (A) (A) (A) (A) (A) (A) (A) (A)
 The electronic state is 1-A.
 Alpha  occ. eigenvalues --  -19.60665 -10.62019 -10.57046 -10.54706 -10.54664
 Alpha  occ. eigenvalues --  -10.54220 -10.53744 -10.53543 -10.53006 -10.52953
 Alpha  occ. eigenvalues --  -10.52408  -1.16051  -0.95467  -0.92665  -0.87477
 Alpha  occ. eigenvalues --   -0.81332  -0.79686  -0.79128  -0.72961  -0.67973
 Alpha  occ. eigenvalues --   -0.62360  -0.60873  -0.57155  -0.54647  -0.54189
 Alpha  occ. eigenvalues --   -0.52614  -0.51524  -0.51091  -0.50548  -0.48000
 Alpha  occ. eigenvalues --   -0.46752  -0.46154  -0.45921  -0.44848  -0.44252
 Alpha  occ. eigenvalues --   -0.43830  -0.42569  -0.40869  -0.39568  -0.33193
 Alpha  occ. eigenvalues --   -0.32256  -0.30144
 Alpha virt. eigenvalues --   -0.03902  -0.03517  -0.02090  -0.01757  -0.01476
 Alpha virt. eigenvalues --   -0.00051   0.00038   0.00286   0.00529   0.01216
 Alpha virt. eigenvalues --    0.02612   0.02882   0.03080   0.03532   0.04083
 Alpha virt. eigenvalues --    0.04140   0.04782   0.05388   0.05756   0.06702
 Alpha virt. eigenvalues --    0.07123   0.07505   0.07824   0.08286   0.08729
 Alpha virt. eigenvalues --    0.09294   0.09832   0.09890   0.10618   0.10880
 Alpha virt. eigenvalues --    0.11078   0.11980   0.12372   0.12548   0.12816
 Alpha virt. eigenvalues --    0.13226   0.13523   0.13588   0.13887   0.14238
 Alpha virt. eigenvalues --    0.14665   0.14919   0.15299   0.15385   0.16125
 Alpha virt. eigenvalues --    0.16243   0.16814   0.16886   0.17179   0.17821
 Alpha virt. eigenvalues --    0.17943   0.19489   0.19904   0.19929   0.20563
 Alpha virt. eigenvalues --    0.21226   0.21895   0.22997   0.23286   0.23583
 Alpha virt. eigenvalues --    0.23812   0.24519   0.25837   0.26074   0.26638
 Alpha virt. eigenvalues --    0.26907   0.28170   0.28525   0.28990   0.29153
 Alpha virt. eigenvalues --    0.30179   0.30634   0.30996   0.31949   0.32010
 Alpha virt. eigenvalues --    0.32744   0.33092   0.33507   0.34941   0.35247
 Alpha virt. eigenvalues --    0.36043   0.36901   0.37620   0.38983   0.42447
 Alpha virt. eigenvalues --    0.42830   0.44619   0.44837   0.46994   0.47673
 Alpha virt. eigenvalues --    0.48028   0.50577   0.50966   0.53235   0.53822
 Alpha virt. eigenvalues --    0.54940   0.55702   0.56073   0.57443   0.58414
 Alpha virt. eigenvalues --    0.60686   0.61479   0.62183   0.63113   0.64060
 Alpha virt. eigenvalues --    0.65047   0.65939   0.66701   0.67405   0.68392
 Alpha virt. eigenvalues --    0.68536   0.69075   0.70510   0.70630   0.71041
 Alpha virt. eigenvalues --    0.71493   0.72061   0.72726   0.72982   0.74148
 Alpha virt. eigenvalues --    0.74501   0.75256   0.75725   0.77117   0.78062
 Alpha virt. eigenvalues --    0.79292   0.79757   0.80367   0.80648   0.81197
 Alpha virt. eigenvalues --    0.82490   0.84545   0.86364   0.89578   0.90461
 Alpha virt. eigenvalues --    0.91510   0.93053   0.95063   0.96720   0.97558
 Alpha virt. eigenvalues --    1.00338   1.01461   1.03258   1.06145   1.09596
 Alpha virt. eigenvalues --    1.11872   1.14102   1.15968   1.17135   1.18684
 Alpha virt. eigenvalues --    1.20880   1.21905   1.23319   1.26276   1.28272
 Alpha virt. eigenvalues --    1.33420   1.34418   1.37191   1.41125   1.42816
 Alpha virt. eigenvalues --    1.43664   1.45836   1.46677   1.47680   1.49097
 Alpha virt. eigenvalues --    1.49856   1.50126   1.51483   1.51858   1.53148
 Alpha virt. eigenvalues --    1.54590   1.56161   1.58008   1.59948   1.60563
 Alpha virt. eigenvalues --    1.61286   1.62027   1.64021   1.64277   1.64547
 Alpha virt. eigenvalues --    1.65666   1.66332   1.68669   1.69522   1.70216
 Alpha virt. eigenvalues --    1.71640   1.72381   1.73391   1.75074   1.76911
 Alpha virt. eigenvalues --    1.77105   1.79424   1.79686   1.81155   1.83202
 Alpha virt. eigenvalues --    1.83941   1.85408   1.86200   1.87744   1.88693
 Alpha virt. eigenvalues --    1.91022   1.93652   1.96161   1.99063   1.99894
 Alpha virt. eigenvalues --    2.00990   2.04411   2.06414   2.06779   2.08676
 Alpha virt. eigenvalues --    2.11905   2.14201   2.14679   2.16749   2.18060
 Alpha virt. eigenvalues --    2.19149   2.22735   2.23151   2.26664   2.29280
 Alpha virt. eigenvalues --    2.32487   2.33290   2.35804   2.37158   2.39835
 Alpha virt. eigenvalues --    2.42594   2.43618   2.46304   2.46861   2.48917
 Alpha virt. eigenvalues --    2.49601   2.51651   2.52428   2.53527   2.55753
 Alpha virt. eigenvalues --    2.56096   2.58140   2.58250   2.59187   2.59733
 Alpha virt. eigenvalues --    2.60792   2.62608   2.63019   2.64385   2.64937
 Alpha virt. eigenvalues --    2.66366   2.67736   2.68355   2.69312   2.71425
 Alpha virt. eigenvalues --    2.72206   2.74513   2.76629   2.80463   2.81583
 Alpha virt. eigenvalues --    2.82666   2.84558   2.86521   2.88397   2.92779
 Alpha virt. eigenvalues --    2.94022   2.94849   2.98019   2.99656   3.00522
 Alpha virt. eigenvalues --    3.02488   3.05426   3.07780   3.12957   3.15376
 Alpha virt. eigenvalues --    3.16815   3.22403   3.24498   3.30535   3.37208
 Alpha virt. eigenvalues --    3.41831   3.45820   3.48692   3.54896   3.59575
 Alpha virt. eigenvalues --    3.73953   3.75847   3.80884   3.81373   3.81587
 Alpha virt. eigenvalues --    3.85099   3.85263   3.86224   3.88324   3.90787
 Alpha virt. eigenvalues --    3.93655   4.11391   4.13408   4.23450   4.34486
 Alpha virt. eigenvalues --    4.37573   4.46214   4.54516   5.16111   5.30181
 Alpha virt. eigenvalues --    5.81457  23.75856  23.77452  23.91802  23.93894
 Alpha virt. eigenvalues --   23.98658  24.01169  24.03524  24.05087  24.26700
 Alpha virt. eigenvalues --   24.28450  49.97400
          Condensed to atoms (all electrons):
               1          2          3          4          5          6
     1  O    7.948324   0.018094  -0.009546  -0.019683  -0.000390   0.002379
     2  C    0.018094  11.890934  -0.966955  -0.522192  -1.849954   0.851398
     3  C   -0.009546  -0.966955   8.811848  -0.921704  -1.267791  -0.072444
     4  C   -0.019683  -0.522192  -0.921704  14.875495  -0.174483   0.331647
     5  C   -0.000390  -1.849954  -1.267791  -0.174483  13.497677  -5.589419
     6  C    0.002379   0.851398  -0.072444   0.331647  -5.589419  11.395924
     7  C    0.013927   0.488932  -0.353849  -0.403160  -0.732377   0.358525
     8  C   -0.185030  -3.741778   1.042343  -9.224150   0.920191  -0.232343
     9  C    0.000022  -0.001304   0.138015   0.033132   0.655341  -0.904935
    10  C    0.000210  -0.072523  -0.791329   0.129130   0.176731  -0.133934
    11  C    0.476485  -0.067228  -0.096373   1.063649   0.205907  -0.032936
    12  H    0.000808   0.484422  -0.084081  -0.064871  -0.061059   0.020939
    13  H    0.001190   0.830817  -0.044427  -0.038621  -0.130822   0.020305
    14  H   -0.000174   0.221348   0.625012  -0.179283  -0.222833  -0.062158
    15  H   -0.000228  -0.252278   0.505579   0.000729   0.151681  -0.115763
    16  H   -0.000443  -0.083268   0.028452  -0.093831   0.577584  -0.254525
    17  H   -0.006185   0.103740  -0.017424   0.087331  -0.002738  -0.008051
    18  H   -0.004206  -0.208264   0.130834  -0.049874   0.021625  -0.040124
    19  H    0.001201   0.042230  -0.061347  -0.066484   0.023263   0.003903
    20  H    0.000003  -0.008714  -0.029837  -0.001041   0.030864  -0.041469
    21  H   -0.000084   0.000990   0.021977  -0.004643  -0.153223   0.082929
    22  H    0.000024   0.013698   0.026663   0.008072   0.066881  -0.134849
    23  H    0.000002  -0.024717  -0.014706   0.012967   0.112370  -0.136983
    24  H    0.000114   0.000451  -0.102958   0.002287  -0.008941  -0.001084
    25  H    0.000029   0.040035   0.022862  -0.019912  -0.110540   0.035411
    26  H   -0.010772  -0.149448   0.031850  -0.337939  -0.045639   0.023228
    27  H   -0.026754   0.044945  -0.057109   0.128649   0.029358  -0.003973
               7          8          9         10         11         12
     1  O    0.013927  -0.185030   0.000022   0.000210   0.476485   0.000808
     2  C    0.488932  -3.741778  -0.001304  -0.072523  -0.067228   0.484422
     3  C   -0.353849   1.042343   0.138015  -0.791329  -0.096373  -0.084081
     4  C   -0.403160  -9.224150   0.033132   0.129130   1.063649  -0.064871
     5  C   -0.732377   0.920191   0.655341   0.176731   0.205907  -0.061059
     6  C    0.358525  -0.232343  -0.904935  -0.133934  -0.032936   0.020939
     7  C    8.262119  -1.119840   0.009724  -0.060523  -0.540565  -0.053338
     8  C   -1.119840  19.996578   0.031673  -0.041504  -1.155674   0.067498
     9  C    0.009724   0.031673   6.924183  -1.072359  -0.017719   0.000343
    10  C   -0.060523  -0.041504  -1.072359   7.484422   0.039958  -0.002896
    11  C   -0.540565  -1.155674  -0.017719   0.039958   6.381925  -0.001786
    12  H   -0.053338   0.067498   0.000343  -0.002896  -0.001786   0.476343
    13  H    0.066858  -0.356682   0.005073  -0.011563  -0.005900  -0.018363
    14  H    0.077406  -0.090136   0.024540  -0.100538  -0.013591  -0.004507
    15  H   -0.048754   0.078145  -0.009850  -0.004956   0.002355  -0.008992
    16  H   -0.038013   0.095575  -0.023247   0.040522   0.012967   0.001132
    17  H    0.483883  -0.298961  -0.002738   0.007526  -0.001478  -0.003490
    18  H    0.231710   0.230938   0.014432  -0.011746   0.003835  -0.004285
    19  H    0.449445  -0.014683  -0.001874   0.002400  -0.006278  -0.008563
    20  H   -0.005741   0.006324   0.348646   0.041550   0.001616  -0.000119
    21  H    0.012361   0.000969   0.405318  -0.015335  -0.008040   0.000172
    22  H   -0.000781  -0.005537   0.417146  -0.037359   0.000153  -0.000066
    23  H   -0.013488   0.006699  -0.037482   0.456430   0.001605  -0.000404
    24  H    0.008134   0.029492  -0.021876   0.419344  -0.000058   0.005467
    25  H    0.019565  -0.028139   0.045852   0.355626  -0.003781  -0.000444
    26  H    0.045972   0.805780   0.004363  -0.006419  -0.104978   0.004756
    27  H   -0.068877  -0.335450   0.000905   0.016282   0.372401   0.002169
              13         14         15         16         17         18
     1  O    0.001190  -0.000174  -0.000228  -0.000443  -0.006185  -0.004206
     2  C    0.830817   0.221348  -0.252278  -0.083268   0.103740  -0.208264
     3  C   -0.044427   0.625012   0.505579   0.028452  -0.017424   0.130834
     4  C   -0.038621  -0.179283   0.000729  -0.093831   0.087331  -0.049874
     5  C   -0.130822  -0.222833   0.151681   0.577584  -0.002738   0.021625
     6  C    0.020305  -0.062158  -0.115763  -0.254525  -0.008051  -0.040124
     7  C    0.066858   0.077406  -0.048754  -0.038013   0.483883   0.231710
     8  C   -0.356682  -0.090136   0.078145   0.095575  -0.298961   0.230938
     9  C    0.005073   0.024540  -0.009850  -0.023247  -0.002738   0.014432
    10  C   -0.011563  -0.100538  -0.004956   0.040522   0.007526  -0.011746
    11  C   -0.005900  -0.013591   0.002355   0.012967  -0.001478   0.003835
    12  H   -0.018363  -0.004507  -0.008992   0.001132  -0.003490  -0.004285
    13  H    0.471105   0.016908  -0.024309  -0.012484   0.005101  -0.006304
    14  H    0.016908   0.608630  -0.041906   0.004561   0.000182   0.001928
    15  H   -0.024309  -0.041906   0.473666   0.010692  -0.000320   0.001324
    16  H   -0.012484   0.004561   0.010692   0.471228  -0.001009   0.004063
    17  H    0.005101   0.000182  -0.000320  -0.001009   0.501797  -0.053950
    18  H   -0.006304   0.001928   0.001324   0.004063  -0.053950   0.594095
    19  H    0.003166  -0.010562   0.000147  -0.001022  -0.015307  -0.066308
    20  H   -0.000524  -0.001416   0.001923   0.008902  -0.000091  -0.002207
    21  H   -0.000302   0.000131  -0.000618  -0.003009  -0.000128   0.006626
    22  H    0.001808  -0.000485  -0.001245  -0.021057  -0.000039  -0.000875
    23  H   -0.000952  -0.006948   0.004990   0.002880  -0.000276   0.000009
    24  H   -0.002992  -0.011397  -0.004135   0.004176  -0.000859  -0.012142
    25  H    0.001974   0.009338  -0.001476  -0.005651   0.001408  -0.005116
    26  H   -0.016671   0.000662  -0.001174   0.000748  -0.008219   0.004387
    27  H   -0.001094  -0.003792  -0.001291   0.000288  -0.001174  -0.039520
              19         20         21         22         23         24
     1  O    0.001201   0.000003  -0.000084   0.000024   0.000002   0.000114
     2  C    0.042230  -0.008714   0.000990   0.013698  -0.024717   0.000451
     3  C   -0.061347  -0.029837   0.021977   0.026663  -0.014706  -0.102958
     4  C   -0.066484  -0.001041  -0.004643   0.008072   0.012967   0.002287
     5  C    0.023263   0.030864  -0.153223   0.066881   0.112370  -0.008941
     6  C    0.003903  -0.041469   0.082929  -0.134849  -0.136983  -0.001084
     7  C    0.449445  -0.005741   0.012361  -0.000781  -0.013488   0.008134
     8  C   -0.014683   0.006324   0.000969  -0.005537   0.006699   0.029492
     9  C   -0.001874   0.348646   0.405318   0.417146  -0.037482  -0.021876
    10  C    0.002400   0.041550  -0.015335  -0.037359   0.456430   0.419344
    11  C   -0.006278   0.001616  -0.008040   0.000153   0.001605  -0.000058
    12  H   -0.008563  -0.000119   0.000172  -0.000066  -0.000404   0.005467
    13  H    0.003166  -0.000524  -0.000302   0.001808  -0.000952  -0.002992
    14  H   -0.010562  -0.001416   0.000131  -0.000485  -0.006948  -0.011397
    15  H    0.000147   0.001923  -0.000618  -0.001245   0.004990  -0.004135
    16  H   -0.001022   0.008902  -0.003009  -0.021057   0.002880   0.004176
    17  H   -0.015307  -0.000091  -0.000128  -0.000039  -0.000276  -0.000859
    18  H   -0.066308  -0.002207   0.006626  -0.000875   0.000009  -0.012142
    19  H    0.500325   0.000283  -0.000553   0.000160   0.000411  -0.000977
    20  H    0.000283   0.548055  -0.075892  -0.025124   0.012650   0.001096
    21  H   -0.000553  -0.075892   0.553107  -0.024625  -0.007311  -0.000754
    22  H    0.000160  -0.025124  -0.024625   0.495693   0.000042  -0.002992
    23  H    0.000411   0.012650  -0.007311   0.000042   0.530548  -0.045690
    24  H   -0.000977   0.001096  -0.000754  -0.002992  -0.045690   0.607375
    25  H    0.000951  -0.002051   0.008186   0.000143  -0.055952  -0.037627
    26  H   -0.002073  -0.000304   0.001653  -0.000133  -0.000267   0.000890
    27  H    0.002976   0.000299  -0.001792   0.000384   0.000179   0.004937
              25         26         27
     1  O    0.000029  -0.010772  -0.026754
     2  C    0.040035  -0.149448   0.044945
     3  C    0.022862   0.031850  -0.057109
     4  C   -0.019912  -0.337939   0.128649
     5  C   -0.110540  -0.045639   0.029358
     6  C    0.035411   0.023228  -0.003973
     7  C    0.019565   0.045972  -0.068877
     8  C   -0.028139   0.805780  -0.335450
     9  C    0.045852   0.004363   0.000905
    10  C    0.355626  -0.006419   0.016282
    11  C   -0.003781  -0.104978   0.372401
    12  H   -0.000444   0.004756   0.002169
    13  H    0.001974  -0.016671  -0.001094
    14  H    0.009338   0.000662  -0.003792
    15  H   -0.001476  -0.001174  -0.001291
    16  H   -0.005651   0.000748   0.000288
    17  H    0.001408  -0.008219  -0.001174
    18  H   -0.005116   0.004387  -0.039520
    19  H    0.000951  -0.002073   0.002976
    20  H   -0.002051  -0.000304   0.000299
    21  H    0.008186   0.001653  -0.001792
    22  H    0.000143  -0.000133   0.000384
    23  H   -0.055952  -0.000267   0.000179
    24  H   -0.037627   0.000890   0.004937
    25  H    0.511654  -0.000173  -0.001532
    26  H   -0.000173   0.430168  -0.004038
    27  H   -0.001532  -0.004038   0.765138
 Mulliken charges:
               1
     1  O   -0.199317
     2  C   -1.083410
     3  C   -0.493556
     4  C    1.448783
     5  C   -0.119266
     6  C    0.638400
     7  C   -1.089254
     8  C   -0.482299
     9  C   -0.965325
    10  C   -0.807148
    11  C   -0.506470
    12  H    0.253214
    13  H    0.247703
    14  H    0.159081
    15  H    0.286063
    16  H    0.273787
    17  H    0.231468
    18  H    0.259115
    19  H    0.225172
    20  H    0.192321
    21  H    0.201892
    22  H    0.224300
    23  H    0.203395
    24  H    0.170718
    25  H    0.219357
    26  H    0.333792
    27  H    0.177485
 Sum of Mulliken charges =  -0.00000
 Mulliken charges with hydrogens summed into heavy atoms:
               1
     1  O   -0.199317
     2  C   -0.582493
     3  C   -0.048412
     4  C    1.448783
     5  C    0.154521
     6  C    0.638400
     7  C   -0.373500
     8  C   -0.148506
     9  C   -0.346812
    10  C   -0.213678
    11  C   -0.328985
 Electronic spatial extent (au):  <R**2>=           2507.2485
 Charge=             -0.0000 electrons
 Dipole moment (field-independent basis, Debye):
    X=             -3.9182    Y=              2.0385    Z=              1.2045  Tot=              4.5781
 Quadrupole moment (field-independent basis, Debye-Ang):
   XX=            -88.9343   YY=            -69.5948   ZZ=            -66.4570
   XY=              8.2603   XZ=              2.5779   YZ=             -1.1216
 Traceless Quadrupole moment (field-independent basis, Debye-Ang):
   XX=            -13.9389   YY=              5.4005   ZZ=              8.5384
   XY=              8.2603   XZ=              2.5779   YZ=             -1.1216
 Octapole moment (field-independent basis, Debye-Ang**2):
  XXX=            -86.8065  YYY=              5.5727  ZZZ=             -3.5173  XYY=            -10.3052
  XXY=             27.7388  XXZ=             16.6392  XZZ=              6.9135  YZZ=             -1.2896
  YYZ=              1.7482  XYZ=             -3.2294
 Hexadecapole moment (field-independent basis, Debye-Ang**3):
 XXXX=          -2629.1727 YYYY=           -739.9507 ZZZZ=           -439.1795 XXXY=            150.6801
 XXXZ=             28.3447 YYYX=              1.8900 YYYZ=             -2.5129 ZZZX=              2.2661
 ZZZY=              0.0350 XXYY=           -555.9281 XXZZ=           -441.9652 YYZZ=           -193.8106
 XXYZ=             -8.2711 YYXZ=              7.1433 ZZXY=             -6.2997
 N-N= 5.908258192679D+02 E-N=-2.262897243046D+03  KE= 4.633901721975D+02
 R6APFD:  NTU= -4 IXU= 1 FactS= 1.050
 Calling FoFJK, ICntrl=      2127 FMM=F ISym2X=0 I1Cent= 0 IOpClX= 0 NMat=1 NMatS=1 NMatT=0.
 ***** Axes restored to original set *****
 -------------------------------------------------------------------
 Center     Atomic                   Forces (Hartrees/Bohr)
 Number     Number              X              Y              Z
 -------------------------------------------------------------------
      1        8           0.030517968    0.004355982   -0.014444482
      2        6          -0.009997592   -0.008058803    0.009201223
      3        6           0.003373268   -0.002238497   -0.001726025
      4        6          -0.004318330   -0.004663816   -0.010034435
      5        6           0.005301107   -0.005036433   -0.011545929
      6        6          -0.010078939    0.008378771    0.010647068
      7        6           0.001037872    0.006231164   -0.003229483
      8        6           0.008471662    0.007241314    0.007907304
      9        6          -0.001548385    0.002562459    0.002246929
     10        6          -0.002218791    0.003121124    0.001210792
     11        6          -0.027914690    0.002670477    0.020483293
     12        1          -0.001168726    0.001565890   -0.002254900
     13        1          -0.000786641   -0.001609853    0.001298668
     14        1           0.001442786   -0.001815819   -0.003928327
     15        1          -0.000410858    0.003487360    0.000621889
     16        1          -0.001154244   -0.002343719    0.002628685
     17        1           0.000832674   -0.002473459    0.000812675
     18        1           0.004106621   -0.001178899   -0.002091188
     19        1           0.003422225    0.000762948   -0.000005503
     20        1           0.002309676   -0.002449948   -0.001827894
     21        1           0.001292014   -0.002735400   -0.002164972
     22        1          -0.000774524    0.001423943    0.000162241
     23        1           0.001980419   -0.002321865   -0.001525330
     24        1          -0.001621086    0.002711514    0.000740236
     25        1           0.001163611   -0.003092674   -0.001747225
     26        1          -0.001604700   -0.000455760    0.003675719
     27        1          -0.001654400   -0.004038000   -0.005111030
 -------------------------------------------------------------------
 Cartesian Forces:  Max     0.030517968 RMS     0.006800748

 GradGradGradGradGradGradGradGradGradGradGradGradGradGradGradGradGradGrad
 Berny optimization.
 FormGI is forming the generalized inverse of G from B-inverse, IUseBI=4.
 Internal  Forces:  Max     0.033453460 RMS     0.005183198
 Search for a local minimum.
 Step number   1 out of a maximum of  132
 All quantities printed in internal units (Hartrees-Bohrs-Radians)
 Mixed Optimization -- RFO/linear search
 Second derivative matrix not updated -- first step.
 ITU=  0
     Eigenvalues ---    0.00308   0.00561   0.00653   0.00691   0.00718
     Eigenvalues ---    0.00735   0.01048   0.01051   0.01222   0.01301
     Eigenvalues ---    0.01582   0.01972   0.02796   0.02812   0.03903
     Eigenvalues ---    0.04007   0.05351   0.05476   0.06887   0.06924
     Eigenvalues ---    0.07083   0.07273   0.07309   0.07372   0.09382
     Eigenvalues ---    0.09539   0.12894   0.12970   0.15985   0.15997
     Eigenvalues ---    0.16000   0.16000   0.16000   0.16000   0.16000
     Eigenvalues ---    0.16000   0.16000   0.16000   0.16000   0.16000
     Eigenvalues ---    0.21913   0.21941   0.22001   0.22001   0.22005
     Eigenvalues ---    0.24988   0.24994   0.24998   0.24999   0.29001
     Eigenvalues ---    0.30808   0.31497   0.31791   0.31999   0.32131
     Eigenvalues ---    0.33556   0.33896   0.33987   0.33996   0.34112
     Eigenvalues ---    0.34212   0.34224   0.34224   0.34239   0.34248
     Eigenvalues ---    0.34322   0.34374   0.34496   0.34689   0.34723
     Eigenvalues ---    0.34841   0.35237   0.55771   0.56030   0.92768
 RFO step:  Lambda=-1.34470051D-02 EMin= 3.08008598D-03
 Linear search not attempted -- first point.
 Iteration  1 RMS(Cart)=  0.23350027 RMS(Int)=  0.00835900
 Iteration  2 RMS(Cart)=  0.01884711 RMS(Int)=  0.00112402
 Iteration  3 RMS(Cart)=  0.00016466 RMS(Int)=  0.00112108
 Iteration  4 RMS(Cart)=  0.00000045 RMS(Int)=  0.00112108
 Variable       Old X    -DE/DX   Delta X   Delta X   Delta X     New X
                                 (Linear)    (Quad)   (Total)
    R1        2.31683  -0.03345   0.00000  -0.03555  -0.03555   2.28128
    R2        2.90001   0.00025   0.00000   0.00084   0.00084   2.90085
    R3        2.86381  -0.01199   0.00000  -0.03730  -0.03730   2.82651
    R4        2.07336   0.00232   0.00000   0.00656   0.00656   2.07992
    R5        2.07506   0.00154   0.00000   0.00438   0.00438   2.07944
    R6        2.84146  -0.00224   0.00000  -0.00671  -0.00671   2.83475
    R7        2.06502   0.00360   0.00000   0.01005   0.01005   2.07506
    R8        2.07353   0.00245   0.00000   0.00694   0.00694   2.08046
    R9        2.85075   0.00517   0.00000   0.01574   0.01574   2.86648
   R10        2.54228  -0.00615   0.00000  -0.01071  -0.01071   2.53157
   R11        2.54453  -0.01407   0.00000  -0.02464  -0.02464   2.51989
   R12        2.05933   0.00330   0.00000   0.00912   0.00912   2.06845
   R13        2.84528   0.00083   0.00000   0.00250   0.00250   2.84778
   R14        2.83905   0.00116   0.00000   0.00347   0.00347   2.84251
   R15        2.06704  -0.00051   0.00000  -0.00144  -0.00144   2.06560
   R16        2.06790   0.00442   0.00000   0.01239   0.01239   2.08030
   R17        2.07141   0.00141   0.00000   0.00397   0.00397   2.07538
   R18        2.79428  -0.00289   0.00000  -0.00802  -0.00802   2.78625
   R19        2.05292   0.00382   0.00000   0.01045   0.01045   2.06337
   R20        2.06929   0.00264   0.00000   0.00743   0.00743   2.07671
   R21        2.06914   0.00261   0.00000   0.00732   0.00732   2.07647
   R22        2.06954   0.00020   0.00000   0.00056   0.00056   2.07010
   R23        2.06954   0.00232   0.00000   0.00653   0.00653   2.07606
   R24        2.06182   0.00258   0.00000   0.00717   0.00717   2.06900
   R25        2.06973   0.00264   0.00000   0.00742   0.00742   2.07715
   R26        2.08085   0.00526   0.00000   0.01508   0.01508   2.09593
    A1        1.98611  -0.01626   0.00000  -0.07742  -0.07768   1.90842
    A2        1.90554   0.00369   0.00000   0.00785   0.00682   1.91236
    A3        1.90357   0.00641   0.00000   0.03558   0.03541   1.93897
    A4        1.90188   0.00463   0.00000   0.00742   0.00661   1.90849
    A5        1.91233   0.00385   0.00000   0.01231   0.01287   1.92519
    A6        1.84945  -0.00132   0.00000   0.02106   0.02045   1.86990
    A7        1.96667  -0.00777   0.00000  -0.03742  -0.03807   1.92860
    A8        1.91035   0.00286   0.00000  -0.00314  -0.00458   1.90577
    A9        1.88793   0.00145   0.00000   0.01829   0.01866   1.90658
   A10        1.96632  -0.00050   0.00000  -0.02866  -0.02962   1.93671
   A11        1.87989   0.00531   0.00000   0.04782   0.04828   1.92817
   A12        1.84690  -0.00077   0.00000   0.00923   0.00952   1.85642
   A13        2.00324  -0.00309   0.00000  -0.01119  -0.01219   1.99105
   A14        2.19710  -0.01806   0.00000  -0.06795  -0.06876   2.12834
   A15        2.08251   0.02120   0.00000   0.08118   0.07996   2.16247
   A16        2.23607  -0.00484   0.00000  -0.02050  -0.02087   2.21520
   A17        1.99107   0.00360   0.00000   0.01746   0.01708   2.00815
   A18        2.05578   0.00127   0.00000   0.00413   0.00376   2.05954
   A19        2.10006   0.00378   0.00000   0.01433   0.01432   2.11438
   A20        2.18781  -0.00415   0.00000  -0.01579  -0.01580   2.17201
   A21        1.99526   0.00037   0.00000   0.00137   0.00136   1.99662
   A22        1.97957  -0.00052   0.00000   0.00121   0.00118   1.98075
   A23        1.92879   0.00032   0.00000  -0.00344  -0.00347   1.92532
   A24        1.92575  -0.00020   0.00000  -0.00003  -0.00010   1.92566
   A25        1.90076  -0.00024   0.00000  -0.00313  -0.00313   1.89763
   A26        1.84022   0.00251   0.00000   0.02451   0.02444   1.86465
   A27        1.88462  -0.00188   0.00000  -0.01921  -0.01926   1.86535
   A28        2.18188  -0.00108   0.00000  -0.00433  -0.00444   2.17744
   A29        2.08770   0.00177   0.00000   0.00991   0.00981   2.09751
   A30        2.01195  -0.00065   0.00000  -0.00413  -0.00424   2.00771
   A31        1.92388   0.00173   0.00000   0.00871   0.00873   1.93261
   A32        1.92396   0.00142   0.00000   0.00650   0.00652   1.93048
   A33        1.96286  -0.00231   0.00000  -0.01033  -0.01031   1.95256
   A34        1.89422  -0.00290   0.00000  -0.02266  -0.02265   1.87157
   A35        1.87854   0.00097   0.00000   0.00885   0.00887   1.88741
   A36        1.87827   0.00099   0.00000   0.00820   0.00822   1.88650
   A37        1.91917   0.00134   0.00000   0.00644   0.00645   1.92562
   A38        1.99014  -0.00257   0.00000  -0.01176  -0.01174   1.97840
   A39        1.91923   0.00093   0.00000   0.00367   0.00368   1.92291
   A40        1.87020   0.00134   0.00000   0.01103   0.01105   1.88125
   A41        1.88907  -0.00250   0.00000  -0.02067  -0.02066   1.86841
   A42        1.87270   0.00140   0.00000   0.01058   0.01059   1.88330
   A43        2.12335   0.00421   0.00000   0.01900   0.01341   2.13677
   A44        2.12395  -0.00638   0.00000  -0.03220  -0.03787   2.08609
   A45        2.03557   0.00229   0.00000   0.01781   0.01221   2.04779
    D1       -1.03968   0.00240   0.00000   0.05203   0.05220  -0.98748
    D2        1.16280  -0.00182   0.00000  -0.01589  -0.01542   1.14738
    D3       -3.11589  -0.00044   0.00000   0.00328   0.00367  -3.11222
    D4        3.11466   0.00485   0.00000   0.08973   0.08956  -3.07896
    D5       -0.96604   0.00064   0.00000   0.02181   0.02194  -0.94410
    D6        1.03845   0.00202   0.00000   0.04098   0.04103   1.07948
    D7        1.10120   0.00089   0.00000   0.04081   0.04029   1.14149
    D8       -2.97951  -0.00332   0.00000  -0.02711  -0.02733  -3.00684
    D9       -0.97502  -0.00195   0.00000  -0.00794  -0.00824  -0.98326
   D10       -1.08555   0.00345   0.00000   0.12269   0.12057  -0.96498
   D11        2.08455   0.00093   0.00000   0.03669   0.03866   2.12321
   D12        1.04532   0.00051   0.00000   0.08544   0.08356   1.12888
   D13       -2.06777  -0.00201   0.00000  -0.00056   0.00166  -2.06612
   D14        3.06157   0.00364   0.00000   0.12153   0.11940  -3.10221
   D15       -0.05151   0.00112   0.00000   0.03554   0.03749  -0.01402
   D16        2.19442  -0.00291   0.00000  -0.10590  -0.10538   2.08905
   D17       -0.97277  -0.00139   0.00000  -0.05340  -0.05275  -1.02553
   D18        0.02236  -0.00020   0.00000  -0.04928  -0.04993  -0.02757
   D19        3.13835   0.00133   0.00000   0.00322   0.00270   3.14104
   D20       -2.00788  -0.00229   0.00000  -0.07425  -0.07430  -2.08218
   D21        1.10811  -0.00076   0.00000  -0.02175  -0.02168   1.08643
   D22       -2.59307  -0.00219   0.00000  -0.06604  -0.06791  -2.66098
   D23        1.55000  -0.00174   0.00000  -0.06024  -0.06206   1.48794
   D24       -0.53308   0.00052   0.00000  -0.03417  -0.03601  -0.56909
   D25        0.52203  -0.00051   0.00000   0.01135   0.01317   0.53521
   D26       -1.61808  -0.00006   0.00000   0.01715   0.01902  -1.59906
   D27        2.58202   0.00220   0.00000   0.04323   0.04507   2.62710
   D28        3.11204   0.00118   0.00000   0.04886   0.04910  -3.12204
   D29        0.03537   0.00028   0.00000   0.02070   0.02084   0.05620
   D30        0.00013  -0.00105   0.00000  -0.03918  -0.03932  -0.03919
   D31       -3.07654  -0.00194   0.00000  -0.06735  -0.06759   3.13905
   D32        3.13379   0.00022   0.00000   0.01493   0.01483  -3.13457
   D33       -0.02010  -0.00002   0.00000   0.00571   0.00562  -0.01448
   D34        0.01862  -0.00138   0.00000  -0.03940  -0.03931  -0.02070
   D35       -3.13527  -0.00162   0.00000  -0.04862  -0.04852   3.09939
   D36       -2.09973  -0.00095   0.00000  -0.01367  -0.01371  -2.11344
   D37        2.09272   0.00064   0.00000   0.00477   0.00473   2.09745
   D38       -0.00336  -0.00006   0.00000  -0.00327  -0.00332  -0.00668
   D39        1.05287  -0.00070   0.00000  -0.00529  -0.00524   1.04763
   D40       -1.03787   0.00089   0.00000   0.01315   0.01319  -1.02467
   D41       -3.13395   0.00019   0.00000   0.00511   0.00515  -3.12880
   D42        2.12763   0.00084   0.00000   0.00792   0.00788   2.13551
   D43        0.02691  -0.00010   0.00000  -0.00297  -0.00301   0.02390
   D44       -2.07709  -0.00083   0.00000  -0.01126  -0.01129  -2.08838
   D45       -1.02561   0.00064   0.00000  -0.00071  -0.00068  -1.02629
   D46       -3.12633  -0.00031   0.00000  -0.01161  -0.01157  -3.13790
   D47        1.05286  -0.00104   0.00000  -0.01990  -0.01985   1.03300
   D48       -2.61250  -0.00484   0.00000  -0.19576  -0.19529  -2.80779
   D49        0.50304  -0.00009   0.00000   0.00164   0.00128   0.50432
   D50        0.46669  -0.00389   0.00000  -0.16822  -0.16785   0.29883
   D51       -2.70096   0.00085   0.00000   0.02919   0.02872  -2.67224
         Item               Value     Threshold  Converged?
 Maximum Force            0.033453     0.000450     NO 
 RMS     Force            0.005183     0.000300     NO 
 Maximum Displacement     0.854806     0.001800     NO 
 RMS     Displacement     0.245926     0.001200     NO 
 Predicted change in Energy=-8.083498D-03
 GradGradGradGradGradGradGradGradGradGradGradGradGradGradGradGradGradGrad

                          Input orientation:                          
 ---------------------------------------------------------------------
 Center     Atomic      Atomic             Coordinates (Angstroms)
 Number     Number       Type             X           Y           Z
 ---------------------------------------------------------------------
      1          8           0       -3.554539   -1.615750    0.307061
      2          6           0       -0.252005    1.874724    0.727233
      3          6           0        1.251959    1.693962    0.478566
      4          6           0       -1.010400    0.851923   -0.057564
      5          6           0        1.677868    0.298204    0.826000
      6          6           0        2.225626   -0.599624    0.006241
      7          6           0       -0.704822    0.860334   -1.543319
      8          6           0       -1.832770   -0.026578    0.531162
      9          6           0        2.597495   -1.976016    0.494341
     10          6           0        2.501121   -0.362521   -1.453375
     11          6           0       -2.590898   -1.073787   -0.177721
     12          1           0       -0.560131    2.881815    0.407476
     13          1           0       -0.489645    1.787661    1.798123
     14          1           0        1.474128    1.922443   -0.572247
     15          1           0        1.809930    2.427909    1.080269
     16          1           0        1.487276   -0.000402    1.861667
     17          1           0       -1.532256    0.500525   -2.160322
     18          1           0        0.185371    0.247886   -1.753853
     19          1           0       -0.476947    1.880472   -1.880267
     20          1           0        3.670769   -2.163071    0.350180
     21          1           0        2.054090   -2.746437   -0.070073
     22          1           0        2.368070   -2.107867    1.557353
     23          1           0        3.568109   -0.510286   -1.669331
     24          1           0        2.228157    0.643328   -1.788770
     25          1           0        1.944995   -1.085719   -2.066490
     26          1           0       -2.007593    0.021634    1.607886
     27          1           0       -2.152357   -1.474062   -1.114528
 ---------------------------------------------------------------------
                    Distance matrix (angstroms):
                    1          2          3          4          5
     1  O    0.000000
     2  C    4.823555   0.000000
     3  C    5.838324   1.535063   0.000000
     4  C    3.563005   1.495725   2.472799   0.000000
     5  C    5.595588   2.493909   1.500083   2.883414   0.000000
     6  C    5.876504   3.575036   2.536071   3.547241   1.333469
     7  C    4.204258   2.527734   2.934612   1.516878   3.406887
     8  C    2.353758   2.480365   3.532503   1.339647   3.537936
     9  C    6.165418   4.796050   3.908895   4.617222   2.475437
    10  C    6.429676   4.164135   3.085762   3.969123   2.511942
    11  C    1.207203   3.870799   4.781077   2.494147   4.594800
    12  H    5.404133   1.100644   2.167883   2.130603   3.443668
    13  H    4.816643   1.100390   2.187051   2.142514   2.803858
    14  H    6.211239   2.161125   1.098076   2.753869   2.152849
    15  H    6.762141   2.163844   1.100934   3.425296   2.148891
    16  H    5.517794   2.797881   2.199821   3.263172   1.094576
    17  H    3.828345   3.444625   4.017446   2.194858   4.389072
    18  H    4.659123   2.998948   2.865735   2.161509   2.980893
    19  H    5.145828   2.617191   2.930528   2.159799   3.804035
    20  H    7.246136   5.642173   4.554540   5.582991   3.202489
    21  H    5.733881   5.225792   4.545499   4.726462   3.195987
    22  H    6.073113   4.838898   4.106506   4.773089   2.607765
    23  H    7.473974   5.101477   3.851846   5.041443   3.233163
    24  H    6.552519   3.741364   2.682835   3.678156   2.694244
    25  H    6.013280   4.625572   3.832001   4.065045   3.217623
    26  H    2.601195   2.700293   3.833631   2.111279   3.777627
    27  H    2.001775   4.268230   4.915658   2.798471   4.645127
                    6          7          8          9         10
     6  C    0.000000
     7  C    3.622173   0.000000
     8  C    4.132130   2.522370   0.000000
     9  C    1.506978   4.806479   4.840342   0.000000
    10  C    1.504192   3.432424   4.778478   2.531058   0.000000
    11  C    4.843302   3.027039   1.474422   5.308965   5.297344
    12  H    4.476812   2.812993   3.177052   5.794538   4.833192
    13  H    4.035179   3.474403   2.588559   5.039400   4.913268
    14  H    2.694480   2.611299   3.993967   4.194943   2.655591
    15  H    3.239181   3.957838   4.426656   4.511998   3.831918
    16  H    2.084906   4.140060   3.576819   2.646737   3.485472
    17  H    4.475041   1.093069   2.759027   5.498667   4.184824
    18  H    2.824685   1.100845   3.060966   3.977243   2.413625
    19  H    4.124765   1.098245   3.360072   5.473889   3.752618
    20  H    2.156641   5.645540   5.906462   1.098949   2.804080
    21  H    2.155007   4.773976   4.781924   1.098818   2.792206
    22  H    2.168188   5.278926   4.799155   1.095452   3.482588
    23  H    2.148903   4.489145   5.851977   2.787819   1.098606
    24  H    2.183346   2.951220   4.724614   3.494277   1.094866
    25  H    2.147383   3.329017   4.705431   2.788591   1.099182
    26  H    4.568520   3.511513   1.091889   5.141734   5.463277
    27  H    4.602988   2.780040   2.214868   5.039991   4.796373
                   11         12         13         14         15
    11  C    0.000000
    12  H    4.484781   0.000000
    13  H    4.062894   1.770886   0.000000
    14  H    5.065322   2.453256   3.081108   0.000000
    15  H    5.762959   2.505168   2.492644   1.760417   0.000000
    16  H    4.684310   3.822790   2.666351   3.101846   2.571261
    17  H    2.744064   3.634440   4.291042   3.685401   5.038496
    18  H    3.455239   3.487793   3.929769   2.420998   3.927332
    19  H    4.011870   2.498675   3.679582   2.349334   3.780775
    20  H    6.377593   6.584427   5.917252   4.729433   5.007280
    21  H    4.938143   6.224100   5.524381   4.731488   5.306294
    22  H    5.354547   5.898602   4.837318   4.645184   4.594823
    23  H    6.362060   5.732525   5.811124   3.392126   4.391410
    24  H    5.363511   4.196292   4.643462   1.919536   3.404559
    25  H    4.913442   5.304478   5.396204   3.391683   4.718676
    26  H    2.174531   3.422976   2.336495   4.526416   4.543349
    27  H    1.109119   4.881121   4.678353   4.998171   5.978480
                   16         17         18         19         20
    16  H    0.000000
    17  H    5.054196   0.000000
    18  H    3.850790   1.783055   0.000000
    19  H    4.625789   1.759648   1.766347   0.000000
    20  H    3.424817   6.361512   4.731561   6.207147   0.000000
    21  H    3.404938   5.270083   3.910651   5.575951   1.769345
    22  H    2.304303   5.986432   4.612790   5.984831   1.776891
    23  H    4.130108   5.222694   3.467692   4.703477   2.611640
    24  H    3.780077   3.781421   2.081002   2.975984   3.812101
    25  H    4.100955   3.823120   2.229915   3.833897   3.158999
    26  H    3.504141   3.828142   4.020145   4.238557   6.212774
    27  H    4.927102   2.318880   2.973014   3.827042   6.043914
                   21         22         23         24         25
    21  H    0.000000
    22  H    1.776196   0.000000
    23  H    3.138511   3.795240   0.000000
    24  H    3.804566   4.334189   1.772163   0.000000
    25  H    2.599147   3.788934   1.767302   1.773954   0.000000
    26  H    5.193749   4.866596   6.489341   5.464920   5.509103
    27  H    4.517081   5.289132   5.827555   4.911908   4.224374
                   26         27
    26  H    0.000000
    27  H    3.109598   0.000000
 Stoichiometry    C10H16O
 Framework group  C1[X(C10H16O)]
 Deg. of freedom    75
 Full point group                 C1      NOp   1
 Largest Abelian subgroup         C1      NOp   1
 Largest concise Abelian subgroup C1      NOp   1
                         Standard orientation:                         
 ---------------------------------------------------------------------
 Center     Atomic      Atomic             Coordinates (Angstroms)
 Number     Number       Type             X           Y           Z
 ---------------------------------------------------------------------
      1          8           0        3.719414   -1.459874   -0.234747
      2          6           0        0.310769    1.920018   -0.708194
      3          6           0       -1.193986    1.680539   -0.521698
      4          6           0        1.075501    0.907288    0.083484
      5          6           0       -1.555554    0.278759   -0.914802
      6          6           0       -2.101033   -0.656161   -0.136010
      7          6           0        0.713804    0.871372    1.556170
      8          6           0        1.950875    0.071963   -0.491500
      9          6           0       -2.404013   -2.033507   -0.667146
     10          6           0       -2.439991   -0.461932    1.316566
     11          6           0        2.719099   -0.963451    0.223810
     12          1           0        0.569855    2.929926   -0.355521
     13          1           0        0.591771    1.865593   -1.770707
     14          1           0       -1.463906    1.877258    0.524349
     15          1           0       -1.755026    2.407640   -1.128833
     16          1           0       -1.315198    0.010515   -1.948423
     17          1           0        1.529793    0.527279    2.196921
     18          1           0       -0.160928    0.223187    1.719140
     19          1           0        0.436502    1.874943    1.905586
     20          1           0       -3.474487   -2.261663   -0.568548
     21          1           0       -1.854784   -2.796726   -0.098598
     22          1           0       -2.129890   -2.133150   -1.723054
     23          1           0       -3.508329   -0.652228    1.487962
     24          1           0       -2.216565    0.545137    1.683477
     25          1           0       -1.881614   -1.178616    1.935258
     26          1           0        2.164463    0.150600   -1.559404
     27          1           0        2.260217   -1.400026    1.134290
 ---------------------------------------------------------------------
 Rotational constants (GHZ):           1.3939245           0.6374455           0.5464276
 Standard basis: 6-311++G(d,p) (5D, 7F)
 There are   365 symmetry adapted cartesian basis functions of A   symmetry.
 There are   354 symmetry adapted basis functions of A   symmetry.
   354 basis functions,   540 primitive gaussians,   365 cartesian basis functions
    42 alpha electrons       42 beta electrons
       nuclear repulsion energy       604.9272612934 Hartrees.
 NAtoms=   27 NActive=   27 NUniq=   27 SFac= 1.00D+00 NAtFMM=   60 NAOKFM=F Big=F
 Integral buffers will be    131072 words long.
 Raffenetti 2 integral format.
 Two-electron integral symmetry is turned on.
 R6APFD:  NTU= -4 IXU= 1 FactS= 1.050
 Nuclear repulsion after empirical dispersion term =      604.9063353413 Hartrees.
 One-electron integrals computed using PRISM.
 NBasis=   354 RedAO= T EigKep=  3.17D-06  NBF=   354
 NBsUse=   354 1.00D-06 EigRej= -1.00D+00 NBFU=   354
 Initial guess from the checkpoint file:  "CTRL0022.chk"
 B after Tr=    -0.000000    0.000000    0.000000
         Rot=    0.999397   -0.024088    0.013019   -0.021362 Ang=  -3.98 deg.
 ExpMin= 3.60D-02 ExpMax= 8.59D+03 ExpMxC= 1.30D+03 IAcc=3 IRadAn=         5 AccDes= 0.00D+00
 Harris functional with IExCor= 1009 and IRadAn=       5 diagonalized for initial guess.
 HarFok:  IExCor= 1009 AccDes= 0.00D+00 IRadAn=         5 IDoV= 1 UseB2=F ITyADJ=14
 ICtDFT=  3500011 ScaDFX=  1.000000  1.000000  1.000000  1.000000
 FoFCou: FMM=F IPFlag=           0 FMFlag=      100000 FMFlg1=           0
         NFxFlg=           0 DoJE=T BraDBF=F KetDBF=T FulRan=T
         wScrn=  0.000000 ICntrl=       500 IOpCl=  0 I1Cent=   200000004 NGrid=           0
         NMat0=    1 NMatS0=      1 NMatT0=    0 NMatD0=    1 NMtDS0=    0 NMtDT0=    0
 Petite list used in FoFCou.
 Requested convergence on RMS density matrix=1.00D-08 within  32 cycles.
 Requested convergence on MAX density matrix=1.00D-06.
 Requested convergence on             energy=1.00D-06.
 No special actions if energy rises.
 SCF Done:  E(RM08HX) =  -465.899402459     A.U. after   15 cycles
            NFock= 15  Conv=0.40D-08     -V/T= 2.0052
 QCSCF skips out because SCF is already converged.
 R6APFD:  NTU= -4 IXU= 1 FactS= 1.050
 Calling FoFJK, ICntrl=      2127 FMM=F ISym2X=0 I1Cent= 0 IOpClX= 0 NMat=1 NMatS=1 NMatT=0.
 ***** Axes restored to original set *****
 -------------------------------------------------------------------
 Center     Atomic                   Forces (Hartrees/Bohr)
 Number     Number              X              Y              Z
 -------------------------------------------------------------------
      1        8          -0.000847060    0.002397948   -0.003500080
      2        6          -0.002843167    0.002255552    0.004061075
      3        6           0.004079745    0.002828330    0.000523894
      4        6          -0.001247606   -0.004605298   -0.008890662
      5        6           0.002467865    0.001332570    0.001531010
      6        6          -0.001551938   -0.002249936    0.000478218
      7        6          -0.002546958   -0.000245574    0.000367378
      8        6          -0.002673330    0.004950674   -0.001078996
      9        6          -0.001153970    0.000757478    0.000267285
     10        6           0.003580766    0.001339855   -0.000586154
     11        6           0.005876458   -0.010186388    0.012773017
     12        1          -0.000126905    0.000553369   -0.000144708
     13        1           0.001287054   -0.000435838   -0.000921418
     14        1           0.000648534    0.000960491    0.002040665
     15        1          -0.000317294   -0.000852206   -0.000149326
     16        1           0.000520570   -0.000232236    0.000101842
     17        1          -0.000290049   -0.001882790    0.000895100
     18        1          -0.004865222    0.001158854    0.001182597
     19        1           0.000155765    0.000162393    0.000843302
     20        1          -0.000052089   -0.000348277   -0.000597270
     21        1           0.000535786   -0.000469318   -0.000476529
     22        1          -0.000097632    0.000360649   -0.000125529
     23        1           0.000020851   -0.000797987   -0.000526175
     24        1           0.002040436   -0.001244518   -0.000296215
     25        1           0.001089659   -0.001265128   -0.000503029
     26        1          -0.001367872    0.000781796   -0.000802518
     27        1          -0.002322397    0.004975536   -0.006466774
 -------------------------------------------------------------------
 Cartesian Forces:  Max     0.012773017 RMS     0.002894138

 GradGradGradGradGradGradGradGradGradGradGradGradGradGradGradGradGradGrad
 Berny optimization.
 Using GEDIIS/GDIIS optimizer.
 FormGI is forming the generalized inverse of G from B-inverse, IUseBI=4.
 Internal  Forces:  Max     0.022384212 RMS     0.004124615
 Search for a local minimum.
 Step number   2 out of a maximum of  132
 All quantities printed in internal units (Hartrees-Bohrs-Radians)
 Mixed Optimization -- RFO/linear search
 Update second derivatives using D2CorX and points    1    2
 DE= -4.06D-03 DEPred=-8.08D-03 R= 5.02D-01
 TightC=F SS=  1.41D+00  RLast= 4.53D-01 DXNew= 5.0454D-01 1.3596D+00
 Trust test= 5.02D-01 RLast= 4.53D-01 DXMaxT set to 5.05D-01
 ITU=  1  0
 Use linear search instead of GDIIS.
     Eigenvalues ---    0.00309   0.00587   0.00653   0.00691   0.00734
     Eigenvalues ---    0.00760   0.00984   0.01206   0.01295   0.01507
     Eigenvalues ---    0.01763   0.01973   0.02805   0.02892   0.04358
     Eigenvalues ---    0.04693   0.05478   0.05830   0.06779   0.06946
     Eigenvalues ---    0.07080   0.07223   0.07308   0.07372   0.08874
     Eigenvalues ---    0.09031   0.12350   0.12528   0.15386   0.15995
     Eigenvalues ---    0.15997   0.16000   0.16000   0.16000   0.16000
     Eigenvalues ---    0.16000   0.16000   0.16000   0.16000   0.16039
     Eigenvalues ---    0.19981   0.21919   0.21992   0.22012   0.22653
     Eigenvalues ---    0.23971   0.24987   0.24996   0.28045   0.29778
     Eigenvalues ---    0.31381   0.31787   0.31889   0.32091   0.33357
     Eigenvalues ---    0.33774   0.33928   0.33983   0.34051   0.34114
     Eigenvalues ---    0.34171   0.34220   0.34224   0.34233   0.34244
     Eigenvalues ---    0.34373   0.34465   0.34662   0.34696   0.34820
     Eigenvalues ---    0.35198   0.40197   0.55781   0.56482   0.87762
[...]
 .00001102,0.00000610,0.00003484,-0.00000084,0.00001633,0.00000699,0.00
 002454,0.00001744,0.00008941,0.00034011,-0.00076362,0.00016738,0.00113
 128,0.00023107,0.00045565,0.00003520,-0.00001004,0.00001576,-0.0000198
 7,-0.00002756,-0.00010515,0.00000487,0.00000421,-0.00000813,-0.0559417
 4,0.06110841,-0.00001608,-0.00004120,0.00002981,-0.00000695,0.00001597
 ,-0.00009929,0.00017007,0.00006191,0.00051257,0.00007326,0.00002310,0.
 00000822,0.00034311,0.00040477,-0.00043200,-0.00926989,-0.00008015,-0.
 00009809,-0.00003159,0.00001435,-0.00001411,-0.00003115,-0.00005745,-0
 .00002724,0.00770280,0.00129750,-0.04679487,-0.00036986,-0.00012886,0.
 00032156,0.00003141,0.00004993,-0.00001715,-0.00002111,0.00000661,0.00
 000516,0.00001515,0.00000050,0.00000143,-0.00003376,-0.00003616,-0.000
 02718,-0.00009945,0.00014924,-0.00002178,0.00018043,0.00012424,0.00038
 356,-0.00000038,-0.00000031,-0.00000231,-0.00000810,-0.00002436,0.0000
 4853,-0.00000836,0.00000709,0.00000654,-0.00790668,-0.00024274,0.04529
 095,0.00003707,-0.00002296,-0.00000981,-0.00001932,0.00022929,0.000010
 70,-0.00093927,-0.00009953,-0.00034074,0.00010413,0.00005421,-0.000013
 20,-0.00020695,0.00118725,-0.00016847,0.00360224,0.00631746,0.00517065
 ,-0.00002816,-0.00003700,0.00000515,-0.00001162,-0.00010745,0.00004856
 ,-0.09693414,-0.07766181,-0.07178878,-0.00004837,-0.00021381,0.0001949
 5,-0.00003954,0.00003385,0.00001542,-0.00007122,-0.00000196,0.00001658
 ,-0.00000825,0.00000044,0.00000248,0.00000194,0.00000058,-0.00000085,0
 .00005361,-0.00017455,0.00004464,0.00055645,0.00027519,0.00020845,-0.0
 0000134,0.00000555,-0.00000921,0.00002413,0.00006648,-0.00006059,0.000
 02513,-0.00002801,0.00000239,-0.01452763,-0.02097894,-0.02000771,0.103
 58449,0.00008370,0.00016350,0.00001192,0.00001850,-0.00073202,0.000361
 59,0.00248310,0.00080416,0.00008462,-0.00025979,-0.00031891,-0.0001458
 9,-0.00054368,-0.00274466,0.00293397,-0.01241205,-0.02291053,-0.020292
 63,0.00011714,0.00003467,0.00004087,0.00018195,0.00024658,0.00009621,-
 0.07850145,-0.15237852,-0.10212552,0.00031556,0.00104833,-0.00102954,-
 0.00013049,-0.00026900,-0.00017871,0.00032523,-0.00004958,-0.00001848,
 -0.00000366,0.00003084,-0.00000222,-0.00000062,-0.00009906,0.00009859,
 -0.00010367,0.00019032,-0.00004471,-0.00097032,-0.00044464,-0.00039288
 ,0.00004742,-0.00000704,0.00003438,-0.00002887,-0.00013559,-0.00003968
 ,-0.00003102,0.00003316,-0.00001476,0.00279517,0.00403704,0.00433620,0
 .08304568,0.16996684,0.00004018,0.00014756,-0.00005311,-0.00001006,0.0
 0021798,-0.00005302,-0.00071719,-0.00018959,0.00028033,-0.00003542,-0.
 00008320,0.00010680,-0.00035432,0.00075289,-0.00018086,0.00700728,0.00
 541537,0.00691088,-0.00000212,-0.00001307,-0.00000425,0.00007954,0.000
 10061,-0.00003243,-0.07185629,-0.10007085,-0.14377044,0.00020752,0.000
 10109,0.00057086,-0.00008384,-0.00019665,0.00002334,-0.00005890,0.0000
 3943,0.00002262,-0.00000224,0.00000603,0.00000813,0.00007199,-0.000071
 56,0.00001517,0.00006277,-0.00001882,-0.00004621,-0.00035325,0.0000001
 5,0.00020280,0.00001146,-0.00000256,0.00000220,0.00000493,-0.00001988,
 -0.00001657,0.00000511,0.00000755,-0.00000935,0.00096532,0.00126821,-0
 .00000941,0.07970642,0.11134160,0.15175802,0.00003634,-0.00002592,0.00
 002912,-0.00004894,-0.00000593,0.00000381,-0.00005992,-0.00017704,-0.0
 0009257,0.00007592,0.00005498,-0.00004907,-0.00029423,0.00043662,-0.00
 088526,0.00062745,0.00040054,-0.00623375,-0.00002000,0.00000784,0.0000
 0272,0.00003318,-0.00008254,0.00004964,-0.07633988,-0.01330746,0.08479
 845,0.00062182,0.00098710,-0.00013498,-0.00003295,0.00001603,-0.000056
 33,0.00000058,-0.00001344,0.00000204,0.00000325,0.00000332,0.00000292,
 0.00002003,0.00000216,-0.00004483,0.00001801,-0.00007530,0.00000769,0.
 00023817,0.00034657,0.00017854,0.00000467,-0.00000098,0.00000053,0.000
 00374,-0.00001882,0.00001167,-0.00000215,-0.00000562,0.00000629,-0.008
 24675,-0.00471985,0.02890363,0.00485710,0.00312318,-0.01438090,0.07762
 282,-0.00003144,-0.00006171,0.00002531,0.00001250,0.00001170,0.0000196
 5,0.00001878,0.00017332,-0.00040807,0.00000311,0.00001779,0.00003911,-
 0.00113380,0.00096074,0.00145559,-0.01144235,-0.00343743,0.02935143,-0
 .00000532,0.00001445,-0.00002182,-0.00004353,-0.00001470,-0.00003074,-
 0.01197541,-0.05209785,0.03459801,0.00181792,-0.00561371,0.00075061,0.
 00006681,0.00008060,-0.00000897,-0.00001403,0.00000096,-0.00001223,0.0
 0002641,-0.00001423,-0.00001823,-0.00011402,0.00025016,-0.00002709,0.0
 0000622,-0.00002152,0.00003730,0.00087284,-0.00071241,-0.00100842,0.00
 001338,-0.00000776,-0.00000958,-0.00006011,-0.00002691,-0.00000717,-0.
 00001216,0.00001006,0.00000476,0.00119442,-0.00041054,-0.00613200,0.00
 845168,0.00314360,-0.01854389,0.01248519,0.05800117,-0.00004956,-0.000
 15400,0.00010007,0.00000013,0.00007697,-0.00001932,-0.00026117,0.00004
 530,0.00031343,0.00014190,0.00012360,-0.00012529,0.00035485,-0.0021254
 5,0.00057282,0.00303702,0.00009564,-0.00939381,-0.00001359,-0.00001042
 ,0.00001738,-0.00007651,-0.00016970,0.00002490,0.08369710,0.03764217,-
 0.28004760,-0.00079068,0.00263488,0.00064407,0.00008441,0.00019503,-0.
 00008035,-0.00004289,-0.00000341,-0.00000470,-0.00001928,0.00000711,0.
 00001954,0.00001875,-0.00018037,0.00011627,-0.00003757,0.00004934,-0.0
 0001176,-0.00024037,0.00023666,0.00079791,-0.00001251,0.00000224,0.000
 00020,0.00004088,0.00000551,0.00002537,0.00000500,-0.00000960,0.000016
 72,-0.00103555,-0.00041117,0.00097857,0.00682803,0.00358929,-0.0156947
 1,-0.09208788,-0.04145115,0.30165919,-0.00013933,-0.00016482,0.0000709
 3,0.00004947,0.00002389,0.00000502,-0.00024711,-0.00013740,0.00000939,
 0.00002718,0.00010298,-0.00008030,0.00051224,-0.00196096,0.00013874,-0
 .00953546,0.00274471,0.00360284,0.00024698,-0.00016253,-0.00001941,-0.
 00011967,-0.00009189,-0.00001784,0.00050266,0.00042370,-0.00040631,-0.
 29782848,0.04091452,0.01124377,0.00018637,0.00024102,0.00002309,-0.000
 05893,0.00001267,-0.00000683,-0.00002075,-0.00000341,0.00001059,-0.000
 00023,-0.00010487,-0.00005589,-0.00004698,0.00008163,-0.00003232,0.000
 26262,0.00027717,0.00038476,-0.00005915,0.00002047,0.00001577,-0.00006
 717,0.00005353,0.00007430,-0.00002908,0.00003307,0.00002192,0.00019549
 ,-0.00063661,0.00037020,-0.00011721,0.00005368,-0.00005069,0.00042397,
 0.00004315,0.00005778,0.32375365,0.00003253,0.00003081,-0.00001235,0.0
 0001540,0.00007957,-0.00044047,0.00025680,-0.00019341,-0.00000809,-0.0
 0001669,-0.00006606,0.00009368,0.00008630,-0.00034201,0.00089560,-0.00
 525744,0.00024107,-0.00187632,0.00007308,0.00020891,0.00001966,0.00001
 856,0.00004032,-0.00004948,-0.00050514,0.00020217,0.00001583,0.0402589
 2,-0.05120600,0.00094877,-0.00003500,-0.00004647,-0.00001388,-0.000035
 38,0.00001725,0.00001966,0.00013290,-0.00002421,-0.00002524,-0.0001490
 0,0.00045758,-0.00007180,-0.00004070,0.00002748,-0.00000611,0.00037463
 ,0.00023635,0.00010718,0.00010962,-0.00003643,-0.00003774,-0.00011368,
 -0.00033869,-0.00006080,-0.00010449,0.00005982,0.00001160,0.00026246,-
 0.00005000,0.00040728,-0.00013467,0.00003916,0.00000199,0.00013561,-0.
 00001373,-0.00017865,-0.04415167,0.05150792,-0.00000385,0.00000458,0.0
 0004572,-0.00001555,-0.00021257,0.00014723,0.00076079,0.00077729,0.000
 11675,-0.00018248,-0.00002173,-0.00028856,-0.00005585,0.00233781,-0.00
 307939,0.03405321,-0.00616457,-0.00405295,0.00011244,-0.00007975,0.000
 12518,0.00004466,0.00000683,0.00013630,-0.00002133,-0.00100575,0.00086
 197,0.01340628,0.00019626,-0.04241825,-0.00002327,-0.00001862,-0.00010
 033,0.00010465,-0.00003715,-0.00002065,-0.00001099,0.00001604,0.000030
 60,0.00005534,-0.00010382,0.00019098,0.00002974,-0.00007324,0.00003866
 ,-0.00160079,-0.00119828,-0.00140354,-0.00003297,0.00001863,0.00003082
 ,-0.00001300,0.00005977,-0.00015284,-0.00000285,0.00002023,0.00000040,
 -0.00052663,0.00071052,-0.00017471,-0.00019494,-0.00000245,-0.00000650
 ,-0.00035740,-0.00033497,0.00011087,-0.01589906,0.00077274,0.05002874,
 0.00011536,0.00013770,-0.00007392,0.00001516,-0.00000033,-0.00013826,-
 0.00069493,0.00016424,0.00077703,-0.00003889,-0.00000469,0.00035162,0.
 00003987,0.00029452,-0.00062275,0.00110849,-0.01163207,0.00068664,-0.0
 0000614,0.00009878,0.00003047,0.00009136,0.00008964,-0.00009746,-0.000
 11831,0.00011103,0.00209863,-0.05416106,0.04712293,-0.01450692,-0.0001
 4090,-0.00019163,0.00000339,-0.00002019,0.00002131,0.00001163,0.000008
 49,0.00000516,-0.00003878,-0.00057936,0.00184986,0.00167784,0.00008254
 ,-0.00003720,-0.00021785,0.00004272,-0.00005578,-0.00013594,0.00014968
 ,-0.00001197,-0.00005930,-0.00134901,-0.00065865,0.00004940,-0.0000571
 9,0.00011515,-0.00002712,0.00033796,-0.00031572,0.00018341,-0.00002261
 ,0.00046447,-0.00000087,0.00054235,-0.00040723,0.00044387,-0.00397400,
 0.02972942,-0.00880288,0.05664349,0.00007901,0.00012951,-0.00007902,0.
 00003830,0.00023189,-0.00041015,0.00093311,-0.00076114,-0.00105036,0.0
 0001554,-0.00012285,0.00035028,0.00021320,-0.00112080,0.00012071,0.000
 06744,-0.00394170,0.00126625,0.00004764,0.00024361,-0.00023547,0.00005
 171,0.00011432,-0.00016037,-0.00056426,0.00113570,0.00162131,0.0463534
 4,-0.28459135,0.07545466,-0.00009328,-0.00017983,0.00003462,-0.0000739
 3,0.00003098,0.00002241,0.00015690,-0.00004520,-0.00003872,0.00176542,
 -0.00090626,-0.00253470,-0.00004820,0.00007550,-0.00013182,-0.00005890
 ,0.00008964,0.00009447,0.00014001,-0.00007784,-0.00002230,-0.00052189,
 -0.00033279,0.00008230,-0.00013020,-0.00000490,0.00003685,0.00006505,0
 .00004891,-0.00018811,0.00010134,0.00040237,-0.00017554,0.00026341,-0.
 00033392,0.00010358,-0.00009940,-0.00352919,0.00038612,-0.05336253,0.3
 0974519,-0.00007513,-0.00009969,0.00003731,0.00007400,-0.00015533,0.00
 051917,0.00028438,-0.00017683,-0.00116160,0.00014941,0.00021135,-0.000
 01537,-0.00066003,0.00012815,0.00109228,-0.00856609,0.02970767,-0.0052
 3152,-0.00014689,-0.00014407,-0.00020164,-0.00008907,-0.00018799,-0.00
 005040,0.00276865,-0.00045278,-0.00546311,-0.01385698,0.07340604,-0.07
 002639,0.00011544,0.00012239,0.00003235,0.00004233,-0.00001071,-0.0000
 3272,-0.00024787,0.00001392,0.00001686,0.00165885,-0.00232341,-0.00052
 050,-0.00003764,-0.00014600,0.00032882,-0.00014326,0.00000035,0.000230
 59,-0.00008272,0.00001167,0.00000972,0.00007953,0.00002509,0.00029878,
 0.00004680,0.00002272,0.00004511,-0.00001006,-0.00037481,0.00009433,0.
 00019596,0.00006256,0.00016466,-0.00009373,0.00172260,-0.00053536,0.00
 001826,-0.00173226,-0.00082445,0.01314765,-0.08063368,0.07485248,0.000
 07587,0.00007753,-0.00007189,0.00004254,-0.00000044,0.00002858,0.00041
 204,0.00032880,0.00026612,-0.00001760,-0.00006528,0.00029672,-0.000577
 21,-0.00052262,0.00128040,0.00538088,0.00887829,0.00969460,0.00001964,
 -0.00011196,-0.00005866,-0.00002656,0.00004774,-0.00007971,0.00007880,
 0.00036054,-0.00033845,-0.08962737,-0.07049196,-0.07260917,-0.00010308
 ,-0.00008143,0.00008071,-0.00000117,-0.00000315,-0.00000613,-0.0000117
 5,-0.00000901,-0.00004379,0.00001792,-0.00008371,0.00009551,-0.0001003
 1,0.00007330,0.00013043,-0.00101475,-0.00005416,-0.00006129,0.00001918
 ,-0.00001316,-0.00002258,-0.00051263,0.00054682,0.00012674,0.00007266,
 -0.00006808,-0.00002857,-0.00016891,-0.00018631,-0.00015144,0.00015640
 ,-0.00007789,-0.00026804,-0.00006290,0.00021530,-0.00001213,-0.0139375
 7,-0.02094422,-0.02082659,0.00198190,0.00465282,0.00544451,0.09790315,
 -0.00005561,-0.00008142,0.00008996,-0.00006188,0.00003013,-0.00005226,
 0.00006121,-0.00025867,0.00030972,-0.00009777,-0.00006735,-0.00035985,
 -0.00100646,0.00028043,0.00100179,0.00566448,0.00409923,0.00207675,0.0
 0018873,-0.00006297,0.00028521,-0.00003547,0.00002353,0.00015963,0.000
 27655,0.00042886,0.00040381,-0.07125824,-0.14955032,-0.10205374,0.0000
 4994,0.00011749,-0.00010596,0.00000268,-0.00000103,0.00001386,0.000122
 31,0.00001620,0.00003452,-0.00009109,0.00034326,-0.00038304,0.00012542
 ,0.00007103,-0.00027343,-0.00055935,-0.00003045,-0.00027286,0.00000052
 ,0.00002804,0.00000697,0.00039493,-0.00032544,-0.00036975,-0.00006436,
 0.00005417,-0.00001744,-0.00001612,-0.00000306,0.00001399,-0.00031511,
 -0.00005436,-0.00000614,0.00014507,0.00010694,-0.00014709,0.00249790,0
 .00268989,0.00395541,-0.01353354,-0.01631050,-0.01902378,0.07754241,0.
 15848180,0.00004662,0.00009022,0.00004372,-0.00002321,-0.00008341,0.00
 019744,-0.00082011,0.00020362,-0.00065979,-0.00009282,-0.00014290,-0.0
 0030456,0.00013392,0.00333009,-0.00280752,-0.01159649,-0.02103807,-0.0
 2233585,0.00019823,0.00008250,0.00001292,0.00012389,0.00008089,0.00016
 410,0.00005097,-0.00099354,0.00110391,-0.07400170,-0.10398367,-0.15087
 300,-0.00008866,-0.00016214,-0.00017176,0.00011338,-0.00004216,0.00004
 244,-0.00004790,0.00003975,0.00005305,-0.00005990,-0.00011275,0.000213
 76,0.00009955,-0.00024593,0.00010747,0.00224531,0.00005351,0.00020233,
 0.00001393,-0.00000129,0.00002941,0.00024474,-0.00038461,0.00002816,-0
 .00008720,0.00007384,0.00002191,0.00000488,-0.00000243,0.00002823,0.00
 016809,0.00120320,-0.00019946,0.00039700,0.00002508,0.00049024,0.00052
 645,0.00121828,0.00060057,0.00528801,0.00611550,0.00635325,0.07718322,
 0.11465730,0.16755726,-0.00050063,0.00268256,0.00194829,-0.00420814,0.
 00470226,0.00116528,-0.00032569,-0.00091839,-0.00026502,0.00086191,0.0
 0062260,0.01911521,0.00032702,-0.00025281,0.00027389,-0.00000782,0.000
 15350,-0.00000632,0.00421384,-0.00777201,0.00144334,-0.04553175,-0.006
 53862,0.02694299,0.00003140,0.00001402,0.00002428,-0.00000054,-0.00006
 884,-0.00004927,0.00447227,-0.00250225,-0.01804498,0.00068663,0.000634
 50,-0.00012286,-0.00024454,-0.00084492,-0.00054879,-0.00000253,-0.0000
 1456,-0.00003780,-0.00027111,-0.00000973,0.00006707,-0.00012105,0.0000
 8513,-0.00019358,-0.00012632,-0.00011841,0.00027675,0.00015700,0.00024
 936,-0.00159099,-0.00032458,0.00021737,0.00207294,0.00002350,-0.000007
 61,-0.00001019,-0.00001304,-0.00000684,0.00000223,-0.00001570,0.000016
 49,-0.00002532,0.00001419,0.00000164,-0.00001085,0.00001192,0.00001597
 ,-0.00001134,0.00001233,0.00000375,-0.00003521,0.04106333,0.00217735,0
 .00104607,0.00347807,0.00365578,-0.00315538,0.00250602,0.00025659,0.00
 069703,-0.00004510,-0.00325113,0.00417900,0.01999614,-0.00016778,0.000
 14752,-0.00012456,-0.00000728,-0.00008655,-0.00000177,-0.00672138,0.00
 250901,-0.00053642,-0.00607871,-0.04847206,-0.02501309,-0.00001253,-0.
 00002770,-0.00006321,-0.00002803,0.00000019,0.00002479,0.00185247,0.00
 068836,-0.02571821,-0.00070807,-0.00054502,-0.00008703,-0.00077187,-0.
 00043003,-0.00041978,0.00019091,-0.00002434,-0.00001260,0.00016560,-0.
 00002489,-0.00005044,0.00007956,0.00001723,0.00008018,0.00028621,0.000
 04071,-0.00031669,-0.00030294,-0.00027485,0.00180746,-0.00009541,-0.00
 009467,-0.00032339,-0.00001418,-0.00000368,0.00001664,0.00001114,-0.00
 001076,-0.00000582,0.00002024,-0.00000063,0.00002545,-0.00001717,0.000
 01272,-0.00002410,0.00002004,0.00002939,0.00002519,0.00000650,-0.00004
 383,-0.00000095,0.01284235,0.04598403,-0.00064677,0.00026626,0.0029908
 8,-0.00219400,-0.00047340,0.00037388,0.00007034,-0.00017366,0.00031789
 ,0.00134967,-0.00226327,-0.01277814,0.00004219,0.00000005,-0.00010978,
 0.00004143,-0.00004210,-0.00003915,0.00136705,0.00048422,0.00175382,0.
 02744658,-0.02439504,-0.32601825,-0.00002260,-0.00000880,-0.00000440,0
 .00000508,0.00001701,0.00000849,0.00421148,0.00163629,-0.01369716,0.00
 005632,-0.00000754,0.00026414,0.00038917,0.00052373,0.00093532,-0.0002
 1352,-0.00004797,0.00005096,0.00000919,-0.00003460,0.00000051,0.000133
 44,0.00000163,0.00006144,-0.00012239,-0.00018911,0.00025073,0.00009560
 ,0.00004960,-0.00052871,0.00025281,0.00000615,-0.00023557,-0.00001372,
 0.00001070,0.00000445,0.00000092,0.00002303,-0.00000130,0.00001678,-0.
 00001125,0.00001658,0.00000061,-0.00000239,0.00002503,-0.00002060,-0.0
 0002203,-0.00000301,-0.00001796,0.00002820,0.00003794,-0.03122163,0.02
 638321,0.34682620,0.00544033,-0.01093648,0.03294539,-0.00133864,0.0011
 5731,-0.00010333,-0.00011646,-0.00027758,0.00000392,0.00001058,0.00102
 695,-0.00029160,0.00008732,-0.00003626,0.00000656,0.00001807,0.0000060
 8,0.00001029,-0.00009600,-0.00080383,0.00099380,0.01329227,-0.00808974
 ,-0.01390444,0.00000546,-0.00000157,0.00000499,0.00000223,-0.00000519,
 -0.00000485,-0.05783964,0.00226159,0.00166173,0.00024088,0.00017406,0.
 00008997,0.00011526,0.00005922,0.00014255,-0.00008897,-0.00000383,0.00
 000505,-0.00006826,0.00000251,0.00003428,0.00000932,-0.00000541,0.0000
 0077,-0.00085507,-0.00211069,0.00135890,-0.00020074,-0.00008214,-0.000
 05640,0.00019967,0.00013902,0.00008773,0.00000621,0.00000678,-0.000000
 79,-0.00001402,0.00001555,0.00000939,-0.00000598,-0.00000478,-0.000004
 69,0.00000631,0.00000022,0.00001415,-0.00000870,-0.00000771,-0.0000049
 2,-0.00001151,0.00001911,0.00001502,-0.00018190,-0.00338827,-0.0010154
 7,0.04139200,-0.01295895,0.00961203,0.03200165,0.00079614,-0.00104838,
 0.00035544,0.00006135,0.00018774,0.00012856,0.00108586,0.00004659,-0.0
 0016970,-0.00001651,0.00003212,-0.00004394,0.00001745,-0.00000965,-0.0
 0001702,-0.00174031,-0.00067820,0.00015713,-0.00447798,0.00789228,-0.0
 2230062,-0.00001327,-0.00000102,-0.00000232,0.00001197,0.00001146,0.00
 000668,0.00076260,-0.06565793,-0.03857488,-0.00021803,-0.00024716,0.00
 004119,0.00007235,0.00016794,0.00023450,-0.00005282,-0.00001289,0.0000
 1042,0.00005519,-0.00000140,0.00000027,0.00002556,-0.00001488,0.000038
 53,-0.00149492,-0.00144824,0.00186938,0.00025556,0.00015574,0.00035742
 ,0.00015484,0.00005756,-0.00000200,-0.00000243,0.00000539,0.00000204,-
 0.00000435,0.00001413,-0.00000289,0.00000504,-0.00000442,0.00000825,0.
 00000661,-0.00000484,0.00001478,-0.00001290,-0.00001875,0.00000163,-0.
 00001666,0.00001838,0.00002008,-0.00318649,-0.00215688,-0.00175889,0.0
 2088507,0.05310327,0.02217375,0.01825261,-0.02732765,-0.00071171,-0.00
 006659,0.00038600,0.00009967,-0.00020115,-0.00021448,0.00059868,-0.000
 01849,-0.00232933,0.00000929,-0.00008834,0.00004921,0.00006338,-0.0000
 4348,-0.00006229,-0.00016135,0.00133895,-0.00142618,0.00315375,-0.0022
 4092,-0.01184661,-0.00002815,-0.00002501,-0.00001220,-0.00002876,0.000
 00269,-0.00000733,-0.00422887,-0.04508343,-0.26137117,-0.00012874,-0.0
 0019198,-0.00007437,0.00005412,0.00009074,0.00022844,-0.00008820,-0.00
 002211,0.00008846,-0.00014821,0.00002358,0.00002937,0.00004025,-0.0000
 1380,0.00003584,0.00208912,0.00187197,0.00071813,-0.00012267,-0.000176
 94,0.00023929,0.00058873,0.00044248,0.00068560,-0.00000486,0.00003446,
 0.00000423,-0.00002508,0.00006944,0.00001182,0.00000587,-0.00000386,0.
 00000879,-0.00000578,0.00000334,0.00003238,-0.00000696,-0.00000678,-0.
 00000964,-0.00003112,0.00002824,0.00006383,-0.00115815,-0.00159996,-0.
 00050279,-0.02199801,0.02762434,0.30260266\\0.00000131,0.00000165,-0.0
 0000056,-0.00001012,0.00000343,0.00000922,0.00000813,-0.00000169,-0.00
 000244,-0.00000316,-0.00000259,-0.00000864,0.00000288,-0.00000133,0.00
 000502,0.00000179,0.00000334,0.00000111,-0.00000041,-0.00000285,-0.000
 00063,0.00001225,0.00000520,-0.00000317,-0.00000650,-0.00000229,0.0000
 0232,-0.00000152,0.00000357,0.00000344,-0.00000679,0.00000552,-0.00000
 356,0.00000060,-0.00000230,0.00000236,-0.00000113,-0.00000119,-0.00000
 026,0.00000274,-0.00000174,-0.00000208,-0.00000074,-0.00000506,-0.0000
 0115,-0.00000024,-0.00000259,-0.00000112,-0.00000201,0.00000040,0.0000
 0263,0.00000176,0.00000175,0.00000135,0.00000206,0.00000169,0.00000233
 ,-0.00000240,-0.00000074,-0.00000194,-0.00000210,-0.00000169,-0.000001
 82,0.00000042,-0.00000204,-0.00000180,0.00000284,0.00000174,0.00000405
 ,-0.00000279,0.00000128,0.00000132,0.00000283,0.00000067,0.00000213,-0
 .00000402,-0.00000390,-0.00000057,0.00000432,0.00000175,-0.00000757\\\
 @


 GOORD'S AXIOM:  A MEETING IS AN EVENT AT WHICH
 THE MINUTES ARE KEPT AND THE HOURS ARE LOST.
 Job cpu time:       0 days  5 hours 48 minutes 30.9 seconds.
 Elapsed time:       0 days  0 hours 21 minutes 52.8 seconds.
 File lengths (MBytes):  RWF=    288 Int=      0 D2E=      0 Chk=     11 Scr=      1
 Normal termination of Gaussian 16 at Wed Oct  1 16:47:16 2025.
