 Entering Gaussian System, Link 0=g16
 Input=CUAC0024.gjf
 Output=CUAC0024.log
 Initial command:
 /usr/local/g16/l1.exe "/dados_01/scratch/Gau-2386047.inp" -scrdir="/dados_01/scratch/"
 Entering Link 1 = /usr/local/g16/l1.exe PID=   2386048.
  
 Copyright (c) 1988-2017, Gaussian, Inc.  All Rights Reserved.
  
 This is part of the Gaussian(R) 16 program.  It is based on
 the Gaussian(R) 09 system (copyright 2009, Gaussian, Inc.),
 the Gaussian(R) 03 system (copyright 2003, Gaussian, Inc.),
 the Gaussian(R) 98 system (copyright 1998, Gaussian, Inc.),
 the Gaussian(R) 94 system (copyright 1995, Gaussian, Inc.),
 the Gaussian 92(TM) system (copyright 1992, Gaussian, Inc.),
 the Gaussian 90(TM) system (copyright 1990, Gaussian, Inc.),
 the Gaussian 88(TM) system (copyright 1988, Gaussian, Inc.),
 the Gaussian 86(TM) system (copyright 1986, Carnegie Mellon
 University), and the Gaussian 82(TM) system (copyright 1983,
 Carnegie Mellon University). Gaussian is a federally registered
 trademark of Gaussian, Inc.
  
 This software contains proprietary and confidential information,
 including trade secrets, belonging to Gaussian, Inc.
  
 This software is provided under written license and may be
 used, copied, transmitted, or stored only in accord with that
 written license.
  
 The following legend is applicable only to US Government
 contracts under FAR:
  
                    RESTRICTED RIGHTS LEGEND
  
 Use, reproduction and disclosure by the US Government is
 subject to restrictions as set forth in subparagraphs (a)
 and (c) of the Commercial Computer Software - Restricted
 Rights clause in FAR 52.227-19.
  
 Gaussian, Inc.
 340 Quinnipiac St., Bldg. 40, Wallingford CT 06492
  
  
 ---------------------------------------------------------------
 Warning -- This program may not be used in any manner that
 competes with the business of Gaussian, Inc. or will provide
 assistance to any competitor of Gaussian, Inc.  The licensee
 of this program is prohibited from giving any competitor of
 Gaussian, Inc. access to this program.  By using this program,
 the user acknowledges that Gaussian, Inc. is engaged in the
 business of creating and licensing software in the field of
 computational chemistry and represents and warrants to the
 licensee that it is not a competitor of Gaussian, Inc. and that
 it will not use this program in any manner prohibited above.
 ---------------------------------------------------------------
  

 Cite this work as:
 Gaussian 16, Revision B.01,
 M. J. Frisch, G. W. Trucks, H. B. Schlegel, G. E. Scuseria, 
 M. A. Robb, J. R. Cheeseman, G. Scalmani, V. Barone, 
 G. A. Petersson, H. Nakatsuji, X. Li, M. Caricato, A. V. Marenich, 
 J. Bloino, B. G. Janesko, R. Gomperts, B. Mennucci, H. P. Hratchian, 
 J. V. Ortiz, A. F. Izmaylov, J. L. Sonnenberg, D. Williams-Young, 
 F. Ding, F. Lipparini, F. Egidi, J. Goings, B. Peng, A. Petrone, 
 T. Henderson, D. Ranasinghe, V. G. Zakrzewski, J. Gao, N. Rega, 
 G. Zheng, W. Liang, M. Hada, M. Ehara, K. Toyota, R. Fukuda, 
 J. Hasegawa, M. Ishida, T. Nakajima, Y. Honda, O. Kitao, H. Nakai, 
 T. Vreven, K. Throssell, J. A. Montgomery, Jr., J. E. Peralta, 
 F. Ogliaro, M. J. Bearpark, J. J. Heyd, E. N. Brothers, K. N. Kudin, 
 V. N. Staroverov, T. A. Keith, R. Kobayashi, J. Normand, 
 K. Raghavachari, A. P. Rendell, J. C. Burant, S. S. Iyengar, 
 J. Tomasi, M. Cossi, J. M. Millam, M. Klene, C. Adamo, R. Cammi, 
 J. W. Ochterski, R. L. Martin, K. Morokuma, O. Farkas, 
 J. B. Foresman, and D. J. Fox, Gaussian, Inc., Wallingford CT, 2016.
 
 ******************************************
 Gaussian 16:  ES64L-G16RevB.01 20-Dec-2017
                 1-Oct-2025 
 ******************************************
 %nprocs=16
 Will use up to   16 processors via shared memory.
 %mem=40GB
 %chk=CUAC0024.chk
 ----------------------------------------------------------------------
 # opt freq=noraman M08HX/6-311++G** scf=xqc Empiricaldispersion=pfd In
 t(Grid=ultraFine)
 ----------------------------------------------------------------------
 1/18=20,19=15,26=4,38=1/1,3;
 2/9=110,12=2,17=6,18=5,40=1/2;
 3/5=4,6=6,7=1111,11=2,25=1,30=1,71=1,74=-74,75=-5,124=11/1,2,3;
 4//1;
 5/5=2,8=3,13=1,38=5/2,8;
 6/7=2,8=2,9=2,10=2,28=1/1;
 7//1,2,3,16;
 1/18=20,19=15,26=4/3(2);
 2/9=110/2;
 99//99;
 2/9=110/2;
 3/5=4,6=6,7=1111,11=2,25=1,30=1,71=1,74=-74,75=-5,124=11/1,2,3;
 4/5=5,16=3,69=1/1;
 5/5=2,8=3,13=1,38=5/2,8;
 7//1,2,3,16;
 1/18=20,19=15,26=4/3(-5);
 2/9=110/2;
 6/7=2,8=2,9=2,10=2,19=2,28=1/1;
 99/9=1/99;
 --------
 CUAC0024
 --------
 Symbolic Z-matrix:
 Charge =  0 Multiplicity = 1
 O                    -3.2952   -1.3396    0. 
 O                    -3.6351    0.9078    0.001 
 C                     2.8677    0.3147   -0.0004 
 C                     1.3793    0.2192    0.0002 
 C                     3.4972   -0.3097   -1.2601 
 C                     3.4981   -0.3057    1.2608 
 C                     0.6065    1.3804   -0.0012 
 C                     0.7601   -1.0306    0.0011 
 C                    -0.7856    1.2918   -0.0016 
 C                    -0.632    -1.1193    0.0006 
 C                    -1.4048    0.0419   -0.0008 
 C                    -2.8562   -0.051     0.0005 
 H                     3.1552    1.3751   -0.0022 
 H                     3.3304   -1.3911   -1.3084 
 H                     4.5791   -0.1383   -1.2736 
 H                     3.0749    0.1359   -2.1677 
 H                     3.0767    0.1429    2.1672 
 H                     4.58     -0.1346    1.2729 
 H                     3.3311   -1.387     1.3128 
 H                     1.0727    2.3621   -0.002 
 H                     1.3429   -1.9476    0.0023 
 H                    -1.3699    2.2083   -0.0023 
 H                    -1.0726   -2.1123    0.0016 
 H                    -4.2748   -1.3914    0.0003 
 

 GradGradGradGradGradGradGradGradGradGradGradGradGradGradGradGradGradGrad
 Berny optimization.
 Initialization pass.
                           ----------------------------
                           !    Initial Parameters    !
                           ! (Angstroms and Degrees)  !
 --------------------------                            --------------------------
 ! Name  Definition              Value          Derivative Info.                !
 --------------------------------------------------------------------------------
 ! R1    R(1,12)                 1.3613         estimate D2E/DX2                !
 ! R2    R(1,24)                 0.981          estimate D2E/DX2                !
 ! R3    R(2,12)                 1.2353         estimate D2E/DX2                !
 ! R4    R(3,4)                  1.4915         estimate D2E/DX2                !
 ! R5    R(3,5)                  1.5405         estimate D2E/DX2                !
 ! R6    R(3,6)                  1.5404         estimate D2E/DX2                !
 ! R7    R(3,13)                 1.0987         estimate D2E/DX2                !
 ! R8    R(4,7)                  1.3949         estimate D2E/DX2                !
 ! R9    R(4,8)                  1.3948         estimate D2E/DX2                !
 ! R10   R(5,14)                 1.0953         estimate D2E/DX2                !
 ! R11   R(5,15)                 1.0955         estimate D2E/DX2                !
 ! R12   R(5,16)                 1.0957         estimate D2E/DX2                !
 ! R13   R(6,17)                 1.0956         estimate D2E/DX2                !
 ! R14   R(6,18)                 1.0954         estimate D2E/DX2                !
 ! R15   R(6,19)                 1.0954         estimate D2E/DX2                !
 ! R16   R(7,9)                  1.3949         estimate D2E/DX2                !
 ! R17   R(7,20)                 1.0868         estimate D2E/DX2                !
 ! R18   R(8,10)                 1.3949         estimate D2E/DX2                !
 ! R19   R(8,21)                 1.0865         estimate D2E/DX2                !
 ! R20   R(9,11)                 1.3949         estimate D2E/DX2                !
 ! R21   R(9,22)                 1.0869         estimate D2E/DX2                !
 ! R22   R(10,11)                1.3949         estimate D2E/DX2                !
 ! R23   R(10,23)                1.0864         estimate D2E/DX2                !
 ! R24   R(11,12)                1.4544         estimate D2E/DX2                !
 ! A1    A(12,1,24)            111.8398         estimate D2E/DX2                !
 ! A2    A(4,3,5)              112.469          estimate D2E/DX2                !
 ! A3    A(4,3,6)              112.4749         estimate D2E/DX2                !
 ! A4    A(4,3,13)             108.8408         estimate D2E/DX2                !
 ! A5    A(5,3,6)              109.8182         estimate D2E/DX2                !
 ! A6    A(5,3,13)             106.4357         estimate D2E/DX2                !
 ! A7    A(6,3,13)             106.4372         estimate D2E/DX2                !
 ! A8    A(3,4,7)              119.9732         estimate D2E/DX2                !
 ! A9    A(3,4,8)              120.0269         estimate D2E/DX2                !
 ! A10   A(7,4,8)              119.9999         estimate D2E/DX2                !
 ! A11   A(3,5,14)             111.9648         estimate D2E/DX2                !
 ! A12   A(3,5,15)             110.502          estimate D2E/DX2                !
 ! A13   A(3,5,16)             110.7942         estimate D2E/DX2                !
 ! A14   A(14,5,15)            107.7188         estimate D2E/DX2                !
 ! A15   A(14,5,16)            107.8365         estimate D2E/DX2                !
 ! A16   A(15,5,16)            107.866          estimate D2E/DX2                !
 ! A17   A(3,6,17)             110.7952         estimate D2E/DX2                !
 ! A18   A(3,6,18)             110.5072         estimate D2E/DX2                !
 ! A19   A(3,6,19)             111.9657         estimate D2E/DX2                !
 ! A20   A(17,6,18)            107.8656         estimate D2E/DX2                !
 ! A21   A(17,6,19)            107.8352         estimate D2E/DX2                !
 ! A22   A(18,6,19)            107.713          estimate D2E/DX2                !
 ! A23   A(4,7,9)              120.0028         estimate D2E/DX2                !
 ! A24   A(4,7,20)             120.9529         estimate D2E/DX2                !
 ! A25   A(9,7,20)             119.0442         estimate D2E/DX2                !
 ! A26   A(4,8,10)             120.0014         estimate D2E/DX2                !
 ! A27   A(4,8,21)             121.2064         estimate D2E/DX2                !
 ! A28   A(10,8,21)            118.7923         estimate D2E/DX2                !
 ! A29   A(7,9,11)             119.9955         estimate D2E/DX2                !
 ! A30   A(7,9,22)             118.8772         estimate D2E/DX2                !
 ! A31   A(11,9,22)            121.1273         estimate D2E/DX2                !
 ! A32   A(8,10,11)            119.9987         estimate D2E/DX2                !
 ! A33   A(8,10,23)            117.5729         estimate D2E/DX2                !
 ! A34   A(11,10,23)           122.4284         estimate D2E/DX2                !
 ! A35   A(9,11,10)            120.0017         estimate D2E/DX2                !
 ! A36   A(9,11,12)            120.0162         estimate D2E/DX2                !
 ! A37   A(10,11,12)           119.9821         estimate D2E/DX2                !
 ! A38   A(1,12,2)             122.0977         estimate D2E/DX2                !
 ! A39   A(1,12,11)            112.4753         estimate D2E/DX2                !
 ! A40   A(2,12,11)            125.427          estimate D2E/DX2                !
 ! D1    D(24,1,12,2)           -0.0131         estimate D2E/DX2                !
 ! D2    D(24,1,12,11)        -179.9632         estimate D2E/DX2                !
 ! D3    D(5,3,4,7)           -117.6985         estimate D2E/DX2                !
 ! D4    D(5,3,4,8)             62.2512         estimate D2E/DX2                !
 ! D5    D(6,3,4,7)            117.6807         estimate D2E/DX2                !
 ! D6    D(6,3,4,8)            -62.3696         estimate D2E/DX2                !
 ! D7    D(13,3,4,7)            -0.0116         estimate D2E/DX2                !
 ! D8    D(13,3,4,8)           179.9381         estimate D2E/DX2                !
 ! D9    D(4,3,5,14)           -65.2987         estimate D2E/DX2                !
 ! D10   D(4,3,5,15)           174.6242         estimate D2E/DX2                !
 ! D11   D(4,3,5,16)            55.1286         estimate D2E/DX2                !
 ! D12   D(6,3,5,14)            60.7713         estimate D2E/DX2                !
 ! D13   D(6,3,5,15)           -59.3059         estimate D2E/DX2                !
 ! D14   D(6,3,5,16)          -178.8015         estimate D2E/DX2                !
 ! D15   D(13,3,5,14)          175.5997         estimate D2E/DX2                !
 ! D16   D(13,3,5,15)           55.5226         estimate D2E/DX2                !
 ! D17   D(13,3,5,16)          -63.9731         estimate D2E/DX2                !
 ! D18   D(4,3,6,17)           -55.1469         estimate D2E/DX2                !
 ! D19   D(4,3,6,18)          -174.646          estimate D2E/DX2                !
 ! D20   D(4,3,6,19)            65.2801         estimate D2E/DX2                !
 ! D21   D(5,3,6,17)           178.7866         estimate D2E/DX2                !
 ! D22   D(5,3,6,18)            59.2875         estimate D2E/DX2                !
 ! D23   D(5,3,6,19)           -60.7865         estimate D2E/DX2                !
 ! D24   D(13,3,6,17)           63.9591         estimate D2E/DX2                !
 ! D25   D(13,3,6,18)          -55.54           estimate D2E/DX2                !
 ! D26   D(13,3,6,19)         -175.6139         estimate D2E/DX2                !
 ! D27   D(3,4,7,9)            179.9545         estimate D2E/DX2                !
 ! D28   D(3,4,7,20)            -0.0451         estimate D2E/DX2                !
 ! D29   D(8,4,7,9)              0.0047         estimate D2E/DX2                !
 ! D30   D(8,4,7,20)          -179.9948         estimate D2E/DX2                !
 ! D31   D(3,4,8,10)          -179.9497         estimate D2E/DX2                !
 ! D32   D(3,4,8,21)             0.0568         estimate D2E/DX2                !
 ! D33   D(7,4,8,10)             0.0            estimate D2E/DX2                !
 ! D34   D(7,4,8,21)          -179.9935         estimate D2E/DX2                !
 ! D35   D(4,7,9,11)            -0.0095         estimate D2E/DX2                !
 ! D36   D(4,7,9,22)           179.9762         estimate D2E/DX2                !
 ! D37   D(20,7,9,11)          179.9901         estimate D2E/DX2                !
 ! D38   D(20,7,9,22)           -0.0243         estimate D2E/DX2                !
 ! D39   D(4,8,10,11)            0.0            estimate D2E/DX2                !
 ! D40   D(4,8,10,23)         -179.9843         estimate D2E/DX2                !
 ! D41   D(21,8,10,11)         179.9936         estimate D2E/DX2                !
 ! D42   D(21,8,10,23)           0.0093         estimate D2E/DX2                !
 ! D43   D(7,9,11,10)            0.0095         estimate D2E/DX2                !
 ! D44   D(7,9,11,12)          179.9219         estimate D2E/DX2                !
 ! D45   D(22,9,11,10)        -179.9758         estimate D2E/DX2                !
 ! D46   D(22,9,11,12)          -0.0634         estimate D2E/DX2                !
 ! D47   D(8,10,11,9)           -0.0047         estimate D2E/DX2                !
 ! D48   D(8,10,11,12)        -179.9172         estimate D2E/DX2                !
 ! D49   D(23,10,11,9)         179.9788         estimate D2E/DX2                !
 ! D50   D(23,10,11,12)          0.0664         estimate D2E/DX2                !
 ! D51   D(9,11,12,1)          179.9477         estimate D2E/DX2                !
 ! D52   D(9,11,12,2)           -0.0004         estimate D2E/DX2                !
 ! D53   D(10,11,12,1)          -0.1399         estimate D2E/DX2                !
 ! D54   D(10,11,12,2)         179.912          estimate D2E/DX2                !
 --------------------------------------------------------------------------------
 Trust Radius=3.00D-01 FncErr=1.00D-07 GrdErr=1.00D-06 EigMax=2.50D+02 EigMin=1.00D-04
 Number of steps in this run=    128 maximum allowed number of steps=    144.
 GradGradGradGradGradGradGradGradGradGradGradGradGradGradGradGradGradGrad

                          Input orientation:                          
 ---------------------------------------------------------------------
 Center     Atomic      Atomic             Coordinates (Angstroms)
 Number     Number       Type             X           Y           Z
 ---------------------------------------------------------------------
      1          8           0       -3.295200   -1.339600    0.000000
      2          8           0       -3.635100    0.907800    0.001000
      3          6           0        2.867700    0.314700   -0.000400
      4          6           0        1.379300    0.219200    0.000200
      5          6           0        3.497200   -0.309700   -1.260100
      6          6           0        3.498100   -0.305700    1.260800
      7          6           0        0.606500    1.380400   -0.001200
      8          6           0        0.760100   -1.030600    0.001100
      9          6           0       -0.785600    1.291800   -0.001600
     10          6           0       -0.632000   -1.119300    0.000600
     11          6           0       -1.404800    0.041900   -0.000800
     12          6           0       -2.856200   -0.051000    0.000500
     13          1           0        3.155200    1.375100   -0.002200
     14          1           0        3.330400   -1.391100   -1.308400
     15          1           0        4.579100   -0.138300   -1.273600
     16          1           0        3.074900    0.135900   -2.167700
     17          1           0        3.076700    0.142900    2.167200
     18          1           0        4.580000   -0.134600    1.272900
     19          1           0        3.331100   -1.387000    1.312800
     20          1           0        1.072700    2.362100   -0.002000
     21          1           0        1.342900   -1.947600    0.002300
     22          1           0       -1.369900    2.208300   -0.002300
     23          1           0       -1.072600   -2.112300    0.001600
     24          1           0       -4.274800   -1.391400    0.000300
 ---------------------------------------------------------------------
                    Distance matrix (angstroms):
                    1          2          3          4          5
     1  O    0.000000
     2  O    2.272958   0.000000
     3  C    6.381069   6.529792   0.000000
     4  C    4.927556   5.061460   1.491461   0.000000
     5  C    6.984643   7.344548   1.540451   2.520633   0.000000
     6  C    6.986236   7.344537   1.540430   2.520703   2.520903
     7  C    4.756224   4.267848   2.499749   1.394850   3.577347
     8  C    4.067055   4.803663   2.500362   1.394779   3.098716
     9  C    3.636256   2.875259   3.781709   2.416043   4.742468
    10  C    2.672296   3.623223   3.782097   2.415970   4.392620
    11  C    2.341400   2.392493   4.281200   2.789740   5.073368
    12  C    1.361327   1.235307   5.735570   4.244110   6.482417
    13  H    6.998376   6.806361   1.098685   2.118946   2.130218
    14  H    6.753750   7.451017   2.198797   2.848208   1.095254
    15  H    8.066584   8.378067   2.180628   3.462527   1.095476
    16  H    6.888701   7.093884   2.184512   2.753505   1.095735
    17  H    6.891710   7.094065   2.184419   2.753702   3.482535
    18  H    8.067904   8.378078   2.180627   3.462574   2.760291
    19  H    6.755260   7.450830   2.198867   2.848214   2.794276
    20  H    5.725481   4.927309   2.722843   2.164724   3.820933
    21  H    4.677782   5.738797   2.728191   2.167107   2.986198
    22  H    4.036630   2.611981   4.641441   3.393321   5.622370
    23  H    2.353087   3.960734   4.627775   3.383446   5.071915
    24  H    0.980969   2.386532   7.343438   5.879020   7.947494
                    6          7          8          9         10
     6  C    0.000000
     7  C    3.577279   0.000000
     8  C    3.099834   2.415889   0.000000
     9  C    4.742968   1.394917   2.789756   0.000000
    10  C    4.394061   2.789693   1.394923   2.415989   0.000000
    11  C    5.074533   2.415970   2.415999   1.394869   1.394850
    12  C    6.483082   3.746892   3.746631   2.467894   2.467454
    13  H    2.130220   2.548706   3.394688   3.941680   4.534856
    14  H    2.794102   4.099953   2.907093   5.084008   4.181862
    15  H    2.760393   4.439257   4.123811   5.695891   5.453578
    16  H    3.482631   3.512193   3.379751   4.575102   4.474166
    17  H    1.095619   3.512158   3.381675   4.576137   4.476802
    18  H    1.095413   4.439286   4.124552   5.696370   5.454661
    19  H    1.095355   4.099822   2.908199   5.084372   4.183264
    20  H    3.820260   1.086774   3.407072   2.144486   3.876358
    21  H    2.987398   3.408501   1.086529   3.876111   2.141568
    22  H    5.622548   2.142796   3.876517   1.086913   3.408435
    23  H    5.073528   3.875350   2.128113   3.416179   1.086360
    24  H    7.948936   5.613374   5.047811   4.401600   3.652948
                   11         12         13         14         15
    11  C    0.000000
    12  C    1.454371   0.000000
    13  H    4.750897   6.178244   0.000000
    14  H    5.117170   6.463985   3.064101   0.000000
    15  H    6.120421   7.544179   2.436048   1.769172   0.000000
    16  H    4.977148   6.317750   2.496288   1.770708   1.771219
    17  H    4.979384   6.319137   2.496152   3.807534   3.765021
    18  H    6.121380   7.544737   2.436212   3.131039   2.546503
    19  H    5.118208   6.464496   3.064207   2.621203   3.131489
    20  H    3.394309   4.610782   2.304555   4.570602   4.490413
    21  H    3.392341   4.607552   3.784810   2.444951   3.921030
    22  H    2.166682   2.704354   4.601169   6.062541   6.520225
    23  H    2.179665   2.725837   5.480535   4.650015   6.120827
    24  H    3.207998   1.951691   7.928331   7.716979   9.032421
                   16         17         18         19         20
    16  H    0.000000
    17  H    4.334906   0.000000
    18  H    3.765133   1.771070   0.000000
    19  H    3.807722   1.770681   1.769138   0.000000
    20  H    3.695271   3.694089   4.489993   4.569991   0.000000
    21  H    3.471267   3.473189   3.921761   2.446349   4.318164
    22  H    5.360974   5.361423   6.520477   6.062596   2.447437
    23  H    5.192497   5.195425   6.122041   4.651653   4.962115
    24  H    7.813511   7.816270   9.033634   7.718315   6.533339
                   21         22         23         24
    21  H    0.000000
    22  H    4.962944   0.000000
    23  H    2.421109   4.330818   0.000000
    24  H    5.645167   4.625612   3.282344   0.000000
 Stoichiometry    C10H12O2
 Framework group  C1[X(C10H12O2)]
 Deg. of freedom    66
 Full point group                 C1      NOp   1
 Largest Abelian subgroup         C1      NOp   1
 Largest concise Abelian subgroup C1      NOp   1
                         Standard orientation:                         
 ---------------------------------------------------------------------
 Center     Atomic      Atomic             Coordinates (Angstroms)
 Number     Number       Type             X           Y           Z
 ---------------------------------------------------------------------
      1          8           0       -3.380196   -1.288659   -0.000040
      2          8           0       -3.709955    0.960252    0.000960
      3          6           0        2.790103    0.337825   -0.000440
      4          6           0        1.301288    0.249039    0.000160
      5          6           0        3.416780   -0.289409   -1.260140
      6          6           0        3.417698   -0.285413    1.260760
      7          6           0        0.533734    1.413714   -0.001240
      8          6           0        0.676456   -0.997955    0.001060
      9          6           0       -0.858752    1.331394   -0.001640
     10          6           0       -0.716030   -1.080374    0.000560
     11          6           0       -1.483584    0.084300   -0.000840
     12          6           0       -2.935388   -0.002052    0.000460
     13          1           0        3.082384    1.396917   -0.002240
     14          1           0        3.245104   -1.370045   -1.308440
     15          1           0        4.499443   -0.122891   -1.273640
     16          1           0        2.996495    0.158092   -2.167740
     17          1           0        2.998326    0.165084    2.167160
     18          1           0        4.500359   -0.119195    1.272860
     19          1           0        3.245823   -1.365948    1.312760
     20          1           0        1.004357    2.393301   -0.002040
     21          1           0        1.255114   -1.917574    0.002260
     22          1           0       -1.438912    2.250520   -0.002340
     23          1           0       -1.161104   -2.071377    0.001560
     24          1           0       -4.360020   -1.336039    0.000260
 ---------------------------------------------------------------------
 Rotational constants (GHZ):           2.5583964           0.4522281           0.4189112
 Standard basis: 6-311++G(d,p) (5D, 7F)
 There are   360 symmetry adapted cartesian basis functions of A   symmetry.
 There are   348 symmetry adapted basis functions of A   symmetry.
   348 basis functions,   540 primitive gaussians,   360 cartesian basis functions
    44 alpha electrons       44 beta electrons
       nuclear repulsion energy       665.6032025125 Hartrees.
 NAtoms=   24 NActive=   24 NUniq=   24 SFac= 1.00D+00 NAtFMM=   60 NAOKFM=F Big=F
 Integral buffers will be    131072 words long.
 Raffenetti 2 integral format.
 Two-electron integral symmetry is turned on.
 R6APFD:  NTU= -4 IXU= 1 FactS= 1.050
 Nuclear repulsion after empirical dispersion term =      665.5863297252 Hartrees.
 One-electron integrals computed using PRISM.
 NBasis=   348 RedAO= T EigKep=  1.75D-06  NBF=   348
 NBsUse=   346 1.00D-06 EigRej=  7.22D-07 NBFU=   346
 ExpMin= 3.60D-02 ExpMax= 8.59D+03 ExpMxC= 1.30D+03 IAcc=3 IRadAn=         5 AccDes= 0.00D+00
 Harris functional with IExCor= 1009 and IRadAn=       5 diagonalized for initial guess.
 HarFok:  IExCor= 1009 AccDes= 0.00D+00 IRadAn=         5 IDoV= 1 UseB2=F ITyADJ=14
 ICtDFT=  3500011 ScaDFX=  1.000000  1.000000  1.000000  1.000000
 FoFCou: FMM=F IPFlag=           0 FMFlag=      100000 FMFlg1=           0
         NFxFlg=           0 DoJE=T BraDBF=F KetDBF=T FulRan=T
         wScrn=  0.000000 ICntrl=       500 IOpCl=  0 I1Cent=   200000004 NGrid=           0
         NMat0=    1 NMatS0=      1 NMatT0=    0 NMatD0=    1 NMtDS0=    0 NMtDT0=    0
 Petite list used in FoFCou.
 Requested convergence on RMS density matrix=1.00D-08 within  32 cycles.
 Requested convergence on MAX density matrix=1.00D-06.
 Requested convergence on             energy=1.00D-06.
 No special actions if energy rises.
 SCF Done:  E(RM08HX) =  -538.766681594     A.U. after   16 cycles
            NFock= 16  Conv=0.25D-08     -V/T= 2.0048
 QCSCF skips out because SCF is already converged.

 **********************************************************************

            Population analysis using the SCF Density.

 **********************************************************************

 Orbital symmetries:
       Occupied  (A) (A) (A) (A) (A) (A) (A) (A) (A) (A) (A) (A)
                 (A) (A) (A) (A) (A) (A) (A) (A) (A) (A) (A) (A)
                 (A) (A) (A) (A) (A) (A) (A) (A) (A) (A) (A) (A)
                 (A) (A) (A) (A) (A) (A) (A) (A)
       Virtual   (A) (A) (A) (A) (A) (A) (A) (A) (A) (A) (A) (A)
                 (A) (A) (A) (A) (A) (A) (A) (A) (A) (A) (A) (A)
                 (A) (A) (A) (A) (A) (A) (A) (A) (A) (A) (A) (A)
                 (A) (A) (A) (A) (A) (A) (A) (A) (A) (A) (A) (A)
                 (A) (A) (A) (A) (A) (A) (A) (A) (A) (A) (A) (A)
                 (A) (A) (A) (A) (A) (A) (A) (A) (A) (A) (A) (A)
                 (A) (A) (A) (A) (A) (A) (A) (A) (A) (A) (A) (A)
                 (A) (A) (A) (A) (A) (A) (A) (A) (A) (A) (A) (A)
                 (A) (A) (A) (A) (A) (A) (A) (A) (A) (A) (A) (A)
                 (A) (A) (A) (A) (A) (A) (A) (A) (A) (A) (A) (A)
                 (A) (A) (A) (A) (A) (A) (A) (A) (A) (A) (A) (A)
                 (A) (A) (A) (A) (A) (A) (A) (A) (A) (A) (A) (A)
                 (A) (A) (A) (A) (A) (A) (A) (A) (A) (A) (A) (A)
                 (A) (A) (A) (A) (A) (A) (A) (A) (A) (A) (A) (A)
                 (A) (A) (A) (A) (A) (A) (A) (A) (A) (A) (A) (A)
                 (A) (A) (A) (A) (A) (A) (A) (A) (A) (A) (A) (A)
                 (A) (A) (A) (A) (A) (A) (A) (A) (A) (A) (A) (A)
                 (A) (A) (A) (A) (A) (A) (A) (A) (A) (A) (A) (A)
                 (A) (A) (A) (A) (A) (A) (A) (A) (A) (A) (A) (A)
                 (A) (A) (A) (A) (A) (A) (A) (A) (A) (A) (A) (A)
                 (A) (A) (A) (A) (A) (A) (A) (A) (A) (A) (A) (A)
                 (A) (A) (A) (A) (A) (A) (A) (A) (A) (A) (A) (A)
                 (A) (A) (A) (A) (A) (A) (A) (A) (A) (A) (A) (A)
                 (A) (A) (A) (A) (A) (A) (A) (A) (A) (A) (A) (A)
                 (A) (A) (A) (A) (A) (A) (A) (A) (A) (A) (A) (A)
                 (A) (A)
 The electronic state is 1-A.
 Alpha  occ. eigenvalues --  -19.66123 -19.60184 -10.67666 -10.55730 -10.55675
 Alpha  occ. eigenvalues --  -10.55242 -10.55232 -10.54813 -10.54584 -10.54559
 Alpha  occ. eigenvalues --  -10.52552 -10.52551  -1.22831  -1.12802  -0.99396
 Alpha  occ. eigenvalues --   -0.93012  -0.86764  -0.86182  -0.78794  -0.77074
 Alpha  occ. eigenvalues --   -0.71431  -0.70130  -0.65847  -0.61868  -0.58608
 Alpha  occ. eigenvalues --   -0.55948  -0.54286  -0.53630  -0.52786  -0.51436
 Alpha  occ. eigenvalues --   -0.49928  -0.49616  -0.48850  -0.46558  -0.46262
 Alpha  occ. eigenvalues --   -0.44312  -0.42947  -0.41149  -0.40412  -0.39645
 Alpha  occ. eigenvalues --   -0.39638  -0.36195  -0.32470  -0.31604
 Alpha virt. eigenvalues --   -0.03613  -0.03193  -0.02300  -0.01690  -0.00930
 Alpha virt. eigenvalues --   -0.00630  -0.00312   0.00772   0.01209   0.01938
 Alpha virt. eigenvalues --    0.02292   0.02637   0.03382   0.03877   0.04581
 Alpha virt. eigenvalues --    0.05533   0.06295   0.06305   0.06812   0.07303
 Alpha virt. eigenvalues --    0.08049   0.08552   0.09341   0.09600   0.10410
 Alpha virt. eigenvalues --    0.10781   0.11221   0.11951   0.12007   0.12111
 Alpha virt. eigenvalues --    0.12464   0.12729   0.13247   0.13445   0.13543
 Alpha virt. eigenvalues --    0.14025   0.14428   0.15716   0.15902   0.16179
 Alpha virt. eigenvalues --    0.16356   0.17128   0.18056   0.18191   0.18840
 Alpha virt. eigenvalues --    0.19037   0.19631   0.19823   0.20774   0.21086
 Alpha virt. eigenvalues --    0.21485   0.22724   0.23664   0.24303   0.24493
 Alpha virt. eigenvalues --    0.24840   0.25029   0.25756   0.27024   0.27161
 Alpha virt. eigenvalues --    0.28163   0.28504   0.29016   0.29419   0.29927
 Alpha virt. eigenvalues --    0.30522   0.30744   0.31343   0.31664   0.32348
 Alpha virt. eigenvalues --    0.33047   0.34097   0.34625   0.35403   0.36419
 Alpha virt. eigenvalues --    0.38312   0.39823   0.40216   0.40971   0.41546
 Alpha virt. eigenvalues --    0.43921   0.44652   0.45873   0.46895   0.47500
 Alpha virt. eigenvalues --    0.50688   0.52891   0.53565   0.53947   0.55954
 Alpha virt. eigenvalues --    0.56649   0.56742   0.57672   0.59371   0.59935
 Alpha virt. eigenvalues --    0.60548   0.61390   0.62119   0.63332   0.65158
 Alpha virt. eigenvalues --    0.65792   0.66326   0.67690   0.67834   0.69375
 Alpha virt. eigenvalues --    0.69784   0.70025   0.70755   0.71394   0.72770
 Alpha virt. eigenvalues --    0.73063   0.74059   0.75323   0.76372   0.77000
 Alpha virt. eigenvalues --    0.77663   0.78220   0.79339   0.80128   0.81624
 Alpha virt. eigenvalues --    0.83563   0.86659   0.88005   0.90342   0.90587
 Alpha virt. eigenvalues --    0.92141   0.93903   0.94498   0.95131   0.95806
 Alpha virt. eigenvalues --    0.97641   1.00181   1.00274   1.01658   1.06870
 Alpha virt. eigenvalues --    1.07052   1.08591   1.09001   1.10738   1.10913
 Alpha virt. eigenvalues --    1.12041   1.12831   1.16768   1.18858   1.19768
 Alpha virt. eigenvalues --    1.20458   1.22550   1.23515   1.25899   1.28421
 Alpha virt. eigenvalues --    1.31237   1.31415   1.32310   1.34804   1.43163
 Alpha virt. eigenvalues --    1.46903   1.48106   1.49331   1.50733   1.51385
 Alpha virt. eigenvalues --    1.51706   1.52186   1.55361   1.55615   1.57377
 Alpha virt. eigenvalues --    1.57465   1.59123   1.60121   1.60829   1.61087
 Alpha virt. eigenvalues --    1.61606   1.63923   1.66019   1.67077   1.67290
 Alpha virt. eigenvalues --    1.70595   1.70652   1.71352   1.75704   1.75888
 Alpha virt. eigenvalues --    1.77120   1.77641   1.79016   1.80817   1.81665
 Alpha virt. eigenvalues --    1.82509   1.86929   1.90043   1.90409   1.93232
 Alpha virt. eigenvalues --    1.95353   1.95471   1.96779   1.96924   1.97788
 Alpha virt. eigenvalues --    2.02312   2.03099   2.04379   2.04668   2.09031
 Alpha virt. eigenvalues --    2.10042   2.11241   2.12032   2.15896   2.16744
 Alpha virt. eigenvalues --    2.18443   2.21062   2.25350   2.27725   2.28910
 Alpha virt. eigenvalues --    2.32623   2.36034   2.41597   2.44439   2.44811
 Alpha virt. eigenvalues --    2.46834   2.47685   2.49745   2.53335   2.54765
 Alpha virt. eigenvalues --    2.54902   2.56234   2.58446   2.59216   2.59677
 Alpha virt. eigenvalues --    2.62201   2.63223   2.67971   2.68454   2.70206
 Alpha virt. eigenvalues --    2.71214   2.71854   2.72444   2.72470   2.74303
 Alpha virt. eigenvalues --    2.74870   2.76522   2.78677   2.83753   2.85583
 Alpha virt. eigenvalues --    2.88131   2.88368   2.88818   2.91484   2.93880
 Alpha virt. eigenvalues --    2.96704   2.97991   2.99643   3.01046   3.02026
 Alpha virt. eigenvalues --    3.04015   3.11066   3.11894   3.14674   3.19440
 Alpha virt. eigenvalues --    3.24756   3.25371   3.27192   3.33214   3.38565
 Alpha virt. eigenvalues --    3.42614   3.46778   3.49176   3.50947   3.53900
 Alpha virt. eigenvalues --    3.61052   3.65678   3.72190   3.74267   3.79719
 Alpha virt. eigenvalues --    3.80937   3.82141   3.85822   3.88026   3.92130
 Alpha virt. eigenvalues --    4.03512   4.14258   4.17030   4.22957   4.23324
 Alpha virt. eigenvalues --    4.34856   4.38302   4.50140   4.92761   5.07730
 Alpha virt. eigenvalues --    5.14499   5.31785   5.51815   5.73183   5.94863
 Alpha virt. eigenvalues --   23.65978  23.87990  23.92156  24.01210  24.01750
 Alpha virt. eigenvalues --   24.02264  24.05545  24.12525  24.15159  24.23168
 Alpha virt. eigenvalues --   49.88645  50.03990
          Condensed to atoms (all electrons):
               1          2          3          4          5          6
     1  O    8.095271  -0.094380  -0.001479   0.020698   0.000058   0.000050
     2  O   -0.094380   8.032157  -0.000468   0.030385   0.000010   0.000013
     3  C   -0.001479  -0.000468  19.254115 -10.647707  -0.647306  -0.658484
     4  C    0.020698   0.030385 -10.647707  19.926542   0.368441   0.380008
     5  C    0.000058   0.000010  -0.647306   0.368441   6.152008  -0.280844
     6  C    0.000050   0.000013  -0.658484   0.380008  -0.280844   6.152248
     7  C    0.045613   0.003667   0.581013  -0.894528   0.064269   0.065078
     8  C    0.015607   0.072883  -1.972211   2.570501   0.063147   0.062091
     9  C    0.089101  -0.037044   0.732444  -2.564080   0.057376   0.057793
    10  C   -0.064450   0.128275   0.185715  -4.157214   0.040073   0.038205
    11  C   -0.449754  -0.115690  -1.293834   1.402841   0.011340   0.012980
    12  C    0.358299   0.275451  -0.534567  -0.197029  -0.009725  -0.009289
    13  H    0.000098  -0.000038   0.844779  -0.384508  -0.084263  -0.084148
    14  H    0.000006   0.000069   0.236354  -0.171305   0.345754  -0.031543
    15  H    0.000005  -0.000004  -0.139716   0.054641   0.437975  -0.014195
    16  H   -0.000010  -0.000003  -0.035527   0.016519   0.376847   0.028124
    17  H   -0.000009  -0.000004  -0.036748   0.017730   0.028171   0.376735
    18  H    0.000005  -0.000004  -0.139215   0.054195  -0.014204   0.437741
    19  H    0.000004   0.000069   0.238855  -0.173789  -0.031701   0.345868
    20  H   -0.000024  -0.000314  -0.030118  -0.077100   0.001902   0.001867
    21  H   -0.001006  -0.001434   0.035220  -0.252606   0.003966   0.003823
    22  H   -0.002474  -0.004015   0.013572  -0.001295   0.000607   0.000588
    23  H   -0.021702   0.000836   0.022957  -0.039964  -0.002132  -0.002141
    24  H    0.210099  -0.030067  -0.001126  -0.014455   0.000033   0.000031
               7          8          9         10         11         12
     1  O    0.045613   0.015607   0.089101  -0.064450  -0.449754   0.358299
     2  O    0.003667   0.072883  -0.037044   0.128275  -0.115690   0.275451
     3  C    0.581013  -1.972211   0.732444   0.185715  -1.293834  -0.534567
     4  C   -0.894528   2.570501  -2.564080  -4.157214   1.402841  -0.197029
     5  C    0.064269   0.063147   0.057376   0.040073   0.011340  -0.009725
     6  C    0.065078   0.062091   0.057793   0.038205   0.012980  -0.009289
     7  C    9.355950  -1.218105   0.785187  -0.894064  -2.873860   1.208455
     8  C   -1.218105  10.526089  -1.150015  -0.359267  -0.615893  -1.731559
     9  C    0.785187  -1.150015  11.112624  -2.355379  -0.499141  -0.199839
    10  C   -0.894064  -0.359267  -2.355379  13.922625   1.521821  -1.821716
    11  C   -2.873860  -0.615893  -0.499141   1.521821  14.091878  -5.325869
    12  C    1.208455  -1.731559  -0.199839  -1.821716  -5.325869  13.430100
    13  H   -0.024627   0.025374  -0.078801   0.041995  -0.013451   0.002399
    14  H    0.009173  -0.039820   0.008995  -0.015308  -0.002385  -0.003185
    15  H    0.013967   0.004610   0.001478   0.007115  -0.004420  -0.000907
    16  H    0.002850  -0.004967   0.002644  -0.014237   0.006740   0.002637
    17  H    0.002629  -0.004861   0.002660  -0.014293   0.006892   0.002685
    18  H    0.013983   0.004556   0.001489   0.007219  -0.004521  -0.000926
    19  H    0.009253  -0.039653   0.008982  -0.015035  -0.002668  -0.003316
    20  H    0.398169   0.024768  -0.015003   0.034039  -0.018820  -0.004365
    21  H    0.021005   0.388942   0.002487   0.161938  -0.041416   0.006344
    22  H   -0.086534   0.015526   0.395725   0.028057   0.069138  -0.136364
    23  H    0.005163  -0.096698  -0.028191   0.499068   0.018993  -0.085801
    24  H    0.028467  -0.076417   0.070146  -0.127165  -0.155839   0.286583
              13         14         15         16         17         18
     1  O    0.000098   0.000006   0.000005  -0.000010  -0.000009   0.000005
     2  O   -0.000038   0.000069  -0.000004  -0.000003  -0.000004  -0.000004
     3  C    0.844779   0.236354  -0.139716  -0.035527  -0.036748  -0.139215
     4  C   -0.384508  -0.171305   0.054641   0.016519   0.017730   0.054195
     5  C   -0.084263   0.345754   0.437975   0.376847   0.028171  -0.014204
     6  C   -0.084148  -0.031543  -0.014195   0.028124   0.376735   0.437741
     7  C   -0.024627   0.009173   0.013967   0.002850   0.002629   0.013983
     8  C    0.025374  -0.039820   0.004610  -0.004967  -0.004861   0.004556
     9  C   -0.078801   0.008995   0.001478   0.002644   0.002660   0.001489
    10  C    0.041995  -0.015308   0.007115  -0.014237  -0.014293   0.007219
    11  C   -0.013451  -0.002385  -0.004420   0.006740   0.006892  -0.004521
    12  C    0.002399  -0.003185  -0.000907   0.002637   0.002685  -0.000926
    13  H    0.476202   0.008508  -0.011923  -0.003776  -0.003746  -0.011877
    14  H    0.008508   0.530864  -0.036967  -0.043653  -0.001828   0.009057
    15  H   -0.011923  -0.036967   0.495524  -0.021961   0.001190  -0.018059
    16  H   -0.003776  -0.043653  -0.021961   0.494071  -0.002342   0.001197
    17  H   -0.003746  -0.001828   0.001190  -0.002342   0.494039  -0.021996
    18  H   -0.011877   0.009057  -0.018059   0.001197  -0.021996   0.495357
    19  H    0.008465  -0.001620   0.009105  -0.001828  -0.043623  -0.036856
    20  H    0.000492  -0.000446   0.001232  -0.001977  -0.001987   0.001241
    21  H   -0.000565  -0.011460   0.000272   0.003014   0.002999   0.000281
    22  H    0.001327   0.000243  -0.000000  -0.000298  -0.000297  -0.000000
    23  H    0.001589   0.001663   0.000167  -0.000875  -0.000874   0.000173
    24  H   -0.000013  -0.000036   0.000001   0.000014   0.000014   0.000000
              19         20         21         22         23         24
     1  O    0.000004  -0.000024  -0.001006  -0.002474  -0.021702   0.210099
     2  O    0.000069  -0.000314  -0.001434  -0.004015   0.000836  -0.030067
     3  C    0.238855  -0.030118   0.035220   0.013572   0.022957  -0.001126
     4  C   -0.173789  -0.077100  -0.252606  -0.001295  -0.039964  -0.014455
     5  C   -0.031701   0.001902   0.003966   0.000607  -0.002132   0.000033
     6  C    0.345868   0.001867   0.003823   0.000588  -0.002141   0.000031
     7  C    0.009253   0.398169   0.021005  -0.086534   0.005163   0.028467
     8  C   -0.039653   0.024768   0.388942   0.015526  -0.096698  -0.076417
     9  C    0.008982  -0.015003   0.002487   0.395725  -0.028191   0.070146
    10  C   -0.015035   0.034039   0.161938   0.028057   0.499068  -0.127165
    11  C   -0.002668  -0.018820  -0.041416   0.069138   0.018993  -0.155839
    12  C   -0.003316  -0.004365   0.006344  -0.136364  -0.085801   0.286583
    13  H    0.008465   0.000492  -0.000565   0.001327   0.001589  -0.000013
    14  H   -0.001620  -0.000446  -0.011460   0.000243   0.001663  -0.000036
    15  H    0.009105   0.001232   0.000272  -0.000000   0.000167   0.000001
    16  H   -0.001828  -0.001977   0.003014  -0.000298  -0.000875   0.000014
    17  H   -0.043623  -0.001987   0.002999  -0.000297  -0.000874   0.000014
    18  H   -0.036856   0.001241   0.000281  -0.000000   0.000173   0.000000
    19  H    0.530644  -0.000449  -0.011413   0.000244   0.001657  -0.000037
    20  H   -0.000449   0.429990   0.001190  -0.007532   0.001242   0.000057
    21  H   -0.011413   0.001190   0.491641   0.001443  -0.014169   0.000131
    22  H    0.000244  -0.007532   0.001443   0.393417  -0.000393  -0.000858
    23  H    0.001657   0.001242  -0.014169  -0.000393   0.411710   0.003073
    24  H   -0.000037   0.000057   0.000131  -0.000858   0.003073   0.469602
 Mulliken charges:
               1
     1  O   -0.199628
     2  O   -0.260348
     3  C   -0.006519
     4  C    0.733082
     5  C   -0.881801
     6  C   -0.882601
     7  C   -0.622171
     8  C   -0.464628
     9  C   -0.401635
    10  C   -0.778016
    11  C    0.274935
    12  C    0.491504
    13  H    0.290510
    14  H    0.208871
    15  H    0.220869
    16  H    0.196798
    17  H    0.196868
    18  H    0.221166
    19  H    0.208841
    20  H    0.261950
    21  H    0.209371
    22  H    0.320172
    23  H    0.324649
    24  H    0.337762
 Sum of Mulliken charges =  -0.00000
 Mulliken charges with hydrogens summed into heavy atoms:
               1
     1  O    0.138134
     2  O   -0.260348
     3  C    0.283991
     4  C    0.733082
     5  C   -0.255264
     6  C   -0.255726
     7  C   -0.360222
     8  C   -0.255257
     9  C   -0.081462
    10  C   -0.453368
    11  C    0.274935
    12  C    0.491504
 Electronic spatial extent (au):  <R**2>=           2692.7022
 Charge=              0.0000 electrons
 Dipole moment (field-independent basis, Debye):
    X=              2.4730    Y=             -1.4457    Z=             -0.0006  Tot=              2.8646
 Quadrupole moment (field-independent basis, Debye-Ang):
   XX=            -70.3823   YY=            -69.4075   ZZ=            -75.3621
   XY=              9.4934   XZ=              0.0026   YZ=             -0.0124
 Traceless Quadrupole moment (field-independent basis, Debye-Ang):
   XX=              1.3350   YY=              2.3098   ZZ=             -3.6448
   XY=              9.4934   XZ=              0.0026   YZ=             -0.0124
 Octapole moment (field-independent basis, Debye-Ang**2):
  XXX=            -20.6606  YYY=             -1.0868  ZZZ=              0.0044  XYY=             -2.1900
  XXY=            -44.2733  XXZ=             -0.0187  XZZ=             -9.1693  YZZ=             -0.1979
  YYZ=              0.0016  XYZ=              0.0136
 Hexadecapole moment (field-independent basis, Debye-Ang**3):
 XXXX=          -2679.5854 YYYY=           -438.0281 ZZZZ=           -259.2783 XXXY=            248.2487
 XXXZ=              0.0186 YYYX=             17.0822 YYYZ=             -0.0720 ZZZX=             -0.0266
 ZZZY=              0.0166 XXYY=           -558.0363 XXZZ=           -525.6427 YYZZ=           -130.4650
 XXYZ=             -0.0739 YYXZ=              0.0151 ZZXY=              5.0403
 N-N= 6.655863297252D+02 E-N=-2.585805770693D+03  KE= 5.361803664860D+02
 R6APFD:  NTU= -4 IXU= 1 FactS= 1.050
 Calling FoFJK, ICntrl=      2127 FMM=F ISym2X=0 I1Cent= 0 IOpClX= 0 NMat=1 NMatS=1 NMatT=0.
 ***** Axes restored to original set *****
 -------------------------------------------------------------------
 Center     Atomic                   Forces (Hartrees/Bohr)
 Number     Number              X              Y              Z
 -------------------------------------------------------------------
      1        8          -0.011002494    0.004763523    0.000041910
      2        8           0.030299978   -0.037118838    0.000026074
      3        6           0.021794728   -0.001227201    0.000019574
      4        6           0.001520236    0.000743775   -0.000075841
      5        6          -0.003070382    0.002451716   -0.000524880
      6        6          -0.003084000    0.002345271    0.000477207
      7        6          -0.012510311   -0.005671220   -0.000005777
      8        6          -0.013042429    0.003546059    0.000002198
      9        6           0.007223276    0.003466665    0.000016787
     10        6           0.015997364   -0.004210400    0.000015852
     11        6           0.012787950   -0.002335447    0.000117779
     12        6          -0.056197205    0.025956591   -0.000155194
     13        1          -0.002741374    0.002627691    0.000000349
     14        1          -0.001254061   -0.001812241    0.001130787
     15        1           0.001069410   -0.000180170    0.000853084
     16        1          -0.000588435   -0.000300857   -0.000836452
     17        1          -0.000617782   -0.000268903    0.000899166
     18        1           0.001109324   -0.000171153   -0.000858131
     19        1          -0.001255938   -0.001757507   -0.001131949
     20        1           0.002845454    0.000204029   -0.000000008
     21        1           0.003254231   -0.000186190   -0.000004110
     22        1          -0.005123742   -0.002004068   -0.000004811
     23        1          -0.005602372    0.002243566   -0.000009460
     24        1           0.018188577    0.008895308    0.000005849
 -------------------------------------------------------------------
 Cartesian Forces:  Max     0.056197205 RMS     0.010664239

 GradGradGradGradGradGradGradGradGradGradGradGradGradGradGradGradGradGrad
 Berny optimization.
 FormGI is forming the generalized inverse of G from B-inverse, IUseBI=4.
 Internal  Forces:  Max     0.047915357 RMS     0.005955305
 Search for a local minimum.
 Step number   1 out of a maximum of  128
 All quantities printed in internal units (Hartrees-Bohrs-Radians)
 Mixed Optimization -- RFO/linear search
 Second derivative matrix not updated -- first step.
 ITU=  0
     Eigenvalues ---    0.00231   0.00231   0.00879   0.01370   0.01633
     Eigenvalues ---    0.01645   0.01919   0.02156   0.02156   0.02156
     Eigenvalues ---    0.02156   0.02157   0.02157   0.02157   0.02203
     Eigenvalues ---    0.03700   0.05032   0.05340   0.05340   0.05491
     Eigenvalues ---    0.05491   0.05589   0.16000   0.16000   0.16000
     Eigenvalues ---    0.16000   0.16000   0.16000   0.16000   0.16000
     Eigenvalues ---    0.16000   0.16000   0.16000   0.16801   0.18651
     Eigenvalues ---    0.22000   0.22982   0.24000   0.25000   0.25000
     Eigenvalues ---    0.25000   0.25000   0.28479   0.28481   0.33290
     Eigenvalues ---    0.33828   0.34158   0.34171   0.34187   0.34195
     Eigenvalues ---    0.34201   0.34212   0.35172   0.35188   0.35217
     Eigenvalues ---    0.35237   0.37678   0.42131   0.42513   0.46473
     Eigenvalues ---    0.46480   0.46485   0.46491   0.51197   0.52680
     Eigenvalues ---    0.88911
 RFO step:  Lambda=-9.37365211D-03 EMin= 2.30856557D-03
 Linear search not attempted -- first point.
 Iteration  1 RMS(Cart)=  0.04117204 RMS(Int)=  0.00151250
 Iteration  2 RMS(Cart)=  0.00175211 RMS(Int)=  0.00009797
 Iteration  3 RMS(Cart)=  0.00000224 RMS(Int)=  0.00009796
 Iteration  4 RMS(Cart)=  0.00000000 RMS(Int)=  0.00009796
 Variable       Old X    -DE/DX   Delta X   Delta X   Delta X     New X
                                 (Linear)    (Quad)   (Total)
    R1        2.57254  -0.01525   0.00000  -0.02844  -0.02844   2.54410
    R2        1.85376  -0.01863   0.00000  -0.03574  -0.03574   1.81802
    R3        2.33439  -0.04792   0.00000  -0.05333  -0.05333   2.28106
    R4        2.81845   0.01145   0.00000   0.03345   0.03345   2.85190
    R5        2.91103  -0.00214   0.00000  -0.00729  -0.00729   2.90374
    R6        2.91099  -0.00214   0.00000  -0.00726  -0.00726   2.90373
    R7        2.07621   0.00182   0.00000   0.00523   0.00523   2.08144
    R8        2.63588   0.00152   0.00000   0.00312   0.00314   2.63902
    R9        2.63575   0.00274   0.00000   0.00590   0.00592   2.64167
   R10        2.06973   0.00193   0.00000   0.00549   0.00549   2.07522
   R11        2.07015   0.00102   0.00000   0.00290   0.00290   2.07305
   R12        2.07064   0.00080   0.00000   0.00227   0.00227   2.07291
   R13        2.07042   0.00087   0.00000   0.00248   0.00248   2.07290
   R14        2.07003   0.00106   0.00000   0.00302   0.00302   2.07305
   R15        2.06992   0.00187   0.00000   0.00533   0.00533   2.07525
   R16        2.63601  -0.00330   0.00000  -0.00717  -0.00716   2.62885
   R17        2.05371   0.00140   0.00000   0.00389   0.00389   2.05759
   R18        2.63602  -0.00324   0.00000  -0.00662  -0.00662   2.62940
   R19        2.05324   0.00190   0.00000   0.00526   0.00526   2.05851
   R20        2.63592  -0.00177   0.00000  -0.00386  -0.00388   2.63204
   R21        2.05397   0.00106   0.00000   0.00295   0.00295   2.05692
   R22        2.63588   0.00275   0.00000   0.00589   0.00587   2.64176
   R23        2.05292   0.00022   0.00000   0.00061   0.00061   2.05354
   R24        2.74836   0.01851   0.00000   0.04794   0.04794   2.79631
    A1        1.95197  -0.01469   0.00000  -0.08671  -0.08671   1.86526
    A2        1.96295  -0.00182   0.00000  -0.02188  -0.02201   1.94094
    A3        1.96306  -0.00184   0.00000  -0.02196  -0.02209   1.94097
    A4        1.89963  -0.00002   0.00000  -0.00660  -0.00623   1.89340
    A5        1.91669   0.00198   0.00000   0.00577   0.00509   1.92178
    A6        1.85765   0.00099   0.00000   0.02492   0.02462   1.88228
    A7        1.85768   0.00100   0.00000   0.02495   0.02465   1.88233
    A8        2.09393   0.00439   0.00000   0.01718   0.01716   2.11109
    A9        2.09486   0.00143   0.00000   0.00575   0.00573   2.10059
   A10        2.09439  -0.00582   0.00000  -0.02292  -0.02289   2.07151
   A11        1.95415  -0.00243   0.00000  -0.01754  -0.01757   1.93659
   A12        1.92862  -0.00042   0.00000  -0.00130  -0.00136   1.92727
   A13        1.93372   0.00109   0.00000   0.00838   0.00837   1.94209
   A14        1.88005   0.00101   0.00000   0.00219   0.00211   1.88216
   A15        1.88210   0.00041   0.00000   0.00016   0.00018   1.88228
   A16        1.88262   0.00046   0.00000   0.00891   0.00887   1.89149
   A17        1.93374   0.00109   0.00000   0.00839   0.00838   1.94212
   A18        1.92871  -0.00043   0.00000  -0.00133  -0.00139   1.92732
   A19        1.95417  -0.00245   0.00000  -0.01762  -0.01764   1.93653
   A20        1.88261   0.00047   0.00000   0.00894   0.00890   1.89151
   A21        1.88208   0.00041   0.00000   0.00016   0.00018   1.88226
   A22        1.87995   0.00102   0.00000   0.00226   0.00218   1.88213
   A23        2.09444   0.00353   0.00000   0.01416   0.01418   2.10863
   A24        2.11103  -0.00432   0.00000  -0.02213  -0.02214   2.08888
   A25        2.07771   0.00078   0.00000   0.00797   0.00796   2.08568
   A26        2.09442   0.00340   0.00000   0.01488   0.01489   2.10931
   A27        2.11545  -0.00442   0.00000  -0.02348  -0.02349   2.09196
   A28        2.07332   0.00102   0.00000   0.00860   0.00860   2.08191
   A29        2.09432   0.00073   0.00000   0.00185   0.00184   2.09616
   A30        2.07480   0.00518   0.00000   0.03180   0.03181   2.10661
   A31        2.11407  -0.00591   0.00000  -0.03366  -0.03365   2.08042
   A32        2.09437  -0.00042   0.00000  -0.00185  -0.00188   2.09250
   A33        2.05203   0.00640   0.00000   0.03748   0.03749   2.08952
   A34        2.13678  -0.00598   0.00000  -0.03562  -0.03561   2.10117
   A35        2.09443  -0.00142   0.00000  -0.00611  -0.00615   2.08827
   A36        2.09468  -0.00875   0.00000  -0.03341  -0.03339   2.06129
   A37        2.09408   0.01017   0.00000   0.03952   0.03954   2.13362
   A38        2.13101  -0.00275   0.00000  -0.01061  -0.01061   2.12040
   A39        1.96306   0.00577   0.00000   0.02224   0.02224   1.98530
   A40        2.18911  -0.00302   0.00000  -0.01163  -0.01163   2.17749
    D1       -0.00023   0.00003   0.00000   0.00108   0.00108   0.00085
    D2       -3.14095  -0.00004   0.00000  -0.00149  -0.00149   3.14074
    D3       -2.05423  -0.00012   0.00000  -0.01350  -0.01332  -2.06755
    D4        1.08649  -0.00010   0.00000  -0.01280  -0.01261   1.07388
    D5        2.05392   0.00011   0.00000   0.01332   0.01314   2.06705
    D6       -1.08855   0.00013   0.00000   0.01403   0.01385  -1.07470
    D7       -0.00020  -0.00000   0.00000  -0.00008  -0.00008  -0.00029
    D8        3.14051   0.00001   0.00000   0.00063   0.00063   3.14114
    D9       -1.13968   0.00059   0.00000   0.01646   0.01644  -1.12323
   D10        3.04777   0.00122   0.00000   0.02625   0.02620   3.07397
   D11        0.96218   0.00021   0.00000   0.01057   0.01051   0.97269
   D12        1.06066  -0.00166   0.00000  -0.02429  -0.02435   1.03631
   D13       -1.03508  -0.00103   0.00000  -0.01450  -0.01459  -1.04967
   D14       -3.12067  -0.00203   0.00000  -0.03018  -0.03028   3.13223
   D15        3.06479   0.00102   0.00000   0.02106   0.02121   3.08601
   D16        0.96905   0.00164   0.00000   0.03086   0.03097   1.00002
   D17       -1.11654   0.00064   0.00000   0.01517   0.01528  -1.10126
   D18       -0.96249  -0.00021   0.00000  -0.01055  -0.01049  -0.97298
   D19       -3.04815  -0.00122   0.00000  -0.02625  -0.02620  -3.07435
   D20        1.13935  -0.00059   0.00000  -0.01648  -0.01646   1.12289
   D21        3.12041   0.00203   0.00000   0.03016   0.03026  -3.13251
   D22        1.03476   0.00102   0.00000   0.01446   0.01455   1.04931
   D23       -1.06092   0.00165   0.00000   0.02423   0.02429  -1.03664
   D24        1.11630  -0.00064   0.00000  -0.01518  -0.01529   1.10101
   D25       -0.96936  -0.00165   0.00000  -0.03088  -0.03100  -1.00035
   D26       -3.06504  -0.00102   0.00000  -0.02111  -0.02126  -3.08630
   D27        3.14080   0.00002   0.00000   0.00065   0.00065   3.14145
   D28       -0.00079   0.00002   0.00000   0.00060   0.00059  -0.00019
   D29        0.00008  -0.00000   0.00000  -0.00007  -0.00007   0.00002
   D30       -3.14150  -0.00000   0.00000  -0.00013  -0.00012   3.14156
   D31       -3.14071  -0.00002   0.00000  -0.00068  -0.00067  -3.14138
   D32        0.00099  -0.00002   0.00000  -0.00067  -0.00067   0.00033
   D33        0.00000   0.00000   0.00000   0.00005   0.00005   0.00005
   D34       -3.14148   0.00000   0.00000   0.00006   0.00005  -3.14143
   D35       -0.00017   0.00000   0.00000   0.00002   0.00002  -0.00015
   D36        3.14118   0.00001   0.00000   0.00031   0.00031   3.14148
   D37        3.14142   0.00000   0.00000   0.00007   0.00007   3.14149
   D38       -0.00042   0.00001   0.00000   0.00036   0.00036  -0.00006
   D39       -0.00000   0.00000   0.00000   0.00002   0.00002   0.00002
   D40       -3.14132  -0.00001   0.00000  -0.00029  -0.00030   3.14157
   D41        3.14148   0.00000   0.00000   0.00001   0.00002   3.14150
   D42        0.00016  -0.00001   0.00000  -0.00030  -0.00031  -0.00014
   D43        0.00017   0.00000   0.00000   0.00005   0.00005   0.00022
   D44        3.14023   0.00003   0.00000   0.00092   0.00090   3.14113
   D45       -3.14117  -0.00001   0.00000  -0.00025  -0.00024  -3.14141
   D46       -0.00111   0.00002   0.00000   0.00062   0.00061  -0.00050
   D47       -0.00008  -0.00000   0.00000  -0.00008  -0.00007  -0.00016
   D48       -3.14015  -0.00002   0.00000  -0.00088  -0.00089  -3.14104
   D49        3.14122   0.00001   0.00000   0.00026   0.00026   3.14149
   D50        0.00116  -0.00001   0.00000  -0.00054  -0.00056   0.00060
   D51        3.14068   0.00003   0.00000   0.00105   0.00105  -3.14146
   D52       -0.00001  -0.00004   0.00000  -0.00163  -0.00163  -0.00164
   D53       -0.00244   0.00005   0.00000   0.00188   0.00188  -0.00057
   D54        3.14006  -0.00002   0.00000  -0.00080  -0.00080   3.13926
         Item               Value     Threshold  Converged?
 Maximum Force            0.047915     0.000450     NO 
 RMS     Force            0.005955     0.000300     NO 
 Maximum Displacement     0.271304     0.001800     NO 
 RMS     Displacement     0.040655     0.001200     NO 
 Predicted change in Energy=-4.875593D-03
 GradGradGradGradGradGradGradGradGradGradGradGradGradGradGradGradGradGrad

                          Input orientation:                          
 ---------------------------------------------------------------------
 Center     Atomic      Atomic             Coordinates (Angstroms)
 Number     Number       Type             X           Y           Z
 ---------------------------------------------------------------------
      1          8           0       -3.365283   -1.321033    0.000934
      2          8           0       -3.608716    0.894362    0.000999
      3          6           0        2.901345    0.340006   -0.000488
      4          6           0        1.396574    0.224998   -0.000378
      5          6           0        3.507632   -0.299732   -1.259168
      6          6           0        3.507592   -0.296340    1.259918
      7          6           0        0.589054    1.364363   -0.001633
      8          6           0        0.784113   -1.031601    0.000794
      9          6           0       -0.797761    1.254936   -0.001701
     10          6           0       -0.602283   -1.149732    0.000658
     11          6           0       -1.399344   -0.001263   -0.000691
     12          6           0       -2.877661   -0.066166   -0.000207
     13          1           0        3.169918    1.408212   -0.001955
     14          1           0        3.317835   -1.381157   -1.280474
     15          1           0        4.593996   -0.148709   -1.279989
     16          1           0        3.080605    0.134574   -2.171471
     17          1           0        3.080768    0.140595    2.171055
     18          1           0        4.594007   -0.145613    1.280229
     19          1           0        3.317475   -1.377660    1.284234
     20          1           0        1.049022    2.351269   -0.002526
     21          1           0        1.395690   -1.933032    0.001939
     22          1           0       -1.425367    2.144252   -0.002578
     23          1           0       -1.058964   -2.135797    0.001557
     24          1           0       -4.324550   -1.247832    0.001940
 ---------------------------------------------------------------------
                    Distance matrix (angstroms):
                    1          2          3          4          5
     1  O    0.000000
     2  O    2.228729   0.000000
     3  C    6.483030   6.533621   0.000000
     4  C    5.006545   5.049849   1.509159   0.000000
     5  C    7.061719   7.325045   1.536595   2.513257   0.000000
     6  C    7.061973   7.324240   1.536587   2.513273   2.519088
     7  C    4.779973   4.224000   2.529030   1.396511   3.587297
     8  C    4.159478   4.796486   2.522693   1.397910   3.088801
     9  C    3.637003   2.833988   3.810575   2.424021   4.747064
    10  C    2.768306   3.635514   3.807194   2.425966   4.381901
    11  C    2.367850   2.384004   4.314207   2.805058   5.074570
    12  C    1.346279   1.207086   5.793261   4.284140   6.512411
    13  H    7.082207   6.798083   1.101453   2.131842   2.147489
    14  H    6.805123   7.402518   2.185001   2.812405   1.098160
    15  H    8.146486   8.367401   2.177391   3.464184   1.097009
    16  H    6.956121   7.074173   2.188036   2.749142   1.096937
    17  H    6.956821   7.072941   2.188049   2.749319   3.484613
    18  H    8.146687   8.366758   2.177423   3.464230   2.766315
    19  H    6.805096   7.401412   2.184961   2.812224   2.768931
    20  H    5.742117   4.880278   2.734279   2.154489   3.827756
    21  H    4.800147   5.747890   2.726482   2.158032   2.952686
    22  H    3.971333   2.515799   4.687829   3.412754   5.646818
    23  H    2.446007   3.960189   4.670508   3.406321   5.080783
    24  H    0.962056   2.258632   7.398296   5.907664   7.989515
                    6          7          8          9         10
     6  C    0.000000
     7  C    3.587104   0.000000
     8  C    3.089231   2.403892   0.000000
     9  C    4.747021   1.391126   2.780393   0.000000
    10  C    4.382361   2.782079   1.391419   2.412601   0.000000
    11  C    5.074862   2.412190   2.414349   1.392817   1.397959
    12  C    6.512477   3.750270   3.786905   2.464000   2.520211
    13  H    2.147521   2.581237   3.412443   3.970639   4.557695
    14  H    2.768831   4.076709   2.860696   5.051967   4.130639
    15  H    2.766441   4.468013   4.115229   5.716229   5.444577
    16  H    3.484600   3.525395   3.369358   4.583103   4.464443
    17  H    1.096932   3.525169   3.370267   4.583188   4.465470
    18  H    1.097009   4.467980   4.115486   5.716297   5.444904
    19  H    1.098175   4.076325   2.860927   5.051669   4.130862
    20  H    3.827292   1.088832   3.393229   2.147686   3.870895
    21  H    2.953202   3.394626   1.089314   3.869675   2.146033
    22  H    5.646634   2.160121   3.868831   1.088473   3.395262
    23  H    5.081389   3.868732   2.148530   3.400780   1.086684
    24  H    7.989387   5.564807   5.113237   4.324593   3.723560
                   11         12         13         14         15
    11  C    0.000000
    12  C    1.479741   0.000000
    13  H    4.781713   6.224709   0.000000
    14  H    5.078752   6.461614   3.071981   0.000000
    15  H    6.130128   7.580917   2.466854   1.774124   0.000000
    16  H    4.980028   6.344731   2.517326   1.774145   1.779140
    17  H    4.980763   6.345077   2.517295   3.779547   3.779319
    18  H    6.130403   7.581006   2.467063   3.116469   2.560220
    19  H    5.078768   6.461387   3.071993   2.564710   3.116900
    20  H    3.395425   4.611164   2.321111   4.551007   4.522017
    21  H    3.397639   4.663338   3.783096   2.375666   3.880246
    22  H    2.145674   2.644826   4.653859   6.046444   6.566748
    23  H    2.161503   2.755183   5.517559   4.622711   6.127547
    24  H    3.179744   1.868108   7.951204   7.750381   9.076997
                   16         17         18         19         20
    16  H    0.000000
    17  H    4.342530   0.000000
    18  H    3.779302   1.779151   0.000000
    19  H    3.779531   1.774142   1.774116   0.000000
    20  H    3.707478   3.706687   4.521814   4.550444   0.000000
    21  H    3.440588   3.441580   3.880479   2.376126   4.298306
    22  H    5.389498   5.389302   6.566730   6.046016   2.483034
    23  H    5.197371   5.198659   6.127962   4.623122   4.957558
    24  H    7.840350   7.840378   9.076870   7.749947   6.467521
                   21         22         23         24
    21  H    0.000000
    22  H    4.958087   0.000000
    23  H    2.463015   4.295705   0.000000
    24  H    5.761132   4.462232   3.384159   0.000000
 Stoichiometry    C10H12O2
 Framework group  C1[X(C10H12O2)]
 Deg. of freedom    66
 Full point group                 C1      NOp   1
 Largest Abelian subgroup         C1      NOp   1
 Largest concise Abelian subgroup C1      NOp   1
                         Standard orientation:                         
 ---------------------------------------------------------------------
 Center     Atomic      Atomic             Coordinates (Angstroms)
 Number     Number       Type             X           Y           Z
 ---------------------------------------------------------------------
      1          8           0       -3.454691   -1.255328    0.000109
      2          8           0       -3.681958    0.961784    0.001206
      3          6           0        2.823886    0.359957   -0.000130
      4          6           0        1.318317    0.255928   -0.000169
      5          6           0        3.425575   -0.283592   -1.259073
      6          6           0        3.425392   -0.281390    1.260014
      7          6           0        0.519129    1.401153   -0.000937
      8          6           0        0.696706   -0.996171    0.000369
      9          6           0       -0.868447    1.301845   -0.001145
     10          6           0       -0.690514   -1.104186    0.000090
     11          6           0       -1.479177    0.050067   -0.000767
     12          6           0       -2.957928   -0.004051   -0.000408
     13          1           0        3.100245    1.426176   -0.001075
     14          1           0        3.227897   -1.363593   -1.280902
     15          1           0        4.513013   -0.140487   -1.279754
     16          1           0        3.001789    0.154248   -2.171198
     17          1           0        3.001705    0.158216    2.171330
     18          1           0        4.512876   -0.138601    1.280465
     19          1           0        3.227391   -1.361306    1.283807
     20          1           0        0.986284    2.384678   -0.001335
     21          1           0        1.301692   -1.902039    0.001128
     22          1           0       -1.489550    2.195715   -0.001641
     23          1           0       -1.154376   -2.086893    0.000494
     24          1           0       -4.413398   -1.175133    0.001089
 ---------------------------------------------------------------------
 Rotational constants (GHZ):           2.5944281           0.4477835           0.4159404
 Standard basis: 6-311++G(d,p) (5D, 7F)
 There are   360 symmetry adapted cartesian basis functions of A   symmetry.
 There are   348 symmetry adapted basis functions of A   symmetry.
   348 basis functions,   540 primitive gaussians,   360 cartesian basis functions
    44 alpha electrons       44 beta electrons
       nuclear repulsion energy       665.4410128319 Hartrees.
 NAtoms=   24 NActive=   24 NUniq=   24 SFac= 1.00D+00 NAtFMM=   60 NAOKFM=F Big=F
 Integral buffers will be    131072 words long.
 Raffenetti 2 integral format.
 Two-electron integral symmetry is turned on.
 R6APFD:  NTU= -4 IXU= 1 FactS= 1.050
 Nuclear repulsion after empirical dispersion term =      665.4242982308 Hartrees.
 One-electron integrals computed using PRISM.
 NBasis=   348 RedAO= T EigKep=  1.81D-06  NBF=   348
 NBsUse=   346 1.00D-06 EigRej=  7.10D-07 NBFU=   346
 Initial guess from the checkpoint file:  "CUAC0024.chk"
 B after Tr=     0.000000   -0.000000   -0.000000
         Rot=    1.000000   -0.000201    0.000023    0.000644 Ang=  -0.08 deg.
 ExpMin= 3.60D-02 ExpMax= 8.59D+03 ExpMxC= 1.30D+03 IAcc=3 IRadAn=         5 AccDes= 0.00D+00
 Harris functional with IExCor= 1009 and IRadAn=       5 diagonalized for initial guess.
 HarFok:  IExCor= 1009 AccDes= 0.00D+00 IRadAn=         5 IDoV= 1 UseB2=F ITyADJ=14
 ICtDFT=  3500011 ScaDFX=  1.000000  1.000000  1.000000  1.000000
 FoFCou: FMM=F IPFlag=           0 FMFlag=      100000 FMFlg1=           0
         NFxFlg=           0 DoJE=T BraDBF=F KetDBF=T FulRan=T
         wScrn=  0.000000 ICntrl=       500 IOpCl=  0 I1Cent=   200000004 NGrid=           0
         NMat0=    1 NMatS0=      1 NMatT0=    0 NMatD0=    1 NMtDS0=    0 NMtDT0=    0
 Petite list used in FoFCou.
 Requested convergence on RMS density matrix=1.00D-08 within  32 cycles.
 Requested convergence on MAX density matrix=1.00D-06.
 Requested convergence on             energy=1.00D-06.
 No special actions if energy rises.
 SCF Done:  E(RM08HX) =  -538.771632375     A.U. after   14 cycles
            NFock= 14  Conv=0.45D-08     -V/T= 2.0047
 QCSCF skips out because SCF is already converged.
 R6APFD:  NTU= -4 IXU= 1 FactS= 1.050
 Calling FoFJK, ICntrl=      2127 FMM=F ISym2X=0 I1Cent= 0 IOpClX= 0 NMat=1 NMatS=1 NMatT=0.
 ***** Axes restored to original set *****
 -------------------------------------------------------------------
 Center     Atomic                   Forces (Hartrees/Bohr)
 Number     Number              X              Y              Z
 -------------------------------------------------------------------
      1        8           0.004083544   -0.001799923   -0.000079356
      2        8           0.004790610   -0.002513525   -0.000109123
      3        6           0.005361747   -0.000745834    0.000002806
      4        6          -0.000711181    0.001161122   -0.000016227
      5        6          -0.000855650    0.000962860   -0.000387305
      6        6          -0.000859171    0.000945610    0.000383826
      7        6          -0.002297088   -0.001065822    0.000004172
      8        6          -0.004180109   -0.000055454    0.000012841
      9        6           0.001985771    0.002268948   -0.000014883
     10        6           0.003165915   -0.000235686   -0.000020857
     11        6           0.004046642   -0.002165521   -0.000029944
     12        6          -0.009023153    0.005454924    0.000243869
     13        1          -0.002014942    0.000167202    0.000002633
     14        1          -0.000139191    0.000011526    0.000231845
     15        1           0.000166267   -0.000414450   -0.000012535
     16        1           0.000071155   -0.000255038    0.000230811
     17        1           0.000069964   -0.000253278   -0.000228903
     18        1           0.000165692   -0.000409417    0.000012564
     19        1          -0.000138977    0.000017616   -0.000230851
     20        1           0.000882162    0.000242367   -0.000000501
     21        1           0.000415626   -0.000146672   -0.000004601
     22        1          -0.001098310   -0.000589456    0.000002329
     23        1          -0.002087008   -0.000014217    0.000002274
     24        1          -0.001800315   -0.000567882    0.000005119
 -------------------------------------------------------------------
 Cartesian Forces:  Max     0.009023153 RMS     0.001953222

 GradGradGradGradGradGradGradGradGradGradGradGradGradGradGradGradGradGrad
 Berny optimization.
 Using GEDIIS/GDIIS optimizer.
 FormGI is forming the generalized inverse of G from B-inverse, IUseBI=4.
 Internal  Forces:  Max     0.004900340 RMS     0.001005223
 Search for a local minimum.
 Step number   2 out of a maximum of  128
 All quantities printed in internal units (Hartrees-Bohrs-Radians)
 Mixed Optimization -- RFO/linear search
 Update second derivatives using D2CorX and points    1    2
 DE= -4.95D-03 DEPred=-4.88D-03 R= 1.02D+00
 TightC=F SS=  1.41D+00  RLast= 2.00D-01 DXNew= 5.0454D-01 5.9869D-01
 Trust test= 1.02D+00 RLast= 2.00D-01 DXMaxT set to 5.05D-01
 ITU=  1  0
 Use linear search instead of GDIIS.
     Eigenvalues ---    0.00231   0.00231   0.00879   0.01370   0.01634
     Eigenvalues ---    0.01634   0.01917   0.02156   0.02156   0.02156
     Eigenvalues ---    0.02156   0.02157   0.02157   0.02157   0.02203
     Eigenvalues ---    0.03955   0.04734   0.05402   0.05411   0.05489
     Eigenvalues ---    0.05496   0.05700   0.15087   0.16000   0.16000
     Eigenvalues ---    0.16000   0.16000   0.16000   0.16000   0.16000
     Eigenvalues ---    0.16000   0.16000   0.16545   0.16585   0.18185
     Eigenvalues ---    0.21999   0.22760   0.24088   0.24625   0.25000
     Eigenvalues ---    0.25000   0.27188   0.28457   0.28480   0.32953
     Eigenvalues ---    0.33847   0.34161   0.34175   0.34188   0.34194
     Eigenvalues ---    0.34206   0.34227   0.35150   0.35177   0.35207
     Eigenvalues ---    0.35245   0.37261   0.42135   0.42523   0.46188
     Eigenvalues ---    0.46481   0.46488   0.46579   0.51835   0.54026
     Eigenvalues ---    0.85088
 RFO step:  Lambda=-4.98939045D-04 EMin= 2.30853837D-03
 Quartic linear search produced a step of  0.05045.
 Iteration  1 RMS(Cart)=  0.01266167 RMS(Int)=  0.00010854
 Iteration  2 RMS(Cart)=  0.00012064 RMS(Int)=  0.00002370
 Iteration  3 RMS(Cart)=  0.00000001 RMS(Int)=  0.00002370
 Variable       Old X    -DE/DX   Delta X   Delta X   Delta X     New X
                                 (Linear)    (Quad)   (Total)
    R1        2.54410   0.00138  -0.00143   0.00283   0.00140   2.54550
    R2        1.81802   0.00175  -0.00180   0.00371   0.00190   1.81992
    R3        2.28106  -0.00490  -0.00269  -0.00565  -0.00834   2.27272
    R4        2.85190   0.00182   0.00169   0.00561   0.00730   2.85919
    R5        2.90374  -0.00048  -0.00037  -0.00172  -0.00209   2.90166
    R6        2.90373  -0.00048  -0.00037  -0.00172  -0.00209   2.90164
    R7        2.08144  -0.00033   0.00026  -0.00104  -0.00078   2.08066
    R8        2.63902   0.00006   0.00016   0.00028   0.00044   2.63946
    R9        2.64167   0.00149   0.00030   0.00335   0.00365   2.64532
   R10        2.07522   0.00001   0.00028   0.00001   0.00028   2.07551
   R11        2.07305   0.00011   0.00015   0.00032   0.00046   2.07351
   R12        2.07291  -0.00032   0.00011  -0.00099  -0.00088   2.07203
   R13        2.07290  -0.00032   0.00013  -0.00099  -0.00086   2.07204
   R14        2.07305   0.00011   0.00015   0.00032   0.00047   2.07352
   R15        2.07525   0.00000   0.00027  -0.00001   0.00026   2.07551
   R16        2.62885  -0.00136  -0.00036  -0.00291  -0.00327   2.62558
   R17        2.05759   0.00059   0.00020   0.00175   0.00195   2.05954
   R18        2.62940  -0.00267  -0.00033  -0.00615  -0.00648   2.62292
   R19        2.05851   0.00035   0.00027   0.00104   0.00130   2.05981
   R20        2.63204   0.00060  -0.00020   0.00136   0.00117   2.63321
   R21        2.05692   0.00015   0.00015   0.00044   0.00059   2.05751
   R22        2.64176  -0.00155   0.00030  -0.00367  -0.00338   2.63838
   R23        2.05354   0.00089   0.00003   0.00265   0.00268   2.05621
   R24        2.79631   0.00192   0.00242   0.00518   0.00759   2.80390
    A1        1.86526   0.00127  -0.00437   0.00889   0.00452   1.86978
    A2        1.94094  -0.00030  -0.00111  -0.00416  -0.00525   1.93569
    A3        1.94097  -0.00031  -0.00111  -0.00422  -0.00532   1.93565
    A4        1.89340  -0.00059  -0.00031  -0.01436  -0.01460   1.87879
    A5        1.92178   0.00048   0.00026   0.00530   0.00546   1.92724
    A6        1.88228   0.00037   0.00124   0.00899   0.01010   1.89237
    A7        1.88233   0.00037   0.00124   0.00896   0.01007   1.89240
    A8        2.11109  -0.00026   0.00087  -0.00141  -0.00054   2.11055
    A9        2.10059   0.00031   0.00029   0.00103   0.00132   2.10191
   A10        2.07151  -0.00004  -0.00115   0.00037  -0.00078   2.07073
   A11        1.93659  -0.00056  -0.00089  -0.00489  -0.00578   1.93081
   A12        1.92727   0.00041  -0.00007   0.00335   0.00327   1.93054
   A13        1.94209   0.00016   0.00042   0.00173   0.00215   1.94424
   A14        1.88216  -0.00007   0.00011  -0.00188  -0.00178   1.88038
   A15        1.88228   0.00008   0.00001  -0.00068  -0.00067   1.88162
   A16        1.89149  -0.00003   0.00045   0.00232   0.00275   1.89423
   A17        1.94212   0.00016   0.00042   0.00171   0.00212   1.94425
   A18        1.92732   0.00041  -0.00007   0.00332   0.00323   1.93055
   A19        1.93653  -0.00055  -0.00089  -0.00486  -0.00575   1.93078
   A20        1.89151  -0.00003   0.00045   0.00230   0.00273   1.89424
   A21        1.88226   0.00008   0.00001  -0.00067  -0.00066   1.88161
   A22        1.88213  -0.00007   0.00011  -0.00185  -0.00174   1.88039
   A23        2.10863  -0.00016   0.00072  -0.00008   0.00064   2.10927
   A24        2.08888  -0.00064  -0.00112  -0.00457  -0.00569   2.08320
   A25        2.08568   0.00080   0.00040   0.00464   0.00504   2.09072
   A26        2.10931   0.00027   0.00075   0.00111   0.00185   2.11117
   A27        2.09196  -0.00040  -0.00118  -0.00221  -0.00339   2.08857
   A28        2.08191   0.00014   0.00043   0.00110   0.00154   2.08345
   A29        2.09616  -0.00104   0.00009  -0.00454  -0.00445   2.09171
   A30        2.10661   0.00179   0.00160   0.01038   0.01199   2.11859
   A31        2.08042  -0.00075  -0.00170  -0.00584  -0.00754   2.07288
   A32        2.09250  -0.00072  -0.00009  -0.00386  -0.00396   2.08854
   A33        2.08952   0.00230   0.00189   0.01439   0.01628   2.10580
   A34        2.10117  -0.00158  -0.00180  -0.01053  -0.01233   2.08884
   A35        2.08827   0.00170  -0.00031   0.00700   0.00669   2.09496
   A36        2.06129   0.00004  -0.00168   0.00039  -0.00129   2.06000
   A37        2.13362  -0.00174   0.00199  -0.00739  -0.00540   2.12822
   A38        2.12040   0.00470  -0.00054   0.01975   0.01921   2.13960
   A39        1.98530  -0.00417   0.00112  -0.01758  -0.01646   1.96884
   A40        2.17749  -0.00053  -0.00059  -0.00216  -0.00276   2.17473
    D1        0.00085  -0.00006   0.00005  -0.00380  -0.00378  -0.00292
    D2        3.14074   0.00005  -0.00008   0.00358   0.00354  -3.13891
    D3       -2.06755   0.00009  -0.00067   0.00044  -0.00023  -2.06778
    D4        1.07388   0.00010  -0.00064   0.00064   0.00000   1.07388
    D5        2.06705  -0.00010   0.00066  -0.00040   0.00026   2.06731
    D6       -1.07470  -0.00009   0.00070  -0.00020   0.00049  -1.07421
    D7       -0.00029   0.00000  -0.00000   0.00005   0.00004  -0.00024
    D8        3.14114   0.00000   0.00003   0.00025   0.00028   3.14142
    D9       -1.12323  -0.00009   0.00083   0.01541   0.01623  -1.10700
   D10        3.07397   0.00009   0.00132   0.01873   0.02005   3.09402
   D11        0.97269  -0.00025   0.00053   0.01243   0.01294   0.98563
   D12        1.03631  -0.00035  -0.00123   0.01087   0.00962   1.04593
   D13       -1.04967  -0.00016  -0.00074   0.01420   0.01344  -1.03623
   D14        3.13223  -0.00051  -0.00153   0.00789   0.00633   3.13857
   D15        3.08601   0.00058   0.00107   0.02977   0.03087   3.11688
   D16        1.00002   0.00076   0.00156   0.03309   0.03469   1.03471
   D17       -1.10126   0.00042   0.00077   0.02678   0.02759  -1.07367
   D18       -0.97298   0.00025  -0.00053  -0.01227  -0.01279  -0.98577
   D19       -3.07435  -0.00009  -0.00132  -0.01852  -0.01984  -3.09418
   D20        1.12289   0.00009  -0.00083  -0.01524  -0.01606   1.10683
   D21       -3.13251   0.00050   0.00153  -0.00777  -0.00621  -3.13873
   D22        1.04931   0.00016   0.00073  -0.01402  -0.01326   1.03604
   D23       -1.03664   0.00035   0.00123  -0.01074  -0.00949  -1.04612
   D24        1.10101  -0.00042  -0.00077  -0.02668  -0.02748   1.07353
[...]
 .00063066,-0.08750398,0.04318878,-0.08666712,-0.00096598,0.00122785,0.
 00213002,0.00030201,0.00017951,-0.00023054,0.00023950,-0.00012594,-0.0
 0032046,-0.00010117,-0.00004947,-0.00005845,-0.00016461,0.00003480,-0.
 00009231,0.00018463,0.00000109,0.00000739,-0.00030740,-0.00002632,0.00
 001861,0.00025184,-0.00016883,-0.00078936,0.00174656,-0.00300107,0.006
 49203,-0.01017768,0.01371947,-0.02573794,0.09024673,-0.00003397,-0.000
 03414,-0.00001764,-0.00003298,0.00000210,-0.00000991,-0.00632800,0.006
 07695,-0.01256969,-0.00031759,0.00041857,0.00015367,0.04283878,-0.0921
 6825,0.09135072,0.00138017,-0.00092945,-0.00226931,-0.00038275,0.00014
 122,0.00013262,0.00008999,-0.00041712,-0.00001267,0.00017735,0.0000518
 6,0.00000456,-0.00022930,0.00016535,-0.00009694,-0.00011211,-0.0001633
 7,0.00000293,0.00007596,0.00002276,0.00002276,-0.00063972,0.00042313,0
 .00041689,0.01305529,-0.01147970,0.02572824,-0.00206162,0.00106201,-0.
 00495575,-0.04771377,0.09598028,-0.00004715,-0.00004305,0.00001179,-0.
 00004938,0.00000672,0.00000703,-0.00991695,0.01191952,-0.02048594,-0.0
 0164447,0.00017165,0.00045038,-0.08541771,0.09061163,-0.22638527,0.003
 36484,-0.00366619,-0.00388214,0.00031386,-0.00011806,0.00020556,0.0003
 5577,0.00032085,0.00023647,0.00015348,-0.00007165,-0.00007005,-0.00004
 097,0.00006353,-0.00011323,-0.00003771,-0.00007746,-0.00001718,0.00013
 165,0.00001897,0.00001822,-0.00036316,-0.00038547,0.00057661,0.0007799
 1,-0.00106784,0.00089670,0.00112627,-0.00114536,0.00129497,0.09190595,
 -0.09700734,0.24817428,0.00009361,0.00007488,0.00000653,0.00013932,-0.
 00004978,0.00000275,0.00400882,-0.00677219,-0.01169191,0.00099354,-0.0
 0069168,-0.00062927,-0.00096574,0.00122229,-0.00213275,-0.08750095,0.0
 4340092,0.08655784,0.00030213,0.00017996,0.00023022,0.00023944,-0.0001
 2522,0.00032066,-0.00010125,-0.00004938,0.00005860,-0.00016457,0.00003
 498,0.00009223,0.00018464,0.00000116,-0.00000739,-0.00030741,-0.000026
 37,-0.00001854,0.00025181,-0.00016684,0.00078962,-0.00016243,0.0001413
 3,0.00012735,0.00034753,0.00007206,-0.00031850,0.00074985,-0.00011582,
 -0.00070406,0.09024366,-0.00003384,-0.00003397,0.00001771,-0.00003287,
 0.00000213,0.00000994,-0.00630345,0.00607854,0.01250449,-0.00031365,0.
 00041759,-0.00015336,0.00137180,-0.00091469,0.00226188,0.04304740,-0.0
 9261738,-0.09168037,-0.00038358,0.00014134,-0.00013243,0.00008909,-0.0
 0041790,0.00001414,0.00017702,0.00005203,-0.00000489,-0.00022918,0.000
 16539,0.00009631,-0.00011204,-0.00016321,-0.00000259,0.00007565,0.0000
 2260,-0.00002275,-0.00063877,0.00042305,-0.00041634,0.00009605,0.00032
 716,0.00034934,0.00015215,-0.00018969,-0.00013435,-0.00011414,0.000684
 77,0.00075063,-0.04793867,0.09645956,0.00004726,0.00004320,0.00001167,
 0.00004945,-0.00000669,0.00000701,0.00993208,-0.01198505,-0.02048739,0
 .00164511,-0.00017109,0.00045068,-0.00336807,0.00365853,-0.00389649,0.
 08530934,-0.09094151,-0.22593348,-0.00031274,0.00011797,0.00020566,-0.
 00035617,-0.00031927,0.00023721,-0.00015424,0.00007125,-0.00007009,0.0
 0004177,-0.00006428,-0.00011336,0.00003800,0.00007808,-0.00001736,-0.0
 0013187,-0.00001903,0.00001830,0.00036469,0.00038574,0.00057671,-0.000
 10849,0.00004326,0.00030702,0.00000688,0.00010432,0.00031856,0.0007044
 2,-0.00075586,-0.00144374,-0.09178514,0.09738128,0.24769326,-0.0002147
 0,-0.00017582,-0.00000412,-0.00032063,0.00010138,-0.00000367,-0.011963
 43,-0.00181818,0.00085124,0.00035039,0.00173935,-0.00242153,0.00044455
 ,-0.00028644,0.00089122,-0.30648551,-0.03321909,-0.00207802,-0.0002906
 3,-0.00047806,-0.00022886,-0.00006278,0.00026539,-0.00011244,-0.000115
 35,0.00005548,0.00019344,0.00026661,-0.00001605,0.00000059,-0.00041910
 ,0.00012017,0.00001441,0.00068171,0.00008516,-0.00000438,0.00020631,0.
 00048298,-0.00003141,-0.00004060,0.00009301,-0.00006829,0.00040597,-0.
 00019702,-0.00063004,0.00034754,0.00015212,-0.00000727,-0.01017751,-0.
 00206380,-0.00112130,0.33215563,0.00006011,0.00006723,-0.00000906,0.00
 007538,-0.00004045,-0.00001546,0.01579474,0.00106683,0.00113451,-0.000
 20028,-0.00084091,0.00291548,-0.00023000,-0.00001547,-0.00077187,-0.03
 330592,-0.05022051,-0.00128538,0.00069768,0.00002945,-0.00014500,0.000
 01721,-0.00013082,-0.00026941,-0.00034819,-0.00016001,-0.00024042,0.00
 013160,0.00009154,-0.00034325,0.00025544,0.00025111,0.00004122,-0.0002
 6659,-0.00000460,0.00007428,0.00017935,0.00016501,-0.00068917,-0.00016
 776,-0.00004937,0.00006274,-0.00019550,0.00029578,-0.00009660,0.000072
 81,-0.00018963,-0.00010305,0.01378317,0.00107663,0.00114606,0.03482096
 ,0.05089115,-0.00011910,-0.00012580,0.00000600,-0.00018578,0.00006423,
 0.00000079,-0.02791965,-0.00465741,-0.00145584,-0.00058163,0.00288166,
 -0.00442778,-0.00092461,-0.00035577,0.00164934,-0.00100248,-0.00074513
 ,-0.04620656,-0.00097338,-0.00028700,0.00015317,-0.00048153,0.00001115
 ,0.00022451,-0.00009938,0.00016348,0.00034465,0.00027575,-0.00009976,0
 .00010923,-0.00043604,0.00012027,-0.00000058,0.00044721,0.00006851,-0.
 00003290,0.00058705,-0.00010129,0.00108818,0.00005843,-0.00003357,-0.0
 0005065,0.00063069,0.00009420,-0.00069671,0.00031833,0.00013559,0.0003
 1847,0.02570398,0.00495541,0.00127978,0.00450533,-0.00178372,0.0491890
 0,0.00007011,0.00004538,0.00001690,0.00013868,-0.00005034,0.00000695,0
 .00190730,0.01376878,-0.00068048,0.00111542,0.00049144,0.00085516,0.00
 003382,-0.00044588,0.00087845,-0.05569516,-0.05153018,0.00102966,-0.00
 042294,0.00021523,0.00013974,-0.00030687,0.00027338,-0.00014162,0.0003
 3901,0.00007900,-0.00002089,-0.00036100,-0.00000292,0.00007080,0.00014
 965,-0.00031110,-0.00002127,-0.00023682,-0.00004082,-0.00000681,-0.000
 61359,0.00125333,-0.00243268,0.00027899,-0.00028514,0.00014247,-0.0000
 4056,-0.00016787,-0.00005802,-0.00016242,0.00009634,0.00010825,0.00174
 687,0.01305326,-0.00081193,-0.00478440,-0.03133081,0.00017787,0.058026
 93,0.00002242,0.00004897,-0.00000896,-0.00003738,0.00003118,-0.0000179
 6,-0.00208544,-0.01518239,0.00079935,-0.00154332,0.00023264,0.00005807
 ,0.00011566,0.00093638,-0.00094594,-0.05062225,-0.29715806,0.00236743,
 0.00057408,-0.00029273,-0.00002749,-0.00015219,-0.00046722,-0.00057985
 ,-0.00044747,-0.00010702,-0.00004531,0.00040765,0.00025871,-0.00022767
 ,0.00004614,0.00037543,0.00012045,-0.00004542,-0.00000308,0.00004918,0
 .00148165,0.00042514,0.00247072,-0.00028548,0.00036993,0.00083804,0.00
 009318,-0.00004940,0.00003353,0.00014102,0.00032619,-0.00004331,-0.003
 01760,-0.01154051,0.00109862,0.00026351,-0.00261166,-0.00025262,0.0554
 8453,0.32365602,0.00001513,0.00002590,-0.00000466,0.00004949,-0.000006
 94,0.00000447,0.00577470,0.02836693,-0.00197066,0.00111183,-0.00068299
 ,0.00074974,0.00039434,0.00114607,0.00209631,0.00088716,0.00189747,-0.
 04515129,-0.00039956,0.00021014,0.00019679,0.00000599,0.00051756,-0.00
 013903,0.00028147,0.00009449,0.00002410,-0.00026255,-0.00016437,-0.000
 00015,0.00011580,-0.00029898,0.00003268,-0.00007096,-0.00006898,-0.000
 03158,-0.00249131,0.00226482,-0.00449609,-0.00014147,-0.00084033,-0.00
 043905,0.00006800,-0.00006275,-0.00005058,-0.00012774,-0.00034941,0.00
 030800,-0.00648549,-0.02569727,0.00095703,0.00016918,-0.00016777,-0.00
 125042,0.00208383,-0.00559539,0.04972264,-0.00087101,-0.00024488,0.000
 00022,-0.00035768,0.00036721,-0.00000031,0.00127408,0.00199141,-0.0000
 0260,0.00939485,0.01542180,-0.00001752,-0.00002503,-0.00013881,0.00001
 496,-0.00002510,-0.00013878,-0.00001459,-0.10776688,-0.10657422,0.0001
 2198,-0.00131867,0.00339497,-0.00000337,-0.00822095,-0.02944830,0.0000
 3339,-0.00099121,0.00084047,-0.00000095,-0.00568449,0.00077806,0.00000
 017,0.00086441,-0.00164403,0.00000171,-0.00066634,-0.00017005,0.000000
 40,0.00002521,-0.00003941,-0.00006824,-0.00000471,0.00001544,-0.000017
 62,0.00001994,-0.00001179,-0.00000872,0.00001997,-0.00001178,0.0000087
 2,-0.00000472,0.00001550,0.00001756,0.00002520,-0.00003926,0.00006831,
 0.11330829,-0.00015208,-0.00009131,-0.00000014,-0.00026985,0.00007159,
 0.,-0.00228550,0.00016825,-0.00000469,-0.01326994,-0.01899495,0.000026
 30,0.00021953,0.00028013,-0.00007181,0.00021817,0.00028077,0.00007155,
 -0.10613697,-0.28218232,0.00028028,0.00391364,-0.00294184,0.00001071,0
 .00125853,0.00162992,0.00000154,0.00120396,0.00022988,-0.00000159,-0.0
 0010530,0.00221587,0.00000618,0.00059379,0.00003662,0.00000044,0.00150
 957,0.00065401,-0.00000045,-0.00011404,0.00016196,0.00012135,0.0000432
 9,-0.00001344,-0.00005494,0.00001365,-0.00008254,-0.00003767,0.0000136
 1,-0.00008242,0.00003773,0.00004315,-0.00001314,0.00005463,-0.00011403
 ,0.00016167,-0.00012186,0.11455317,0.29906833,0.00000024,-0.00000011,-
 0.00020831,0.00000042,-0.00000005,0.00002393,0.00000225,-0.00000518,-0
 .00420443,0.00001467,0.00002459,0.00392104,0.00061375,-0.00025983,0.00
 021355,-0.00061435,0.00025976,0.00021288,0.00012152,0.00028059,-0.0372
 9646,-0.00000399,0.00001060,0.00679266,-0.00000089,0.00000312,0.003026
 71,-0.00000139,-0.00000167,-0.00113290,0.00000087,0.00000611,0.0077775
 3,-0.00000064,0.00000055,0.00048859,-0.00000159,-0.00000016,0.00034190
 ,0.00000393,-0.00001042,-0.00006125,0.00006214,-0.00007963,-0.00016041
 ,0.00002951,-0.00002518,-0.00007232,-0.00002955,0.00002521,-0.00007254
 ,-0.00006224,0.00007925,-0.00016079,-0.00000364,0.00000990,-0.00006102
 ,-0.00013186,-0.00031248,0.02579455,-0.00020635,-0.00038135,0.00000038
 ,-0.00104390,0.00019398,0.00000002,-0.00011790,0.00038356,-0.00000044,
 0.01205432,-0.01034768,0.00001115,-0.00044739,-0.00025094,0.00012160,-
 0.00044702,-0.00025106,-0.00012089,-0.00047727,-0.00300935,0.00000366,
 -0.14375801,0.12631509,-0.00013891,-0.00062093,-0.00100752,0.00000109,
 -0.01261499,0.02754183,-0.00003017,-0.00543387,-0.00195420,0.00000255,
 0.00074430,0.00167779,-0.00000183,0.00027039,0.00017025,-0.00000015,-0
 .00120017,-0.00042537,0.00102813,0.00005441,0.00007464,-0.00009924,0.0
 0006606,0.00010972,-0.00004677,0.00006605,0.00010978,0.00004657,0.0000
 5439,0.00007489,0.00009901,-0.00119980,-0.00042749,-0.00102676,0.00038
 078,-0.00074576,0.00000081,0.15324610,0.00018896,0.00009657,-0.0000000
 7,0.00009272,-0.00006620,-0.00000032,0.00159595,-0.00011540,-0.0000034
 9,0.01784919,-0.01828929,0.00002384,0.00002072,-0.00043337,-0.00008350
 ,0.00002018,-0.00043375,0.00008462,-0.00359410,-0.00389334,0.00001225,
 0.12752479,-0.24642758,0.00022828,-0.00123133,-0.00007302,-0.00000113,
 -0.00364838,0.00545720,-0.00000228,-0.00098093,0.00183125,0.00000662,-
 0.00059183,0.00021084,0.00000042,-0.00009696,0.00018610,-0.00000054,-0
 .00046878,0.00059641,0.00047277,0.00002256,0.00034126,0.00009763,0.000
 03682,0.00011106,-0.00010926,0.00003671,0.00011113,0.00010897,0.000022
 78,0.00034183,-0.00009858,-0.00047203,0.00059426,-0.00047555,0.0009169
 2,-0.00105629,0.00000119,-0.13761575,0.26031652,-0.00000027,-0.0000001
 2,-0.00000612,-0.00000023,-0.00000030,-0.00034907,-0.00000190,-0.00000
 347,-0.00322519,-0.00002015,0.00002502,0.00364666,0.00014227,0.0003374
 6,-0.00000337,-0.00014230,-0.00033652,-0.00000269,0.00000443,0.0000121
 7,0.00694647,-0.00014028,0.00022785,-0.03714214,0.00000131,-0.00000125
 ,-0.00110997,0.00000491,-0.00000340,0.00334488,0.00000163,0.00000662,0
 .00773508,0.00000073,0.00000038,0.00057009,0.00000017,-0.00000057,-0.0
 0028839,0.00128214,0.00007032,-0.00048097,-0.00012263,-0.00043378,-0.0
 0005274,0.00006866,0.00008838,-0.00000476,-0.00006871,-0.00008856,-0.0
 0000472,0.00012252,0.00043293,-0.00005357,-0.00128078,-0.00007272,-0.0
 0047990,-0.00000103,0.00000127,0.00005039,0.00015015,-0.00025533,0.026
 17125,0.00038502,0.00144245,-0.00000107,-0.00203637,0.00019341,-0.0000
 0002,-0.00002552,0.00118466,-0.00000136,-0.00510595,-0.00140759,0.0000
 0249,-0.00024935,-0.00007817,-0.00010752,-0.00024930,-0.00007792,0.000
 10772,-0.01021148,0.02520509,-0.00002671,-0.00081352,-0.00107403,0.000
 00112,-0.15220039,0.13305756,-0.00014015,-0.00065458,-0.00337401,0.000
 00423,0.01198831,-0.00988863,0.00001053,0.00044046,-0.00216388,0.00000
 145,0.00001448,-0.00004436,0.00000006,0.00001052,0.00001796,-0.0000023
 0,-0.00005128,0.00004222,0.00008276,0.00001275,-0.00000003,0.00002199,
 0.00001274,-0.00000008,-0.00002201,-0.00005127,0.00004201,-0.00008285,
 0.00001052,0.00001796,0.00000226,0.00064062,-0.00034924,-0.00000002,-0
 .00001159,0.00008575,-0.00000017,0.15762705,-0.00007466,0.00108358,-0.
 00000073,-0.00029960,0.00240241,-0.00000261,-0.00019531,0.00021553,-0.
 00000075,-0.00161290,0.00134238,0.00000703,-0.00000802,-0.00001363,0.0
 0000855,-0.00000807,-0.00001363,-0.00000828,-0.00425901,0.00717782,-0.
 00000260,-0.00085235,0.00022498,-0.00000155,0.13106247,-0.24480568,0.0
 0021489,-0.00385034,-0.00368149,0.00001126,0.01820533,-0.01793184,0.00
 002336,0.00261267,-0.00313760,-0.00000208,0.00000840,-0.00001589,-0.00
 000001,0.00000089,-0.00000451,-0.00000450,-0.00000833,-0.00000307,0.00
 000619,0.00000167,0.00000501,0.00000357,0.00000166,0.00000501,-0.00000
 359,-0.00000829,-0.00000301,-0.00000619,0.00000089,-0.00000448,0.00000
 445,0.00038410,0.00052506,-0.00000514,0.00009343,-0.00000742,-0.000001
 01,-0.14201409,0.25767697,-0.00000035,-0.00000179,0.00012570,0.0000008
 0,-0.00000292,-0.00026746,0.00000020,-0.00000090,-0.00045359,0.0000025
 4,0.00000714,0.00779397,0.00002604,-0.00001136,0.00010812,-0.00002605,
 0.00001168,0.00010811,0.00000509,-0.00000403,0.00460763,0.00000101,-0.
 00000142,-0.00124712,-0.00013644,0.00021491,-0.04053692,0.00000466,0.0
 0001165,0.00650511,-0.00002183,0.00002460,0.00438242,-0.00000248,-0.00
 000094,-0.00408660,0.,0.,-0.00003029,0.00000147,-0.00001015,-0.0000248
 0,-0.00001746,-0.00004038,0.00000028,0.00000516,0.00000051,-0.00000252
 ,-0.00000516,-0.00000054,-0.00000249,0.00001748,0.00004040,0.00000020,
 -0.00000146,0.00001010,-0.00002483,-0.00000073,-0.00000526,-0.00419677
 ,-0.00000013,-0.00000103,-0.00093621,0.00014855,-0.00024206,0.02759078
 ,-0.00428993,0.00003569,-0.00000072,0.00023496,-0.00097919,0.00000068,
 0.00013070,-0.00145032,0.00000168,-0.00557355,0.00033942,-0.00000001,0
 .00005294,-0.00005261,-0.00008295,0.00005291,-0.00005243,0.00008309,-0
 .00113073,0.00086409,-0.00000093,-0.00695400,-0.02785189,0.00003130,-0
 .00174082,0.00383726,-0.00000386,-0.11049134,-0.11096158,0.00012511,0.
 01180542,0.01521214,-0.00001721,0.00161011,0.00180545,-0.00000156,-0.0
 0046941,-0.00007835,0.00000009,-0.00000330,0.00005362,0.00001878,-0.00
 001928,0.00003194,0.00003035,-0.00000230,0.00000237,0.00001434,-0.0000
 0230,0.00000234,-0.00001434,-0.00001928,0.00003187,-0.00003043,-0.0000
 0329,0.00005357,-0.00001892,0.00001764,-0.00007733,0.00000004,0.000630
 62,0.00031308,-0.00000050,0.00058313,0.00095734,-0.00000113,0.11560883
 ,-0.00054988,0.00127810,-0.00000083,0.00021158,0.00090510,-0.00000017,
 0.00019685,-0.00000016,-0.00000010,0.00041055,0.00166281,0.00000690,-0
 .00004137,-0.00000556,-0.00002124,-0.00004172,-0.00000533,0.00002111,0
 .00065305,0.00055009,-0.00000183,0.00187663,0.00302437,0.00000177,0.00
 425711,-0.00242102,0.00000948,-0.10872943,-0.28853690,0.00027959,-0.01
 350752,-0.01773987,0.00002368,-0.00176998,-0.00260465,-0.00000174,-0.0
 0001802,0.00001733,-0.00000019,0.00000457,-0.00000051,-0.00001028,-0.0
 0001196,0.00000608,0.00001638,0.00000217,-0.00000963,0.00000252,0.0000
 0215,-0.00000969,-0.00000253,-0.00001195,0.00000602,-0.00001645,0.0000
 0447,-0.00000057,0.00001029,-0.00009940,-0.00003775,-0.00000099,-0.000
 36199,0.00061940,-0.00000542,-0.00076161,-0.00094181,0.00000155,0.1182
 2416,0.30359991,-0.00000025,-0.00000096,0.00029850,0.00000036,-0.00000
 103,0.00057952,-0.00000026,0.,-0.00008268,0.00000012,0.00000703,0.0080
 5723,0.00015489,-0.00008962,-0.00006646,-0.00015479,0.00008945,-0.0000
 6675,-0.00000082,-0.00000174,-0.00110621,-0.00000120,0.00000318,0.0046
 9131,-0.00000427,0.00000975,0.00649711,0.00012162,0.00027939,-0.039568
 16,0.00001539,0.00002285,0.00334167,0.00000132,-0.00000140,-0.00383224
 ,0.00000003,-0.00000019,-0.00015615,0.00004457,0.00004179,0.00000134,-
 0.00000711,0.00000978,-0.00002466,0.00001074,0.00002402,-0.00001156,-0
 .00001075,-0.00002403,-0.00001149,0.00000715,-0.00000985,-0.00002461,-
 0.00004458,-0.00004177,0.00000142,0.00000005,-0.00000101,-0.00094601,0
 .00000018,-0.00000553,-0.00434306,0.00000092,0.00000147,0.00039385,-0.
 00013333,-0.00031047,0.02662985,-0.51599794,0.01461091,0.00005217,0.00
 115760,0.00789426,-0.00000689,-0.00004286,-0.00005552,0.00000011,-0.00
 004346,0.00011764,-0.00000014,0.00005076,0.00002272,0.00003689,0.00005
 078,0.00002263,-0.00003696,0.00031723,-0.00047961,0.00000049,0.0001176
 6,0.00015960,-0.00000021,-0.00074121,0.00014278,-0.00000045,0.00075354
 ,-0.00001390,0.00000008,0.00202486,-0.00219308,0.00000215,-0.02542388,
 -0.01077087,0.00001180,0.00001532,0.00001959,-0.00000003,-0.00001565,0
 .00000195,0.00000274,0.00003681,-0.00000769,-0.00001563,-0.00001782,0.
 00000135,0.00000798,-0.00001782,0.00000134,-0.00000798,0.00003681,-0.0
 0000766,0.00001566,-0.00001566,0.00000195,-0.00000275,-0.00003420,0.00
 003597,0.00000001,0.00001176,-0.00002704,0.00000002,-0.00006499,-0.000
 13786,0.00000022,-0.00002773,0.00006156,0.00000002,0.53787011,0.061594
 89,-0.05159334,0.00002095,0.00742129,0.00241543,-0.00000709,-0.0000446
 6,-0.00000377,-0.00000001,0.00011657,-0.00006116,0.00000015,0.00003947
 ,0.00001852,0.00002621,0.00003945,0.00001845,-0.00002626,0.00001021,-0
 .00055279,0.00000048,0.00014003,0.00044343,-0.00000035,-0.00148913,0.0
 0040182,-0.00000007,0.00089551,-0.00044619,0.00000053,-0.00038197,-0.0
 0673211,0.00000854,-0.05857504,0.00274437,0.00000789,0.00002926,0.0000
 1282,-0.00000002,-0.00001492,0.00000060,0.00000552,0.00002925,-0.00000
 306,-0.00001415,-0.00001131,0.00000256,0.00000611,-0.00001131,0.000002
 53,-0.00000614,0.00002926,-0.00000302,0.00001416,-0.00001493,0.0000005
 9,-0.00000552,-0.00011834,0.00001191,-0.00000005,0.00003352,-0.0000181
 6,0.00000004,-0.00005543,-0.00009470,0.00000023,-0.00026064,0.00064423
 ,-0.00000111,-0.00940103,0.05279103,0.00001746,0.00002699,-0.01478827,
 -0.00000640,-0.00000735,-0.00579359,0.00000003,-0.00000004,-0.00001320
 ,-0.00000018,0.00000069,0.00018195,0.00001286,0.00001272,-0.00000004,-
 0.00001290,-0.00001273,0.00000001,0.00000049,-0.00000037,-0.00038138,-
 0.00000044,-0.00000058,-0.00003539,0.00000035,-0.00000007,0.00051789,-
 0.00000074,0.00000059,0.00000519,0.00000104,0.00000831,0.00382168,0.00
 004722,0.00000272,0.00479831,-0.00000002,-0.00000001,-0.00000618,0.000
 00593,-0.00000359,0.00000611,-0.00000105,-0.00000315,-0.00000288,0.000
 00256,0.00000883,-0.00000976,-0.00000256,-0.00000886,-0.00000973,0.000
 00102,0.00000315,-0.00000290,-0.00000592,0.00000360,0.00000610,0.00000
 006,-0.00000009,-0.00007052,-0.00000004,0.00000003,0.00001808,0.000000
 10,0.00000029,0.00019343,0.00000043,-0.00000103,-0.00025176,-0.0000593
 1,-0.00003004,0.01181686\\0.00002975,0.00002320,-0.00000259,-0.0000369
 4,0.00008915,0.00000033,-0.00003387,0.00000977,-0.00000005,0.00008523,
 0.00002304,0.00000014,0.00002331,-0.00001427,-0.00002631,0.00002302,-0
 .00001392,0.00002634,-0.00006173,-0.00003445,0.00000065,-0.00004521,-0
 .00001474,0.,0.00004737,0.00001929,-0.00000148,0.00006323,-0.00001127,
 0.00000130,-0.00005299,0.00003294,-0.00000087,0.00002504,-0.00009820,0
 .00000257,-0.00000726,-0.00000321,-0.00000032,-0.00000518,0.00000731,0
 .00000913,-0.00000711,0.00000169,0.00000637,-0.00000056,-0.00000295,0.
 00001315,-0.00000057,-0.00000309,-0.00001312,-0.00000715,0.00000177,-0
 .00000629,-0.00000546,0.00000722,-0.00000916,0.00000515,0.00000985,-0.
 00000037,0.00000083,-0.00000848,0.00000014,-0.00000267,-0.00000062,0.0
 0000027,-0.00000497,0.00000060,-0.00000024,-0.00003125,-0.00002063,0.0
 0000042\\\@


 Life may have no meaning.  Or even worse, it may have a
 meaning of which I disapprove.
                                 -- Ashleigh Brilliant
 Job cpu time:       0 days  4 hours 43 minutes  4.2 seconds.
 Elapsed time:       0 days  0 hours 17 minutes 47.4 seconds.
 File lengths (MBytes):  RWF=    258 Int=      0 D2E=      0 Chk=     11 Scr=      1
 Normal termination of Gaussian 16 at Wed Oct  1 17:14:19 2025.
