 Entering Gaussian System, Link 0=g16
 Input=CYAC0028.gjf
 Output=CYAC0028.log
 Initial command:
 /usr/local/g16/l1.exe "/dados_01/scratch/Gau-2387602.inp" -scrdir="/dados_01/scratch/"
 Entering Link 1 = /usr/local/g16/l1.exe PID=   2387603.
  
 Copyright (c) 1988-2017, Gaussian, Inc.  All Rights Reserved.
  
 This is part of the Gaussian(R) 16 program.  It is based on
 the Gaussian(R) 09 system (copyright 2009, Gaussian, Inc.),
 the Gaussian(R) 03 system (copyright 2003, Gaussian, Inc.),
 the Gaussian(R) 98 system (copyright 1998, Gaussian, Inc.),
 the Gaussian(R) 94 system (copyright 1995, Gaussian, Inc.),
 the Gaussian 92(TM) system (copyright 1992, Gaussian, Inc.),
 the Gaussian 90(TM) system (copyright 1990, Gaussian, Inc.),
 the Gaussian 88(TM) system (copyright 1988, Gaussian, Inc.),
 the Gaussian 86(TM) system (copyright 1986, Carnegie Mellon
 University), and the Gaussian 82(TM) system (copyright 1983,
 Carnegie Mellon University). Gaussian is a federally registered
 trademark of Gaussian, Inc.
  
 This software contains proprietary and confidential information,
 including trade secrets, belonging to Gaussian, Inc.
  
 This software is provided under written license and may be
 used, copied, transmitted, or stored only in accord with that
 written license.
  
 The following legend is applicable only to US Government
 contracts under FAR:
  
                    RESTRICTED RIGHTS LEGEND
  
 Use, reproduction and disclosure by the US Government is
 subject to restrictions as set forth in subparagraphs (a)
 and (c) of the Commercial Computer Software - Restricted
 Rights clause in FAR 52.227-19.
  
 Gaussian, Inc.
 340 Quinnipiac St., Bldg. 40, Wallingford CT 06492
  
  
 ---------------------------------------------------------------
 Warning -- This program may not be used in any manner that
 competes with the business of Gaussian, Inc. or will provide
 assistance to any competitor of Gaussian, Inc.  The licensee
 of this program is prohibited from giving any competitor of
 Gaussian, Inc. access to this program.  By using this program,
 the user acknowledges that Gaussian, Inc. is engaged in the
 business of creating and licensing software in the field of
 computational chemistry and represents and warrants to the
 licensee that it is not a competitor of Gaussian, Inc. and that
 it will not use this program in any manner prohibited above.
 ---------------------------------------------------------------
  

 Cite this work as:
 Gaussian 16, Revision B.01,
 M. J. Frisch, G. W. Trucks, H. B. Schlegel, G. E. Scuseria, 
 M. A. Robb, J. R. Cheeseman, G. Scalmani, V. Barone, 
 G. A. Petersson, H. Nakatsuji, X. Li, M. Caricato, A. V. Marenich, 
 J. Bloino, B. G. Janesko, R. Gomperts, B. Mennucci, H. P. Hratchian, 
 J. V. Ortiz, A. F. Izmaylov, J. L. Sonnenberg, D. Williams-Young, 
 F. Ding, F. Lipparini, F. Egidi, J. Goings, B. Peng, A. Petrone, 
 T. Henderson, D. Ranasinghe, V. G. Zakrzewski, J. Gao, N. Rega, 
 G. Zheng, W. Liang, M. Hada, M. Ehara, K. Toyota, R. Fukuda, 
 J. Hasegawa, M. Ishida, T. Nakajima, Y. Honda, O. Kitao, H. Nakai, 
 T. Vreven, K. Throssell, J. A. Montgomery, Jr., J. E. Peralta, 
 F. Ogliaro, M. J. Bearpark, J. J. Heyd, E. N. Brothers, K. N. Kudin, 
 V. N. Staroverov, T. A. Keith, R. Kobayashi, J. Normand, 
 K. Raghavachari, A. P. Rendell, J. C. Burant, S. S. Iyengar, 
 J. Tomasi, M. Cossi, J. M. Millam, M. Klene, C. Adamo, R. Cammi, 
 J. W. Ochterski, R. L. Martin, K. Morokuma, O. Farkas, 
 J. B. Foresman, and D. J. Fox, Gaussian, Inc., Wallingford CT, 2016.
 
 ******************************************
 Gaussian 16:  ES64L-G16RevB.01 20-Dec-2017
                 1-Oct-2025 
 ******************************************
 %nprocs=16
 Will use up to   16 processors via shared memory.
 %mem=40GB
 %chk=CYAC0028.chk
 ----------------------------------------------------------------------
 # opt freq=noraman M08HX/6-311++G** scf=xqc Empiricaldispersion=pfd In
 t(Grid=ultraFine)
 ----------------------------------------------------------------------
 1/18=20,19=15,26=4,38=1/1,3;
 2/9=110,12=2,17=6,18=5,40=1/2;
 3/5=4,6=6,7=1111,11=2,25=1,30=1,71=1,74=-74,75=-5,124=11/1,2,3;
 4//1;
 5/5=2,8=3,13=1,38=5/2,8;
 6/7=2,8=2,9=2,10=2,28=1/1;
 7//1,2,3,16;
 1/18=20,19=15,26=4/3(2);
 2/9=110/2;
 99//99;
 2/9=110/2;
 3/5=4,6=6,7=1111,11=2,25=1,30=1,71=1,74=-74,75=-5,124=11/1,2,3;
 4/5=5,16=3,69=1/1;
 5/5=2,8=3,13=1,38=5/2,8;
 7//1,2,3,16;
 1/18=20,19=15,26=4/3(-5);
 2/9=110/2;
 6/7=2,8=2,9=2,10=2,19=2,28=1/1;
 99/9=1/99;
 --------
 CYAC0028
 --------
 Symbolic Z-matrix:
 Charge =  0 Multiplicity = 1
 O                     2.5719   -0.7305    0.7293 
 O                     2.196     0.7867   -0.9297 
 C                     0.3472   -0.0588    0.3799 
 C                    -0.3799    1.2679    0.1501 
 C                    -0.3173   -1.2022   -0.3901 
 C                    -1.8688    1.1577    0.4679 
 C                    -1.8064   -1.3066   -0.0713 
 C                    -2.5264    0.0181   -0.3045 
 C                     1.7838    0.0677   -0.0317 
 H                     0.3149   -0.2741    1.4566 
 H                    -0.2654    1.5906   -0.8931 
 H                     0.0699    2.0551    0.7676 
 H                     0.1746   -2.1529   -0.1504 
 H                    -0.1865   -1.0523   -1.47 
 H                    -2.3682    2.1029    0.227 
 H                    -2.0003    0.9926    1.5444 
 H                    -1.9344   -1.6123    0.9744 
 H                    -2.2619   -2.0879   -0.6902 
 H                    -3.5758   -0.0744   -0.0031 
 H                    -2.5208    0.2527   -1.3761 
 H                     3.5167   -0.6631    0.4741 
 

 GradGradGradGradGradGradGradGradGradGradGradGradGradGradGradGradGradGrad
 Berny optimization.
 Initialization pass.
                           ----------------------------
                           !    Initial Parameters    !
                           ! (Angstroms and Degrees)  !
 --------------------------                            --------------------------
 ! Name  Definition              Value          Derivative Info.                !
 --------------------------------------------------------------------------------
 ! R1    R(1,9)                  1.3555         estimate D2E/DX2                !
 ! R2    R(1,21)                 0.981          estimate D2E/DX2                !
 ! R3    R(2,9)                  1.222          estimate D2E/DX2                !
 ! R4    R(3,4)                  1.5302         estimate D2E/DX2                !
 ! R5    R(3,5)                  1.5303         estimate D2E/DX2                !
 ! R6    R(3,9)                  1.4997         estimate D2E/DX2                !
 ! R7    R(3,10)                 1.0985         estimate D2E/DX2                !
 ! R8    R(4,6)                  1.5264         estimate D2E/DX2                !
 ! R9    R(4,11)                 1.098          estimate D2E/DX2                !
 ! R10   R(4,12)                 1.097          estimate D2E/DX2                !
 ! R11   R(5,7)                  1.5264         estimate D2E/DX2                !
 ! R12   R(5,13)                 1.0969         estimate D2E/DX2                !
 ! R13   R(5,14)                 1.0981         estimate D2E/DX2                !
 ! R14   R(6,8)                  1.5257         estimate D2E/DX2                !
 ! R15   R(6,15)                 1.0958         estimate D2E/DX2                !
 ! R16   R(6,16)                 1.097          estimate D2E/DX2                !
 ! R17   R(7,8)                  1.5257         estimate D2E/DX2                !
 ! R18   R(7,17)                 1.097          estimate D2E/DX2                !
 ! R19   R(7,18)                 1.0959         estimate D2E/DX2                !
 ! R20   R(8,19)                 1.0957         estimate D2E/DX2                !
 ! R21   R(8,20)                 1.097          estimate D2E/DX2                !
 ! A1    A(9,1,21)             111.9292         estimate D2E/DX2                !
 ! A2    A(4,3,5)              111.4632         estimate D2E/DX2                !
 ! A3    A(4,3,9)              109.926          estimate D2E/DX2                !
 ! A4    A(4,3,10)             107.6469         estimate D2E/DX2                !
 ! A5    A(5,3,9)              109.9302         estimate D2E/DX2                !
 ! A6    A(5,3,10)             109.5103         estimate D2E/DX2                !
 ! A7    A(9,3,10)             108.2824         estimate D2E/DX2                !
 ! A8    A(3,4,6)              111.692          estimate D2E/DX2                !
 ! A9    A(3,4,11)             110.3619         estimate D2E/DX2                !
 ! A10   A(3,4,12)             110.0477         estimate D2E/DX2                !
 ! A11   A(6,4,11)             108.7086         estimate D2E/DX2                !
 ! A12   A(6,4,12)             109.5466         estimate D2E/DX2                !
 ! A13   A(11,4,12)            106.3301         estimate D2E/DX2                !
 ! A14   A(3,5,7)              111.6926         estimate D2E/DX2                !
 ! A15   A(3,5,13)             110.0533         estimate D2E/DX2                !
 ! A16   A(3,5,14)             109.9451         estimate D2E/DX2                !
 ! A17   A(7,5,13)             109.4239         estimate D2E/DX2                !
 ! A18   A(7,5,14)             109.3259         estimate D2E/DX2                !
 ! A19   A(13,5,14)            106.2483         estimate D2E/DX2                !
 ! A20   A(4,6,8)              111.6506         estimate D2E/DX2                !
 ! A21   A(4,6,15)             109.6629         estimate D2E/DX2                !
 ! A22   A(4,6,16)             109.3963         estimate D2E/DX2                !
 ! A23   A(8,6,15)             109.6668         estimate D2E/DX2                !
 ! A24   A(8,6,16)             109.434          estimate D2E/DX2                !
 ! A25   A(15,6,16)            106.9125         estimate D2E/DX2                !
 ! A26   A(5,7,8)              111.659          estimate D2E/DX2                !
 ! A27   A(5,7,17)             109.3895         estimate D2E/DX2                !
 ! A28   A(5,7,18)             109.6515         estimate D2E/DX2                !
 ! A29   A(8,7,17)             109.4276         estimate D2E/DX2                !
 ! A30   A(8,7,18)             109.6673         estimate D2E/DX2                !
 ! A31   A(17,7,18)            106.9285         estimate D2E/DX2                !
 ! A32   A(6,8,7)              111.5778         estimate D2E/DX2                !
 ! A33   A(6,8,19)             109.6693         estimate D2E/DX2                !
 ! A34   A(6,8,20)             109.427          estimate D2E/DX2                !
 ! A35   A(7,8,19)             109.6716         estimate D2E/DX2                !
 ! A36   A(7,8,20)             109.4263         estimate D2E/DX2                !
 ! A37   A(19,8,20)            106.9562         estimate D2E/DX2                !
 ! A38   A(1,9,2)              124.2583         estimate D2E/DX2                !
 ! A39   A(1,9,3)              110.6822         estimate D2E/DX2                !
 ! A40   A(2,9,3)              125.0593         estimate D2E/DX2                !
 ! D1    D(21,1,9,2)             0.0244         estimate D2E/DX2                !
 ! D2    D(21,1,9,3)           179.8981         estimate D2E/DX2                !
 ! D3    D(5,3,4,6)             54.0249         estimate D2E/DX2                !
 ! D4    D(5,3,4,11)           -67.029          estimate D2E/DX2                !
 ! D5    D(5,3,4,12)           175.9261         estimate D2E/DX2                !
 ! D6    D(9,3,4,6)            176.1742         estimate D2E/DX2                !
 ! D7    D(9,3,4,11)            55.1202         estimate D2E/DX2                !
 ! D8    D(9,3,4,12)           -61.9247         estimate D2E/DX2                !
 ! D9    D(10,3,4,6)           -66.0849         estimate D2E/DX2                !
 ! D10   D(10,3,4,11)          172.8612         estimate D2E/DX2                !
 ! D11   D(10,3,4,12)           55.8163         estimate D2E/DX2                !
 ! D12   D(4,3,5,7)            -54.0131         estimate D2E/DX2                !
 ! D13   D(4,3,5,13)          -175.7624         estimate D2E/DX2                !
 ! D14   D(4,3,5,14)            67.5371         estimate D2E/DX2                !
 ! D15   D(9,3,5,7)           -176.1599         estimate D2E/DX2                !
 ! D16   D(9,3,5,13)            62.0907         estimate D2E/DX2                !
 ! D17   D(9,3,5,14)           -54.6097         estimate D2E/DX2                !
 ! D18   D(10,3,5,7)            64.9922         estimate D2E/DX2                !
 ! D19   D(10,3,5,13)          -56.7572         estimate D2E/DX2                !
 ! D20   D(10,3,5,14)         -173.4576         estimate D2E/DX2                !
 ! D21   D(4,3,9,1)            148.6013         estimate D2E/DX2                !
 ! D22   D(4,3,9,2)            -31.5262         estimate D2E/DX2                !
 ! D23   D(5,3,9,1)            -88.3438         estimate D2E/DX2                !
 ! D24   D(5,3,9,2)             91.5286         estimate D2E/DX2                !
 ! D25   D(10,3,9,1)            31.2554         estimate D2E/DX2                !
 ! D26   D(10,3,9,2)          -148.8721         estimate D2E/DX2                !
 ! D27   D(3,4,6,8)            -54.368          estimate D2E/DX2                !
 ! D28   D(3,4,6,15)          -176.1274         estimate D2E/DX2                !
 ! D29   D(3,4,6,16)            66.9156         estimate D2E/DX2                !
 ! D30   D(11,4,6,8)            67.6421         estimate D2E/DX2                !
 ! D31   D(11,4,6,15)          -54.1174         estimate D2E/DX2                !
 ! D32   D(11,4,6,16)         -171.0744         estimate D2E/DX2                !
 ! D33   D(12,4,6,8)          -176.5573         estimate D2E/DX2                !
 ! D34   D(12,4,6,15)           61.6833         estimate D2E/DX2                !
 ! D35   D(12,4,6,16)          -55.2737         estimate D2E/DX2                !
 ! D36   D(3,5,7,8)             54.348          estimate D2E/DX2                !
 ! D37   D(3,5,7,17)           -66.9283         estimate D2E/DX2                !
 ! D38   D(3,5,7,18)           176.1059         estimate D2E/DX2                !
 ! D39   D(13,5,7,8)           176.4599         estimate D2E/DX2                !
 ! D40   D(13,5,7,17)           55.1835         estimate D2E/DX2                !
 ! D41   D(13,5,7,18)          -61.7823         estimate D2E/DX2                !
 ! D42   D(14,5,7,8)           -67.5594         estimate D2E/DX2                !
 ! D43   D(14,5,7,17)          171.1642         estimate D2E/DX2                !
 ! D44   D(14,5,7,18)           54.1985         estimate D2E/DX2                !
 ! D45   D(4,6,8,7)             54.5331         estimate D2E/DX2                !
 ! D46   D(4,6,8,19)           176.2547         estimate D2E/DX2                !
 ! D47   D(4,6,8,20)           -66.7141         estimate D2E/DX2                !
 ! D48   D(15,6,8,7)           176.2903         estimate D2E/DX2                !
 ! D49   D(15,6,8,19)          -61.9881         estimate D2E/DX2                !
 ! D50   D(15,6,8,20)           55.0432         estimate D2E/DX2                !
 ! D51   D(16,6,8,7)           -66.7286         estimate D2E/DX2                !
 ! D52   D(16,6,8,19)           54.993          estimate D2E/DX2                !
 ! D53   D(16,6,8,20)          172.0242         estimate D2E/DX2                !
 ! D54   D(5,7,8,6)            -54.5255         estimate D2E/DX2                !
 ! D55   D(5,7,8,19)          -176.2458         estimate D2E/DX2                !
 ! D56   D(5,7,8,20)            66.722          estimate D2E/DX2                !
 ! D57   D(17,7,8,6)            66.7287         estimate D2E/DX2                !
 ! D58   D(17,7,8,19)          -54.9915         estimate D2E/DX2                !
 ! D59   D(17,7,8,20)         -172.0237         estimate D2E/DX2                !
 ! D60   D(18,7,8,6)          -176.2743         estimate D2E/DX2                !
 ! D61   D(18,7,8,19)           62.0055         estimate D2E/DX2                !
 ! D62   D(18,7,8,20)          -55.0268         estimate D2E/DX2                !
 --------------------------------------------------------------------------------
 Trust Radius=3.00D-01 FncErr=1.00D-07 GrdErr=1.00D-06 EigMax=2.50D+02 EigMin=1.00D-04
 Number of steps in this run=    126 maximum allowed number of steps=    126.
 GradGradGradGradGradGradGradGradGradGradGradGradGradGradGradGradGradGrad

                          Input orientation:                          
 ---------------------------------------------------------------------
 Center     Atomic      Atomic             Coordinates (Angstroms)
 Number     Number       Type             X           Y           Z
 ---------------------------------------------------------------------
      1          8           0        2.571900   -0.730500    0.729300
      2          8           0        2.196000    0.786700   -0.929700
      3          6           0        0.347200   -0.058800    0.379900
      4          6           0       -0.379900    1.267900    0.150100
      5          6           0       -0.317300   -1.202200   -0.390100
      6          6           0       -1.868800    1.157700    0.467900
      7          6           0       -1.806400   -1.306600   -0.071300
      8          6           0       -2.526400    0.018100   -0.304500
      9          6           0        1.783800    0.067700   -0.031700
     10          1           0        0.314900   -0.274100    1.456600
     11          1           0       -0.265400    1.590600   -0.893100
     12          1           0        0.069900    2.055100    0.767600
     13          1           0        0.174600   -2.152900   -0.150400
     14          1           0       -0.186500   -1.052300   -1.470000
     15          1           0       -2.368200    2.102900    0.227000
     16          1           0       -2.000300    0.992600    1.544400
     17          1           0       -1.934400   -1.612300    0.974400
     18          1           0       -2.261900   -2.087900   -0.690200
     19          1           0       -3.575800   -0.074400   -0.003100
     20          1           0       -2.520800    0.252700   -1.376100
     21          1           0        3.516700   -0.663100    0.474100
 ---------------------------------------------------------------------
                    Distance matrix (angstroms):
                    1          2          3          4          5
     1  O    0.000000
     2  O    2.279359   0.000000
     3  C    2.350011   2.418261   0.000000
     4  C    3.611398   2.834216   1.530234   0.000000
     5  C    3.134172   3.250164   1.530302   2.529255   0.000000
     6  C    4.832540   4.314340   2.529481   1.526422   2.951685
     7  C    4.488024   4.597604   2.529541   2.951605   1.526418
     8  C    5.255645   4.825213   2.954978   2.525099   2.525190
     9  C    1.355487   1.221996   1.499745   2.480953   2.481072
    10  H    2.414812   3.218425   1.098490   2.137160   2.161330
    11  H    4.008735   2.589611   2.171711   1.097958   2.838210
    12  H    3.744468   3.001661   2.166975   1.096955   3.478534
    13  H    2.923036   3.651659   2.167086   3.478454   1.096929
    14  H    3.542492   3.057802   2.166566   2.836451   1.098072
    15  H    5.717084   4.888994   3.474151   2.157887   3.938361
    16  H    4.953632   4.875705   2.823519   2.155356   3.375193
    17  H    4.598302   5.142081   2.823560   3.375129   2.155239
    18  H    5.217580   5.309761   3.474157   3.938200   2.157775
    19  H    6.225841   5.908786   3.941683   3.469729   3.469802
    20  H    5.597766   4.767875   3.377276   2.818399   2.818571
    21  H    0.980977   2.411809   3.227969   4.360875   3.966992
                    6          7          8          9         10
     6  C    0.000000
     7  C    2.523372   0.000000
     8  C    1.525689   1.525651   0.000000
     9  C    3.844371   3.844451   4.319109   0.000000
    10  H    2.792154   2.810774   3.355568   2.118851   0.000000
    11  H    2.147234   3.382869   2.816261   2.694523   3.055314
    12  H    2.157245   3.940213   3.469804   2.743372   2.441294
    13  H    3.939270   2.155653   3.468773   2.744937   2.476292
    14  H    3.386693   2.155251   2.824762   2.684248   3.069525
    15  H    1.095827   3.468327   2.157292   4.631206   3.789600
    16  H    1.096997   2.816807   2.155194   4.202255   2.640528
    17  H    2.816691   1.096962   2.155053   4.202338   2.661324
    18  H    3.468378   1.095877   2.157304   4.631190   3.812941
    19  H    2.157258   2.157254   1.095737   5.361560   4.160307
    20  H    2.155102   2.155061   1.096994   4.513449   4.042636
    21  H    5.684977   5.389522   6.131012   1.947523   3.371669
                   11         12         13         14         15
    11  H    0.000000
    12  H    1.756733   0.000000
    13  H    3.841744   4.308242   0.000000
    14  H    2.706281   3.837777   1.755864   0.000000
    15  H    2.436974   2.497772   4.971931   4.194629   0.000000
    16  H    3.051047   2.453172   4.182907   4.069164   1.761721
    17  H    4.065918   4.184472   2.450572   3.056770   3.814381
    18  H    4.190292   4.972617   2.496426   2.447006   4.291312
    19  H    3.810915   4.291838   4.290380   3.820398   2.500376
    20  H    2.666476   3.815209   3.815027   2.675967   2.452847
    21  H    4.610063   4.399453   3.712026   4.200558   6.507216
                   16         17         18         19         20
    16  H    0.000000
    17  H    2.667348   0.000000
    18  H    3.814623   1.761915   0.000000
    19  H    2.452641   2.452516   2.500524   0.000000
    20  H    3.057400   3.057277   2.452732   1.762143   0.000000
    21  H    5.858684   5.555697   6.064476   7.132871   6.380700
                   21
    21  H    0.000000
 Stoichiometry    C7H12O2
 Framework group  C1[X(C7H12O2)]
 Deg. of freedom    57
 Full point group                 C1      NOp   1
 Largest Abelian subgroup         C1      NOp   1
 Largest concise Abelian subgroup C1      NOp   1
                         Standard orientation:                         
 ---------------------------------------------------------------------
 Center     Atomic      Atomic             Coordinates (Angstroms)
 Number     Number       Type             X           Y           Z
 ---------------------------------------------------------------------
      1          8           0        2.610518    0.672386   -0.705471
      2          8           0        2.196381   -0.825547    0.961912
      3          6           0        0.372561    0.038470   -0.370432
      4          6           0       -0.377326   -1.274794   -0.136720
      5          6           0       -0.280484    1.198218    0.384778
      6          6           0       -1.861493   -1.143760   -0.468447
      7          6           0       -1.764933    1.323449    0.052094
      8          6           0       -2.507719    0.012099    0.289252
      9          6           0        1.803366   -0.107298    0.054756
     10          1           0        0.352995    0.245720   -1.449016
     11          1           0       -0.276975   -1.590983    0.909925
     12          1           0        0.065346   -2.073820   -0.744099
     13          1           0        0.228401    2.139154    0.142024
     14          1           0       -0.161430    1.054837    1.466920
     15          1           0       -2.377799   -2.079069   -0.224602
     16          1           0       -1.981036   -0.985144   -1.547314
     17          1           0       -1.879028    1.622832   -0.997037
     18          1           0       -2.213410    2.116676    0.660868
     19          1           0       -3.552878    0.118668   -0.022074
     20          1           0       -2.515108   -0.214069    1.362652
     21          1           0        3.551890    0.592188   -0.441457
 ---------------------------------------------------------------------
 Rotational constants (GHZ):           3.1767936           1.0639895           0.9176529
 Standard basis: 6-311++G(d,p) (5D, 7F)
 There are   291 symmetry adapted cartesian basis functions of A   symmetry.
 There are   282 symmetry adapted basis functions of A   symmetry.
   282 basis functions,   432 primitive gaussians,   291 cartesian basis functions
    35 alpha electrons       35 beta electrons
       nuclear repulsion energy       474.8484763272 Hartrees.
 NAtoms=   21 NActive=   21 NUniq=   21 SFac= 1.00D+00 NAtFMM=   60 NAOKFM=F Big=F
 Integral buffers will be    131072 words long.
 Raffenetti 2 integral format.
 Two-electron integral symmetry is turned on.
 R6APFD:  NTU= -4 IXU= 1 FactS= 1.050
 Nuclear repulsion after empirical dispersion term =      474.8321231742 Hartrees.
 One-electron integrals computed using PRISM.
 NBasis=   282 RedAO= T EigKep=  5.95D-06  NBF=   282
 NBsUse=   282 1.00D-06 EigRej= -1.00D+00 NBFU=   282
 ExpMin= 3.60D-02 ExpMax= 8.59D+03 ExpMxC= 1.30D+03 IAcc=3 IRadAn=         5 AccDes= 0.00D+00
 Harris functional with IExCor= 1009 and IRadAn=       5 diagonalized for initial guess.
 HarFok:  IExCor= 1009 AccDes= 0.00D+00 IRadAn=         5 IDoV= 1 UseB2=F ITyADJ=14
 ICtDFT=  3500011 ScaDFX=  1.000000  1.000000  1.000000  1.000000
 FoFCou: FMM=F IPFlag=           0 FMFlag=      100000 FMFlg1=           0
         NFxFlg=           0 DoJE=T BraDBF=F KetDBF=T FulRan=T
         wScrn=  0.000000 ICntrl=       500 IOpCl=  0 I1Cent=   200000004 NGrid=           0
         NMat0=    1 NMatS0=      1 NMatT0=    0 NMatD0=    1 NMtDS0=    0 NMtDT0=    0
 Petite list used in FoFCou.
 Requested convergence on RMS density matrix=1.00D-08 within  32 cycles.
 Requested convergence on MAX density matrix=1.00D-06.
 Requested convergence on             energy=1.00D-06.
 No special actions if energy rises.
 SCF Done:  E(RM08HX) =  -424.460756699     A.U. after   13 cycles
            NFock= 13  Conv=0.10D-07     -V/T= 2.0048
 QCSCF skips out because SCF is already converged.

 **********************************************************************

            Population analysis using the SCF Density.

 **********************************************************************

 Orbital symmetries:
       Occupied  (A) (A) (A) (A) (A) (A) (A) (A) (A) (A) (A) (A)
                 (A) (A) (A) (A) (A) (A) (A) (A) (A) (A) (A) (A)
                 (A) (A) (A) (A) (A) (A) (A) (A) (A) (A) (A)
       Virtual   (A) (A) (A) (A) (A) (A) (A) (A) (A) (A) (A) (A)
                 (A) (A) (A) (A) (A) (A) (A) (A) (A) (A) (A) (A)
                 (A) (A) (A) (A) (A) (A) (A) (A) (A) (A) (A) (A)
                 (A) (A) (A) (A) (A) (A) (A) (A) (A) (A) (A) (A)
                 (A) (A) (A) (A) (A) (A) (A) (A) (A) (A) (A) (A)
                 (A) (A) (A) (A) (A) (A) (A) (A) (A) (A) (A) (A)
                 (A) (A) (A) (A) (A) (A) (A) (A) (A) (A) (A) (A)
                 (A) (A) (A) (A) (A) (A) (A) (A) (A) (A) (A) (A)
                 (A) (A) (A) (A) (A) (A) (A) (A) (A) (A) (A) (A)
                 (A) (A) (A) (A) (A) (A) (A) (A) (A) (A) (A) (A)
                 (A) (A) (A) (A) (A) (A) (A) (A) (A) (A) (A) (A)
                 (A) (A) (A) (A) (A) (A) (A) (A) (A) (A) (A) (A)
                 (A) (A) (A) (A) (A) (A) (A) (A) (A) (A) (A) (A)
                 (A) (A) (A) (A) (A) (A) (A) (A) (A) (A) (A) (A)
                 (A) (A) (A) (A) (A) (A) (A) (A) (A) (A) (A) (A)
                 (A) (A) (A) (A) (A) (A) (A) (A) (A) (A) (A) (A)
                 (A) (A) (A) (A) (A) (A) (A) (A) (A) (A) (A) (A)
                 (A) (A) (A) (A) (A) (A) (A) (A) (A) (A) (A) (A)
                 (A) (A) (A) (A) (A) (A) (A) (A) (A) (A) (A) (A)
                 (A) (A) (A) (A) (A) (A) (A) (A) (A) (A) (A) (A)
                 (A) (A) (A) (A) (A) (A) (A)
 The electronic state is 1-A.
 Alpha  occ. eigenvalues --  -19.66415 -19.60573 -10.67284 -10.54884 -10.53488
 Alpha  occ. eigenvalues --  -10.52781 -10.52584 -10.52433 -10.52364  -1.23226
 Alpha  occ. eigenvalues --   -1.13683  -0.95685  -0.87328  -0.85264  -0.76215
 Alpha  occ. eigenvalues --   -0.70843  -0.68455  -0.63766  -0.59117  -0.57883
 Alpha  occ. eigenvalues --   -0.55114  -0.53713  -0.51664  -0.51345  -0.49583
 Alpha  occ. eigenvalues --   -0.45858  -0.45245  -0.44893  -0.41981  -0.41252
 Alpha  occ. eigenvalues --   -0.39966  -0.38574  -0.38028  -0.36728  -0.35260
 Alpha virt. eigenvalues --   -0.03091  -0.02025  -0.01497  -0.01080   0.00184
 Alpha virt. eigenvalues --    0.01239   0.01599   0.01879   0.02307   0.03041
 Alpha virt. eigenvalues --    0.03394   0.05078   0.05324   0.05507   0.05778
 Alpha virt. eigenvalues --    0.07262   0.07320   0.08785   0.09681   0.10443
 Alpha virt. eigenvalues --    0.11020   0.11215   0.12197   0.12385   0.12575
 Alpha virt. eigenvalues --    0.12847   0.13181   0.13207   0.13627   0.14634
 Alpha virt. eigenvalues --    0.14983   0.15315   0.15655   0.15749   0.16101
 Alpha virt. eigenvalues --    0.16647   0.17170   0.17715   0.18826   0.19965
 Alpha virt. eigenvalues --    0.21290   0.21946   0.22649   0.23364   0.23999
 Alpha virt. eigenvalues --    0.25241   0.26350   0.26623   0.27203   0.27366
 Alpha virt. eigenvalues --    0.27564   0.28533   0.29247   0.30081   0.31592
 Alpha virt. eigenvalues --    0.32726   0.33033   0.34196   0.35166   0.35541
 Alpha virt. eigenvalues --    0.35942   0.36662   0.37091   0.37247   0.38590
 Alpha virt. eigenvalues --    0.39337   0.39711   0.40641   0.44701   0.47809
 Alpha virt. eigenvalues --    0.48684   0.49372   0.50099   0.51260   0.53014
 Alpha virt. eigenvalues --    0.54348   0.56438   0.58103   0.60146   0.61269
 Alpha virt. eigenvalues --    0.64586   0.65468   0.67596   0.68573   0.70156
 Alpha virt. eigenvalues --    0.70330   0.71502   0.71965   0.72391   0.72787
 Alpha virt. eigenvalues --    0.73440   0.75264   0.76271   0.77971   0.78195
 Alpha virt. eigenvalues --    0.78656   0.79031   0.79230   0.79593   0.80417
 Alpha virt. eigenvalues --    0.84385   0.88585   0.89690   0.90267   0.94180
 Alpha virt. eigenvalues --    0.95739   1.01958   1.06322   1.06700   1.08405
 Alpha virt. eigenvalues --    1.12055   1.14797   1.16348   1.18894   1.21285
 Alpha virt. eigenvalues --    1.22448   1.23874   1.25441   1.27050   1.28455
 Alpha virt. eigenvalues --    1.30717   1.31746   1.34706   1.38123   1.47812
 Alpha virt. eigenvalues --    1.49487   1.52534   1.53662   1.54984   1.57076
 Alpha virt. eigenvalues --    1.58768   1.59020   1.60366   1.61726   1.62661
 Alpha virt. eigenvalues --    1.63501   1.63976   1.64711   1.65729   1.66971
 Alpha virt. eigenvalues --    1.68157   1.68722   1.70236   1.72789   1.75019
 Alpha virt. eigenvalues --    1.75392   1.78889   1.81070   1.82503   1.83128
 Alpha virt. eigenvalues --    1.83526   1.84741   1.85749   1.87874   1.88036
 Alpha virt. eigenvalues --    1.91516   1.95312   1.98526   2.01246   2.02615
 Alpha virt. eigenvalues --    2.07396   2.08979   2.10529   2.13531   2.17954
 Alpha virt. eigenvalues --    2.22788   2.23846   2.24843   2.27721   2.28713
 Alpha virt. eigenvalues --    2.32854   2.34960   2.36789   2.40502   2.42052
 Alpha virt. eigenvalues --    2.43672   2.45324   2.50161   2.52351   2.57002
 Alpha virt. eigenvalues --    2.57458   2.58306   2.60264   2.61962   2.64736
 Alpha virt. eigenvalues --    2.66093   2.67603   2.72624   2.73245   2.76432
 Alpha virt. eigenvalues --    2.77850   2.78926   2.80923   2.82110   2.83303
 Alpha virt. eigenvalues --    2.83380   2.87191   2.87861   2.90371   2.94565
 Alpha virt. eigenvalues --    2.95489   2.96923   2.98586   3.00240   3.03118
 Alpha virt. eigenvalues --    3.10680   3.11726   3.19457   3.20412   3.24174
 Alpha virt. eigenvalues --    3.26288   3.29796   3.41673   3.44561   3.45872
 Alpha virt. eigenvalues --    3.54736   3.65319   3.72518   3.78870   3.82533
 Alpha virt. eigenvalues --    3.84990   3.87947   3.88666   3.94479   4.12523
 Alpha virt. eigenvalues --    4.15216   4.17907   4.20811   4.30587   4.36965
 Alpha virt. eigenvalues --    4.39540   4.47383   5.10424   5.18308   5.31893
 Alpha virt. eigenvalues --    5.49898   5.70522   5.95037  23.84735  23.89667
 Alpha virt. eigenvalues --   23.95965  23.99121  24.00453  24.00671  24.01113
 Alpha virt. eigenvalues --   49.89780  50.01979
          Condensed to atoms (all electrons):
               1          2          3          4          5          6
     1  O    7.998224  -0.131703  -0.045667  -0.032210  -0.109745   0.000173
     2  O   -0.131703   7.901953   0.096766  -0.015495  -0.095048   0.003965
     3  C   -0.045667   0.096766  12.593864  -2.412803  -2.548777   0.262390
     4  C   -0.032210  -0.015495  -2.412803   9.113343  -0.078083  -0.927421
     5  C   -0.109745  -0.095048  -2.548777  -0.078083   9.076671  -0.131936
     6  C    0.000173   0.003965   0.262390  -0.927421  -0.131936   7.568891
     7  C    0.017907   0.000517   0.330412   0.217016  -1.109158   0.019008
     8  C   -0.001754  -0.000415  -0.231857  -0.142373   0.099831  -0.635531
     9  C    0.190636   0.486619  -2.828037   0.633440   0.809566  -0.444862
    10  H    0.004858  -0.004494   0.816223  -0.316980  -0.119750  -0.008912
    11  H    0.001997  -0.005469   0.159562   0.396092  -0.110622  -0.004850
    12  H   -0.005845  -0.003853  -0.103045   0.558264  -0.004588  -0.109889
    13  H    0.020887   0.002782  -0.176045   0.054913   0.509284   0.003780
    14  H   -0.003055  -0.001561   0.149124  -0.153706   0.445606   0.042182
    15  H   -0.000480   0.000586  -0.011740  -0.025437  -0.000061   0.444526
    16  H   -0.000067  -0.001101  -0.048005  -0.088204   0.000615   0.594427
    17  H    0.000176   0.000075  -0.024240  -0.026292  -0.079381  -0.006945
    18  H   -0.000860  -0.000248  -0.017140   0.022244  -0.038590  -0.017532
    19  H   -0.000271   0.000082   0.012444   0.013967  -0.014089  -0.077386
    20  H    0.001096   0.000296  -0.000244  -0.077065  -0.031688  -0.042772
    21  H    0.243189  -0.013753  -0.169778  -0.006768   0.020596  -0.006587
               7          8          9         10         11         12
     1  O    0.017907  -0.001754   0.190636   0.004858   0.001997  -0.005845
     2  O    0.000517  -0.000415   0.486619  -0.004494  -0.005469  -0.003853
     3  C    0.330412  -0.231857  -2.828037   0.816223   0.159562  -0.103045
     4  C    0.217016  -0.142373   0.633440  -0.316980   0.396092   0.558264
     5  C   -1.109158   0.099831   0.809566  -0.119750  -0.110622  -0.004588
     6  C    0.019008  -0.635531  -0.444862  -0.008912  -0.004850  -0.109889
     7  C    7.222547  -0.536963  -0.402002  -0.006824   0.032749  -0.007154
     8  C   -0.536963   7.208660   0.151750  -0.008978  -0.043944  -0.022898
     9  C   -0.402002   0.151750   7.618150  -0.123135  -0.093859   0.033823
    10  H   -0.006824  -0.008978  -0.123135   0.442272   0.010376  -0.012334
    11  H    0.032749  -0.043944  -0.093859   0.010376   0.395453  -0.020165
    12  H   -0.007154  -0.022898   0.033823  -0.012334  -0.020165   0.457609
    13  H   -0.077978   0.004866   0.024905  -0.016651  -0.004895   0.000664
    14  H   -0.025375  -0.057846  -0.069046   0.016022   0.009595  -0.003216
    15  H   -0.000307  -0.078551  -0.000590  -0.003392  -0.002737  -0.009315
    16  H   -0.027090  -0.059547  -0.005271  -0.002006   0.000688  -0.008207
    17  H    0.565869  -0.064760  -0.006559   0.005257   0.000880  -0.000660
    18  H    0.453447  -0.078977   0.007839  -0.004644  -0.001003   0.001037
    19  H   -0.077583   0.478588  -0.018198  -0.000605   0.000431  -0.000473
    20  H   -0.041707   0.548939   0.018244   0.002613  -0.000125  -0.002902
    21  H   -0.007055   0.001484   0.164991   0.007502   0.000045  -0.000846
              13         14         15         16         17         18
     1  O    0.020887  -0.003055  -0.000480  -0.000067   0.000176  -0.000860
     2  O    0.002782  -0.001561   0.000586  -0.001101   0.000075  -0.000248
     3  C   -0.176045   0.149124  -0.011740  -0.048005  -0.024240  -0.017140
     4  C    0.054913  -0.153706  -0.025437  -0.088204  -0.026292   0.022244
     5  C    0.509284   0.445606  -0.000061   0.000615  -0.079381  -0.038590
     6  C    0.003780   0.042182   0.444526   0.594427  -0.006945  -0.017532
     7  C   -0.077978  -0.025375  -0.000307  -0.027090   0.565869   0.453447
     8  C    0.004866  -0.057846  -0.078551  -0.059547  -0.064760  -0.078977
     9  C    0.024905  -0.069046  -0.000590  -0.005271  -0.006559   0.007839
    10  H   -0.016651   0.016022  -0.003392  -0.002006   0.005257  -0.004644
    11  H   -0.004895   0.009595  -0.002737   0.000688   0.000880  -0.001003
    12  H    0.000664  -0.003216  -0.009315  -0.008207  -0.000660   0.001037
    13  H    0.460824  -0.026996   0.001287  -0.000055  -0.008210  -0.008229
    14  H   -0.026996   0.416898  -0.001589   0.000654   0.003471  -0.005434
    15  H    0.001287  -0.001589   0.455605  -0.011409  -0.003623  -0.000113
    16  H   -0.000055   0.000654  -0.011409   0.436363   0.002369  -0.002949
    17  H   -0.008210   0.003471  -0.003623   0.002369   0.428793  -0.010630
    18  H   -0.008229  -0.005434  -0.000113  -0.002949  -0.010630   0.454927
    19  H   -0.000362  -0.000768  -0.007284   0.000823   0.000954  -0.007498
    20  H   -0.002762   0.003994  -0.005972   0.002300   0.002549  -0.005511
    21  H   -0.003585   0.000930  -0.000145  -0.000179   0.000149  -0.000063
              19         20         21
     1  O   -0.000271   0.001096   0.243189
     2  O    0.000082   0.000296  -0.013753
     3  C    0.012444  -0.000244  -0.169778
     4  C    0.013967  -0.077065  -0.006768
     5  C   -0.014089  -0.031688   0.020596
     6  C   -0.077386  -0.042772  -0.006587
     7  C   -0.077583  -0.041707  -0.007055
     8  C    0.478588   0.548939   0.001484
     9  C   -0.018198   0.018244   0.164991
    10  H   -0.000605   0.002613   0.007502
    11  H    0.000431  -0.000125   0.000045
    12  H   -0.000473  -0.002902  -0.000846
    13  H   -0.000362  -0.002762  -0.003585
    14  H   -0.000768   0.003994   0.000930
    15  H   -0.007284  -0.005972  -0.000145
    16  H    0.000823   0.002300  -0.000179
    17  H    0.000954   0.002549   0.000149
    18  H   -0.007498  -0.005511  -0.000063
    19  H    0.441957  -0.005304  -0.000085
    20  H   -0.005304   0.431295   0.000251
    21  H   -0.000085   0.000251   0.449583
 Mulliken charges:
               1
     1  O   -0.147485
     2  O   -0.220500
     3  C    0.196595
     4  C   -0.706440
     5  C   -0.490655
     6  C   -0.524718
     7  C   -0.540276
     8  C   -0.529724
     9  C   -0.148404
    10  H    0.323583
    11  H    0.279805
    12  H    0.263994
    13  H    0.241573
    14  H    0.260117
    15  H    0.260743
    16  H    0.215851
    17  H    0.220758
    18  H    0.259928
    19  H    0.260660
    20  H    0.204473
    21  H    0.320121
 Sum of Mulliken charges =  -0.00000
 Mulliken charges with hydrogens summed into heavy atoms:
               1
     1  O    0.172636
     2  O   -0.220500
     3  C    0.520178
     4  C   -0.162641
     5  C    0.011036
     6  C   -0.048124
     7  C   -0.059589
     8  C   -0.064590
     9  C   -0.148404
 Electronic spatial extent (au):  <R**2>=           1337.9700
 Charge=             -0.0000 electrons
 Dipole moment (field-independent basis, Debye):
    X=             -0.7581    Y=              1.1411    Z=             -1.2182  Tot=              1.8332
 Quadrupole moment (field-independent basis, Debye-Ang):
   XX=            -51.7108   YY=            -57.2950   ZZ=            -58.6554
   XY=              3.4189   XZ=             -3.4341   YZ=              2.9379
 Traceless Quadrupole moment (field-independent basis, Debye-Ang):
   XX=              4.1763   YY=             -1.4079   ZZ=             -2.7684
   XY=              3.4189   XZ=             -3.4341   YZ=              2.9379
 Octapole moment (field-independent basis, Debye-Ang**2):
  XXX=             50.8614  YYY=              0.3160  ZZZ=             -0.9452  XYY=              1.0969
  XXY=             12.1805  XXZ=             -9.7160  XZZ=             -1.6985  YZZ=              1.3758
  YYZ=             -0.4071  XYZ=              6.3758
 Hexadecapole moment (field-independent basis, Debye-Ang**3):
 XXXX=           -998.0821 YYYY=           -404.0534 ZZZZ=           -182.1027 XXXY=             46.4817
 XXXZ=            -33.8869 YYYX=              5.1957 YYYZ=             -0.3781 ZZZX=             -3.8113
 ZZZY=             -1.5926 XXYY=           -270.5656 XXZZ=           -244.8250 YYZZ=            -99.8701
 XXYZ=             11.1547 YYXZ=             -5.5038 ZZXY=              1.5967
 N-N= 4.748321231742D+02 E-N=-1.939327845856D+03  KE= 4.224387528962D+02
 R6APFD:  NTU= -4 IXU= 1 FactS= 1.050
 Calling FoFJK, ICntrl=      2127 FMM=F ISym2X=0 I1Cent= 0 IOpClX= 0 NMat=1 NMatS=1 NMatT=0.
 ***** Axes restored to original set *****
 -------------------------------------------------------------------
 Center     Atomic                   Forces (Hartrees/Bohr)
 Number     Number              X              Y              Z
 -------------------------------------------------------------------
      1        8           0.012153618    0.003512104   -0.007617137
      2        8          -0.006723531   -0.023530122    0.026345066
      3        6          -0.007111085    0.008571758    0.003285521
      4        6          -0.003368056    0.004805704   -0.003475942
      5        6           0.000328525   -0.007946054   -0.002276858
      6        6           0.000017162   -0.000408748    0.000625111
      7        6          -0.000870387    0.000759131   -0.000446313
      8        6          -0.002090434   -0.000063582    0.001218097
      9        6           0.018968534    0.016082099   -0.018712585
     10        1           0.000725883   -0.004138951    0.001219529
     11        1           0.003111991   -0.002252269   -0.001935499
     12        1           0.002425450    0.000453229   -0.000161960
     13        1           0.002466394   -0.000523195    0.000428835
     14        1           0.001086847    0.003680160   -0.001894152
     15        1          -0.000417930    0.001925363    0.001203424
     16        1          -0.000955164   -0.001019727    0.003523395
     17        1          -0.000117984   -0.000564917    0.003338434
     18        1          -0.000107191   -0.002376575    0.000154730
     19        1          -0.002459602    0.000035050   -0.001081403
     20        1           0.000657710    0.000724413   -0.003177076
     21        1          -0.017720750    0.002275127   -0.000563216
 -------------------------------------------------------------------
 Cartesian Forces:  Max     0.026345066 RMS     0.007105334

 GradGradGradGradGradGradGradGradGradGradGradGradGradGradGradGradGradGrad
 Berny optimization.
 FormGI is forming the generalized inverse of G from B-inverse, IUseBI=4.
 Internal  Forces:  Max     0.035471184 RMS     0.004237990
 Search for a local minimum.
 Step number   1 out of a maximum of  126
 All quantities printed in internal units (Hartrees-Bohrs-Radians)
 Mixed Optimization -- RFO/linear search
 Second derivative matrix not updated -- first step.
 ITU=  0
     Eigenvalues ---    0.00576   0.00587   0.00681   0.00769   0.01142
     Eigenvalues ---    0.01940   0.02005   0.02281   0.03719   0.03957
     Eigenvalues ---    0.03968   0.04219   0.04800   0.04809   0.04886
     Eigenvalues ---    0.05476   0.05510   0.05566   0.05938   0.06648
     Eigenvalues ---    0.08180   0.08191   0.08192   0.08208   0.08210
     Eigenvalues ---    0.08421   0.08758   0.12098   0.12127   0.14232
     Eigenvalues ---    0.16000   0.16004   0.17413   0.21019   0.25000
     Eigenvalues ---    0.25000   0.27940   0.28120   0.28395   0.29634
     Eigenvalues ---    0.29641   0.29757   0.32404   0.33850   0.33896
     Eigenvalues ---    0.33909   0.34016   0.34017   0.34020   0.34021
     Eigenvalues ---    0.34024   0.34142   0.34148   0.34158   0.51195
     Eigenvalues ---    0.53870   0.94504
 RFO step:  Lambda=-6.09376804D-03 EMin= 5.75657111D-03
 Linear search not attempted -- first point.
 Iteration  1 RMS(Cart)=  0.03973018 RMS(Int)=  0.00166954
 Iteration  2 RMS(Cart)=  0.00217184 RMS(Int)=  0.00038713
 Iteration  3 RMS(Cart)=  0.00000743 RMS(Int)=  0.00038707
 Iteration  4 RMS(Cart)=  0.00000000 RMS(Int)=  0.00038707
 Variable       Old X    -DE/DX   Delta X   Delta X   Delta X     New X
                                 (Linear)    (Quad)   (Total)
    R1        2.56150  -0.01124   0.00000  -0.02063  -0.02063   2.54087
    R2        1.85378  -0.01676   0.00000  -0.03236  -0.03236   1.82142
    R3        2.30924  -0.03547   0.00000  -0.03729  -0.03729   2.27194
    R4        2.89172   0.00174   0.00000   0.00449   0.00441   2.89614
    R5        2.89185   0.00295   0.00000   0.00976   0.00969   2.90154
    R6        2.83411   0.00641   0.00000   0.01941   0.01941   2.85352
    R7        2.07585   0.00199   0.00000   0.00576   0.00576   2.08161
    R8        2.88452   0.00401   0.00000   0.01311   0.01307   2.89759
    R9        2.07484   0.00150   0.00000   0.00435   0.00435   2.07919
   R10        2.07294   0.00123   0.00000   0.00355   0.00355   2.07649
   R11        2.88451   0.00338   0.00000   0.01120   0.01124   2.89575
   R12        2.07289   0.00165   0.00000   0.00477   0.00477   2.07767
   R13        2.07506   0.00250   0.00000   0.00723   0.00723   2.08229
   R14        2.88313   0.00410   0.00000   0.01356   0.01363   2.89677
   R15        2.07081   0.00159   0.00000   0.00456   0.00456   2.07537
   R16        2.07302   0.00373   0.00000   0.01076   0.01076   2.08379
   R17        2.88306   0.00385   0.00000   0.01393   0.01401   2.89707
   R18        2.07296   0.00335   0.00000   0.00968   0.00968   2.08264
   R19        2.07091   0.00165   0.00000   0.00476   0.00476   2.07566
   R20        2.07064   0.00206   0.00000   0.00591   0.00591   2.07655
   R21        2.07302   0.00326   0.00000   0.00942   0.00942   2.08244
    A1        1.95353  -0.01139   0.00000  -0.06859  -0.06859   1.88494
    A2        1.94540   0.00104   0.00000  -0.00404  -0.00420   1.94120
    A3        1.91857   0.00111   0.00000   0.01230   0.01223   1.93080
    A4        1.87879   0.00165   0.00000   0.03591   0.03597   1.91476
    A5        1.91864  -0.00257   0.00000  -0.02206  -0.02200   1.89664
    A6        1.91132  -0.00110   0.00000  -0.01571  -0.01586   1.89546
    A7        1.88988  -0.00008   0.00000  -0.00544  -0.00620   1.88369
    A8        1.94939  -0.00074   0.00000  -0.01313  -0.01334   1.93606
    A9        1.92618  -0.00208   0.00000  -0.02491  -0.02471   1.90146
   A10        1.92069  -0.00092   0.00000  -0.00792  -0.00774   1.91296
   A11        1.89732   0.00261   0.00000   0.02726   0.02704   1.92437
   A12        1.91195   0.00127   0.00000   0.01789   0.01782   1.92977
   A13        1.85581  -0.00005   0.00000   0.00223   0.00160   1.85741
   A14        1.94940  -0.00081   0.00000  -0.01270  -0.01292   1.93648
   A15        1.92079  -0.00078   0.00000  -0.00601  -0.00580   1.91499
   A16        1.91890  -0.00159   0.00000  -0.02183  -0.02181   1.89709
   A17        1.90981   0.00123   0.00000   0.02007   0.02003   1.92984
   A18        1.90810   0.00155   0.00000   0.01017   0.00987   1.91797
   A19        1.85438   0.00049   0.00000   0.01181   0.01148   1.86586
   A20        1.94867  -0.00033   0.00000  -0.00688  -0.00701   1.94166
   A21        1.91398  -0.00039   0.00000  -0.00159  -0.00151   1.91246
   A22        1.90933   0.00068   0.00000   0.00672   0.00674   1.91607
   A23        1.91405   0.00050   0.00000   0.00859   0.00865   1.92270
   A24        1.90998  -0.00006   0.00000  -0.00180  -0.00177   1.90821
   A25        1.86598  -0.00041   0.00000  -0.00495  -0.00497   1.86101
   A26        1.94882   0.00000   0.00000  -0.00464  -0.00470   1.94411
   A27        1.90921   0.00015   0.00000  -0.00057  -0.00054   1.90867
   A28        1.91378  -0.00070   0.00000  -0.00286  -0.00285   1.91093
   A29        1.90987  -0.00002   0.00000   0.00080   0.00076   1.91063
   A30        1.91406   0.00079   0.00000   0.01063   0.01068   1.92474
   A31        1.86626  -0.00024   0.00000  -0.00330  -0.00333   1.86293
   A32        1.94740  -0.00023   0.00000  -0.00674  -0.00687   1.94053
   A33        1.91409   0.00037   0.00000   0.00954   0.00956   1.92365
   A34        1.90986  -0.00002   0.00000  -0.00331  -0.00331   1.90655
   A35        1.91413   0.00032   0.00000   0.00767   0.00773   1.92186
   A36        1.90985  -0.00012   0.00000  -0.00318  -0.00320   1.90665
   A37        1.86674  -0.00033   0.00000  -0.00390  -0.00389   1.86284
   A38        2.16872  -0.00949   0.00000  -0.03713  -0.03891   2.12981
   A39        1.93177   0.00566   0.00000   0.02204   0.02016   1.95193
   A40        2.18270   0.00382   0.00000   0.01487   0.01288   2.19558
    D1        0.00043   0.00023   0.00000   0.02986   0.02836   0.02879
    D2        3.13981  -0.00170   0.00000  -0.08085  -0.07936   3.06045
    D3        0.94291   0.00122   0.00000   0.03470   0.03468   0.97760
    D4       -1.16988  -0.00017   0.00000   0.02607   0.02606  -1.14382
    D5        3.07049   0.00169   0.00000   0.04304   0.04298   3.11347
    D6        3.07482  -0.00057   0.00000   0.01250   0.01235   3.08717
    D7        0.96203  -0.00196   0.00000   0.00387   0.00373   0.96576
    D8       -1.08079  -0.00010   0.00000   0.02084   0.02064  -1.06015
    D9       -1.15340   0.00089   0.00000   0.03346   0.03361  -1.11979
   D10        3.01700  -0.00049   0.00000   0.02483   0.02499   3.04199
   D11        0.97418   0.00137   0.00000   0.04180   0.04190   1.01608
   D12       -0.94271  -0.00097   0.00000  -0.03134  -0.03130  -0.97400
   D13       -3.06763  -0.00144   0.00000  -0.04409  -0.04400  -3.11163
   D14        1.17875  -0.00064   0.00000  -0.04201  -0.04188   1.13687
   D15       -3.07457  -0.00130   0.00000  -0.02895  -0.02896  -3.10353
   D16        1.08369  -0.00178   0.00000  -0.04170  -0.04166   1.04203
   D17       -0.95312  -0.00098   0.00000  -0.03963  -0.03954  -0.99266
   D18        1.13433   0.00102   0.00000   0.00061   0.00043   1.13476
   D19       -0.99060   0.00055   0.00000  -0.01215  -0.01227  -1.00287
   D20       -3.02741   0.00135   0.00000  -0.01007  -0.01015  -3.03755
   D21        2.59358   0.00206   0.00000   0.09933   0.09983   2.69341
   D22       -0.55024   0.00009   0.00000  -0.01254  -0.01286  -0.56310
   D23       -1.54189   0.00239   0.00000   0.08773   0.08796  -1.45393
   D24        1.59748   0.00042   0.00000  -0.02413  -0.02474   1.57274
   D25        0.54551  -0.00051   0.00000   0.05244   0.05295   0.59846
   D26       -2.59831  -0.00247   0.00000  -0.05943  -0.05974  -2.65805
   D27       -0.94890  -0.00043   0.00000  -0.02502  -0.02490  -0.97380
   D28       -3.07400  -0.00058   0.00000  -0.03022  -0.03014  -3.10414
   D29        1.16790  -0.00026   0.00000  -0.02722  -0.02716   1.14073
   D30        1.18058  -0.00175   0.00000  -0.04627  -0.04645   1.13412
   D31       -0.94453  -0.00189   0.00000  -0.05146  -0.05169  -0.99622
   D32       -2.98581  -0.00157   0.00000  -0.04846  -0.04872  -3.03453
   D33       -3.08151   0.00035   0.00000  -0.01859  -0.01837  -3.09987
   D34        1.07658   0.00020   0.00000  -0.02379  -0.02360   1.05297
   D35       -0.96471   0.00053   0.00000  -0.02079  -0.02063  -0.98533
   D36        0.94855  -0.00005   0.00000   0.01830   0.01820   0.96675
   D37       -1.16812  -0.00013   0.00000   0.02072   0.02066  -1.14746
   D38        3.07363   0.00047   0.00000   0.02669   0.02662   3.10024
   D39        3.07981  -0.00072   0.00000   0.01610   0.01593   3.09574
   D40        0.96313  -0.00080   0.00000   0.01852   0.01839   0.98153
   D41       -1.07830  -0.00020   0.00000   0.02449   0.02435  -1.05395
   D42       -1.17913   0.00143   0.00000   0.04728   0.04738  -1.13176
   D43        2.98738   0.00135   0.00000   0.04970   0.04984   3.03722
   D44        0.94594   0.00195   0.00000   0.05567   0.05580   1.00174
   D45        0.95178   0.00026   0.00000   0.01569   0.01567   0.96745
   D46        3.07622   0.00077   0.00000   0.02745   0.02743   3.10365
   D47       -1.16438   0.00057   0.00000   0.02633   0.02630  -1.13808
   D48        3.07685  -0.00011   0.00000   0.01501   0.01500   3.09185
   D49       -1.08190   0.00040   0.00000   0.02678   0.02676  -1.05514
   D50        0.96068   0.00021   0.00000   0.02565   0.02563   0.98632
   D51       -1.16463  -0.00035   0.00000   0.01295   0.01295  -1.15168
   D52        0.95981   0.00016   0.00000   0.02471   0.02471   0.98452
   D53        3.00239  -0.00003   0.00000   0.02358   0.02359   3.02598
   D54       -0.95165  -0.00024   0.00000  -0.01331  -0.01334  -0.96499
   D55       -3.07607  -0.00077   0.00000  -0.02616  -0.02616  -3.10223
   D56        1.16452  -0.00049   0.00000  -0.02403  -0.02404   1.14048
   D57        1.16464  -0.00006   0.00000  -0.01653  -0.01657   1.14807
   D58       -0.95978  -0.00059   0.00000  -0.02937  -0.02939  -0.98917
   D59       -3.00238  -0.00031   0.00000  -0.02725  -0.02726  -3.02965
   D60       -3.07657   0.00010   0.00000  -0.01391  -0.01393  -3.09050
   D61        1.08220  -0.00044   0.00000  -0.02676  -0.02675   1.05545
   D62       -0.96040  -0.00016   0.00000  -0.02463  -0.02463  -0.98503
         Item               Value     Threshold  Converged?
 Maximum Force            0.035471     0.000450     NO 
 RMS     Force            0.004238     0.000300     NO 
 Maximum Displacement     0.221543     0.001800     NO 
 RMS     Displacement     0.039125     0.001200     NO 
 Predicted change in Energy=-3.343179D-03
 GradGradGradGradGradGradGradGradGradGradGradGradGradGradGradGradGradGrad

                          Input orientation:                          
 ---------------------------------------------------------------------
 Center     Atomic      Atomic             Coordinates (Angstroms)
 Number     Number       Type             X           Y           Z
 ---------------------------------------------------------------------
      1          8           0        2.560056   -0.784493    0.700622
      2          8           0        2.227797    0.751374   -0.880090
      3          6           0        0.336317   -0.030851    0.408234
      4          6           0       -0.395050    1.290172    0.145995
      5          6           0       -0.300119   -1.184527   -0.380133
      6          6           0       -1.888369    1.163143    0.470020
      7          6           0       -1.793653   -1.308322   -0.060476
      8          6           0       -2.530693    0.012109   -0.312498
      9          6           0        1.790179    0.078931    0.015311
     10          1           0        0.292620   -0.272840    1.481974
     11          1           0       -0.256657    1.571885   -0.908544
     12          1           0        0.063020    2.090204    0.743951
     13          1           0        0.223221   -2.123811   -0.150655
     14          1           0       -0.161575   -0.995296   -1.456785
     15          1           0       -2.396903    2.108576    0.238326
     16          1           0       -2.022320    0.989382    1.550665
     17          1           0       -1.918327   -1.603153    0.994096
     18          1           0       -2.232978   -2.111415   -0.667521
     19          1           0       -3.590212   -0.088337   -0.038940
     20          1           0       -2.501686    0.244441   -1.389316
     21          1           0        3.458233   -0.720273    0.356864
 ---------------------------------------------------------------------
                    Distance matrix (angstroms):
                    1          2          3          4          5
     1  O    0.000000
     2  O    2.228886   0.000000
     3  C    2.366111   2.418542   0.000000
     4  C    3.653013   2.867487   1.532569   0.000000
     5  C    3.083612   3.223046   1.535428   2.531789   0.000000
     6  C    4.861579   4.351456   2.525603   1.533339   2.959198
     7  C    4.450669   4.591968   2.527527   2.958190   1.532367
     8  C    5.251354   4.848907   2.956527   2.530737   2.532188
     9  C    1.344568   1.202261   1.510018   2.501881   2.474277
    10  H    2.452258   3.220756   1.101539   2.168118   2.156376
    11  H    4.009465   2.616593   2.157379   1.100258   2.806941
    12  H    3.808012   3.019310   2.164780   1.098832   3.481278
    13  H    2.824755   3.580096   2.169246   3.482175   1.099455
    14  H    3.479385   3.015383   2.157857   2.801210   1.101900
    15  H    5.758039   4.947798   3.475127   2.164654   3.952660
    16  H    4.986721   4.901909   2.812329   2.170617   3.379325
    17  H    4.562044   5.123154   2.810478   3.378013   2.163873
    18  H    5.158073   5.304645   3.476675   3.951023   2.162789
    19  H    6.233570   5.938171   3.952329   3.484759   3.484646
    20  H    5.572054   4.783754   3.370643   2.808674   2.811992
    21  H    0.963854   2.282493   3.197546   4.351339   3.857967
                    6          7          8          9         10
     6  C    0.000000
     7  C    2.529532   0.000000
     8  C    1.532903   1.533063   0.000000
     9  C    3.861863   3.843705   4.333804   0.000000
    10  H    2.800503   2.793549   3.357444   2.125447   0.000000
    11  H    2.174855   3.373006   2.821243   2.696657   3.069087
    12  H    2.177706   3.955290   3.487394   2.749402   2.486236
    13  H    3.955770   2.177370   3.488896   2.708315   2.469087
    14  H    3.369459   2.170562   2.817264   2.670276   3.060154
    15  H    1.098241   3.482583   2.171746   4.658417   3.801492
    16  H    1.102692   2.815583   2.164459   4.209677   2.637588
    17  H    2.815661   1.102085   2.165930   4.188131   2.626032
    18  H    3.483602   1.098394   2.173484   4.631378   3.792010
    19  H    2.172904   2.171739   1.098865   5.383264   4.174160
    20  H    2.162706   2.162914   1.101978   4.518902   4.039806
    21  H    5.669763   5.301159   6.070558   1.880902   3.389273
                   11         12         13         14         15
    11  H    0.000000
    12  H    1.761133   0.000000
    13  H    3.803006   4.310906   0.000000
    14  H    2.626791   3.796577   1.768499   0.000000
    15  H    2.486765   2.511417   4.992941   4.183792   0.000000
    16  H    3.082951   2.492236   4.198681   4.055376   1.764976
    17  H    4.057346   4.198714   2.483499   3.076115   3.818004
    18  H    4.186961   4.991740   2.510024   2.481807   4.319231
    19  H    3.824283   4.324936   4.324109   3.819478   2.515411
    20  H    2.652057   3.812531   3.816808   2.649079   2.476933
    21  H    4.544849   4.424488   3.562695   4.058075   6.503773
                   16         17         18         19         20
    16  H    0.000000
    17  H    2.653643   0.000000
    18  H    3.818334   1.765873   0.000000
    19  H    2.479236   2.481337   2.515958   0.000000
    20  H    3.070540   3.071574   2.478558   1.766110   0.000000
    21  H    5.863834   5.485703   5.947649   7.087777   6.284939
                   21
    21  H    0.000000
 Stoichiometry    C7H12O2
 Framework group  C1[X(C7H12O2)]
 Deg. of freedom    57
 Full point group                 C1      NOp   1
 Largest Abelian subgroup         C1      NOp   1
 Largest concise Abelian subgroup C1      NOp   1
                         Standard orientation:                         
 ---------------------------------------------------------------------
 Center     Atomic      Atomic             Coordinates (Angstroms)
 Number     Number       Type             X           Y           Z
 ---------------------------------------------------------------------
      1          8           0        2.606494    0.687154   -0.674728
      2          8           0        2.218555   -0.817114    0.923587
      3          6           0        0.360122    0.000431   -0.390639
      4          6           0       -0.410311   -1.295800   -0.116799
      5          6           0       -0.249655    1.182174    0.376952
      6          6           0       -1.896850   -1.131220   -0.454799
      7          6           0       -1.736535    1.343587    0.043361
      8          6           0       -2.512540    0.047969    0.306931
      9          6           0        1.807165   -0.144864    0.015695
     10          1           0        0.331727    0.228927   -1.467844
     11          1           0       -0.288231   -1.566928    0.942519
     12          1           0        0.029668   -2.116464   -0.700204
     13          1           0        0.301799    2.103152    0.139258
     14          1           0       -0.124987    1.003780    1.457145
     15          1           0       -2.433694   -2.058730   -0.214685
     16          1           0       -2.017332   -0.968472   -1.538740
     17          1           0       -1.844529    1.627440   -1.016052
     18          1           0       -2.157761    2.166907    0.635967
     19          1           0       -3.566614    0.174459    0.023325
     20          1           0       -2.498580   -0.170420    1.386962
     21          1           0        3.499765    0.602367   -0.322746
 ---------------------------------------------------------------------
 Rotational constants (GHZ):           3.2008803           1.0641328           0.9135850
 Standard basis: 6-311++G(d,p) (5D, 7F)
 There are   291 symmetry adapted cartesian basis functions of A   symmetry.
 There are   282 symmetry adapted basis functions of A   symmetry.
   282 basis functions,   432 primitive gaussians,   291 cartesian basis functions
    35 alpha electrons       35 beta electrons
       nuclear repulsion energy       475.1150601135 Hartrees.
 NAtoms=   21 NActive=   21 NUniq=   21 SFac= 1.00D+00 NAtFMM=   60 NAOKFM=F Big=F
 Integral buffers will be    131072 words long.
 Raffenetti 2 integral format.
 Two-electron integral symmetry is turned on.
 R6APFD:  NTU= -4 IXU= 1 FactS= 1.050
 Nuclear repulsion after empirical dispersion term =      475.0986548213 Hartrees.
 One-electron integrals computed using PRISM.
 NBasis=   282 RedAO= T EigKep=  6.26D-06  NBF=   282
 NBsUse=   282 1.00D-06 EigRej= -1.00D+00 NBFU=   282
 Initial guess from the checkpoint file:  "CYAC0028.chk"
 B after Tr=    -0.000000   -0.000000    0.000000
         Rot=    0.999987    0.001305   -0.002362    0.004276 Ang=   0.58 deg.
 ExpMin= 3.60D-02 ExpMax= 8.59D+03 ExpMxC= 1.30D+03 IAcc=3 IRadAn=         5 AccDes= 0.00D+00
 Harris functional with IExCor= 1009 and IRadAn=       5 diagonalized for initial guess.
 HarFok:  IExCor= 1009 AccDes= 0.00D+00 IRadAn=         5 IDoV= 1 UseB2=F ITyADJ=14
 ICtDFT=  3500011 ScaDFX=  1.000000  1.000000  1.000000  1.000000
 FoFCou: FMM=F IPFlag=           0 FMFlag=      100000 FMFlg1=           0
         NFxFlg=           0 DoJE=T BraDBF=F KetDBF=T FulRan=T
         wScrn=  0.000000 ICntrl=       500 IOpCl=  0 I1Cent=   200000004 NGrid=           0
         NMat0=    1 NMatS0=      1 NMatT0=    0 NMatD0=    1 NMtDS0=    0 NMtDT0=    0
 Petite list used in FoFCou.
 Requested convergence on RMS density matrix=1.00D-08 within  32 cycles.
 Requested convergence on MAX density matrix=1.00D-06.
 Requested convergence on             energy=1.00D-06.
 No special actions if energy rises.
 SCF Done:  E(RM08HX) =  -424.463646825     A.U. after   12 cycles
            NFock= 12  Conv=0.10D-07     -V/T= 2.0047
 QCSCF skips out because SCF is already converged.
 R6APFD:  NTU= -4 IXU= 1 FactS= 1.050
 Calling FoFJK, ICntrl=      2127 FMM=F ISym2X=0 I1Cent= 0 IOpClX= 0 NMat=1 NMatS=1 NMatT=0.
 ***** Axes restored to original set *****
 -------------------------------------------------------------------
 Center     Atomic                   Forces (Hartrees/Bohr)
 Number     Number              X              Y              Z
 -------------------------------------------------------------------
      1        8           0.000846248   -0.000893076    0.004989196
      2        8          -0.000742038    0.004107297    0.002504962
      3        6          -0.000322124    0.006938467    0.005272620
      4        6          -0.000921826   -0.000011758    0.000640622
      5        6           0.000549123   -0.003701604   -0.001809474
      6        6           0.000479430    0.000299093   -0.000606825
      7        6           0.000056968    0.000320486   -0.000318514
      8        6          -0.000043265   -0.000092794    0.000055223
      9        6          -0.001067829   -0.006861927   -0.009835110
     10        1          -0.000526835   -0.000588540    0.000094226
     11        1           0.000092584   -0.001181935   -0.000351173
     12        1           0.000078890    0.000175056   -0.000517455
     13        1           0.000068408    0.000493526   -0.000230148
     14        1          -0.000462812    0.001139991   -0.000037816
     15        1          -0.000315780    0.000017200    0.000685380
     16        1           0.000724196   -0.000455381   -0.000178312
     17        1           0.000432178    0.000509200    0.000231601
     18        1          -0.000160996   -0.000326353    0.000602385
     19        1           0.000102336    0.000080425   -0.000572088
     20        1           0.000631427    0.000024128   -0.000084249
     21        1           0.000501718    0.000008499   -0.000535049
 -------------------------------------------------------------------
 Cartesian Forces:  Max     0.009835110 RMS     0.002176533

 GradGradGradGradGradGradGradGradGradGradGradGradGradGradGradGradGradGrad
 Berny optimization.
 Using GEDIIS/GDIIS optimizer.
 FormGI is forming the generalized inverse of G from B-inverse, IUseBI=4.
 Internal  Forces:  Max     0.003605202 RMS     0.000750612
 Search for a local minimum.
 Step number   2 out of a maximum of  126
 All quantities printed in internal units (Hartrees-Bohrs-Radians)
 Mixed Optimization -- En-DIIS/RFO-DIIS
 Update second derivatives using D2CorX and points    1    2
 DE= -2.89D-03 DEPred=-3.34D-03 R= 8.64D-01
 TightC=F SS=  1.41D+00  RLast= 3.11D-01 DXNew= 5.0454D-01 9.3417D-01
 Trust test= 8.64D-01 RLast= 3.11D-01 DXMaxT set to 5.05D-01
 ITU=  1  0
 Use linear search instead of GDIIS.
     Eigenvalues ---    0.00588   0.00597   0.00651   0.00764   0.01566
     Eigenvalues ---    0.01952   0.01993   0.02284   0.03756   0.03988
     Eigenvalues ---    0.04006   0.04244   0.04773   0.04827   0.04896
     Eigenvalues ---    0.05382   0.05556   0.05611   0.06036   0.06506
     Eigenvalues ---    0.07976   0.08071   0.08127   0.08140   0.08154
     Eigenvalues ---    0.08413   0.08580   0.12056   0.12063   0.14070
     Eigenvalues ---    0.15533   0.15929   0.17276   0.20986   0.24956
     Eigenvalues ---    0.25758   0.27941   0.28039   0.28399   0.29415
     Eigenvalues ---    0.29671   0.30078   0.32343   0.33801   0.33878
     Eigenvalues ---    0.33907   0.33980   0.34018   0.34019   0.34021
     Eigenvalues ---    0.34062   0.34140   0.34146   0.34176   0.50853
     Eigenvalues ---    0.55238   0.91802
 RFO step:  Lambda=-2.13973117D-03 EMin= 5.88422798D-03
 Quartic linear search produced a step of -0.05761.
 Iteration  1 RMS(Cart)=  0.03001605 RMS(Int)=  0.00177366
 Iteration  2 RMS(Cart)=  0.00203295 RMS(Int)=  0.00099652
 Iteration  3 RMS(Cart)=  0.00000326 RMS(Int)=  0.00099652
 Iteration  4 RMS(Cart)=  0.00000000 RMS(Int)=  0.00099652
 Variable       Old X    -DE/DX   Delta X   Delta X   Delta X     New X
                                 (Linear)    (Quad)   (Total)
    R1        2.54087   0.00361   0.00119  -0.00238  -0.00120   2.53967
    R2        1.82142   0.00066   0.00186  -0.01231  -0.01045   1.81097
    R3        2.27194   0.00016   0.00215  -0.01543  -0.01328   2.25867
    R4        2.89614  -0.00096  -0.00025  -0.00103  -0.00129   2.89484
    R5        2.90154   0.00167  -0.00056   0.00993   0.00932   2.91086
    R6        2.85352   0.00004  -0.00112   0.00822   0.00710   2.86062
    R7        2.08161   0.00024  -0.00033   0.00307   0.00273   2.08434
    R8        2.89759  -0.00127  -0.00075   0.00189   0.00113   2.89872
    R9        2.07919   0.00005  -0.00025   0.00194   0.00169   2.08087
   R10        2.07649  -0.00012  -0.00020   0.00115   0.00094   2.07744
   R11        2.89575  -0.00065  -0.00065   0.00224   0.00161   2.89736
   R12        2.07767  -0.00044  -0.00027   0.00080   0.00052   2.07819
   R13        2.08229   0.00018  -0.00042   0.00350   0.00308   2.08537
   R14        2.89677   0.00012  -0.00079   0.00546   0.00472   2.90149
   R15        2.07537   0.00002  -0.00026   0.00195   0.00168   2.07706
   R16        2.08379  -0.00019  -0.00062   0.00397   0.00335   2.08714
   R17        2.89707  -0.00027  -0.00081   0.00483   0.00403   2.90110
   R18        2.08264   0.00004  -0.00056   0.00414   0.00358   2.08622
   R19        2.07566  -0.00003  -0.00027   0.00190   0.00163   2.07729
   R20        2.07655  -0.00025  -0.00034   0.00179   0.00145   2.07801
   R21        2.08244   0.00010  -0.00054   0.00421   0.00367   2.08611
    A1        1.88494  -0.00038   0.00395  -0.03072  -0.02677   1.85817
    A2        1.94120   0.00024   0.00024  -0.00682  -0.00672   1.93448
    A3        1.93080   0.00083  -0.00070   0.00971   0.00881   1.93961
    A4        1.91476   0.00022  -0.00207   0.02428   0.02217   1.93693
    A5        1.89664  -0.00177   0.00127  -0.02403  -0.02268   1.87396
    A6        1.89546   0.00004   0.00091  -0.00788  -0.00691   1.88855
    A7        1.88369   0.00042   0.00036   0.00437   0.00439   1.88807
    A8        1.93606  -0.00005   0.00077  -0.01060  -0.00999   1.92607
    A9        1.90146  -0.00051   0.00142  -0.01860  -0.01713   1.88434
   A10        1.91296   0.00009   0.00045   0.00180   0.00235   1.91531
   A11        1.92437   0.00013  -0.00156   0.01080   0.00908   1.93345
   A12        1.92977   0.00021  -0.00103   0.01304   0.01206   1.94183
   A13        1.85741   0.00013  -0.00009   0.00372   0.00353   1.86094
   A14        1.93648  -0.00079   0.00074  -0.01390  -0.01336   1.92312
   A15        1.91499   0.00016   0.00033  -0.00053  -0.00003   1.91496
   A16        1.89709  -0.00007   0.00126  -0.01252  -0.01131   1.88578
   A17        1.92984   0.00031  -0.00115   0.01445   0.01332   1.94316
   A18        1.91797   0.00027  -0.00057   0.00237   0.00168   1.91965
   A19        1.86586   0.00015  -0.00066   0.01059   0.00986   1.87573
   A20        1.94166  -0.00005   0.00040  -0.00747  -0.00718   1.93448
   A21        1.91246   0.00030   0.00009   0.00507   0.00522   1.91768
   A22        1.91607  -0.00040  -0.00039  -0.00239  -0.00279   1.91328
   A23        1.92270  -0.00013  -0.00050   0.00726   0.00681   1.92951
   A24        1.90821   0.00028   0.00010  -0.00107  -0.00098   1.90723
   A25        1.86101   0.00000   0.00029  -0.00114  -0.00087   1.86014
   A26        1.94411  -0.00006   0.00027  -0.00821  -0.00805   1.93607
   A27        1.90867  -0.00005   0.00003  -0.00246  -0.00240   1.90627
   A28        1.91093   0.00001   0.00016   0.00293   0.00313   1.91406
   A29        1.91063  -0.00003  -0.00004   0.00006  -0.00004   1.91060
   A30        1.92474   0.00015  -0.00062   0.00836   0.00782   1.93256
   A31        1.86293  -0.00001   0.00019  -0.00040  -0.00022   1.86270
   A32        1.94053   0.00031   0.00040  -0.00681  -0.00656   1.93397
   A33        1.92365  -0.00015  -0.00055   0.00671   0.00619   1.92984
   A34        1.90655  -0.00001   0.00019  -0.00218  -0.00196   1.90460
   A35        1.92186  -0.00008  -0.00045   0.00546   0.00508   1.92694
   A36        1.90665  -0.00015   0.00018  -0.00253  -0.00234   1.90430
   A37        1.86284   0.00008   0.00022  -0.00051  -0.00030   1.86254
   A38        2.12981   0.00238   0.00224   0.00032  -0.00379   2.12602
   A39        1.95193  -0.00085  -0.00116   0.01254   0.00503   1.95696
   A40        2.19558  -0.00117  -0.00074   0.00787   0.00076   2.19633
    D1        0.02879  -0.00185  -0.00163  -0.11527  -0.11648  -0.08769
    D2        3.06045   0.00142   0.00457   0.07861   0.08276  -3.13997
    D3        0.97760   0.00050  -0.00200   0.02942   0.02741   1.00501
    D4       -1.14382   0.00070  -0.00150   0.03499   0.03343  -1.11038
    D5        3.11347   0.00079  -0.00248   0.04003   0.03753  -3.13219
    D6        3.08717  -0.00102  -0.00071   0.00102   0.00024   3.08741
    D7        0.96576  -0.00081  -0.00021   0.00659   0.00625   0.97201
    D8       -1.06015  -0.00073  -0.00119   0.01163   0.01035  -1.04979
    D9       -1.11979   0.00015  -0.00194   0.02767   0.02582  -1.09397
   D10        3.04199   0.00035  -0.00144   0.03324   0.03184   3.07382
   D11        1.01608   0.00044  -0.00241   0.03828   0.03594   1.05202
   D12       -0.97400  -0.00037   0.00180  -0.03098  -0.02914  -1.00314
   D13       -3.11163  -0.00034   0.00253  -0.03957  -0.03698   3.13458
   D14        1.13687  -0.00057   0.00241  -0.04485  -0.04234   1.09453
   D15       -3.10353  -0.00038   0.00167  -0.02266  -0.02105  -3.12458
   D16        1.04203  -0.00035   0.00240  -0.03125  -0.02889   1.01314
   D17       -0.99266  -0.00058   0.00228  -0.03653  -0.03425  -1.02691
   D18        1.13476   0.00008  -0.00003  -0.01025  -0.01035   1.12441
   D19       -1.00287   0.00010   0.00071  -0.01884  -0.01819  -1.02106
   D20       -3.03755  -0.00012   0.00058  -0.02412  -0.02356  -3.06111
   D21        2.69341  -0.00105  -0.00575  -0.04015  -0.04577   2.64764
   D22       -0.56310   0.00264   0.00074   0.16199   0.16278  -0.40032
   D23       -1.45393  -0.00138  -0.00507  -0.05830  -0.06340  -1.51733
   D24        1.57274   0.00230   0.00143   0.14384   0.14516   1.71790
   D25        0.59846  -0.00206  -0.00305  -0.07826  -0.08128   0.51718
   D26       -2.65805   0.00163   0.00344   0.12388   0.12727  -2.53078
   D27       -0.97380  -0.00002   0.00143  -0.02194  -0.02046  -0.99426
   D28       -3.10414  -0.00002   0.00174  -0.02960  -0.02783  -3.13197
   D29        1.14073   0.00003   0.00156  -0.02979  -0.02819   1.11255
   D30        1.13412  -0.00060   0.00268  -0.04509  -0.04247   1.09165
   D31       -0.99622  -0.00061   0.00298  -0.05276  -0.04984  -1.04606
   D32       -3.03453  -0.00055   0.00281  -0.05294  -0.05020  -3.08473
   D33       -3.09987  -0.00024   0.00106  -0.02593  -0.02482  -3.12469
   D34        1.05297  -0.00025   0.00136  -0.03359  -0.03219   1.02079
   D35       -0.98533  -0.00019   0.00119  -0.03378  -0.03255  -1.01788
   D36        0.96675  -0.00004  -0.00105   0.02516   0.02404   0.99079
   D37       -1.14746   0.00007  -0.00119   0.03205   0.03082  -1.11664
   D38        3.10024   0.00011  -0.00153   0.03226   0.03069   3.13093
   D39        3.09574  -0.00017  -0.00092   0.02493   0.02392   3.11965
   D40        0.98153  -0.00005  -0.00106   0.03181   0.03070   1.01223
   D41       -1.05395  -0.00002  -0.00140   0.03203   0.03057  -1.02339
   D42       -1.13176   0.00037  -0.00273   0.04817   0.04543  -1.08633
   D43        3.03722   0.00049  -0.00287   0.05505   0.05221   3.08943
   D44        1.00174   0.00053  -0.00321   0.05527   0.05208   1.05382
   D45        0.96745  -0.00002  -0.00090   0.01910   0.01818   0.98563
   D46        3.10365  -0.00002  -0.00158   0.02604   0.02443   3.12808
   D47       -1.13808  -0.00002  -0.00152   0.02801   0.02648  -1.11159
   D48        3.09185   0.00023  -0.00086   0.02547   0.02460   3.11644
   D49       -1.05514   0.00023  -0.00154   0.03241   0.03084  -1.02430
   D50        0.98632   0.00023  -0.00148   0.03438   0.03290   1.01922
   D51       -1.15168   0.00032  -0.00075   0.02767   0.02692  -1.12476
   D52        0.98452   0.00032  -0.00142   0.03460   0.03317   1.01769
   D53        3.02598   0.00032  -0.00136   0.03657   0.03523   3.06120
   D54       -0.96499  -0.00026   0.00077  -0.02214  -0.02139  -0.98639
   D55       -3.10223  -0.00022   0.00151  -0.02980  -0.02829  -3.13052
   D56        1.14048  -0.00017   0.00138  -0.03084  -0.02947   1.11101
   D57        1.14807  -0.00038   0.00095  -0.03051  -0.02959   1.11848
   D58       -0.98917  -0.00034   0.00169  -0.03817  -0.03649  -1.02566
   D59       -3.02965  -0.00030   0.00157  -0.03922  -0.03767  -3.06731
   D60       -3.09050  -0.00033   0.00080  -0.02606  -0.02527  -3.11577
   D61        1.05545  -0.00029   0.00154  -0.03372  -0.03216   1.02328
   D62       -0.98503  -0.00024   0.00142  -0.03476  -0.03335  -1.01837
         Item               Value     Threshold  Converged?
 Maximum Force            0.003605     0.000450     NO 
 RMS     Force            0.000751     0.000300     NO 
 Maximum Displacement     0.134569     0.001800     NO 
 RMS     Displacement     0.030008     0.001200     NO 
 Predicted change in Energy=-1.265959D-03
 GradGradGradGradGradGradGradGradGradGradGradGradGradGradGradGradGradGrad

                          Input orientation:                          
 ---------------------------------------------------------------------
 Center     Atomic      Atomic             Coordinates (Angstroms)
 Number     Number       Type             X           Y           Z
 ---------------------------------------------------------------------
      1          8           0        2.559613   -0.783555    0.718537
      2          8           0        2.247440    0.796882   -0.808879
      3          6           0        0.329252   -0.039333    0.399518
      4          6           0       -0.392505    1.283903    0.126049
      5          6           0       -0.312658   -1.188993   -0.399826
      6          6           0       -1.881274    1.161627    0.474726
      7          6           0       -1.800832   -1.309409   -0.051123
      8          6           0       -2.533622    0.014509   -0.310144
      9          6           0        1.784600    0.038125   -0.009721
     10          1           0        0.286352   -0.298488    1.470768
     11          1           0       -0.259649    1.529409   -0.939132
     12          1           0        0.085526    2.092503    0.697172
     13          1           0        0.223308   -2.127335   -0.195710
     14          1           0       -0.193764   -0.966484   -1.474132
     15          1           0       -2.393112    2.111736    0.266391
     16          1           0       -1.994475    0.973432    1.557137
     17          1           0       -1.903652   -1.584805    1.013001
     18          1           0       -2.252597   -2.124631   -0.633947
     19          1           0       -3.597212   -0.078066   -0.046708
     20          1           0       -2.492624    0.245193   -1.388913
     21          1           0        3.454784   -0.669320    0.396036
 ---------------------------------------------------------------------
                    Distance matrix (angstroms):
                    1          2          3          4          5
     1  O    0.000000
     2  O    2.219962   0.000000
     3  C    2.372794   2.416387   0.000000
     4  C    3.652455   2.842638   1.531885   0.000000
     5  C    3.108868   3.265751   1.540363   2.529453   0.000000
     6  C    4.854344   4.339004   2.516821   1.533936   2.958177
     7  C    4.458967   4.625923   2.520601   2.956356   1.533218
     8  C    5.257008   4.870256   2.950011   2.527054   2.527675
     9  C    1.343935   1.195235   1.513775   2.512008   2.460995
    10  H    2.443125   3.200389   1.102986   2.184737   2.156603
    11  H    4.005735   2.615160   2.144701   1.101151   2.771890
    12  H    3.793847   2.936102   2.166270   1.099332   3.482840
    13  H    2.846035   3.608897   2.173769   3.481279   1.099731
    14  H    3.524535   3.084072   2.154929   2.768450   1.103530
    15  H    5.754705   4.941636   3.472188   2.169662   3.958150
    16  H    4.952774   4.860354   2.786661   2.170417   3.366644
    17  H    4.544167   5.120864   2.784009   3.361508   2.164258
[...]
 0.00707369,0.02828637,0.00044803,0.00258214,-0.02758509,-0.00132438,0.
 00094609,0.00029204,0.00121653,0.00121079,0.00001088,-0.00001162,-0.00
 008070,-0.00005539,-0.00229674,-0.00269063,0.00393679,0.00312811,0.064
 87459,-0.00045134,-0.00030901,0.00121406,0.00150888,-0.00094794,0.0005
 9611,0.01884206,0.05165300,-0.28088877,-0.00004004,0.00194587,-0.00533
 326,0.00026493,0.00079993,-0.01902364,0.00027867,-0.00038035,0.0003143
 5,0.00096343,0.00110312,0.00076146,-0.00019010,-0.00003746,0.00007800,
 -0.00128330,0.00362098,-0.00968057,-0.01723420,-0.05538848,0.30900119,
 0.00018607,-0.00078993,0.00045427,-0.00082036,-0.00085378,0.00095678,0
 .00068153,0.00406778,-0.01704812,-0.04770020,-0.00595763,0.02616149,0.
 00027239,-0.00099705,0.00001551,-0.00527422,-0.00713169,0.03292424,-0.
 00020376,-0.00000843,0.00000013,0.00184362,0.00062511,0.00112250,0.000
 78990,0.00189672,-0.00223938,-0.00158059,0.00300614,-0.00025550,0.0563
 2961,0.00000901,0.00010304,-0.00018303,0.00019965,0.00042342,-0.000726
 56,-0.00169339,-0.00853154,0.02952529,-0.00569291,-0.05812356,0.048423
 27,-0.00046901,0.00169204,0.00155002,-0.00046078,-0.00079114,0.0012787
 0,-0.00000348,-0.00021441,-0.00011120,0.00008559,-0.00005326,0.0008770
 4,-0.00090622,-0.00040785,0.00100294,0.00292406,-0.00433054,0.00078014
 ,0.00354265,0.06438576,-0.00032119,-0.00053715,0.00033553,0.00034924,-
 0.00144568,0.00103097,-0.00070279,0.00213338,-0.00748638,0.02432516,0.
 04974863,-0.28779314,0.00008977,-0.00084644,0.00054966,0.00146833,0.00
 083447,-0.00674656,0.00010575,0.00007968,0.00016988,-0.00068144,-0.000
 20451,0.00059825,0.00156750,0.00189320,-0.00136601,-0.00063084,0.00091
 757,0.00104382,-0.02945342,-0.05683422,0.31253736,0.00020879,-0.000377
 51,-0.00001859,-0.00025776,-0.00058677,0.00000778,0.00668844,0.0127725
 4,0.00989978,-0.09132267,-0.08236573,-0.05695058,-0.00211812,0.0030869
 1,-0.00086070,-0.01242684,-0.02427716,-0.01772790,-0.00021986,0.000380
 63,-0.00003816,-0.00638654,0.00099663,0.00307358,0.00081261,0.00154315
 ,0.00037394,0.00051364,-0.00069835,-0.00009285,0.00065633,0.00254796,0
 .00176080,0.10232214,0.00003263,0.00047807,-0.00009182,0.00054706,0.00
 150018,-0.00031562,-0.01077239,-0.02158135,-0.01543094,-0.08079835,-0.
 19426923,-0.09993894,0.00424577,-0.00369409,0.00261680,-0.00039686,-0.
 00025713,0.00020691,0.00055059,0.00053730,0.00001181,0.00005959,0.0011
 3895,0.00053285,-0.00188200,-0.00164906,0.00062310,-0.00043686,0.00040
 758,0.00042199,0.00296742,0.00503657,0.00365130,0.08721599,0.21324430,
 0.00015394,0.00044396,-0.00043135,0.00005009,0.00117806,-0.00012705,0.
 00378349,0.00750822,0.00361117,-0.05625862,-0.10127235,-0.11658748,-0.
 00074953,0.00075416,0.00007699,0.00417426,0.00772421,0.00412016,0.0000
 1508,0.00001143,-0.00007120,0.00122369,-0.00003280,-0.00003335,-0.0005
 9889,-0.00179894,0.00089642,0.00058991,-0.00026690,0.00039580,-0.01270
 514,-0.02345244,-0.01539233,0.06114718,0.10842195,0.12134303,-0.001783
 52,-0.00031424,-0.00042874,-0.00015752,0.00024758,-0.00030004,0.006222
 45,-0.01228458,0.00377939,-0.00136873,-0.00248692,-0.00170845,-0.10842
 112,0.11032364,-0.02798024,-0.00010003,-0.00039359,-0.00017922,-0.0148
 6610,0.02757973,-0.00780116,-0.00610419,-0.00275595,0.00237128,0.00134
 070,-0.00147136,0.00099855,0.00046568,0.00069273,0.00020155,-0.0001277
 0,0.00018651,-0.00007779,0.00054263,-0.00088394,-0.00006388,0.12205583
 ,-0.00015824,0.00173443,-0.00006392,-0.00060051,0.00085796,-0.00030486
 ,0.01055848,-0.02168632,0.00606472,-0.00359356,-0.00245729,-0.00375819
 ,0.10769454,-0.23391127,0.04888535,-0.00054659,0.00031127,0.00017973,-
 0.00270243,0.00529962,-0.00135238,-0.00111952,0.00078361,0.00016175,0.
 00292520,-0.00327721,0.00096282,0.00028114,0.00069795,-0.00022891,-0.0
 0014369,0.00038196,-0.00004075,0.00103449,-0.00135060,0.00014568,-0.11
 608532,0.25527542,-0.00013064,-0.00055445,-0.00057459,0.00002804,0.000
 01014,0.00004302,0.00869549,-0.01600781,0.00319190,-0.00217948,-0.0018
 8330,-0.00169646,-0.02832957,0.05093990,-0.06195077,-0.00020410,0.0002
 3470,0.00003232,0.00446555,-0.00761666,0.00106178,0.00114777,0.0005902
 2,-0.00005204,0.00026929,0.00060470,0.00045235,0.00068693,0.00025569,0
 .00041998,0.00005387,-0.00034800,0.00027604,0.00038260,-0.00087285,0.0
 0048351,0.03078826,-0.05094773,0.06312554,-0.00010110,0.00016126,0.000
 61511,-0.00003016,-0.00011005,0.00070982,-0.00025558,0.00146877,-0.015
 09368,0.00003086,0.00081826,0.00057032,-0.04903811,-0.00280039,0.02433
 342,-0.00019413,0.00005711,-0.00000228,-0.00535922,-0.00607398,0.03358
 368,0.00193607,-0.00090049,0.00092576,0.00112059,0.00064529,-0.0021553
 1,-0.00068230,-0.00258486,-0.00143624,0.00024842,-0.00003047,0.0003853
 1,-0.00012569,0.00011889,0.00005721,0.00140996,0.00179130,-0.01515476,
 0.05660189,0.00006867,-0.00013118,0.00003544,0.00016414,-0.00031390,0.
 00056556,0.00092058,0.00217615,-0.02609883,0.00019022,0.00180751,-0.00
 093358,-0.00271197,-0.05632371,0.04567986,-0.00004432,-0.00016870,-0.0
 0002608,-0.00056945,-0.00116349,0.00393272,0.00031784,0.00019181,-0.00
 097212,0.00117737,0.00143436,-0.00111966,-0.00224246,-0.00352383,-0.00
 280285,-0.00008461,-0.00054133,0.00060095,-0.00014548,0.00022369,0.000
 36615,-0.00382107,-0.00384952,0.02608153,0.00771969,0.05929846,-0.0006
 6823,0.00012285,0.00028554,-0.00095195,-0.00071658,0.00092469,-0.00059
 301,0.00158468,-0.01749589,0.00012631,0.00124824,0.00045790,0.02453370
 ,0.04439955,-0.28495158,0.00007628,-0.00018920,0.00017330,0.00144492,0
 .00177934,-0.00714104,-0.00073486,0.00005220,0.00028821,0.00191552,0.0
 0057147,-0.00175025,-0.00156029,-0.00265322,-0.00038534,0.00038511,-0.
 00091228,0.00039253,-0.00011438,0.00001357,0.00042378,0.00086223,0.000
 62756,-0.00579269,-0.02674622,-0.04562300,0.31273519,-0.00126533,0.000
 23197,0.00012524,-0.00039047,-0.00045192,0.00022952,-0.00621982,-0.002
 79866,0.00261690,-0.01567764,0.02850102,-0.00778320,-0.00008298,-0.000
 64762,-0.00018578,-0.10497825,0.10580992,-0.02583155,-0.00114657,-0.00
 244594,-0.00193999,0.00753638,-0.01325711,0.00412780,0.00083699,0.0021
 8228,-0.00066172,0.00014318,-0.00032516,-0.00003942,0.00101722,0.00003
 449,0.00049585,0.00064108,-0.00028502,-0.00075719,0.00009241,0.0001032
 3,-0.00000712,0.00006569,0.00006425,0.00005815,0.11729122,0.00001612,0
 .00002381,-0.00000431,0.00020212,0.00010044,-0.00011788,-0.00103768,0.
 00103570,0.00014899,-0.00256745,0.00451143,-0.00106266,-0.00057748,0.0
 0030082,0.00013262,0.10642627,-0.23579336,0.04700067,-0.00373341,-0.00
 265092,-0.00388674,0.01180124,-0.02051340,0.00628598,-0.00046597,0.000
 10174,0.00010664,-0.00009710,-0.00001451,-0.00003093,0.00052654,0.0000
 9565,-0.00025739,0.00054579,0.00042570,-0.00014850,0.00006446,0.000041
 83,0.00004854,0.00007190,0.00001320,-0.00005305,-0.11378327,0.25670003
 ,0.00012257,0.00003085,-0.00006397,-0.00013409,-0.00002432,-0.00005974
 ,0.00108200,0.00061777,0.00002429,0.00454819,-0.00751429,0.00099829,-0
 .00019095,0.00015538,-0.00000806,-0.02657244,0.04818470,-0.05963887,-0
 .00204813,-0.00198426,-0.00182881,0.00923933,-0.01599600,0.00339127,0.
 00016529,-0.00025356,0.00050682,0.00023724,-0.00035682,0.00026780,-0.0
 0027183,-0.00044844,0.00015138,-0.00059782,0.00024123,0.00007137,0.000
 02278,0.00004353,-0.00001751,0.00000801,0.00002074,-0.00003973,0.02835
 505,-0.04916057,0.06087301,0.00004694,0.00025374,-0.00012395,-0.000147
 69,0.00060255,-0.00040020,0.00190132,-0.00103491,0.00108453,-0.0051814
 8,-0.00574936,0.03404315,-0.00016358,-0.00000265,-0.00000595,-0.048856
 99,-0.00253933,0.02323320,0.00007355,0.00071403,0.00051294,0.00082038,
 0.00207905,-0.01548575,-0.00031068,-0.00111426,0.00014420,-0.00037345,
 0.00068491,-0.00072112,-0.00615244,-0.00008321,0.00112539,0.00097196,-
 0.00034212,-0.00052973,0.00005170,0.00006719,0.00000858,-0.00008929,-0
 .00009533,-0.00015342,0.00113484,0.00195875,-0.01511712,0.05662169,-0.
 00015290,0.00010617,-0.00003154,-0.00010364,0.00000564,-0.00001101,0.0
 0027802,0.00018962,-0.00092501,-0.00056049,-0.00129066,0.00390790,-0.0
 0001891,-0.00012580,-0.00004373,-0.00256991,-0.05526073,0.04258420,0.0
 0015669,0.00178807,-0.00102341,0.00220567,0.00291723,-0.02629167,0.000
 22461,-0.00011197,0.00000911,0.00015615,0.00024620,0.00002850,-0.00090
 169,0.00076202,-0.00022063,-0.00010049,-0.00017308,0.00027225,0.000050
 77,0.00001062,0.00003943,-0.00010395,-0.00007114,0.00015464,-0.0033591
 0,-0.00430648,0.02653082,0.00683631,0.05830280,0.00013708,-0.00016031,
 0.00006625,-0.00010724,-0.00032543,0.00015538,-0.00085694,0.00023123,0
 .00028340,0.00127226,0.00167903,-0.00728821,0.00007956,-0.00018958,0.0
 0015300,0.02376214,0.04210470,-0.28454233,0.00022599,0.00124809,0.0004
 2827,0.00072664,0.00224007,-0.01804669,0.00024400,0.00035286,0.0000766
 2,0.00059266,-0.00067016,0.00012225,0.00128734,0.00014747,0.00113394,0
 .00048975,0.00017412,0.00040351,0.00007324,-0.00005258,-0.00004385,-0.
 00017055,0.00015367,0.00003816,0.00058493,0.00080480,-0.00619333,-0.02
 647955,-0.04372396,0.31244915,0.00006136,0.00000354,-0.00013921,0.0002
 9519,0.00013845,-0.00026697,0.00176178,0.00056616,0.00112597,-0.000157
 64,0.00001091,-0.00004128,-0.00599941,-0.00752049,0.03371907,0.0001956
 3,-0.00105319,0.00008063,-0.04820400,-0.00626463,0.02142105,0.00099328
 ,0.00456639,-0.01765509,-0.00000911,0.00040288,0.00018114,-0.00023332,
 -0.00040839,-0.00094603,-0.00012143,0.00014242,-0.00008652,0.00006992,
 -0.00006073,-0.00000668,0.00098493,0.00052446,-0.00029227,-0.00633640,
 -0.00089911,0.00128420,-0.00015832,-0.00019285,0.00003943,0.00026080,-
 0.00005006,0.00044234,0.05678431,0.00010926,-0.00010427,-0.00000644,0.
 00017651,0.00003481,-0.00006779,0.00024524,-0.00000455,0.00083430,-0.0
 0004377,-0.00017286,-0.00011478,-0.00055203,-0.00089943,0.00195396,-0.
 00045261,0.00164053,0.00151374,-0.00627359,-0.05884694,0.05000730,-0.0
 0193957,-0.00800600,0.02864821,-0.00032266,0.00010789,-0.00003148,-0.0
 0038964,-0.00006393,-0.00016008,0.00014610,0.00007467,-0.00015199,-0.0
 0006686,-0.00001761,-0.00002330,0.00003033,0.00009325,-0.00045848,-0.0
 0024254,0.00075491,0.00020404,0.00018981,0.00041838,-0.00033039,-0.000
 08214,-0.00047811,-0.00096954,0.00380047,0.06379439,0.00013840,-0.0000
 9327,0.00006556,-0.00007006,-0.00011285,-0.00002118,-0.00053226,-0.000
 08575,0.00060129,0.00001796,0.00007910,0.00020654,0.00132424,0.0009785
 9,-0.00801928,0.00023627,-0.00077353,0.00056957,0.02219994,0.05051438,
 -0.28266953,-0.00020373,0.00177328,-0.00710436,-0.00015481,0.00002462,
 0.00031586,0.00038583,0.00064710,0.00037001,-0.00010247,-0.00016460,-0
 .00007686,0.00003934,0.00007044,-0.00002441,0.00048640,-0.00023980,0.0
 0016178,0.00145263,-0.00014942,0.00110702,-0.00007985,-0.00001908,0.00
 030663,0.00035762,0.00065761,0.00042819,-0.02576451,-0.05811673,0.3078
 0039,-0.00056869,0.00059227,0.00009056,-0.00112314,-0.00036242,0.00101
 925,-0.00722755,0.00041432,0.00231659,-0.00017294,0.00056619,0.0000815
 5,-0.01322358,-0.02461744,-0.01777894,-0.00183487,0.00320348,-0.001202
 66,-0.08787847,-0.07871969,-0.05395422,0.00744353,0.01319003,0.0101666
 8,0.00165552,-0.00186557,-0.00181693,0.00019209,0.00044640,0.00024057,
 0.00007777,-0.00007641,0.00002681,0.00010767,-0.00007526,-0.00001816,0
 .00065024,0.00054426,-0.00063266,0.00099745,-0.00013782,0.00043562,0.0
 0055393,0.00104440,0.00035413,-0.00015933,-0.00019980,-0.00016217,0.00
 072035,0.00289285,0.00175443,0.09893425,-0.00022681,0.00012762,-0.0000
 1350,-0.00018386,0.00000028,0.00003099,-0.00007566,0.00115035,0.000691
 26,0.00060484,0.00054862,0.00003822,-0.00069398,-0.00117735,-0.0005163
 9,0.00445122,-0.00387910,0.00280447,-0.07892165,-0.19395370,-0.1011328
 8,-0.01162110,-0.02065810,-0.01522283,0.00047896,-0.00004155,-0.000173
 57,0.00003462,-0.00005397,-0.00014108,-0.00005328,-0.00001294,0.000055
 61,-0.00007494,0.00004694,-0.00002516,-0.00028343,0.00041826,0.0002356
 4,-0.00028466,-0.00016118,0.00018168,-0.00089821,-0.00141889,-0.000881
 83,0.00012739,0.00026953,-0.00001536,0.00331635,0.00537185,0.00375519,
 0.08446388,0.21221729,-0.00004371,-0.00005400,-0.00004392,-0.00010942,
 -0.00000347,-0.00019683,0.00169540,0.00034596,0.00015865,-0.00000717,0
 .00000631,-0.00006084,0.00412493,0.00728512,0.00386522,-0.00060340,0.0
 0085694,0.00009030,-0.05468895,-0.10219453,-0.11835498,0.00363738,0.00
 701117,0.00366900,0.00000114,0.00005810,0.00072194,0.00020846,0.000179
 58,0.00038535,-0.00002128,-0.00001757,-0.00002114,-0.00000302,-0.00002
 171,-0.00005021,-0.00072008,-0.00014313,0.00006435,-0.00048883,0.00027
 663,0.00041135,-0.00007719,0.00013001,0.00044361,0.00005897,0.00034320
 ,0.00044179,-0.01244971,-0.02329531,-0.01538105,0.05866377,0.11018478,
 0.12343533,-0.00026339,0.00007937,-0.00006567,-0.00025494,-0.00003872,
 0.00009521,0.00069265,-0.00005321,0.00021897,0.00061857,-0.00251363,-0
 .00222212,0.00018348,0.00370840,-0.00127759,-0.01137048,-0.00085447,0.
 00337041,-0.01388229,-0.00176985,0.00395694,-0.28925668,-0.02276654,0.
 05857521,0.00048179,0.00000392,-0.00001874,-0.00005001,0.00002029,-0.0
 0005120,0.00023307,0.00006758,0.00001576,-0.00083884,0.00012192,0.0001
 7999,-0.00096850,-0.00028181,0.00015256,0.00026834,-0.00004876,-0.0000
 0590,0.00039415,-0.00044523,0.00009108,0.00004054,0.00016055,-0.000484
 98,0.00009835,-0.00003995,-0.00053961,0.00037655,0.00036977,0.00031939
 ,0.31462441,-0.00007954,0.00029909,-0.00001908,0.00000252,0.00036162,-
 0.00016429,0.00012648,-0.00056320,-0.00001523,-0.00123411,-0.00439923,
 -0.00387739,0.00204971,-0.00592236,0.00190922,-0.02546835,-0.00213562,
 0.00749987,0.02928400,0.00331580,-0.00788656,-0.02311228,-0.04828449,0
 .00603614,-0.00004494,-0.00046846,0.00029089,-0.00002569,0.00006875,0.
 00001176,0.00047678,0.00003126,-0.00009155,-0.00178079,0.00004311,0.00
 004448,0.00186161,0.00022203,-0.00021944,-0.00030061,-0.00004365,-0.00
 002809,0.00030680,0.00028556,0.00083027,0.00052281,0.00087001,-0.00010
 548,-0.00055229,0.00097360,0.00030913,-0.00052122,0.00076820,-0.000707
 05,0.02436862,0.05587777,-0.00002556,0.00001697,-0.00002193,-0.0000054
 0,0.00007675,0.00002422,0.00028914,-0.00010721,-0.00000212,-0.00055453
 ,-0.00273211,-0.00187655,-0.00024518,0.00099141,0.00004640,-0.01833309
 ,-0.00150777,0.00386418,-0.00780704,-0.00045848,0.00090767,0.05995239,
 0.00606304,-0.06259656,-0.00002321,-0.00003162,0.00003475,0.00000343,0
 .00001803,-0.00002146,-0.00030740,-0.00015069,0.00030287,-0.00087040,-
 0.00016832,0.00046186,-0.00018694,0.00000672,0.00044105,-0.00044182,-0
 .00000492,0.00032362,0.00063389,0.00055083,0.00049677,-0.00006126,0.00
 071663,0.00034951,-0.00020698,-0.00047739,0.00020110,0.00050687,-0.000
 37776,0.00001456,-0.06246142,-0.00495476,0.06378790,0.00008762,-0.0000
 5930,0.00004129,0.00007342,-0.00004581,0.00004474,-0.00016433,0.000025
 85,-0.00000978,0.00080964,0.00071009,-0.00111501,0.00101290,-0.0002911
 9,-0.00131166,-0.00001740,0.00197330,-0.01343746,0.00003522,0.00384198
 ,-0.01599353,-0.04984678,-0.00327906,0.01662491,-0.00011160,0.00008764
 ,-0.00005020,0.00006174,-0.00003155,0.00019951,-0.00023141,-0.00037560
 ,0.00032034,0.00017040,0.00000872,0.00024960,0.00019835,-0.00006861,0.
 00024833,-0.00036932,0.00017388,0.00048849,0.00031440,0.00031234,0.000
 63352,-0.00052188,-0.00196034,-0.00164550,-0.00103800,0.00281833,-0.00
 092262,0.00041342,-0.00054537,0.00049738,-0.00118017,-0.00584780,0.030
 14887,0.05032559,-0.00000527,-0.00000213,-0.00000969,0.00004326,0.0000
 3122,-0.00004502,0.00005545,-0.00015358,-0.00004700,0.00121435,0.00101
 095,-0.00014855,-0.00141494,0.00103262,0.00028132,0.00094504,0.0037723
 9,-0.02742218,-0.00114444,-0.00775315,0.03016356,-0.00309785,-0.054159
 53,0.04700563,-0.00005658,0.00005240,0.00006720,-0.00004124,-0.0002072
 8,-0.00003346,-0.00035676,-0.00000779,0.00063792,0.00033975,-0.0000541
 3,0.00023719,-0.00032089,-0.00000373,-0.00036388,0.00066971,0.00028280
 ,-0.00066299,0.00071409,0.00062793,0.00033134,-0.00278251,-0.00364175,
 -0.00291479,0.00350978,-0.00468322,0.00094297,-0.00075142,0.00045093,-
 0.00021994,-0.00005422,-0.00131734,0.00252951,0.00254068,0.06471783,-0
 .00007802,-0.00001973,0.00004297,-0.00013676,-0.00009704,0.00014950,-0
 .00016483,-0.00010608,0.00017630,0.00090086,0.00090858,0.00049894,0.00
 037564,-0.00055739,0.00027058,0.00101186,0.00207539,-0.01809104,0.0005
 2991,0.00199900,-0.00655534,0.01575538,0.04699701,-0.28523539,0.000154
 93,0.00014560,-0.00017080,0.00024103,-0.00002582,0.00001526,-0.0009964
 2,-0.00014540,0.00039869,0.00009602,-0.00013069,0.00042900,-0.00004370
 ,-0.00001603,0.00033119,-0.00086128,0.00002473,0.00017989,0.00020782,-
 0.00045588,0.00032112,-0.00152241,-0.00298211,-0.00038936,-0.00048833,
 0.00103160,0.00118539,-0.00012241,0.00053131,0.00041710,0.00014238,0.0
 0114718,-0.00673418,-0.01500004,-0.05032750,0.31277862,-0.46351655,-0.
 04271883,0.12431752,0.00365768,-0.00740399,0.00178436,0.00129443,0.004
 98660,-0.00168666,-0.00067101,-0.00083783,0.00040115,0.00073132,0.0000
 3060,-0.00001716,-0.00010357,0.00044806,-0.00016975,-0.00004261,-0.000
 05305,0.00010506,0.00010115,0.00007196,-0.00001659,-0.03584726,0.00593
 159,0.00580286,0.00040459,-0.00023408,0.00024174,-0.00012382,0.0000515
 8,-0.00008203,-0.00000929,0.00006493,0.00006336,-0.00011746,-0.0002240
 1,0.00000333,-0.00009797,0.00000373,-0.00008226,-0.00010213,-0.0000694
 8,0.00003377,0.00003312,0.00001250,-0.00001098,0.00003173,-0.00000353,
 -0.00002314,0.00006580,0.00001592,0.00000594,0.00005340,-0.00003172,-0
 .00000438,-0.00002179,-0.00000600,-0.00000162,0.49428027,-0.08247597,-
 0.05249018,0.03827487,-0.00705692,-0.00036931,-0.00142366,0.00211352,-
 0.00402710,0.00358770,0.00119774,0.00049702,-0.00027045,0.00007859,-0.
 00002111,-0.00001149,0.00008606,-0.00042311,0.00014120,-0.00000472,0.0
 0014066,-0.00009318,-0.00012218,-0.00002244,0.00002671,0.04655831,0.00
 859902,-0.01252009,-0.00040666,-0.00020678,0.00009528,0.00002329,0.000
 02799,0.00007758,0.00001022,-0.00003612,-0.00008736,0.00006393,0.00040
 773,0.00023209,-0.00009018,0.00010873,-0.00010140,0.00011414,0.0000153
 5,-0.00003614,-0.00002092,-0.00000818,-0.00000885,0.00001991,0.0000126
 4,0.00000262,-0.00003104,-0.00001307,-0.00002110,-0.00003401,0.0000175
 7,0.00000112,0.00001183,0.00000456,0.00000328,0.03996504,0.04778615,0.
 14591941,0.02925086,-0.06452173,0.00137240,-0.00142287,-0.00558108,-0.
 00043897,0.00313674,0.00241656,-0.00052257,-0.00005927,0.00076389,0.00
 055742,0.00015974,0.00001007,-0.00010113,0.00021180,-0.00003031,-0.000
 02739,0.00015335,-0.00005346,-0.00001683,0.00004332,0.00002123,-0.0155
 1439,-0.00342212,0.00958830,-0.00046196,-0.00012686,0.00034758,0.00003
 971,-0.00009044,-0.00003848,0.00000362,-0.00001520,0.00000074,-0.00009
 344,0.00007042,0.00004310,-0.00009031,-0.00000752,-0.00018465,-0.00007
 215,-0.00001207,-0.00000233,0.00003189,0.00000876,-0.00002567,0.000049
 73,0.00001055,-0.00002268,0.00003133,-0.00000879,-0.00000959,0.0000093
 3,-0.00001003,-0.00000366,-0.00001119,-0.00000165,-0.00001844,-0.13066
 452,-0.02786872,0.05730060\\0.00000680,0.00000035,-0.00000016,-0.00000
 322,0.00000646,0.00000268,-0.00000502,-0.00000188,-0.00000507,-0.00000
 496,0.00000263,0.00000417,0.00000240,0.00000494,0.00000065,-0.00000367
 ,-0.00000340,0.00000094,0.00000389,-0.00000334,-0.00000019,0.00000284,
 -0.00000290,-0.00000068,-0.00000147,0.00000635,-0.00000115,0.00000170,
 0.00000135,0.00000135,-0.00000385,0.00000124,0.00000013,-0.00000614,-0
 .00000080,0.00000318,0.00000364,0.00000193,-0.00000366,0.00000357,0.00
 000223,-0.00000089,-0.00000491,-0.00000389,0.00000179,-0.00000115,-0.0
 0000467,0.00000008,0.00000297,-0.00000460,-0.00000141,0.00000439,-0.00
 000264,-0.00000230,-0.00000040,-0.00000676,0.00000034,-0.00000068,-0.0
 0000197,0.00000043,0.00000328,0.00000937,-0.00000023\\\@


 LIFE CAN ONLY BE UNDERSTOOD BACKWARD, BUT MUST
 BE LIVED FORWARD. -- KIRKEGAARD
 Job cpu time:       0 days  2 hours 39 minutes 43.5 seconds.
 Elapsed time:       0 days  0 hours 10 minutes  4.0 seconds.
 File lengths (MBytes):  RWF=    152 Int=      0 D2E=      0 Chk=      8 Scr=      1
 Normal termination of Gaussian 16 at Wed Oct  1 17:36:17 2025.
