 Entering Gaussian System, Link 0=g16
 Input=CYLL0029.gjf
 Output=CYLL0029.log
 Initial command:
 /usr/local/g16/l1.exe "/dados_01/scratch/Gau-2390034.inp" -scrdir="/dados_01/scratch/"
 Entering Link 1 = /usr/local/g16/l1.exe PID=   2390035.
  
 Copyright (c) 1988-2017, Gaussian, Inc.  All Rights Reserved.
  
 This is part of the Gaussian(R) 16 program.  It is based on
 the Gaussian(R) 09 system (copyright 2009, Gaussian, Inc.),
 the Gaussian(R) 03 system (copyright 2003, Gaussian, Inc.),
 the Gaussian(R) 98 system (copyright 1998, Gaussian, Inc.),
 the Gaussian(R) 94 system (copyright 1995, Gaussian, Inc.),
 the Gaussian 92(TM) system (copyright 1992, Gaussian, Inc.),
 the Gaussian 90(TM) system (copyright 1990, Gaussian, Inc.),
 the Gaussian 88(TM) system (copyright 1988, Gaussian, Inc.),
 the Gaussian 86(TM) system (copyright 1986, Carnegie Mellon
 University), and the Gaussian 82(TM) system (copyright 1983,
 Carnegie Mellon University). Gaussian is a federally registered
 trademark of Gaussian, Inc.
  
 This software contains proprietary and confidential information,
 including trade secrets, belonging to Gaussian, Inc.
  
 This software is provided under written license and may be
 used, copied, transmitted, or stored only in accord with that
 written license.
  
 The following legend is applicable only to US Government
 contracts under FAR:
  
                    RESTRICTED RIGHTS LEGEND
  
 Use, reproduction and disclosure by the US Government is
 subject to restrictions as set forth in subparagraphs (a)
 and (c) of the Commercial Computer Software - Restricted
 Rights clause in FAR 52.227-19.
  
 Gaussian, Inc.
 340 Quinnipiac St., Bldg. 40, Wallingford CT 06492
  
  
 ---------------------------------------------------------------
 Warning -- This program may not be used in any manner that
 competes with the business of Gaussian, Inc. or will provide
 assistance to any competitor of Gaussian, Inc.  The licensee
 of this program is prohibited from giving any competitor of
 Gaussian, Inc. access to this program.  By using this program,
 the user acknowledges that Gaussian, Inc. is engaged in the
 business of creating and licensing software in the field of
 computational chemistry and represents and warrants to the
 licensee that it is not a competitor of Gaussian, Inc. and that
 it will not use this program in any manner prohibited above.
 ---------------------------------------------------------------
  

 Cite this work as:
 Gaussian 16, Revision B.01,
 M. J. Frisch, G. W. Trucks, H. B. Schlegel, G. E. Scuseria, 
 M. A. Robb, J. R. Cheeseman, G. Scalmani, V. Barone, 
 G. A. Petersson, H. Nakatsuji, X. Li, M. Caricato, A. V. Marenich, 
 J. Bloino, B. G. Janesko, R. Gomperts, B. Mennucci, H. P. Hratchian, 
 J. V. Ortiz, A. F. Izmaylov, J. L. Sonnenberg, D. Williams-Young, 
 F. Ding, F. Lipparini, F. Egidi, J. Goings, B. Peng, A. Petrone, 
 T. Henderson, D. Ranasinghe, V. G. Zakrzewski, J. Gao, N. Rega, 
 G. Zheng, W. Liang, M. Hada, M. Ehara, K. Toyota, R. Fukuda, 
 J. Hasegawa, M. Ishida, T. Nakajima, Y. Honda, O. Kitao, H. Nakai, 
 T. Vreven, K. Throssell, J. A. Montgomery, Jr., J. E. Peralta, 
 F. Ogliaro, M. J. Bearpark, J. J. Heyd, E. N. Brothers, K. N. Kudin, 
 V. N. Staroverov, T. A. Keith, R. Kobayashi, J. Normand, 
 K. Raghavachari, A. P. Rendell, J. C. Burant, S. S. Iyengar, 
 J. Tomasi, M. Cossi, J. M. Millam, M. Klene, C. Adamo, R. Cammi, 
 J. W. Ochterski, R. L. Martin, K. Morokuma, O. Farkas, 
 J. B. Foresman, and D. J. Fox, Gaussian, Inc., Wallingford CT, 2016.
 
 ******************************************
 Gaussian 16:  ES64L-G16RevB.01 20-Dec-2017
                 1-Oct-2025 
 ******************************************
 %nprocs=16
 Will use up to   16 processors via shared memory.
 %mem=40GB
 %chk=CYLL0029.chk
 ----------------------------------------------------------------------
 # opt freq=noraman M08HX/6-311++G** scf=xqc Empiricaldispersion=pfd In
 t(Grid=ultraFine)
 ----------------------------------------------------------------------
 1/18=20,19=15,26=4,38=1/1,3;
 2/9=110,12=2,17=6,18=5,40=1/2;
 3/5=4,6=6,7=1111,11=2,25=1,30=1,71=1,74=-74,75=-5,124=11/1,2,3;
 4//1;
 5/5=2,8=3,13=1,38=5/2,8;
 6/7=2,8=2,9=2,10=2,28=1/1;
 7//1,2,3,16;
 1/18=20,19=15,26=4/3(2);
 2/9=110/2;
 99//99;
 2/9=110/2;
 3/5=4,6=6,7=1111,11=2,25=1,30=1,71=1,74=-74,75=-5,124=11/1,2,3;
 4/5=5,16=3,69=1/1;
 5/5=2,8=3,13=1,38=5/2,8;
 7//1,2,3,16;
 1/18=20,19=15,26=4/3(-5);
 2/9=110/2;
 6/7=2,8=2,9=2,10=2,19=2,28=1/1;
 99/9=1/99;
 --------
 CYLL0029
 --------
 Symbolic Z-matrix:
 Charge =  0 Multiplicity = 1
 O                    -2.8994    0.4395   -0.2027 
 C                    -0.6165   -0.2634   -0.2468 
 C                    -0.1446    1.1041    0.2659 
 C                     0.3631   -1.3697    0.1669 
 C                     1.2819    1.4126   -0.183 
 C                     1.7888   -1.0571   -0.2816 
 C                     2.2511    0.3065    0.2224 
 C                    -2.0244   -0.5725    0.259 
 H                    -0.649    -0.2117   -1.3441 
 H                    -0.1901    1.1277    1.3623 
 H                    -0.8052    1.9005   -0.0963 
 H                     0.0501   -2.3271   -0.2664 
 H                     0.3471   -1.4939    1.2573 
 H                     1.6071    2.3645    0.2518 
 H                     1.3031    1.5354   -1.2729 
 H                     1.8391   -1.0777   -1.3773 
 H                     2.4688   -1.8349    0.0838 
 H                     3.249     0.5271   -0.1729 
 H                     2.3387    0.2808    1.3156 
 H                    -2.0596   -0.5975    1.3533 
 H                    -2.3724   -1.5364   -0.1266 
 H                    -3.7879    0.2233    0.1278 
 

 GradGradGradGradGradGradGradGradGradGradGradGradGradGradGradGradGradGrad
 Berny optimization.
 Initialization pass.
                           ----------------------------
                           !    Initial Parameters    !
                           ! (Angstroms and Degrees)  !
 --------------------------                            --------------------------
 ! Name  Definition              Value          Derivative Info.                !
 --------------------------------------------------------------------------------
 ! R1    R(1,8)                  1.4153         estimate D2E/DX2                !
 ! R2    R(1,22)                 0.9723         estimate D2E/DX2                !
 ! R3    R(2,3)                  1.5348         estimate D2E/DX2                !
 ! R4    R(2,4)                  1.5345         estimate D2E/DX2                !
 ! R5    R(2,8)                  1.5276         estimate D2E/DX2                !
 ! R6    R(2,9)                  1.099          estimate D2E/DX2                !
 ! R7    R(3,5)                  1.527          estimate D2E/DX2                !
 ! R8    R(3,10)                 1.0976         estimate D2E/DX2                !
 ! R9    R(3,11)                 1.0963         estimate D2E/DX2                !
 ! R10   R(4,6)                  1.5269         estimate D2E/DX2                !
 ! R11   R(4,12)                 1.0965         estimate D2E/DX2                !
 ! R12   R(4,13)                 1.0976         estimate D2E/DX2                !
 ! R13   R(5,7)                  1.5255         estimate D2E/DX2                !
 ! R14   R(5,14)                 1.0959         estimate D2E/DX2                !
 ! R15   R(5,15)                 1.097          estimate D2E/DX2                !
 ! R16   R(6,7)                  1.5255         estimate D2E/DX2                !
 ! R17   R(6,16)                 1.097          estimate D2E/DX2                !
 ! R18   R(6,17)                 1.0959         estimate D2E/DX2                !
 ! R19   R(7,18)                 1.0958         estimate D2E/DX2                !
 ! R20   R(7,19)                 1.097          estimate D2E/DX2                !
 ! R21   R(8,20)                 1.0952         estimate D2E/DX2                !
 ! R22   R(8,21)                 1.0949         estimate D2E/DX2                !
 ! A1    A(8,1,22)             107.1623         estimate D2E/DX2                !
 ! A2    A(3,2,4)              110.8563         estimate D2E/DX2                !
 ! A3    A(3,2,8)              110.6743         estimate D2E/DX2                !
 ! A4    A(3,2,9)              107.5004         estimate D2E/DX2                !
 ! A5    A(4,2,8)              110.6842         estimate D2E/DX2                !
 ! A6    A(4,2,9)              108.7826         estimate D2E/DX2                !
 ! A7    A(8,2,9)              108.2317         estimate D2E/DX2                !
 ! A8    A(2,3,5)              111.6569         estimate D2E/DX2                !
 ! A9    A(2,3,10)             109.8828         estimate D2E/DX2                !
 ! A10   A(2,3,11)             110.5869         estimate D2E/DX2                !
 ! A11   A(5,3,10)             109.1502         estimate D2E/DX2                !
 ! A12   A(5,3,11)             108.6049         estimate D2E/DX2                !
 ! A13   A(10,3,11)            106.8238         estimate D2E/DX2                !
 ! A14   A(2,4,6)              111.6712         estimate D2E/DX2                !
 ! A15   A(2,4,12)             109.9211         estimate D2E/DX2                !
 ! A16   A(2,4,13)             109.884          estimate D2E/DX2                !
 ! A17   A(6,4,12)             109.2209         estimate D2E/DX2                !
 ! A18   A(6,4,13)             109.1831         estimate D2E/DX2                !
 ! A19   A(12,4,13)            106.8351         estimate D2E/DX2                !
 ! A20   A(3,5,7)              111.6489         estimate D2E/DX2                !
 ! A21   A(3,5,14)             109.6383         estimate D2E/DX2                !
 ! A22   A(3,5,15)             109.4359         estimate D2E/DX2                !
 ! A23   A(7,5,14)             109.6239         estimate D2E/DX2                !
 ! A24   A(7,5,15)             109.4459         estimate D2E/DX2                !
 ! A25   A(14,5,15)            106.9313         estimate D2E/DX2                !
 ! A26   A(4,6,7)              111.6487         estimate D2E/DX2                !
 ! A27   A(4,6,16)             109.4105         estimate D2E/DX2                !
 ! A28   A(4,6,17)             109.6418         estimate D2E/DX2                !
 ! A29   A(7,6,16)             109.443          estimate D2E/DX2                !
 ! A30   A(7,6,17)             109.6474         estimate D2E/DX2                !
 ! A31   A(16,6,17)            106.9329         estimate D2E/DX2                !
 ! A32   A(5,7,6)              111.5792         estimate D2E/DX2                !
 ! A33   A(5,7,18)             109.6786         estimate D2E/DX2                !
 ! A34   A(5,7,19)             109.4234         estimate D2E/DX2                !
 ! A35   A(6,7,18)             109.6788         estimate D2E/DX2                !
 ! A36   A(6,7,19)             109.4204         estimate D2E/DX2                !
 ! A37   A(18,7,19)            106.9473         estimate D2E/DX2                !
 ! A38   A(1,8,2)              108.4883         estimate D2E/DX2                !
 ! A39   A(1,8,20)             108.8099         estimate D2E/DX2                !
 ! A40   A(1,8,21)             108.5482         estimate D2E/DX2                !
 ! A41   A(2,8,20)             111.4133         estimate D2E/DX2                !
 ! A42   A(2,8,21)             110.7594         estimate D2E/DX2                !
 ! A43   A(20,8,21)            108.7585         estimate D2E/DX2                !
 ! D1    D(22,1,8,2)           179.8816         estimate D2E/DX2                !
 ! D2    D(22,1,8,20)          -58.7476         estimate D2E/DX2                !
 ! D3    D(22,1,8,21)           59.4572         estimate D2E/DX2                !
 ! D4    D(4,2,3,5)             54.6202         estimate D2E/DX2                !
 ! D5    D(4,2,3,10)           -66.641          estimate D2E/DX2                !
 ! D6    D(4,2,3,11)           175.6736         estimate D2E/DX2                !
 ! D7    D(8,2,3,5)            177.8343         estimate D2E/DX2                !
 ! D8    D(8,2,3,10)            56.5731         estimate D2E/DX2                !
 ! D9    D(8,2,3,11)           -61.1122         estimate D2E/DX2                !
 ! D10   D(9,2,3,5)            -64.157          estimate D2E/DX2                !
 ! D11   D(9,2,3,10)           174.5818         estimate D2E/DX2                !
 ! D12   D(9,2,3,11)            56.8964         estimate D2E/DX2                !
 ! D13   D(3,2,4,6)            -54.6174         estimate D2E/DX2                !
 ! D14   D(3,2,4,12)          -176.0038         estimate D2E/DX2                !
 ! D15   D(3,2,4,13)            66.6957         estimate D2E/DX2                !
 ! D16   D(8,2,4,6)           -177.8258         estimate D2E/DX2                !
 ! D17   D(8,2,4,12)            60.7878         estimate D2E/DX2                !
 ! D18   D(8,2,4,13)           -56.5127         estimate D2E/DX2                !
 ! D19   D(9,2,4,6)             63.3824         estimate D2E/DX2                !
 ! D20   D(9,2,4,12)           -58.004          estimate D2E/DX2                !
 ! D21   D(9,2,4,13)          -175.3045         estimate D2E/DX2                !
 ! D22   D(3,2,8,1)             59.5254         estimate D2E/DX2                !
 ! D23   D(3,2,8,20)           -60.2309         estimate D2E/DX2                !
 ! D24   D(3,2,8,21)           178.567          estimate D2E/DX2                !
 ! D25   D(4,2,8,1)           -177.1609         estimate D2E/DX2                !
 ! D26   D(4,2,8,20)            63.0828         estimate D2E/DX2                !
 ! D27   D(4,2,8,21)           -58.1193         estimate D2E/DX2                !
 ! D28   D(9,2,8,1)            -58.0358         estimate D2E/DX2                !
 ! D29   D(9,2,8,20)          -177.7922         estimate D2E/DX2                !
 ! D30   D(9,2,8,21)            61.0058         estimate D2E/DX2                !
 ! D31   D(2,3,5,7)            -54.7905         estimate D2E/DX2                !
 ! D32   D(2,3,5,14)          -176.4777         estimate D2E/DX2                !
 ! D33   D(2,3,5,15)            66.5338         estimate D2E/DX2                !
 ! D34   D(10,3,5,7)            66.8949         estimate D2E/DX2                !
 ! D35   D(10,3,5,14)          -54.7923         estimate D2E/DX2                !
 ! D36   D(10,3,5,15)         -171.7807         estimate D2E/DX2                !
 ! D37   D(11,3,5,7)          -176.9898         estimate D2E/DX2                !
 ! D38   D(11,3,5,14)           61.323          estimate D2E/DX2                !
 ! D39   D(11,3,5,15)          -55.6654         estimate D2E/DX2                !
 ! D40   D(2,4,6,7)             54.7807         estimate D2E/DX2                !
 ! D41   D(2,4,6,16)           -66.5226         estimate D2E/DX2                !
 ! D42   D(2,4,6,17)           176.4999         estimate D2E/DX2                !
 ! D43   D(12,4,6,7)           176.5719         estimate D2E/DX2                !
 ! D44   D(12,4,6,16)           55.2687         estimate D2E/DX2                !
 ! D45   D(12,4,6,17)          -61.7089         estimate D2E/DX2                !
 ! D46   D(13,4,6,7)           -66.9379         estimate D2E/DX2                !
 ! D47   D(13,4,6,16)          171.7588         estimate D2E/DX2                !
 ! D48   D(13,4,6,17)           54.7812         estimate D2E/DX2                !
 ! D49   D(3,5,7,6)             54.4713         estimate D2E/DX2                !
 ! D50   D(3,5,7,18)           176.2093         estimate D2E/DX2                !
 ! D51   D(3,5,7,19)           -66.7669         estimate D2E/DX2                !
 ! D52   D(14,5,7,6)           176.1669         estimate D2E/DX2                !
 ! D53   D(14,5,7,18)          -62.0951         estimate D2E/DX2                !
 ! D54   D(14,5,7,19)           54.9287         estimate D2E/DX2                !
 ! D55   D(15,5,7,6)           -66.8472         estimate D2E/DX2                !
 ! D56   D(15,5,7,18)           54.8908         estimate D2E/DX2                !
 ! D57   D(15,5,7,19)          171.9145         estimate D2E/DX2                !
 ! D58   D(4,6,7,5)            -54.4604         estimate D2E/DX2                !
 ! D59   D(4,6,7,18)          -176.1982         estimate D2E/DX2                !
 ! D60   D(4,6,7,19)            66.7797         estimate D2E/DX2                !
 ! D61   D(16,6,7,5)            66.8241         estimate D2E/DX2                !
 ! D62   D(16,6,7,18)          -54.9138         estimate D2E/DX2                !
 ! D63   D(16,6,7,19)         -171.9359         estimate D2E/DX2                !
 ! D64   D(17,6,7,5)          -176.1763         estimate D2E/DX2                !
 ! D65   D(17,6,7,18)           62.0858         estimate D2E/DX2                !
 ! D66   D(17,6,7,19)          -54.9363         estimate D2E/DX2                !
 --------------------------------------------------------------------------------
 Trust Radius=3.00D-01 FncErr=1.00D-07 GrdErr=1.00D-06 EigMax=2.50D+02 EigMin=1.00D-04
 Number of steps in this run=    132 maximum allowed number of steps=    132.
 GradGradGradGradGradGradGradGradGradGradGradGradGradGradGradGradGradGrad

                          Input orientation:                          
 ---------------------------------------------------------------------
 Center     Atomic      Atomic             Coordinates (Angstroms)
 Number     Number       Type             X           Y           Z
 ---------------------------------------------------------------------
      1          8           0       -2.899400    0.439500   -0.202700
      2          6           0       -0.616500   -0.263400   -0.246800
      3          6           0       -0.144600    1.104100    0.265900
      4          6           0        0.363100   -1.369700    0.166900
      5          6           0        1.281900    1.412600   -0.183000
      6          6           0        1.788800   -1.057100   -0.281600
      7          6           0        2.251100    0.306500    0.222400
      8          6           0       -2.024400   -0.572500    0.259000
      9          1           0       -0.649000   -0.211700   -1.344100
     10          1           0       -0.190100    1.127700    1.362300
     11          1           0       -0.805200    1.900500   -0.096300
     12          1           0        0.050100   -2.327100   -0.266400
     13          1           0        0.347100   -1.493900    1.257300
     14          1           0        1.607100    2.364500    0.251800
     15          1           0        1.303100    1.535400   -1.272900
     16          1           0        1.839100   -1.077700   -1.377300
     17          1           0        2.468800   -1.834900    0.083800
     18          1           0        3.249000    0.527100   -0.172900
     19          1           0        2.338700    0.280800    1.315600
     20          1           0       -2.059600   -0.597500    1.353300
     21          1           0       -2.372400   -1.536400   -0.126600
     22          1           0       -3.787900    0.223300    0.127800
 ---------------------------------------------------------------------
                    Distance matrix (angstroms):
                    1          2          3          4          5
     1  O    0.000000
     2  C    2.389068   0.000000
     3  C    2.872317   1.534799   0.000000
     4  C    3.748828   1.534491   2.527300   0.000000
     5  C    4.293085   2.533174   1.526953   2.950901   0.000000
     6  C    4.921916   2.533109   2.951030   1.526922   2.523111
     7  C    5.169724   2.961092   2.525359   2.525326   1.525502
     8  C    1.415251   1.527599   2.518865   2.518763   3.881701
     9  H    2.605985   1.098998   2.139591   2.156022   2.777567
    10  H    3.203615   2.169373   1.097597   2.823476   2.153115
    11  H    2.555683   2.177320   1.096282   3.482586   2.145122
    12  H    4.044463   2.168778   3.477698   1.096509   3.938228
    13  H    4.050851   2.169095   2.823871   1.097567   3.375805
    14  H    4.921457   3.478341   2.158069   3.936876   1.095865
    15  H    4.472956   2.823726   2.156330   3.375830   1.097001
    16  H    5.112237   2.823311   3.375711   2.156013   2.817520
    17  H    5.837170   3.478216   3.937098   2.158075   3.467877
    18  H    6.149096   3.946193   3.470158   3.470120   2.157242
    19  H    5.456016   3.386806   2.818949   2.818982   2.154901
    20  H    2.049822   2.180477   2.783003   2.805942   4.191222
    21  H    2.046387   2.172133   3.476980   2.756246   4.696136
    22  H    0.972319   3.230322   3.750802   4.446344   5.216695
                    6          7          8          9         10
     6  C    0.000000
     7  C    1.525497   0.000000
     8  C    3.881698   4.365075   0.000000
     9  H    2.790426   3.336620   2.142856   0.000000
    10  H    3.375175   2.816593   2.733607   3.054371   0.000000
    11  H    3.938346   3.461701   2.780003   2.458209   1.761557
    12  H    2.153186   3.466868   2.767348   2.474893   3.827010
    13  H    2.153487   2.817388   2.733056   3.066518   2.678133
    14  H    3.467690   2.156609   4.670526   3.778054   2.448022
    15  H    2.817736   2.155185   4.226372   2.620710   3.056165
    16  H    1.097047   2.155178   4.226031   2.634711   4.060400
    17  H    1.095851   2.156895   4.670460   3.793989   4.181066
    18  H    2.157241   1.095779   5.404110   4.136658   3.813787
    19  H    2.154858   1.097005   4.569591   4.030250   2.667255
    20  H    4.206461   4.547338   1.095151   3.068322   2.543900
    21  H    4.191580   4.989472   1.094940   2.491434   3.751891
    22  H    5.736429   6.040314   1.939186   3.494053   3.909744
                   11         12         13         14         15
    11  H    0.000000
    12  H    4.316604   0.000000
    13  H    3.831707   1.761844   0.000000
    14  H    2.481060   4.970301   4.181612   0.000000
    15  H    2.441847   4.183534   4.061097   1.761968   0.000000
    16  H    4.183654   2.448596   3.056207   3.815302   2.669548
    17  H    4.970385   2.492992   2.448468   4.290188   3.815549
    18  H    4.281195   4.288142   3.814569   2.500449   2.452182
    19  H    3.808017   3.813339   2.668226   2.451268   3.057257
    20  H    3.148788   3.172661   2.570010   4.840603   4.770109
    21  H    3.777475   2.552108   3.051666   5.585394   4.925369
    22  H    3.429245   4.624952   4.617659   5.805699   5.440758
                   16         17         18         19         20
    16  H    0.000000
    17  H    1.762012   0.000000
    18  H    2.452301   2.500730   0.000000
    19  H    3.057259   2.451621   1.762085   0.000000
    20  H    4.783997   4.863044   5.636954   4.485295   0.000000
    21  H    4.417170   4.854955   5.988348   5.251345   1.780304
    22  H    5.968338   6.586685   7.049871   6.240946   2.272132
                   21         22
    21  H    0.000000
    22  H    2.272642   0.000000
 Stoichiometry    C7H14O
 Framework group  C1[X(C7H14O)]
 Deg. of freedom    60
 Full point group                 C1      NOp   1
 Largest Abelian subgroup         C1      NOp   1
 Largest concise Abelian subgroup C1      NOp   1
                         Standard orientation:                         
 ---------------------------------------------------------------------
 Center     Atomic      Atomic             Coordinates (Angstroms)
 Number     Number       Type             X           Y           Z
 ---------------------------------------------------------------------
      1          8           0       -2.856086    0.461966   -0.237751
      2          6           0       -0.577399   -0.255375   -0.263276
      3          6           0       -0.101373    1.107951    0.256676
      4          6           0        0.391451   -1.368810    0.156549
      5          6           0        1.330975    1.408343   -0.178903
      6          6           0        1.823022   -1.064314   -0.278627
      7          6           0        2.289501    0.295192    0.232532
      8          6           0       -1.991655   -0.556612    0.229363
      9          1           0       -0.599859   -0.201039   -1.360700
     10          1           0       -0.156422    1.129413    1.352682
     11          1           0       -0.753667    1.909346   -0.109537
     12          1           0        0.076219   -2.323234   -0.281671
     13          1           0        0.365014   -1.495319    1.246481
     14          1           0        1.658358    2.357186    0.260913
     15          1           0        1.362599    1.533418   -1.268291
     16          1           0        1.882884   -1.082808   -1.373884
     17          1           0        2.494805   -1.847240    0.091000
     18          1           0        3.292242    0.510301   -0.153435
     19          1           0        2.367259    0.266514    1.326402
     20          1           0       -2.036695   -0.583809    1.323250
     21          1           0       -2.342349   -1.517417   -0.161483
     22          1           0       -3.748832    0.250703    0.084396
 ---------------------------------------------------------------------
 Rotational constants (GHZ):           3.8930130           1.3229969           1.0619323
 Standard basis: 6-311++G(d,p) (5D, 7F)
 There are   282 symmetry adapted cartesian basis functions of A   symmetry.
 There are   274 symmetry adapted basis functions of A   symmetry.
   274 basis functions,   414 primitive gaussians,   282 cartesian basis functions
    32 alpha electrons       32 beta electrons
       nuclear repulsion energy       406.1967040393 Hartrees.
 NAtoms=   22 NActive=   22 NUniq=   22 SFac= 1.00D+00 NAtFMM=   60 NAOKFM=F Big=F
 Integral buffers will be    131072 words long.
 Raffenetti 2 integral format.
 Two-electron integral symmetry is turned on.
 R6APFD:  NTU= -4 IXU= 1 FactS= 1.050
 Nuclear repulsion after empirical dispersion term =      406.1811255116 Hartrees.
 One-electron integrals computed using PRISM.
 NBasis=   274 RedAO= T EigKep=  7.41D-06  NBF=   274
 NBsUse=   274 1.00D-06 EigRej= -1.00D+00 NBFU=   274
 ExpMin= 3.60D-02 ExpMax= 8.59D+03 ExpMxC= 1.30D+03 IAcc=3 IRadAn=         5 AccDes= 0.00D+00
 Harris functional with IExCor= 1009 and IRadAn=       5 diagonalized for initial guess.
 HarFok:  IExCor= 1009 AccDes= 0.00D+00 IRadAn=         5 IDoV= 1 UseB2=F ITyADJ=14
 ICtDFT=  3500011 ScaDFX=  1.000000  1.000000  1.000000  1.000000
 FoFCou: FMM=F IPFlag=           0 FMFlag=      100000 FMFlg1=           0
         NFxFlg=           0 DoJE=T BraDBF=F KetDBF=T FulRan=T
         wScrn=  0.000000 ICntrl=       500 IOpCl=  0 I1Cent=   200000004 NGrid=           0
         NMat0=    1 NMatS0=      1 NMatT0=    0 NMatD0=    1 NMtDS0=    0 NMtDT0=    0
 Petite list used in FoFCou.
 Requested convergence on RMS density matrix=1.00D-08 within  32 cycles.
 Requested convergence on MAX density matrix=1.00D-06.
 Requested convergence on             energy=1.00D-06.
 No special actions if energy rises.
 SCF Done:  E(RM08HX) =  -350.425731950     A.U. after   12 cycles
            NFock= 12  Conv=0.74D-08     -V/T= 2.0051
 QCSCF skips out because SCF is already converged.

 **********************************************************************

            Population analysis using the SCF Density.

 **********************************************************************

 Orbital symmetries:
       Occupied  (A) (A) (A) (A) (A) (A) (A) (A) (A) (A) (A) (A)
                 (A) (A) (A) (A) (A) (A) (A) (A) (A) (A) (A) (A)
                 (A) (A) (A) (A) (A) (A) (A) (A)
       Virtual   (A) (A) (A) (A) (A) (A) (A) (A) (A) (A) (A) (A)
                 (A) (A) (A) (A) (A) (A) (A) (A) (A) (A) (A) (A)
                 (A) (A) (A) (A) (A) (A) (A) (A) (A) (A) (A) (A)
                 (A) (A) (A) (A) (A) (A) (A) (A) (A) (A) (A) (A)
                 (A) (A) (A) (A) (A) (A) (A) (A) (A) (A) (A) (A)
                 (A) (A) (A) (A) (A) (A) (A) (A) (A) (A) (A) (A)
                 (A) (A) (A) (A) (A) (A) (A) (A) (A) (A) (A) (A)
                 (A) (A) (A) (A) (A) (A) (A) (A) (A) (A) (A) (A)
                 (A) (A) (A) (A) (A) (A) (A) (A) (A) (A) (A) (A)
                 (A) (A) (A) (A) (A) (A) (A) (A) (A) (A) (A) (A)
                 (A) (A) (A) (A) (A) (A) (A) (A) (A) (A) (A) (A)
                 (A) (A) (A) (A) (A) (A) (A) (A) (A) (A) (A) (A)
                 (A) (A) (A) (A) (A) (A) (A) (A) (A) (A) (A) (A)
                 (A) (A) (A) (A) (A) (A) (A) (A) (A) (A) (A) (A)
                 (A) (A) (A) (A) (A) (A) (A) (A) (A) (A) (A) (A)
                 (A) (A) (A) (A) (A) (A) (A) (A) (A) (A) (A) (A)
                 (A) (A) (A) (A) (A) (A) (A) (A) (A) (A) (A) (A)
                 (A) (A) (A) (A) (A) (A) (A) (A) (A) (A) (A) (A)
                 (A) (A) (A) (A) (A) (A) (A) (A) (A) (A) (A) (A)
                 (A) (A) (A) (A) (A) (A) (A) (A) (A) (A) (A) (A)
                 (A) (A)
 The electronic state is 1-A.
 Alpha  occ. eigenvalues --  -19.60603 -10.56930 -10.52674 -10.52039 -10.51794
 Alpha  occ. eigenvalues --  -10.51511 -10.51387 -10.51137  -1.14111  -0.94243
 Alpha  occ. eigenvalues --   -0.86156  -0.84046  -0.76059  -0.69589  -0.66957
 Alpha  occ. eigenvalues --   -0.63303  -0.58980  -0.54845  -0.53764  -0.50983
 Alpha  occ. eigenvalues --   -0.50459  -0.49138  -0.45731  -0.43944  -0.43248
 Alpha  occ. eigenvalues --   -0.41231  -0.40312  -0.39722  -0.37317  -0.35798
 Alpha  occ. eigenvalues --   -0.35431  -0.34383
 Alpha virt. eigenvalues --   -0.02857  -0.01912  -0.01434  -0.01000   0.00363
 Alpha virt. eigenvalues --    0.01133   0.01277   0.01820   0.02062   0.03766
 Alpha virt. eigenvalues --    0.04221   0.04592   0.05226   0.05460   0.06898
 Alpha virt. eigenvalues --    0.07616   0.08631   0.09575   0.10462   0.10629
 Alpha virt. eigenvalues --    0.11297   0.11583   0.12160   0.12419   0.12678
 Alpha virt. eigenvalues --    0.12764   0.13430   0.13612   0.14569   0.14773
 Alpha virt. eigenvalues --    0.15163   0.15561   0.16050   0.16486   0.16597
 Alpha virt. eigenvalues --    0.16920   0.17502   0.18031   0.18402   0.19727
 Alpha virt. eigenvalues --    0.20217   0.21463   0.22147   0.22836   0.24075
 Alpha virt. eigenvalues --    0.24568   0.25641   0.26235   0.26891   0.27554
 Alpha virt. eigenvalues --    0.27731   0.28465   0.29814   0.30395   0.30796
 Alpha virt. eigenvalues --    0.31991   0.32782   0.34097   0.34947   0.36283
 Alpha virt. eigenvalues --    0.36479   0.37044   0.37478   0.38017   0.38394
 Alpha virt. eigenvalues --    0.39895   0.40894   0.43015   0.48229   0.48684
 Alpha virt. eigenvalues --    0.50829   0.51263   0.51647   0.52609   0.54859
 Alpha virt. eigenvalues --    0.56220   0.58967   0.59833   0.62768   0.64428
 Alpha virt. eigenvalues --    0.65542   0.67795   0.68852   0.69934   0.70725
 Alpha virt. eigenvalues --    0.71046   0.71922   0.72777   0.73396   0.74133
 Alpha virt. eigenvalues --    0.74618   0.75510   0.76911   0.77979   0.78586
 Alpha virt. eigenvalues --    0.79077   0.79645   0.80047   0.80262   0.81335
 Alpha virt. eigenvalues --    0.84250   0.89848   0.91208   0.91865   0.96125
 Alpha virt. eigenvalues --    1.01401   1.02376   1.07289   1.07711   1.09346
 Alpha virt. eigenvalues --    1.13699   1.15633   1.19471   1.22508   1.24045
 Alpha virt. eigenvalues --    1.24456   1.25336   1.26679   1.28575   1.33864
 Alpha virt. eigenvalues --    1.40585   1.44680   1.46739   1.52325   1.53080
 Alpha virt. eigenvalues --    1.56082   1.56954   1.58367   1.59721   1.60419
 Alpha virt. eigenvalues --    1.61716   1.62039   1.62927   1.64699   1.65364
 Alpha virt. eigenvalues --    1.65964   1.67042   1.67403   1.67986   1.68575
 Alpha virt. eigenvalues --    1.69880   1.70868   1.74542   1.74574   1.76982
 Alpha virt. eigenvalues --    1.77690   1.81961   1.83921   1.84336   1.85447
 Alpha virt. eigenvalues --    1.86236   1.87366   1.87824   1.89129   1.91361
 Alpha virt. eigenvalues --    1.97273   1.97899   2.03123   2.05591   2.07518
 Alpha virt. eigenvalues --    2.11763   2.12794   2.15366   2.16317   2.20092
 Alpha virt. eigenvalues --    2.22298   2.26988   2.27759   2.28892   2.31455
 Alpha virt. eigenvalues --    2.32452   2.36670   2.38489   2.41523   2.43437
 Alpha virt. eigenvalues --    2.46151   2.47283   2.50466   2.52276   2.53898
 Alpha virt. eigenvalues --    2.57160   2.58131   2.58668   2.60700   2.61500
 Alpha virt. eigenvalues --    2.63602   2.65881   2.66898   2.69027   2.69973
 Alpha virt. eigenvalues --    2.75563   2.76914   2.78902   2.80133   2.80975
 Alpha virt. eigenvalues --    2.82531   2.83395   2.84403   2.87584   2.91030
 Alpha virt. eigenvalues --    2.91877   2.93584   2.96789   2.99384   3.00326
 Alpha virt. eigenvalues --    3.02772   3.07925   3.16889   3.19203   3.22899
 Alpha virt. eigenvalues --    3.26963   3.30776   3.37871   3.43741   3.47781
 Alpha virt. eigenvalues --    3.58092   3.80269   3.82936   3.84603   3.89069
 Alpha virt. eigenvalues --    3.89462   3.92981   3.97444   4.05993   4.12075
 Alpha virt. eigenvalues --    4.18250   4.22152   4.33144   4.37879   4.42849
 Alpha virt. eigenvalues --    4.47871   5.20872   5.54233   5.75367  23.89997
 Alpha virt. eigenvalues --   23.91858  23.95787  24.00216  24.01487  24.01844
 Alpha virt. eigenvalues --   24.02344  49.95221
          Condensed to atoms (all electrons):
               1          2          3          4          5          6
     1  O    8.082008  -0.121305  -0.048807   0.122214   0.021219  -0.009617
     2  C   -0.121305  10.182875  -2.131582  -2.183414   0.163376   0.532157
     3  C   -0.048807  -2.131582   8.651065  -0.081895  -0.994879   0.060412
     4  C    0.122214  -2.183414  -0.081895   8.616710   0.408082  -1.098131
     5  C    0.021219   0.163376  -0.994879   0.408082   7.008074  -0.134832
     6  C   -0.009617   0.532157   0.060412  -1.098131  -0.134832   7.192515
     7  C   -0.005462  -0.084018   0.186075  -0.091400  -0.502445  -0.473297
     8  C    0.122177  -1.331602   0.523791   0.310069  -0.251171  -0.338152
     9  H   -0.018257   0.875740  -0.286849  -0.200146   0.017358   0.013134
    10  H   -0.005500   0.091439   0.450108  -0.118497  -0.045325   0.035619
    11  H    0.034479  -0.125442   0.509307   0.036912  -0.073194  -0.011303
    12  H   -0.002006  -0.141482   0.042645   0.508939  -0.009330  -0.066437
    13  H   -0.001815   0.112081  -0.138493   0.444529   0.031780  -0.019873
    14  H    0.001381  -0.057357  -0.011455   0.012708   0.450887  -0.008135
    15  H   -0.001345   0.025130  -0.135076  -0.013390   0.572326  -0.002364
    16  H    0.000182  -0.022404  -0.015268  -0.077884  -0.019916   0.574710
    17  H    0.000899  -0.048055   0.008269   0.004887   0.012429   0.413285
    18  H   -0.000094   0.013238   0.002258   0.001118  -0.089806  -0.095520
    19  H   -0.000937   0.046919  -0.078935  -0.060995  -0.036280  -0.025758
    20  H   -0.080472   0.430168  -0.250500  -0.075435   0.038564   0.005283
    21  H   -0.067419  -0.328279   0.151332   0.034794  -0.018215  -0.012229
    22  H    0.197258  -0.083353   0.017532  -0.003541  -0.005585  -0.001794
               7          8          9         10         11         12
     1  O   -0.005462   0.122177  -0.018257  -0.005500   0.034479  -0.002006
     2  C   -0.084018  -1.331602   0.875740   0.091439  -0.125442  -0.141482
     3  C    0.186075   0.523791  -0.286849   0.450108   0.509307   0.042645
     4  C   -0.091400   0.310069  -0.200146  -0.118497   0.036912   0.508939
     5  C   -0.502445  -0.251171   0.017358  -0.045325  -0.073194  -0.009330
     6  C   -0.473297  -0.338152   0.013134   0.035619  -0.011303  -0.066437
     7  C    6.779488   0.087805  -0.010987  -0.041271  -0.008120   0.009440
     8  C    0.087805   7.001161  -0.128983  -0.029123   0.004705   0.012842
     9  H   -0.010987  -0.128983   0.476041   0.003858  -0.006360  -0.020972
    10  H   -0.041271  -0.029123   0.003858   0.448616  -0.016182  -0.003566
    11  H   -0.008120   0.004705  -0.006360  -0.016182   0.429526  -0.000705
    12  H    0.009440   0.012842  -0.020972  -0.003566  -0.000705   0.490026
    13  H   -0.053357  -0.034917   0.010504   0.006713  -0.003048  -0.028401
    14  H   -0.064511   0.010550  -0.007603  -0.007523  -0.008392   0.001904
    15  H   -0.076478  -0.014298   0.005002   0.002999  -0.007258  -0.001358
    16  H   -0.076740  -0.000205  -0.000224   0.000572  -0.000473  -0.006482
    17  H   -0.073618   0.004153  -0.002318  -0.001493   0.001545  -0.010838
    18  H    0.493361  -0.006411   0.000915   0.000114  -0.000620  -0.000085
    19  H    0.532022  -0.007576   0.003464  -0.000712  -0.003048  -0.004008
    20  H   -0.013074   0.191285   0.051077  -0.003378  -0.001849  -0.013829
    21  H    0.005780   0.525670  -0.079519   0.001636   0.006638   0.023091
    22  H    0.000872   0.109621   0.002024   0.000652  -0.004310   0.000525
              13         14         15         16         17         18
     1  O   -0.001815   0.001381  -0.001345   0.000182   0.000899  -0.000094
     2  C    0.112081  -0.057357   0.025130  -0.022404  -0.048055   0.013238
     3  C   -0.138493  -0.011455  -0.135076  -0.015268   0.008269   0.002258
     4  C    0.444529   0.012708  -0.013390  -0.077884   0.004887   0.001118
     5  C    0.031780   0.450887   0.572326  -0.019916   0.012429  -0.089806
     6  C   -0.019873  -0.008135  -0.002364   0.574710   0.413285  -0.095520
     7  C   -0.053357  -0.064511  -0.076478  -0.076740  -0.073618   0.493361
     8  C   -0.034917   0.010550  -0.014298  -0.000205   0.004153  -0.006411
     9  H    0.010504  -0.007603   0.005002  -0.000224  -0.002318   0.000915
    10  H    0.006713  -0.007523   0.002999   0.000572  -0.001493   0.000114
    11  H   -0.003048  -0.008392  -0.007258  -0.000473   0.001545  -0.000620
    12  H   -0.028401   0.001904  -0.001358  -0.006482  -0.010838  -0.000085
    13  H    0.447886  -0.002794   0.002488   0.002892  -0.006861  -0.000714
    14  H   -0.002794   0.473866  -0.014791  -0.003338  -0.000039  -0.009351
    15  H    0.002488  -0.014791   0.438459   0.003649  -0.003785   0.002757
    16  H    0.002892  -0.003338   0.003649   0.435496  -0.012173   0.000308
    17  H   -0.006861  -0.000039  -0.003785  -0.012173   0.472388  -0.010145
    18  H   -0.000714  -0.009351   0.002757   0.000308  -0.010145   0.445656
    19  H    0.003913  -0.007209   0.003092   0.003478  -0.005182  -0.002937
    20  H    0.016460  -0.004470   0.001736   0.001265   0.000026   0.000261
    21  H   -0.010180   0.002415  -0.001496  -0.000720   0.000368  -0.000191
    22  H    0.000077   0.000233  -0.000301  -0.000008  -0.000035  -0.000038
              19         20         21         22
     1  O   -0.000937  -0.080472  -0.067419   0.197258
     2  C    0.046919   0.430168  -0.328279  -0.083353
     3  C   -0.078935  -0.250500   0.151332   0.017532
     4  C   -0.060995  -0.075435   0.034794  -0.003541
     5  C   -0.036280   0.038564  -0.018215  -0.005585
     6  C   -0.025758   0.005283  -0.012229  -0.001794
     7  C    0.532022  -0.013074   0.005780   0.000872
     8  C   -0.007576   0.191285   0.525670   0.109621
     9  H    0.003464   0.051077  -0.079519   0.002024
    10  H   -0.000712  -0.003378   0.001636   0.000652
    11  H   -0.003048  -0.001849   0.006638  -0.004310
    12  H   -0.004008  -0.013829   0.023091   0.000525
    13  H    0.003913   0.016460  -0.010180   0.000077
    14  H   -0.007209  -0.004470   0.002415   0.000233
    15  H    0.003092   0.001736  -0.001496  -0.000301
    16  H    0.003478   0.001265  -0.000720  -0.000008
    17  H   -0.005182   0.000026   0.000368  -0.000035
    18  H   -0.002937   0.000261  -0.000191  -0.000038
    19  H    0.442804   0.004156  -0.002387  -0.000019
    20  H    0.004156   0.673511  -0.171851  -0.018305
    21  H   -0.002387  -0.171851   0.734389  -0.002932
    22  H   -0.000019  -0.018305  -0.002932   0.517678
 Mulliken charges:
               1
     1  O   -0.218782
     2  C    0.185170
     3  C   -0.429054
     4  C   -0.496233
     5  C   -0.543118
     6  C   -0.529674
     7  C   -0.520065
     8  C   -0.761393
     9  H    0.303103
    10  H    0.230243
    11  H    0.247194
    12  H    0.220086
    13  H    0.221133
    14  H    0.253024
    15  H    0.214301
    16  H    0.213281
    17  H    0.256295
    18  H    0.255927
    19  H    0.196137
    20  H    0.219371
    21  H    0.209307
    22  H    0.273749
 Sum of Mulliken charges =  -0.00000
 Mulliken charges with hydrogens summed into heavy atoms:
               1
     1  O    0.054967
     2  C    0.488273
     3  C    0.048382
     4  C   -0.055013
     5  C   -0.075793
     6  C   -0.060098
     7  C   -0.068002
     8  C   -0.332716
 Electronic spatial extent (au):  <R**2>=           1166.6863
 Charge=              0.0000 electrons
 Dipole moment (field-independent basis, Debye):
    X=             -0.4058    Y=             -1.1961    Z=              0.8454  Tot=              1.5198
 Quadrupole moment (field-independent basis, Debye-Ang):
   XX=            -47.4619   YY=            -53.3746   ZZ=            -52.6884
   XY=              3.2534   XZ=             -3.0678   YZ=              0.4896
 Traceless Quadrupole moment (field-independent basis, Debye-Ang):
   XX=              3.7131   YY=             -2.1996   ZZ=             -1.5135
   XY=              3.2534   XZ=             -3.0678   YZ=              0.4896
 Octapole moment (field-independent basis, Debye-Ang**2):
  XXX=            -48.5263  YYY=              1.5509  ZZZ=             -0.1627  XYY=             -2.1695
  XXY=             -7.4083  XXZ=              9.3599  XZZ=             -2.6352  YZZ=              0.2457
  YYZ=             -0.6000  XYZ=             -1.5562
 Hexadecapole moment (field-independent basis, Debye-Ang**3):
 XXXX=           -856.1149 YYYY=           -407.2939 ZZZZ=           -129.1842 XXXY=             10.9491
 XXXZ=            -32.0147 YYYX=             -2.8402 YYYZ=              2.4159 ZZZX=             -1.1851
 ZZZY=             -0.1948 XXYY=           -246.7347 XXZZ=           -200.6412 YYZZ=            -91.2227
 XXYZ=              2.6745 YYXZ=              3.9405 ZZXY=             -0.3848
 N-N= 4.061811255116D+02 E-N=-1.627029834477D+03  KE= 3.486434756009D+02
 R6APFD:  NTU= -4 IXU= 1 FactS= 1.050
 Calling FoFJK, ICntrl=      2127 FMM=F ISym2X=0 I1Cent= 0 IOpClX= 0 NMat=1 NMatS=1 NMatT=0.
 ***** Axes restored to original set *****
 -------------------------------------------------------------------
 Center     Atomic                   Forces (Hartrees/Bohr)
 Number     Number              X              Y              Z
 -------------------------------------------------------------------
      1        8          -0.017673190    0.000677148    0.003894068
      2        6          -0.001564078    0.001214936    0.008127500
      3        6           0.000473930    0.002420565   -0.003802842
      4        6          -0.001772744    0.001030370   -0.003678046
      5        6           0.000910895   -0.000445153    0.002484742
      6        6           0.001067599   -0.000857704    0.001815255
      7        6           0.002115765    0.000900661   -0.002127108
      8        6           0.001409251    0.004315222   -0.008208374
      9        1          -0.001131966   -0.001192443   -0.003335110
     10        1          -0.000901252   -0.002115787    0.004135113
     11        1          -0.004079817   -0.001801638    0.001023586
     12        1          -0.002248890   -0.002387365    0.000351715
     13        1          -0.001139809    0.001073091    0.003888635
     14        1           0.000480801    0.002573415   -0.000814901
     15        1          -0.000154314   -0.000071242   -0.003438774
     16        1          -0.000309354    0.000328215   -0.003280381
     17        1           0.001495600   -0.002144199   -0.000977375
     18        1           0.002881451    0.000228597    0.000921465
     19        1          -0.000333811   -0.000220747    0.003541845
     20        1           0.005527876   -0.002523496    0.006161747
     21        1           0.002693015   -0.007489071    0.000002648
     22        1           0.012253042    0.006486625   -0.006685410
 -------------------------------------------------------------------
 Cartesian Forces:  Max     0.017673190 RMS     0.004021098

 GradGradGradGradGradGradGradGradGradGradGradGradGradGradGradGradGradGrad
 Berny optimization.
 FormGI is forming the generalized inverse of G from B-inverse, IUseBI=4.
 Internal  Forces:  Max     0.014911745 RMS     0.002483841
 Search for a local minimum.
 Step number   1 out of a maximum of  132
 All quantities printed in internal units (Hartrees-Bohrs-Radians)
 Mixed Optimization -- RFO/linear search
 Second derivative matrix not updated -- first step.
 ITU=  0
     Eigenvalues ---    0.00401   0.00542   0.00575   0.00674   0.01490
     Eigenvalues ---    0.01918   0.01962   0.03631   0.03728   0.03963
     Eigenvalues ---    0.04200   0.04622   0.04806   0.04826   0.04883
     Eigenvalues ---    0.05287   0.05496   0.05558   0.05692   0.05953
     Eigenvalues ---    0.06479   0.08169   0.08169   0.08182   0.08188
     Eigenvalues ---    0.08189   0.08373   0.08656   0.11393   0.12096
     Eigenvalues ---    0.12110   0.13690   0.14184   0.15826   0.16000
     Eigenvalues ---    0.17392   0.20741   0.22002   0.27643   0.27865
     Eigenvalues ---    0.28337   0.29500   0.29529   0.29646   0.29708
     Eigenvalues ---    0.33793   0.33949   0.33953   0.34011   0.34015
     Eigenvalues ---    0.34016   0.34071   0.34097   0.34144   0.34145
     Eigenvalues ---    0.34153   0.34224   0.34248   0.43184   0.52906
 RFO step:  Lambda=-4.10046678D-03 EMin= 4.00864995D-03
 Linear search not attempted -- first point.
 Iteration  1 RMS(Cart)=  0.02618705 RMS(Int)=  0.00053622
 Iteration  2 RMS(Cart)=  0.00050213 RMS(Int)=  0.00025614
 Iteration  3 RMS(Cart)=  0.00000041 RMS(Int)=  0.00025614
 Variable       Old X    -DE/DX   Delta X   Delta X   Delta X     New X
                                 (Linear)    (Quad)   (Total)
    R1        2.67444   0.00939   0.00000   0.02153   0.02153   2.69597
    R2        1.83742  -0.01491   0.00000  -0.02797  -0.02797   1.80945
    R3        2.90035  -0.00174   0.00000  -0.00696  -0.00700   2.89335
    R4        2.89977  -0.00138   0.00000  -0.00613  -0.00617   2.89360
    R5        2.88674  -0.00577   0.00000  -0.01921  -0.01921   2.86753
    R6        2.07681   0.00331   0.00000   0.00967   0.00967   2.08647
    R7        2.88552   0.00433   0.00000   0.01424   0.01422   2.89974
    R8        2.07416   0.00412   0.00000   0.01199   0.01199   2.08615
    R9        2.07167   0.00081   0.00000   0.00235   0.00235   2.07403
   R10        2.88546   0.00390   0.00000   0.01310   0.01312   2.89858
   R11        2.07210   0.00259   0.00000   0.00750   0.00750   2.07960
   R12        2.07410   0.00376   0.00000   0.01095   0.01095   2.08505
   R13        2.88278   0.00410   0.00000   0.01497   0.01501   2.89779
   R14        2.07088   0.00205   0.00000   0.00594   0.00594   2.07682
   R15        2.07303   0.00341   0.00000   0.00991   0.00991   2.08294
   R16        2.88277   0.00410   0.00000   0.01458   0.01462   2.89739
   R17        2.07312   0.00326   0.00000   0.00946   0.00946   2.08258
   R18        2.07086   0.00213   0.00000   0.00615   0.00615   2.07701
   R19        2.07072   0.00234   0.00000   0.00677   0.00677   2.07749
   R20        2.07304   0.00351   0.00000   0.01018   0.01018   2.08322
   R21        2.06954   0.00604   0.00000   0.01744   0.01744   2.08698
   R22        2.06914   0.00573   0.00000   0.01654   0.01654   2.08568
    A1        1.87033   0.00701   0.00000   0.04273   0.04273   1.91306
    A2        1.93481   0.00099   0.00000  -0.00235  -0.00245   1.93236
    A3        1.93163  -0.00033   0.00000   0.00044   0.00046   1.93210
    A4        1.87624   0.00065   0.00000   0.01715   0.01718   1.89341
    A5        1.93180  -0.00086   0.00000  -0.00530  -0.00526   1.92654
    A6        1.89862   0.00002   0.00000   0.00176   0.00168   1.90030
    A7        1.88900  -0.00045   0.00000  -0.01124  -0.01128   1.87772
    A8        1.94878   0.00027   0.00000  -0.00614  -0.00620   1.94258
    A9        1.91782  -0.00112   0.00000  -0.01954  -0.01958   1.89823
   A10        1.93011  -0.00266   0.00000  -0.01939  -0.01942   1.91068
   A11        1.90503   0.00061   0.00000   0.00703   0.00682   1.91185
   A12        1.89551   0.00294   0.00000   0.03973   0.03974   1.93525
   A13        1.86443   0.00002   0.00000  -0.00056  -0.00122   1.86320
   A14        1.94903   0.00085   0.00000  -0.00386  -0.00399   1.94505
   A15        1.91849  -0.00100   0.00000  -0.00126  -0.00126   1.91723
   A16        1.91784  -0.00117   0.00000  -0.01609  -0.01609   1.90175
   A17        1.90626   0.00091   0.00000   0.01922   0.01922   1.92549
   A18        1.90560   0.00035   0.00000   0.00357   0.00349   1.90910
   A19        1.86462   0.00005   0.00000  -0.00123  -0.00136   1.86326
   A20        1.94864  -0.00029   0.00000  -0.00466  -0.00475   1.94390
   A21        1.91355   0.00010   0.00000   0.00610   0.00612   1.91967
   A22        1.91002   0.00001   0.00000  -0.00394  -0.00395   1.90607
   A23        1.91330   0.00054   0.00000   0.01045   0.01046   1.92376
   A24        1.91019   0.00004   0.00000  -0.00277  -0.00278   1.90742
   A25        1.86630  -0.00039   0.00000  -0.00524  -0.00523   1.86107
   A26        1.94864  -0.00073   0.00000  -0.00703  -0.00706   1.94158
   A27        1.90957  -0.00003   0.00000  -0.00385  -0.00388   1.90569
   A28        1.91361   0.00036   0.00000   0.00674   0.00674   1.92035
   A29        1.91014   0.00032   0.00000  -0.00205  -0.00210   1.90804
   A30        1.91371   0.00052   0.00000   0.01070   0.01071   1.92442
   A31        1.86633  -0.00043   0.00000  -0.00443  -0.00441   1.86192
   A32        1.94742  -0.00125   0.00000  -0.00847  -0.00849   1.93894
   A33        1.91425   0.00103   0.00000   0.01315   0.01315   1.92740
   A34        1.90980   0.00008   0.00000  -0.00427  -0.00434   1.90546
   A35        1.91426   0.00044   0.00000   0.00867   0.00868   1.92294
   A36        1.90975   0.00028   0.00000  -0.00436  -0.00444   1.90531
   A37        1.86658  -0.00054   0.00000  -0.00462  -0.00458   1.86200
   A38        1.89348  -0.00190   0.00000  -0.00209  -0.00184   1.89164
   A39        1.89909   0.00453   0.00000   0.03872   0.03847   1.93757
   A40        1.89452   0.00417   0.00000   0.04785   0.04771   1.94223
   A41        1.94453  -0.00496   0.00000  -0.04870  -0.04918   1.89535
   A42        1.93312  -0.00210   0.00000  -0.02133  -0.02193   1.91118
   A43        1.89819   0.00062   0.00000  -0.01065  -0.01287   1.88532
    D1        3.13953   0.00115   0.00000   0.01610   0.01630  -3.12736
    D2       -1.02534  -0.00331   0.00000  -0.02110  -0.02184  -1.04718
    D3        1.03772   0.00235   0.00000   0.01507   0.01561   1.05334
    D4        0.95330   0.00025   0.00000   0.02140   0.02141   0.97471
    D5       -1.16311   0.00007   0.00000   0.02995   0.02998  -1.13312
    D6        3.06608   0.00234   0.00000   0.05438   0.05423   3.12031
    D7        3.10379  -0.00039   0.00000   0.01328   0.01331   3.11711
    D8        0.98739  -0.00057   0.00000   0.02183   0.02189   1.00927
    D9       -1.06661   0.00170   0.00000   0.04626   0.04613  -1.02048
   D10       -1.11975  -0.00073   0.00000   0.01018   0.01022  -1.10953
   D11        3.04703  -0.00091   0.00000   0.01873   0.01880   3.06582
   D12        0.99303   0.00136   0.00000   0.04316   0.04304   1.03607
   D13       -0.95325  -0.00052   0.00000  -0.02326  -0.02326  -0.97652
   D14       -3.07185  -0.00155   0.00000  -0.04414  -0.04410  -3.11594
   D15        1.16406  -0.00031   0.00000  -0.03233  -0.03230   1.13176
   D16       -3.10365  -0.00019   0.00000  -0.01845  -0.01849  -3.12214
   D17        1.06095  -0.00122   0.00000  -0.03933  -0.03932   1.02163
   D18       -0.98633   0.00001   0.00000  -0.02752  -0.02753  -1.01386
   D19        1.10623   0.00086   0.00000  -0.00262  -0.00266   1.10357
   D20       -1.01236  -0.00016   0.00000  -0.02351  -0.02349  -1.03585
   D21       -3.05964   0.00107   0.00000  -0.01169  -0.01170  -3.07134
   D22        1.03891  -0.00042   0.00000   0.00478   0.00486   1.04377
   D23       -1.05123  -0.00177   0.00000  -0.01201  -0.01157  -1.06280
   D24        3.11658   0.00226   0.00000   0.04935   0.04888  -3.11772
   D25       -3.09204   0.00001   0.00000  -0.00162  -0.00160  -3.09364
   D26        1.10100  -0.00134   0.00000  -0.01841  -0.01803   1.08297
   D27       -1.01437   0.00270   0.00000   0.04295   0.04242  -0.97195
   D28       -1.01292  -0.00075   0.00000  -0.00951  -0.00943  -1.02234
   D29       -3.10306  -0.00210   0.00000  -0.02631  -0.02586  -3.12891
   D30        1.06475   0.00193   0.00000   0.03506   0.03460   1.09935
   D31       -0.95627  -0.00020   0.00000  -0.01498  -0.01496  -0.97123
   D32       -3.08012  -0.00076   0.00000  -0.02929  -0.02926  -3.10938
   D33        1.16123  -0.00034   0.00000  -0.02420  -0.02416   1.13707
   D34        1.16754  -0.00102   0.00000  -0.03880  -0.03895   1.12859
   D35       -0.95631  -0.00157   0.00000  -0.05311  -0.05325  -1.00956
   D36       -2.99814  -0.00116   0.00000  -0.04802  -0.04815  -3.04629
   D37       -3.08905   0.00096   0.00000  -0.01371  -0.01362  -3.10267
   D38        1.07029   0.00041   0.00000  -0.02802  -0.02792   1.04236
   D39       -0.97155   0.00082   0.00000  -0.02293  -0.02282  -0.99437
   D40        0.95610   0.00007   0.00000   0.01590   0.01588   0.97198
   D41       -1.16104   0.00017   0.00000   0.02569   0.02565  -1.13538
   D42        3.08050   0.00049   0.00000   0.02939   0.02937   3.10987
   D43        3.08176  -0.00002   0.00000   0.02491   0.02489   3.10665
   D44        0.96462   0.00008   0.00000   0.03470   0.03467   0.99929
   D45       -1.07702   0.00040   0.00000   0.03840   0.03838  -1.03864
   D46       -1.16829   0.00074   0.00000   0.03626   0.03630  -1.13198
   D47        2.99776   0.00084   0.00000   0.04605   0.04608   3.04384
   D48        0.95611   0.00116   0.00000   0.04975   0.04979   1.00590
   D49        0.95070  -0.00014   0.00000   0.00875   0.00875   0.95946
   D50        3.07543   0.00028   0.00000   0.02311   0.02311   3.09854
   D51       -1.16530   0.00027   0.00000   0.02264   0.02262  -1.14269
   D52        3.07469   0.00016   0.00000   0.02055   0.02055   3.09524
   D53       -1.08376   0.00058   0.00000   0.03490   0.03491  -1.04886
   D54        0.95869   0.00057   0.00000   0.03443   0.03442   0.99310
   D55       -1.16670   0.00002   0.00000   0.01864   0.01865  -1.14806
   D56        0.95802   0.00044   0.00000   0.03300   0.03300   0.99103
   D57        3.00047   0.00043   0.00000   0.03253   0.03251   3.03299
   D58       -0.95051   0.00044   0.00000  -0.00802  -0.00803  -0.95855
   D59       -3.07524  -0.00032   0.00000  -0.02496  -0.02497  -3.10021
   D60        1.16552  -0.00009   0.00000  -0.02185  -0.02184   1.14369
   D61        1.16630   0.00014   0.00000  -0.01886  -0.01886   1.14744
   D62       -0.95843  -0.00062   0.00000  -0.03580  -0.03580  -0.99423
   D63       -3.00085  -0.00038   0.00000  -0.03269  -0.03267  -3.03352
   D64       -3.07486   0.00011   0.00000  -0.01922  -0.01923  -3.09409
   D65        1.08360  -0.00066   0.00000  -0.03616  -0.03617   1.04743
   D66       -0.95882  -0.00042   0.00000  -0.03305  -0.03304  -0.99185
         Item               Value     Threshold  Converged?
 Maximum Force            0.014912     0.000450     NO 
 RMS     Force            0.002484     0.000300     NO 
 Maximum Displacement     0.108457     0.001800     NO 
 RMS     Displacement     0.026253     0.001200     NO 
 Predicted change in Energy=-2.193107D-03
 GradGradGradGradGradGradGradGradGradGradGradGradGradGradGradGradGradGrad

                          Input orientation:                          
 ---------------------------------------------------------------------
 Center     Atomic      Atomic             Coordinates (Angstroms)
 Number     Number       Type             X           Y           Z
 ---------------------------------------------------------------------
      1          8           0       -2.897255    0.448235   -0.222232
      2          6           0       -0.616428   -0.259279   -0.246667
      3          6           0       -0.149404    1.101676    0.276730
      4          6           0        0.356311   -1.364355    0.174336
      5          6           0        1.279506    1.416308   -0.185701
      6          6           0        1.786354   -1.058969   -0.288757
      7          6           0        2.256403    0.307486    0.223739
      8          6           0       -2.016975   -0.571848    0.246660
      9          1           0       -0.652959   -0.216496   -1.349345
     10          1           0       -0.186193    1.089443    1.379992
     11          1           0       -0.848189    1.880490   -0.054502
     12          1           0        0.021577   -2.331170   -0.230974
     13          1           0        0.339369   -1.457249    1.273648
     14          1           0        1.604555    2.381003    0.228452
     15          1           0        1.290223    1.524201   -1.282598
     16          1           0        1.819764   -1.066494   -1.390277
     17          1           0        2.469535   -1.849227    0.052987
     18          1           0        3.265709    0.526947   -0.152731
     19          1           0        2.328575    0.276354    1.323326
     20          1           0       -2.002207   -0.605622    1.350426
     21          1           0       -2.323911   -1.566100   -0.121293
     22          1           0       -3.785561    0.274766    0.090280
 ---------------------------------------------------------------------
                    Distance matrix (angstroms):
                    1          2          3          4          5
     1  O    0.000000
     2  C    2.388167   0.000000
     3  C    2.868210   1.531096   0.000000
     4  C    3.745455   1.531228   2.519433   0.000000
     5  C    4.287637   2.530984   1.534478   2.951949   0.000000
     6  C    4.920597   2.532714   2.955558   1.533864   2.528737
     7  C    5.174832   2.965749   2.534059   2.531371   1.533445
     8  C    1.426647   1.517432   2.507869   2.503155   3.873821
     9  H    2.597906   1.104113   2.152967   2.158197   2.784698
    10  H    3.213739   2.156425   1.103943   2.787299   2.169449
    11  H    2.505625   2.160846   1.097527   3.468747   2.181689
    12  H    4.030477   2.167955   3.474396   1.100479   3.953229
    13  H    4.042803   2.158712   2.789416   1.103360   3.357214
    14  H    4.919857   3.482757   2.171493   3.948258   1.099007
    15  H    4.451634   2.808785   2.163922   3.367284   1.102243
    16  H    5.090088   2.809710   3.370088   2.162968   2.811972
    17  H    5.844357   3.484379   3.951801   2.171530   3.483799
    18  H    6.163858   3.962066   3.489663   3.485483   2.176477
    19  H    5.452301   3.380063   2.813699   2.811037   2.162685
    20  H    2.094033   2.142671   2.738717   2.742530   4.149401
    21  H    2.096773   2.153833   3.464669   2.704013   4.677983
    22  H    0.957519   3.231429   3.733654   4.455209   5.199441
                    6          7          8          9         10
     6  C    0.000000
     7  C    1.533231   0.000000
     8  C    3.871598   4.362970   0.000000
     9  H    2.790136   3.348662   2.129330   0.000000
    10  H    3.360259   2.813299   2.719575   3.061475   0.000000
    11  H    3.954253   3.491454   2.733262   2.472263   1.766852
    12  H    2.176297   3.487652   2.734784   2.485478   3.786683
    13  H    2.166449   2.809202   2.718639   3.066639   2.602530
    14  H    3.483384   2.173568   4.672808   3.785871   2.490171
    15  H    2.811873   2.164012   4.203523   2.609682   3.075420
    16  H    1.102052   2.164145   4.200572   2.615059   4.043058
    17  H    1.099106   2.173935   4.668831   3.792403   4.177273
    18  H    2.173045   1.099360   5.410510   4.164200   3.818543
    19  H    2.162384   1.102393   4.556584   4.034306   2.643555
    20  H    4.152787   4.498772   1.104381   3.043132   2.484356
    21  H    4.144816   4.960710   1.103693   2.474192   3.724997
    22  H    5.741842   6.043526   1.967004   3.482391   3.909283
                   11         12         13         14         15
    11  H    0.000000
    12  H    4.304151   0.000000
    13  H    3.783487   1.768790   0.000000
    14  H    2.519232   4.992140   4.174363   0.000000
    15  H    2.491580   4.192762   4.040737   1.765273   0.000000
    16  H    4.193684   2.485329   3.072581   3.814687   2.646452
    17  H    4.992959   2.511055   2.486215   4.321322   3.815047
    18  H    4.331961   4.324274   3.812487   2.518384   2.484686
    19  H    3.816215   3.812776   2.639088   2.480424   3.070202
    20  H    3.079989   3.094195   2.492818   4.815339   4.723246
    21  H    3.749827   2.469550   3.008450   5.579856   4.894952
    22  H    3.350741   4.624760   4.627665   5.788667   5.404578
                   16         17         18         19         20
    16  H    0.000000
    17  H    1.765754   0.000000
    18  H    2.482204   2.514442   0.000000
    19  H    3.070142   2.480267   1.766284   0.000000
    20  H    4.725602   4.819375   5.594027   4.419761   0.000000
    21  H    4.362335   4.804962   5.968726   5.208377   1.786607
    22  H    5.950688   6.605979   7.059962   6.237232   2.354443
                   21         22
    21  H    0.000000
    22  H    2.360079   0.000000
 Stoichiometry    C7H14O
 Framework group  C1[X(C7H14O)]
 Deg. of freedom    60
 Full point group                 C1      NOp   1
 Largest Abelian subgroup         C1      NOp   1
 Largest concise Abelian subgroup C1      NOp   1
                         Standard orientation:                         
 ---------------------------------------------------------------------
 Center     Atomic      Atomic             Coordinates (Angstroms)
 Number     Number       Type             X           Y           Z
 ---------------------------------------------------------------------
      1          8           0       -2.855778    0.461632   -0.244750
      2          6           0       -0.577525   -0.254401   -0.258944
      3          6           0       -0.108213    1.103322    0.270764
      4          6           0        0.388785   -1.364302    0.164166
      5          6           0        1.324331    1.413853   -0.183117
      6          6           0        1.822430   -1.063020   -0.290398
      7          6           0        2.294846    0.300222    0.228441
      8          6           0       -1.981864   -0.563062    0.225991
      9          1           0       -0.607973   -0.208410   -1.361678
     10          1           0       -0.150973    1.088155    1.373774
     11          1           0       -0.802281    1.885683   -0.062022
     12          1           0        0.052606   -2.328717   -0.245643
     13          1           0        0.365591   -1.460193    1.263106
     14          1           0        1.650769    2.376159    0.235476
     15          1           0        1.341343    1.524759   -1.279634
     16          1           0        1.861727   -1.067603   -1.391740
     17          1           0        2.500795   -1.856795    0.052786
     18          1           0        3.306976    0.516925   -0.141996
     19          1           0        2.360994    0.265756    1.328308
     20          1           0       -1.973151   -0.599966    1.329720
     21          1           0       -2.290549   -1.555123   -0.146389
     22          1           0       -3.746394    0.290643    0.062509
 ---------------------------------------------------------------------
 Rotational constants (GHZ):           3.8834851           1.3250742           1.0641219
 Standard basis: 6-311++G(d,p) (5D, 7F)
 There are   282 symmetry adapted cartesian basis functions of A   symmetry.
 There are   274 symmetry adapted basis functions of A   symmetry.
   274 basis functions,   414 primitive gaussians,   282 cartesian basis functions
    32 alpha electrons       32 beta electrons
       nuclear repulsion energy       405.9480850226 Hartrees.
 NAtoms=   22 NActive=   22 NUniq=   22 SFac= 1.00D+00 NAtFMM=   60 NAOKFM=F Big=F
 Integral buffers will be    131072 words long.
 Raffenetti 2 integral format.
 Two-electron integral symmetry is turned on.
 R6APFD:  NTU= -4 IXU= 1 FactS= 1.050
 Nuclear repulsion after empirical dispersion term =      405.9322042335 Hartrees.
 One-electron integrals computed using PRISM.
 NBasis=   274 RedAO= T EigKep=  7.52D-06  NBF=   274
 NBsUse=   274 1.00D-06 EigRej= -1.00D+00 NBFU=   274
 Initial guess from the checkpoint file:  "CYLL0029.chk"
 B after Tr=    -0.000000    0.000000   -0.000000
         Rot=    0.999999   -0.000390   -0.000738   -0.000995 Ang=  -0.15 deg.
 ExpMin= 3.60D-02 ExpMax= 8.59D+03 ExpMxC= 1.30D+03 IAcc=3 IRadAn=         5 AccDes= 0.00D+00
 Harris functional with IExCor= 1009 and IRadAn=       5 diagonalized for initial guess.
 HarFok:  IExCor= 1009 AccDes= 0.00D+00 IRadAn=         5 IDoV= 1 UseB2=F ITyADJ=14
 ICtDFT=  3500011 ScaDFX=  1.000000  1.000000  1.000000  1.000000
 FoFCou: FMM=F IPFlag=           0 FMFlag=      100000 FMFlg1=           0
         NFxFlg=           0 DoJE=T BraDBF=F KetDBF=T FulRan=T
         wScrn=  0.000000 ICntrl=       500 IOpCl=  0 I1Cent=   200000004 NGrid=           0
         NMat0=    1 NMatS0=      1 NMatT0=    0 NMatD0=    1 NMtDS0=    0 NMtDT0=    0
 Petite list used in FoFCou.
 Requested convergence on RMS density matrix=1.00D-08 within  32 cycles.
 Requested convergence on MAX density matrix=1.00D-06.
 Requested convergence on             energy=1.00D-06.
 No special actions if energy rises.
 SCF Done:  E(RM08HX) =  -350.427707922     A.U. after   11 cycles
            NFock= 11  Conv=0.33D-08     -V/T= 2.0055
 QCSCF skips out because SCF is already converged.
 R6APFD:  NTU= -4 IXU= 1 FactS= 1.050
 Calling FoFJK, ICntrl=      2127 FMM=F ISym2X=0 I1Cent= 0 IOpClX= 0 NMat=1 NMatS=1 NMatT=0.
 ***** Axes restored to original set *****
 -------------------------------------------------------------------
 Center     Atomic                   Forces (Hartrees/Bohr)
 Number     Number              X              Y              Z
 -------------------------------------------------------------------
      1        8           0.001942607   -0.003661053    0.001395837
      2        6           0.000433911    0.001213317   -0.000503937
      3        6           0.001817600    0.001336872   -0.001385001
      4        6           0.000307780   -0.000331221   -0.001104771
      5        6          -0.000566620    0.000366968    0.000847607
      6        6          -0.000005410   -0.000579009    0.000619481
      7        6          -0.000409337    0.000077819   -0.000032489
      8        6          -0.002129326    0.002249934   -0.001706958
      9        1           0.000759311    0.000145839   -0.000557712
     10        1           0.000329998   -0.000786435    0.000508050
     11        1           0.000037135   -0.000184425    0.000490432
     12        1           0.000230770   -0.000290122    0.000558378
     13        1           0.000186167    0.000474303    0.000528734
     14        1           0.000134957    0.000039173   -0.000660812
     15        1          -0.000296547   -0.000466044   -0.000150598
     16        1          -0.000465174    0.000419942   -0.000140355
     17        1           0.000024138    0.000048662   -0.000623093
     18        1          -0.000198936   -0.000000750    0.000528108
     19        1          -0.000497176   -0.000137733    0.000223676
     20        1          -0.001108048    0.000114754    0.000978430
     21        1          -0.001217689    0.000127975    0.000067827
     22        1           0.000689890   -0.000178766    0.000119167
 -------------------------------------------------------------------
 Cartesian Forces:  Max     0.003661053 RMS     0.000901656

 GradGradGradGradGradGradGradGradGradGradGradGradGradGradGradGradGradGrad
 Berny optimization.
 Using GEDIIS/GDIIS optimizer.
 FormGI is forming the generalized inverse of G from B-inverse, IUseBI=4.
 Internal  Forces:  Max     0.004860411 RMS     0.000585784
 Search for a local minimum.
 Step number   2 out of a maximum of  132
 All quantities printed in internal units (Hartrees-Bohrs-Radians)
 Mixed Optimization -- En-DIIS/RFO-DIIS
 Update second derivatives using D2CorX and points    1    2
 DE= -1.98D-03 DEPred=-2.19D-03 R= 9.01D-01
 TightC=F SS=  1.41D+00  RLast= 2.73D-01 DXNew= 5.0454D-01 8.2013D-01
 Trust test= 9.01D-01 RLast= 2.73D-01 DXMaxT set to 5.05D-01
 ITU=  1  0
 Use linear search instead of GDIIS.
     Eigenvalues ---    0.00400   0.00552   0.00582   0.00646   0.01490
     Eigenvalues ---    0.01914   0.01949   0.03670   0.03729   0.03947
     Eigenvalues ---    0.04182   0.04650   0.04811   0.04838   0.04896
     Eigenvalues ---    0.05343   0.05549   0.05599   0.06022   0.06111
     Eigenvalues ---    0.06440   0.08025   0.08114   0.08129   0.08149
     Eigenvalues ---    0.08158   0.08334   0.08582   0.11839   0.12058
     Eigenvalues ---    0.12136   0.13643   0.14100   0.15728   0.16163
     Eigenvalues ---    0.17377   0.20776   0.22062   0.27633   0.27823
     Eigenvalues ---    0.28329   0.29418   0.29530   0.29677   0.30713
     Eigenvalues ---    0.33060   0.33830   0.33951   0.33996   0.34012
     Eigenvalues ---    0.34016   0.34067   0.34103   0.34119   0.34144
     Eigenvalues ---    0.34150   0.34205   0.34303   0.46010   0.52408
 RFO step:  Lambda=-4.07072112D-04 EMin= 4.00253187D-03
 Quartic linear search produced a step of -0.02520.
 Iteration  1 RMS(Cart)=  0.01613083 RMS(Int)=  0.00013363
 Iteration  2 RMS(Cart)=  0.00015284 RMS(Int)=  0.00002463
 Iteration  3 RMS(Cart)=  0.00000001 RMS(Int)=  0.00002463
 Variable       Old X    -DE/DX   Delta X   Delta X   Delta X     New X
                                 (Linear)    (Quad)   (Total)
    R1        2.69597  -0.00486  -0.00054  -0.00905  -0.00959   2.68638
    R2        1.80945  -0.00057   0.00070  -0.00347  -0.00277   1.80668
    R3        2.89335   0.00050   0.00018   0.00169   0.00188   2.89523
    R4        2.89360   0.00017   0.00016   0.00067   0.00084   2.89444
    R5        2.86753   0.00224   0.00048   0.00565   0.00613   2.87366
    R6        2.08647   0.00054  -0.00024   0.00238   0.00214   2.08861
    R7        2.89974  -0.00146  -0.00036  -0.00351  -0.00387   2.89587
    R8        2.08615   0.00050  -0.00030   0.00248   0.00218   2.08833
    R9        2.07403  -0.00030  -0.00006  -0.00066  -0.00072   2.07331
   R10        2.89858  -0.00089  -0.00033  -0.00179  -0.00212   2.89646
   R11        2.07960  -0.00002  -0.00019   0.00059   0.00040   2.08001
   R12        2.08505   0.00049  -0.00028   0.00234   0.00206   2.08711
   R13        2.89779  -0.00031  -0.00038  -0.00032  -0.00071   2.89708
   R14        2.07682  -0.00018  -0.00015   0.00001  -0.00014   2.07668
   R15        2.08294   0.00010  -0.00025   0.00116   0.00091   2.08384
   R16        2.89739  -0.00007  -0.00037   0.00045   0.00006   2.89745
   R17        2.08258   0.00012  -0.00024   0.00117   0.00093   2.08351
   R18        2.07701  -0.00021  -0.00015  -0.00007  -0.00022   2.07679
   R19        2.07749  -0.00036  -0.00017  -0.00044  -0.00061   2.07687
   R20        2.08322   0.00019  -0.00026   0.00143   0.00118   2.08440
   R21        2.08698   0.00096  -0.00044   0.00424   0.00380   2.09077
   R22        2.08568   0.00020  -0.00042   0.00199   0.00157   2.08725
    A1        1.91306  -0.00076  -0.00108  -0.00090  -0.00198   1.91108
    A2        1.93236  -0.00021   0.00006  -0.00568  -0.00566   1.92669
    A3        1.93210   0.00062  -0.00001   0.00584   0.00584   1.93794
    A4        1.89341  -0.00017  -0.00043   0.00036  -0.00010   1.89331
    A5        1.92654  -0.00048   0.00013  -0.00184  -0.00167   1.92487
    A6        1.90030   0.00009  -0.00004  -0.00275  -0.00279   1.89751
    A7        1.87772   0.00017   0.00028   0.00426   0.00453   1.88225
    A8        1.94258   0.00036   0.00016  -0.00353  -0.00346   1.93913
    A9        1.89823  -0.00038   0.00049  -0.00758  -0.00710   1.89113
   A10        1.91068  -0.00009   0.00049   0.00203   0.00256   1.91324
   A11        1.91185  -0.00008  -0.00017  -0.00224  -0.00243   1.90942
   A12        1.93525   0.00002  -0.00100   0.00893   0.00795   1.94320
   A13        1.86320   0.00016   0.00003   0.00230   0.00235   1.86555
   A14        1.94505  -0.00008   0.00010  -0.00538  -0.00535   1.93969
   A15        1.91723   0.00031   0.00003   0.00689   0.00696   1.92419
   A16        1.90175  -0.00007   0.00041  -0.00394  -0.00357   1.89818
   A17        1.92549  -0.00006  -0.00048   0.00507   0.00461   1.93009
   A18        1.90910  -0.00007  -0.00009  -0.00305  -0.00315   1.90595
   A19        1.86326  -0.00002   0.00003   0.00051   0.00055   1.86382
   A20        1.94390  -0.00043   0.00012  -0.00907  -0.00903   1.93486
   A21        1.91967   0.00028  -0.00015   0.00652   0.00641   1.92607
   A22        1.90607  -0.00000   0.00010  -0.00232  -0.00223   1.90383
   A23        1.92376   0.00008  -0.00026   0.00517   0.00496   1.92872
   A24        1.90742   0.00018   0.00007  -0.00056  -0.00052   1.90690
   A25        1.86107  -0.00009   0.00013   0.00059   0.00071   1.86179
   A26        1.94158  -0.00018   0.00018  -0.00787  -0.00779   1.93379
   A27        1.90569   0.00001   0.00010  -0.00247  -0.00238   1.90332
   A28        1.92035   0.00007  -0.00017   0.00543   0.00530   1.92566
   A29        1.90804   0.00003   0.00005  -0.00139  -0.00136   1.90668
   A30        1.92442   0.00010  -0.00027   0.00552   0.00530   1.92973
   A31        1.86192  -0.00002   0.00011   0.00105   0.00115   1.86307
   A32        1.93894   0.00043   0.00021  -0.00586  -0.00578   1.93316
   A33        1.92740  -0.00026  -0.00033   0.00315   0.00286   1.93026
   A34        1.90546  -0.00003   0.00011  -0.00057  -0.00044   1.90503
   A35        1.92294  -0.00013  -0.00022   0.00353   0.00336   1.92630
   A36        1.90531  -0.00013   0.00011  -0.00101  -0.00088   1.90443
   A37        1.86200   0.00010   0.00012   0.00098   0.00108   1.86307
   A38        1.89164   0.00042   0.00005   0.00153   0.00157   1.89321
   A39        1.93757  -0.00073  -0.00097  -0.00292  -0.00389   1.93368
   A40        1.94223  -0.00103  -0.00120  -0.00576  -0.00697   1.93526
   A41        1.89535   0.00083   0.00124   0.00419   0.00543   1.90078
   A42        1.91118   0.00095   0.00055   0.00635   0.00691   1.91809
   A43        1.88532  -0.00038   0.00032  -0.00300  -0.00266   1.88266
    D1       -3.12736   0.00007  -0.00041   0.00546   0.00504  -3.12231
    D2       -1.04718   0.00091   0.00055   0.00981   0.01036  -1.03682
    D3        1.05334  -0.00075  -0.00039   0.00016  -0.00022   1.05312
    D4        0.97471   0.00009  -0.00054   0.01276   0.01223   0.98694
    D5       -1.13312   0.00022  -0.00076   0.02273   0.02197  -1.11115
    D6        3.12031   0.00028  -0.00137   0.02311   0.02175  -3.14113
    D7        3.11711  -0.00024  -0.00034   0.01053   0.01020   3.12730
    D8        1.00927  -0.00011  -0.00055   0.02050   0.01994   1.02921
    D9       -1.02048  -0.00004  -0.00116   0.02088   0.01972  -1.00076
   D10       -1.10953   0.00021  -0.00026   0.01930   0.01905  -1.09048
   D11        3.06582   0.00034  -0.00047   0.02927   0.02879   3.09462
   D12        1.03607   0.00041  -0.00108   0.02965   0.02857   1.06464
   D13       -0.97652   0.00017   0.00059  -0.01178  -0.01119  -0.98771
   D14       -3.11594   0.00010   0.00111  -0.01937  -0.01825  -3.13419
   D15        1.13176  -0.00001   0.00081  -0.02161  -0.02079   1.11097
   D16       -3.12214  -0.00013   0.00047  -0.01403  -0.01357  -3.13570
   D17        1.02163  -0.00021   0.00099  -0.02162  -0.02063   1.00100
   D18       -1.01386  -0.00032   0.00069  -0.02386  -0.02316  -1.03703
   D19        1.10357  -0.00011   0.00007  -0.01649  -0.01642   1.08715
   D20       -1.03585  -0.00019   0.00059  -0.02407  -0.02348  -1.05933
   D21       -3.07134  -0.00030   0.00029  -0.02631  -0.02602  -3.09735
   D22        1.04377   0.00030  -0.00012   0.02037   0.02027   1.06404
   D23       -1.06280   0.00044   0.00029   0.02054   0.02084  -1.04195
   D24       -3.11772  -0.00012  -0.00123   0.01813   0.01693  -3.10079
   D25       -3.09364   0.00012   0.00004   0.01590   0.01592  -3.07772
   D26        1.08297   0.00027   0.00045   0.01606   0.01650   1.09947
   D27       -0.97195  -0.00029  -0.00107   0.01366   0.01258  -0.95937
   D28       -1.02234   0.00006   0.00024   0.01408   0.01431  -1.00803
   D29       -3.12891   0.00020   0.00065   0.01425   0.01488  -3.11403
   D30        1.09935  -0.00036  -0.00087   0.01184   0.01097   1.11031
   D31       -0.97123  -0.00000   0.00038  -0.01715  -0.01675  -0.98799
   D32       -3.10938  -0.00001   0.00074  -0.02209  -0.02133  -3.13071
   D33        1.13707  -0.00006   0.00061  -0.02518  -0.02456   1.11251
   D34        1.12859  -0.00030   0.00098  -0.03034  -0.02936   1.09923
   D35       -1.00956  -0.00031   0.00134  -0.03528  -0.03393  -1.04349
   D36       -3.04629  -0.00036   0.00121  -0.03838  -0.03717  -3.08346
   D37       -3.10267  -0.00014   0.00034  -0.02354  -0.02319  -3.12587
   D38        1.04236  -0.00015   0.00070  -0.02848  -0.02777   1.01459
   D39       -0.99437  -0.00020   0.00058  -0.03158  -0.03100  -1.02537
   D40        0.97198  -0.00004  -0.00040   0.01716   0.01674   0.98872
   D41       -1.13538   0.00004  -0.00065   0.02553   0.02487  -1.11051
   D42        3.10987   0.00001  -0.00074   0.02258   0.02183   3.13170
   D43        3.10665   0.00025  -0.00063   0.02579   0.02515   3.13180
   D44        0.99929   0.00033  -0.00087   0.03416   0.03328   1.03257
   D45       -1.03864   0.00030  -0.00097   0.03121   0.03024  -1.00841
   D46       -1.13198   0.00015  -0.00091   0.02756   0.02663  -1.10535
   D47        3.04384   0.00022  -0.00116   0.03593   0.03476   3.07860
   D48        1.00590   0.00020  -0.00125   0.03299   0.03172   1.03762
   D49        0.95946   0.00016  -0.00022   0.02227   0.02204   0.98150
   D50        3.09854   0.00011  -0.00058   0.02492   0.02432   3.12286
   D51       -1.14269   0.00006  -0.00057   0.02760   0.02703  -1.11565
   D52        3.09524   0.00027  -0.00052   0.02797   0.02744   3.12269
   D53       -1.04886   0.00023  -0.00088   0.03062   0.02973  -1.01913
   D54        0.99310   0.00018  -0.00087   0.03330   0.03244   1.02554
   D55       -1.14806   0.00032  -0.00047   0.03135   0.03088  -1.11718
   D56        0.99103   0.00027  -0.00083   0.03400   0.03317   1.02419
   D57        3.03299   0.00023  -0.00082   0.03668   0.03588   3.06886
   D58       -0.95855  -0.00029   0.00020  -0.02298  -0.02277  -0.98132
   D59       -3.10021  -0.00017   0.00063  -0.02542  -0.02478  -3.12499
   D60        1.14369  -0.00013   0.00055  -0.02804  -0.02750   1.11619
   D61        1.14744  -0.00038   0.00048  -0.03200  -0.03153   1.11591
   D62       -0.99423  -0.00026   0.00090  -0.03444  -0.03354  -1.02776
   D63       -3.03352  -0.00022   0.00082  -0.03707  -0.03626  -3.06977
   D64       -3.09409  -0.00032   0.00048  -0.02834  -0.02785  -3.12194
   D65        1.04743  -0.00020   0.00091  -0.03078  -0.02986   1.01758
   D66       -0.99185  -0.00017   0.00083  -0.03341  -0.03258  -1.02443
         Item               Value     Threshold  Converged?
 Maximum Force            0.004860     0.000450     NO 
 RMS     Force            0.000586     0.000300     NO 
 Maximum Displacement     0.058663     0.001800     NO 
[...]
 95170,0.08758558,0.08387937,0.00005429,-0.00019061,0.00056400,-0.00145
 386,0.00181318,-0.02262446,0.00043710,-0.00129292,-0.00000125,-0.04512
 944,-0.00070780,-0.00094124,-0.00017398,-0.00004014,0.00000899,-0.0019
 9722,-0.00251869,0.03320284,0.00165470,0.00104941,0.00077093,0.0007141
 3,0.00020572,-0.00198410,-0.00242737,0.00326396,-0.00070032,0.00029662
 ,0.00014071,0.00058819,-0.00012457,-0.00022950,0.00018382,-0.00071578,
 0.00110298,-0.00959915,0.05431836,-0.00025059,-0.00004773,-0.00031938,
 0.00092257,-0.00283143,0.02520962,-0.00035100,0.00148418,0.00149604,-0
 .00098469,-0.04903546,0.01273817,0.00001761,-0.00018558,-0.00003535,-0
 .00037924,-0.00076979,0.00589284,0.00029752,0.00025136,0.00111678,-0.0
 0075536,0.00032153,0.00070949,0.00313996,-0.00298507,0.00130195,0.0001
 5293,-0.00044888,-0.00074088,0.00008811,0.00028180,-0.00034745,0.00049
 594,0.00214249,-0.02790757,-0.00167971,0.05096270,0.00005315,-0.000079
 34,0.00065891,-0.00131443,0.00129129,-0.01161700,0.00028957,-0.0009585
 9,0.00040667,-0.00027710,0.01330212,-0.28970934,0.00007914,0.00013874,
 0.00019569,0.00084096,0.00038144,-0.01133311,-0.00089467,-0.00042525,0
 .00042586,0.00085068,-0.00012963,-0.00045762,-0.00128052,0.00159457,0.
 00072158,0.00027080,0.00082765,0.00043301,-0.00007362,-0.00000393,0.00
 034626,0.00012690,0.00101834,-0.01069322,-0.00068032,-0.01773394,0.318
 47187,-0.00005320,0.00033411,-0.00003849,-0.00599620,0.00048344,0.0036
 0156,-0.00937932,-0.02819222,-0.01272576,-0.00033404,0.00043271,-0.000
 00758,-0.06890820,-0.06839718,-0.02813536,-0.00318892,0.00305172,-0.00
 193253,0.00715513,0.02000816,0.00923466,0.00021050,-0.00218990,-0.0007
 4492,0.00010143,0.00039081,0.00003130,0.00103180,0.00019452,0.00039375
 ,0.00054206,0.00048831,-0.00074903,0.00013233,-0.00009480,-0.00002934,
 0.00008052,-0.00004980,0.00002434,0.07852450,-0.00021020,0.00015775,-0
 .00000356,-0.00107318,0.00136618,0.00112059,-0.00159772,-0.00448946,-0
 .00189847,0.00038951,0.00069227,-0.00011759,-0.06822706,-0.24728454,-0
 .08239855,0.00455614,-0.00202834,0.00262681,-0.00741909,-0.02005184,-0
 .00917488,0.00034272,-0.00044721,-0.00033550,0.00006967,0.00004534,-0.
 00005800,-0.00014748,-0.00012371,0.00037124,-0.00034290,0.00047326,0.0
 0008888,-0.00006869,-0.00000593,-0.00003418,-0.00003979,-0.00002977,0.
 00008826,0.07339998,0.26987426,-0.00006375,-0.00001373,-0.00003915,0.0
 0169263,-0.00014334,-0.00060984,0.00398948,0.01126704,0.00371209,-0.00
 004265,-0.00013501,-0.00003881,-0.02844891,-0.08357810,-0.08210055,-0.
 00124784,0.00093999,-0.00030998,0.00341649,0.01016992,0.00317320,0.000
 22268,0.00038985,0.00056421,0.00019476,0.00031778,0.00038337,-0.000552
 59,0.00025083,0.00032980,-0.00071643,-0.00037981,0.00017145,0.00000976
 ,-0.00000855,-0.00003733,-0.00000865,-0.00001496,-0.00002617,0.0300120
 6,0.08898520,0.08448836,-0.00001254,-0.00001153,-0.00014323,0.00159741
 ,0.00106127,0.00091944,-0.00186308,-0.00257766,0.03309053,-0.00016587,
 -0.00001141,0.00002074,-0.04532476,-0.00088565,-0.00054969,0.00047013,
 -0.00122706,0.00003044,-0.00120860,0.00240155,-0.02330503,-0.00013229,
 0.00019574,0.00005003,-0.00018746,-0.00047234,-0.00077223,-0.00568008,
 -0.00182529,0.00198600,0.00087388,0.00064499,-0.00035769,0.00008363,-0
 .00003940,-0.00000305,-0.00016494,0.00007750,-0.00008013,-0.00071378,0
 .00102247,-0.00950407,0.05416127,0.00008326,-0.00008752,0.00000857,0.0
 0036516,0.00030136,0.00107249,-0.00043124,-0.00088135,0.00621535,-0.00
 001036,-0.00016557,-0.00001706,-0.00103575,-0.04901441,0.01425560,-0.0
 0036791,0.00145155,0.00140537,0.00083509,-0.00310334,0.02489562,-0.000
 20232,0.00006584,-0.00002967,-0.00039377,-0.00009237,-0.00021375,-0.00
 102950,0.00044073,0.00052151,0.00019416,0.00012182,-0.00046722,-0.0000
 4434,-0.00002467,-0.00002236,0.00008092,0.00005261,-0.00021504,0.00045
 559,0.00221838,-0.02807127,-0.00145950,0.05123325,0.00014323,0.0000083
 5,0.00011295,-0.00085535,-0.00051091,0.00013701,0.00101013,0.00039574,
 -0.01119252,0.00004449,0.00012367,0.00020223,-0.00030684,0.01502259,-0
 .29391323,0.00039824,-0.00077166,0.00040652,-0.00092093,0.00086027,-0.
 01008075,0.00000872,-0.00000905,0.00033607,0.00035808,0.00079540,0.000
 44969,0.00211730,0.00031228,0.00068819,0.00044228,-0.00018013,0.000247
 67,0.00003334,0.00009921,-0.00003406,-0.00008434,-0.00021533,0.0000017
 2,0.00012861,0.00098562,-0.01096103,-0.00060187,-0.01908750,0.32153428
 ,-0.00001294,0.00009284,-0.00023168,0.00197347,-0.00046686,0.00122092,
 -0.00017799,-0.00000615,0.00000074,-0.00254494,-0.00103314,0.03284059,
 0.00003718,0.00064702,0.00064068,-0.04655037,0.00179469,0.00086608,-0.
 00050316,-0.00027930,-0.01194591,-0.00002713,-0.00031788,0.00012466,-0
 .00046192,0.00036738,-0.00078366,-0.00007331,-0.00011539,-0.00016848,0
 .00002956,0.00006439,-0.00001357,0.00105486,-0.00015761,-0.00054717,-0
 .00571951,-0.00103113,0.00208983,-0.00013675,0.00006494,0.00003062,0.0
 0032913,0.00007446,0.00024051,0.05272105,-0.00009628,0.00004998,-0.000
 04491,0.00044909,0.00000913,-0.00065986,0.00003555,-0.00013045,-0.0000
 0205,-0.00056647,-0.00064653,0.00811735,-0.00022324,0.00190671,-0.0011
 3477,0.00184407,-0.04736655,0.00691097,-0.00015360,-0.00124294,-0.0312
 9285,0.00014266,-0.00005358,0.00000402,0.00018098,0.00025746,-0.000111
 87,-0.00012105,-0.00006454,0.00016307,0.00005947,0.00002436,0.00002633
 ,0.00018715,-0.00012180,0.00026123,-0.00176281,0.00046388,0.00028872,-
 0.00023522,0.00030100,0.00037791,0.00021385,-0.00044382,0.00082767,0.0
 0262901,0.05194324,0.00022554,-0.00007783,0.00009110,-0.00089472,0.000
 14757,0.00009425,0.00009820,-0.00016020,0.00020706,0.00080890,0.000816
 57,-0.01101545,0.00006464,0.00100692,0.00039328,0.00171547,0.00642077,
 -0.29510742,-0.00068492,-0.00048164,-0.01253716,-0.00007045,0.00005064
 ,0.00036762,0.00065067,-0.00059724,0.00038931,-0.00016840,0.00016229,0
 .00004224,0.00005232,-0.00006424,-0.00004754,0.00040011,0.00037893,0.0
 0034042,0.00202082,0.00057473,0.00070667,-0.00006817,-0.00001258,0.000
 39257,0.00055953,-0.00072986,0.00037492,-0.00332041,-0.00495255,0.3231
 0375,-0.00119947,0.00014028,0.00021772,-0.00529953,-0.00367177,0.00350
 070,0.00008798,-0.00063455,-0.00010371,-0.01928487,0.02271933,-0.01014
 857,-0.00032550,-0.00223630,-0.00095723,-0.14725663,0.11677470,-0.0476
 3376,0.00779697,-0.00880216,0.00414710,0.00023184,0.00177534,-0.000827
 10,0.00028630,-0.00034072,0.00001681,0.00003651,0.00006447,0.00005817,
 0.00005964,0.00010829,-0.00003892,0.00051453,-0.00037118,-0.00069852,0
 .00091340,0.00017253,0.00049530,0.00046840,-0.00061984,0.00000343,-0.0
 0013360,0.00005859,-0.00005736,-0.00005883,-0.00090909,0.00020243,0.16
 266455,-0.00015423,0.00005558,0.00004680,-0.00182497,0.00028088,0.0005
 2779,-0.00065759,0.00023599,0.00016452,-0.00560598,0.00643260,-0.00286
 466,-0.00386512,-0.00450857,-0.00350596,0.11706450,-0.18099723,0.05497
 618,0.01868867,-0.02063653,0.00979695,-0.00018060,0.00035548,-0.000054
 41,0.00000012,-0.00010000,0.00003803,0.00006984,0.00003102,-0.00007706
 ,0.00007154,0.00008189,0.00001682,0.00047486,0.00048938,-0.00034116,0.
 00062362,0.00009177,-0.00025451,0.00141652,-0.00142656,0.00033895,-0.0
 0026495,0.00033104,-0.00000992,-0.00023921,-0.00064515,-0.00000226,-0.
 12545393,0.19866856,0.00027092,0.00000785,-0.00008026,0.00161439,0.000
 98798,-0.00065260,-0.00014311,0.00012006,0.00000462,0.00797949,-0.0089
 8836,0.00275056,-0.00115305,-0.00161320,-0.00067439,-0.04855661,0.0558
 9253,-0.07102475,0.00859859,-0.00985627,0.00317664,0.00008069,-0.00030
 499,0.00064806,0.00028829,-0.00022652,0.00037657,-0.00001196,0.0000200
 8,-0.00002795,-0.00000847,0.00002725,-0.00003385,-0.00076048,0.0000769
 2,0.00015982,-0.00037254,-0.00049184,0.00029178,0.00024939,-0.00045288
 ,0.00049276,0.00016848,-0.00034795,0.00036523,-0.01997550,0.02297754,-
 0.00881480,0.05120107,-0.05887085,0.07250617,-0.00025636,-0.00001009,-
 0.00006122,0.00075665,0.00027627,0.00021558,-0.00111992,0.00441321,-0.
 00233871,0.00100009,-0.00201732,-0.00141454,-0.01793767,-0.00457571,0.
 00723418,-0.00779471,-0.00135896,0.00307814,-0.26655374,-0.04772755,0.
 07773551,0.00014469,0.00002543,-0.00001675,-0.00005071,-0.00003137,-0.
 00007897,0.00030651,0.00000048,0.00002348,-0.00118059,-0.00048693,0.00
 038969,-0.00061083,-0.00000674,0.00023210,0.00012407,0.00008257,0.0000
 4348,0.00046620,0.00041274,0.00034981,0.00022112,-0.00033318,-0.000551
 84,-0.00008144,-0.00001261,-0.00044205,0.00045834,-0.00042053,0.000023
 35,0.29062247,-0.00013550,0.00029218,0.00002376,0.00022582,-0.00065765
 ,0.00000060,0.00279743,-0.00429988,0.00233416,-0.00063701,-0.00586457,
 -0.00337787,0.02364835,0.00569673,-0.00944698,-0.02816825,-0.00570165,
 0.01123850,-0.04767898,-0.05621548,0.01693016,0.00014186,-0.00001981,-
 0.00000845,-0.00002876,0.00009159,-0.00000729,-0.00032067,-0.00009845,
 0.00004195,0.00153823,0.00042011,-0.00029913,-0.00201922,-0.00036592,0
 .00031132,0.00044516,0.00007355,-0.00008163,-0.00052095,0.00051940,-0.
 00067698,-0.00074390,0.00084180,0.00014432,0.00033760,0.00107645,-0.00
 029337,0.00046394,0.00046965,0.00080147,0.05135481,0.06454744,-0.00001
 095,-0.00001477,0.00000640,0.00017314,0.00000472,0.00000558,-0.0006968
 7,0.00139748,-0.00033588,-0.00020561,-0.00199790,-0.00071169,-0.010478
 83,-0.00225427,0.00281031,-0.01267330,-0.00273221,0.00359796,0.0789701
 9,0.01726758,-0.07609022,-0.00002149,0.00004444,-0.00005916,0.00001545
 ,0.00001046,-0.00002905,-0.00039203,-0.00001935,0.00038936,-0.00034241
 ,0.00000795,0.00050044,-0.00045018,-0.00021629,0.00049180,-0.00032877,
 -0.00016136,0.00036503,0.00062831,-0.00040515,0.00011086,0.00001782,-0
 .00061354,0.00029993,-0.00019780,0.00061072,0.00032939,0.00045361,0.00
 065652,0.00021776,-0.08383964,-0.01790133,0.07782527,0.00009999,-0.000
 03127,0.00005390,-0.00019318,-0.00000423,-0.00001238,0.00132394,-0.000
 49125,-0.00133815,0.00047925,0.00046171,-0.00119737,-0.00187171,0.0016
 5639,-0.02158609,-0.00103302,-0.00020520,-0.00980391,-0.04869446,-0.00
 055819,-0.00591060,-0.00005208,-0.00000589,-0.00004894,0.00008691,0.00
 005281,0.00021850,-0.00042562,0.00017035,0.00066259,0.00026998,0.00001
 828,0.00030465,0.00012942,0.00006969,0.00021472,-0.00012198,-0.0003788
 5,0.00032813,0.00063288,-0.00037544,0.00057670,-0.00228401,0.00311197,
 -0.00138839,0.00006399,-0.00168206,-0.00091425,0.00018923,0.00027805,0
 .00053209,0.00146087,-0.00081282,0.02936460,0.04997453,-0.00001575,-0.
 00000298,0.00000859,-0.00000347,-0.00016235,-0.00002783,-0.00142773,0.
 00076934,0.00008345,0.00120696,0.00143545,-0.00055666,0.00176164,-0.00
 247025,0.02648741,-0.00156817,-0.00092868,-0.03206176,-0.00060619,-0.0
 4536900,0.00952324,-0.00000889,0.00008374,-0.00000361,0.00004393,-0.00
 018185,0.00003607,0.00035704,0.00030081,-0.00064122,-0.00030559,-0.000
 11590,-0.00023081,0.00043214,0.00006189,0.00031578,-0.00043270,-0.0000
 4312,0.00080885,-0.00072336,0.00028069,-0.00007281,0.00384808,-0.00321
 921,0.00128703,-0.00242545,-0.00523818,-0.00219721,0.00067157,0.000738
 57,0.00031659,0.00045961,-0.00092330,0.00631851,-0.00127341,0.05495338
 ,-0.00005976,0.00000780,0.00005809,-0.00012569,-0.00005009,0.00025342,
 0.00078361,-0.00055709,0.00037677,0.00053963,0.00084622,0.00037890,-0.
 00044266,0.00129693,-0.01025548,-0.00016221,-0.00055191,-0.01268311,-0
 .00661529,0.00926939,-0.29368621,-0.00000557,-0.00000173,-0.00011908,0
 .00022422,0.00003932,0.00000795,-0.00086076,-0.00015362,0.00038292,0.0
 0001071,0.00005281,0.00037732,0.00006862,-0.00006300,0.00038233,-0.000
 88172,-0.00023451,0.00041606,-0.00010833,0.00056878,0.00033166,-0.0011
 4262,0.00157141,0.00091004,-0.00061478,-0.00233722,0.00060404,0.000180
 27,-0.00055493,0.00029945,-0.00060171,0.00026711,-0.00975603,0.0098846
 5,-0.00939860,0.32168500,-0.00374673,0.00816923,-0.02356080,-0.0019162
 5,0.00020064,0.03204903,0.00169550,0.00127517,0.00087812,0.00156801,-0
 .00081120,0.00098913,-0.00016168,0.00012321,0.00004645,-0.00017430,-0.
 00007822,-0.00001264,0.00012080,0.00004202,0.00000931,-0.05009469,-0.0
 0282675,0.00727622,-0.00545347,-0.00139039,0.00180039,-0.00027087,-0.0
 0035566,-0.00086251,-0.00009696,-0.00020055,-0.00007468,-0.00006005,0.
 00007406,-0.00009111,-0.00054251,0.00032200,-0.00074260,0.00002290,-0.
 00000104,-0.00011168,0.00012084,0.00003314,-0.00023142,0.00008396,0.00
 004006,-0.00023676,-0.00003043,0.00000413,-0.00010091,0.00001221,-0.00
 000652,0.00000056,-0.00002149,-0.00000297,-0.00004077,0.05613687,0.006
 03505,-0.00429197,0.02784585,-0.00145360,0.00048913,0.00746197,0.00054
 489,0.00028356,0.00152944,0.00014509,-0.00001228,-0.00047063,-0.000101
 04,-0.00003146,-0.00007528,0.00003351,-0.00006450,-0.00004339,0.000005
 90,0.00002473,0.00000028,-0.00121433,-0.05170375,-0.01037126,-0.000816
 22,0.00024291,0.00081629,-0.00035285,-0.00003306,-0.00032129,0.0001426
 0,0.00003496,0.00002120,-0.00011977,0.00003518,-0.00010176,0.00032771,
 0.00023816,0.00000136,0.00001994,0.00000881,-0.00001302,0.00004517,-0.
 00003098,-0.00011559,0.00003993,-0.00002900,0.00001379,-0.00000498,-0.
 00000813,-0.00003261,0.00001972,-0.00001775,-0.00000642,-0.00001039,0.
 00000730,-0.00000078,-0.00265898,0.05332000,-0.00489108,0.00527268,-0.
 00191074,0.00148833,-0.00064312,-0.01340627,-0.00114699,-0.00073288,0.
 00059135,-0.00049648,0.00031153,-0.00022368,0.00006463,-0.00004431,0.0
 0049472,0.00021284,-0.00011015,0.00058681,-0.00000700,-0.00000062,-0.0
 0011065,0.00535808,-0.00641672,-0.28493281,0.00219847,0.00048579,0.000
 42609,0.00059672,0.00092710,0.00048064,0.00002105,-0.00008878,-0.00003
 253,0.00002162,0.00013148,0.00000034,0.00070741,-0.00052477,0.00052647
 ,0.00008784,0.00003158,0.00001069,-0.00027376,-0.00010583,0.00009717,-
 0.00031143,-0.00003892,0.00012693,0.00015182,0.00000404,0.00000237,0.0
 0001635,0.00000308,0.00001863,0.00005563,0.00001402,0.00004841,-0.0054
 6973,0.00178103,0.30748034,0.00316349,0.02751136,0.00375998,-0.0094709
 7,-0.02726203,-0.01276187,-0.00582451,0.00067277,0.00345688,0.00109822
 ,-0.00167292,-0.00034179,-0.00002898,-0.00197128,-0.00090753,0.0000820
 1,0.00028123,0.00019207,0.00034889,-0.00022616,-0.00001155,-0.07228007
 ,-0.06766625,-0.02495472,0.00107609,0.00035257,0.00040415,0.00010093,0
 .00037112,-0.00001400,0.00013153,-0.00001145,0.00010465,-0.00063564,0.
 00111886,0.00028773,0.00003132,0.00009312,-0.00003924,-0.00072030,-0.0
 0015591,0.00018881,-0.00000846,0.00002316,0.00009700,0.00003458,-0.000
 03215,0.00000127,-0.00001428,0.00004363,0.00001028,-0.00002873,0.00013
 655,0.00002164,0.00000274,0.00002071,-0.00002532,0.00190309,0.00063066
 ,0.00170105,0.07980927,0.00425434,-0.02010008,-0.00057014,-0.00322185,
 -0.00662281,-0.00377123,-0.00106330,0.00098194,0.00135722,0.00072809,0
 .00031752,-0.00013728,0.00032097,-0.00047845,-0.00035781,-0.00013723,0
 .00038432,0.00030488,0.00018046,-0.00000205,-0.00000022,-0.06538287,-0
 .23384485,-0.07529314,0.00001314,-0.00001166,0.00034409,0.00006816,0.0
 0014283,-0.00002641,0.00018835,0.00019188,-0.00003400,-0.00028055,0.00
 064757,-0.00014263,-0.00012825,-0.00003606,0.00012753,-0.00022042,-0.0
 0003068,0.00007543,-0.00001925,-0.00000324,0.00004199,-0.00003450,-0.0
 0004032,0.00001280,-0.00004936,0.00002976,0.00000407,-0.00002947,0.000
 10221,0.00000223,0.00000509,0.00001732,-0.00001162,-0.00179808,0.00094
 683,-0.00096205,0.06703794,0.25777392,0.00243673,0.01640888,0.00738978
 ,0.00513543,0.01089574,0.00418257,0.00133700,-0.00029394,-0.00043219,-
 0.00051500,0.00002973,0.00010284,0.00029298,0.00036654,0.00055076,-0.0
 0019600,0.00026021,-0.00010244,0.00001707,0.00001187,-0.00006845,-0.02
 659281,-0.07805938,-0.08480075,-0.00061905,0.00027119,0.00052511,0.000
 23187,0.00033625,0.00048474,-0.00012401,-0.00008927,-0.00003390,-0.000
 24622,-0.00004373,0.00021206,0.00009118,-0.00019422,-0.00007934,0.0001
 6155,0.00004142,-0.00005012,-0.00013352,-0.00002990,0.00003843,0.00003
 525,-0.00000159,-0.00002421,-0.00008514,-0.00001634,0.00000199,-0.0000
 0764,0.00001670,0.00001877,0.00001464,-0.00000244,0.00001057,-0.010243
 14,-0.02770676,-0.01038029,0.02829417,0.07869573,0.08239419,-0.4617418
 9,-0.06066688,0.15887676,-0.00196547,0.00474003,-0.00288650,0.00065738
 ,0.00037319,0.00003718,-0.00084388,-0.00093057,0.00075279,-0.00002392,
 0.00005290,0.00003574,-0.00020578,0.00042183,-0.00022509,0.00005025,0.
 00008098,-0.00001217,-0.02153404,-0.00753369,0.01040691,0.00045934,0.0
 0003654,-0.00014938,-0.00011067,-0.00004141,-0.00008223,-0.00006239,-0
 .00004522,0.00004579,-0.00001641,0.00005268,0.00004064,-0.00005336,-0.
 00000200,-0.00010964,0.00006206,0.00002018,0.00000935,0.00002207,-0.00
 000764,-0.00002360,0.00002052,0.00001269,0.00000024,-0.00010455,-0.000
 06838,0.00006558,0.00004148,-0.00001717,-0.00000744,-0.00001618,-0.000
 00801,-0.00000453,0.00090526,-0.00125803,-0.00008538,0.00122975,-0.000
 43143,0.00071467,0.48323042,-0.10101468,-0.04720238,0.05727497,0.00222
 559,-0.00478390,0.00223095,-0.00038020,-0.00019889,0.00024976,0.001391
 94,0.00068719,-0.00046833,-0.00002491,0.00010655,-0.00018511,0.0002061
 3,-0.00041072,0.00020953,-0.00012987,-0.00005592,0.00004794,0.03224022
 ,0.00283264,-0.01070342,-0.00024587,-0.00017219,-0.00006424,-0.0001342
 4,0.00010395,-0.00015924,0.00004905,0.00059572,0.00018618,-0.00000809,
 -0.00001185,-0.00007770,-0.00003042,0.00004887,0.00001298,-0.00005197,
 -0.00001928,-0.00000532,0.00002731,0.00000810,-0.00000406,-0.00000564,
 -0.00000934,-0.00001602,0.00014484,0.00003001,-0.00004688,-0.00003439,
 0.00003336,0.00000198,0.00000466,0.00000634,-0.00000466,-0.00015330,0.
 00059131,0.00070583,0.00070449,-0.00036592,-0.00089668,0.06521939,0.04
 818637,0.18821493,0.04726987,-0.08327307,-0.00117612,0.00162815,-0.001
 36341,-0.00010946,0.00015670,0.00017280,-0.00063571,-0.00004257,0.0008
 6000,-0.00001411,-0.00006539,-0.00006823,-0.00012366,0.00020952,-0.000
 05870,-0.00000045,0.00005419,0.00002454,-0.01771098,-0.00078750,0.0038
 2327,-0.00018438,0.00008082,0.00026678,-0.00005226,-0.00001082,-0.0001
 0795,-0.00012360,-0.00011124,-0.00003395,0.00002786,-0.00006116,-0.000
 01755,0.00006867,-0.00011808,-0.00005178,-0.00001386,-0.00001705,0.000
 01197,0.00002388,0.00000503,-0.00002046,0.00002049,0.00001106,-0.00001
 698,-0.00007812,-0.00001453,0.00001483,0.00001140,-0.00002008,-0.00000
 547,-0.00001073,-0.00000658,-0.00002300,-0.00127045,-0.00021241,0.0001
 0600,0.00053634,0.00034055,0.00005988,-0.16739969,-0.04828847,0.079700
 48\\0.00008601,-0.00007816,0.00004129,-0.00003376,-0.00006333,-0.00003
 203,0.00000580,0.00002843,0.00003532,0.00000667,0.00001098,0.00002425,
 -0.00001637,0.00001852,0.00001583,-0.00000702,-0.00001097,-0.00000529,
 0.00005909,-0.00000007,-0.00002156,-0.00006815,0.00010431,-0.00000898,
 0.00000627,0.00000159,0.00002115,0.00000254,0.00000908,-0.00002104,0.0
 0001098,-0.00000082,-0.00000507,-0.00000917,0.00000553,-0.00000512,-0.
 00000753,0.00000063,-0.00001939,0.00000262,-0.00000592,-0.00000837,0.0
 0000778,-0.00000888,0.00000141,0.00000312,0.00000196,-0.00000058,-0.00
 000989,0.00000143,-0.00000351,-0.00000716,-0.00001000,0.00000866,-0.00
 000952,0.00000002,-0.00000213,0.00000910,-0.00000886,-0.00001627,-0.00
 000159,-0.00000442,0.00000982,-0.00002982,0.00000895,-0.00000838\\\@


 THE VALUE OF PHILOSOPHY IS, IN FACT, TO BE SOUGHT LARGELY IN ITS
 VERY UNCERTAINTY.  THE MAN WHO HAS NO TINCTURE OF PHILOSOPHY GOES
 THROUGH LIFE IMPRISONED IN THE PREJUDICES DERIVED FROM COMMON SENSE,
 FROM THE HABITUAL BELIEFS OF HIS AGE OR HIS NATION, AND FROM
 CONVICTIONS WHICH HAVE GROWN UP IN HIS MIND WITHOUT THE CO-OPERATION
 OR CONSENT OF HIS DELIBERATE REASON.  TO SUCH A MAN THE WORLD TENDS
 TO BE DEFINITE, FINITE, OBVIOUS; COMMON OBJECTS ROUSE NO QUESTIONS,
 AND UNFAMILIAR POSSIBILITIES ARE CONTEMPTUOUSLY REJECTED.

                             -- BERTRAND RUSSELL
 Job cpu time:       0 days  2 hours 27 minutes 28.3 seconds.
 Elapsed time:       0 days  0 hours  9 minutes 15.9 seconds.
 File lengths (MBytes):  RWF=    144 Int=      0 D2E=      0 Chk=      8 Scr=      1
 Normal termination of Gaussian 16 at Wed Oct  1 17:52:35 2025.
