 Entering Gaussian System, Link 0=g16
 Input=DCAE0063.gjf
 Output=DCAE0063.log
 Initial command:
 /usr/local/g16/l1.exe "/dados_01/scratch/Gau-2391751.inp" -scrdir="/dados_01/scratch/"
 Entering Link 1 = /usr/local/g16/l1.exe PID=   2391752.
  
 Copyright (c) 1988-2017, Gaussian, Inc.  All Rights Reserved.
  
 This is part of the Gaussian(R) 16 program.  It is based on
 the Gaussian(R) 09 system (copyright 2009, Gaussian, Inc.),
 the Gaussian(R) 03 system (copyright 2003, Gaussian, Inc.),
 the Gaussian(R) 98 system (copyright 1998, Gaussian, Inc.),
 the Gaussian(R) 94 system (copyright 1995, Gaussian, Inc.),
 the Gaussian 92(TM) system (copyright 1992, Gaussian, Inc.),
 the Gaussian 90(TM) system (copyright 1990, Gaussian, Inc.),
 the Gaussian 88(TM) system (copyright 1988, Gaussian, Inc.),
 the Gaussian 86(TM) system (copyright 1986, Carnegie Mellon
 University), and the Gaussian 82(TM) system (copyright 1983,
 Carnegie Mellon University). Gaussian is a federally registered
 trademark of Gaussian, Inc.
  
 This software contains proprietary and confidential information,
 including trade secrets, belonging to Gaussian, Inc.
  
 This software is provided under written license and may be
 used, copied, transmitted, or stored only in accord with that
 written license.
  
 The following legend is applicable only to US Government
 contracts under FAR:
  
                    RESTRICTED RIGHTS LEGEND
  
 Use, reproduction and disclosure by the US Government is
 subject to restrictions as set forth in subparagraphs (a)
 and (c) of the Commercial Computer Software - Restricted
 Rights clause in FAR 52.227-19.
  
 Gaussian, Inc.
 340 Quinnipiac St., Bldg. 40, Wallingford CT 06492
  
  
 ---------------------------------------------------------------
 Warning -- This program may not be used in any manner that
 competes with the business of Gaussian, Inc. or will provide
 assistance to any competitor of Gaussian, Inc.  The licensee
 of this program is prohibited from giving any competitor of
 Gaussian, Inc. access to this program.  By using this program,
 the user acknowledges that Gaussian, Inc. is engaged in the
 business of creating and licensing software in the field of
 computational chemistry and represents and warrants to the
 licensee that it is not a competitor of Gaussian, Inc. and that
 it will not use this program in any manner prohibited above.
 ---------------------------------------------------------------
  

 Cite this work as:
 Gaussian 16, Revision B.01,
 M. J. Frisch, G. W. Trucks, H. B. Schlegel, G. E. Scuseria, 
 M. A. Robb, J. R. Cheeseman, G. Scalmani, V. Barone, 
 G. A. Petersson, H. Nakatsuji, X. Li, M. Caricato, A. V. Marenich, 
 J. Bloino, B. G. Janesko, R. Gomperts, B. Mennucci, H. P. Hratchian, 
 J. V. Ortiz, A. F. Izmaylov, J. L. Sonnenberg, D. Williams-Young, 
 F. Ding, F. Lipparini, F. Egidi, J. Goings, B. Peng, A. Petrone, 
 T. Henderson, D. Ranasinghe, V. G. Zakrzewski, J. Gao, N. Rega, 
 G. Zheng, W. Liang, M. Hada, M. Ehara, K. Toyota, R. Fukuda, 
 J. Hasegawa, M. Ishida, T. Nakajima, Y. Honda, O. Kitao, H. Nakai, 
 T. Vreven, K. Throssell, J. A. Montgomery, Jr., J. E. Peralta, 
 F. Ogliaro, M. J. Bearpark, J. J. Heyd, E. N. Brothers, K. N. Kudin, 
 V. N. Staroverov, T. A. Keith, R. Kobayashi, J. Normand, 
 K. Raghavachari, A. P. Rendell, J. C. Burant, S. S. Iyengar, 
 J. Tomasi, M. Cossi, J. M. Millam, M. Klene, C. Adamo, R. Cammi, 
 J. W. Ochterski, R. L. Martin, K. Morokuma, O. Farkas, 
 J. B. Foresman, and D. J. Fox, Gaussian, Inc., Wallingford CT, 2016.
 
 ******************************************
 Gaussian 16:  ES64L-G16RevB.01 20-Dec-2017
                 1-Oct-2025 
 ******************************************
 %nprocs=16
 Will use up to   16 processors via shared memory.
 %mem=40GB
 %chk=DCAE0063.chk
 ----------------------------------------------------------------------
 # opt freq=noraman M08HX/6-311++G** scf=xqc Empiricaldispersion=pfd In
 t(Grid=ultraFine)
 ----------------------------------------------------------------------
 1/18=20,19=15,26=4,38=1/1,3;
 2/9=110,12=2,17=6,18=5,40=1/2;
 3/5=4,6=6,7=1111,11=2,25=1,30=1,71=1,74=-74,75=-5,124=11/1,2,3;
 4//1;
 5/5=2,8=3,13=1,38=5/2,8;
 6/7=2,8=2,9=2,10=2,28=1/1;
 7//1,2,3,16;
 1/18=20,19=15,26=4/3(2);
 2/9=110/2;
 99//99;
 2/9=110/2;
 3/5=4,6=6,7=1111,11=2,25=1,30=1,71=1,74=-74,75=-5,124=11/1,2,3;
 4/5=5,16=3,69=1/1;
 5/5=2,8=3,13=1,38=5/2,8;
 7//1,2,3,16;
 1/18=20,19=15,26=4/3(-5);
 2/9=110/2;
 6/7=2,8=2,9=2,10=2,19=2,28=1/1;
 99/9=1/99;
 --------
 DCAE0063
 --------
 Symbolic Z-matrix:
 Charge =  0 Multiplicity = 1
 C                     0.6609    0.3879    0.0661 
 C                    -0.6429   -0.4161    0.0972 
 C                     1.9141   -0.4894    0.024 
 C                    -1.8962    0.4625    0.0635 
 C                     3.1858    0.3618    0.0071 
 C                    -3.1992   -0.343     0.0342 
 C                     4.4381   -0.511    -0.0735 
 C                    -4.4498    0.5305   -0.0748 
 C                     5.705     0.3295   -0.0568 
 C                    -5.7158   -0.3129   -0.087 
 H                     0.6545    1.0461   -0.8116 
 H                     0.7003    1.0379    0.949 
 H                    -0.6618   -1.0407    0.9986 
 H                    -0.6616   -1.0985   -0.7616 
 H                     1.9262   -1.154     0.8964 
 H                     1.8837   -1.1263   -0.8682 
 H                    -1.899     1.1243    0.9383 
 H                    -1.8564    1.1084   -0.8224 
 H                     3.1609    1.0455   -0.8503 
 H                     3.2247    0.98      0.9123 
 H                    -3.1721   -1.0374   -0.8149 
 H                    -3.2602   -0.9559    0.9421 
 H                     4.4602   -1.2094    0.7711 
 H                     4.4154   -1.1111   -0.9905 
 H                    -4.4887    1.2289    0.7691 
 H                    -4.4052    1.1299   -0.9913 
 H                     6.5879   -0.3145   -0.1162 
 H                     5.7742    0.9167    0.8645 
 H                     5.7294    1.019    -0.9067 
 H                    -6.5982    0.3299   -0.1655 
 H                    -5.7202   -1.0015   -0.9379 
 H                    -5.8044   -0.9008    0.832 
 

 GradGradGradGradGradGradGradGradGradGradGradGradGradGradGradGradGradGrad
 Berny optimization.
 Initialization pass.
                           ----------------------------
                           !    Initial Parameters    !
                           ! (Angstroms and Degrees)  !
 --------------------------                            --------------------------
 ! Name  Definition              Value          Derivative Info.                !
 --------------------------------------------------------------------------------
 ! R1    R(1,2)                  1.5321         estimate D2E/DX2                !
 ! R2    R(1,3)                  1.5303         estimate D2E/DX2                !
 ! R3    R(1,11)                 1.0971         estimate D2E/DX2                !
 ! R4    R(1,12)                 1.0971         estimate D2E/DX2                !
 ! R5    R(2,4)                  1.531          estimate D2E/DX2                !
 ! R6    R(2,13)                 1.0968         estimate D2E/DX2                !
 ! R7    R(2,14)                 1.0971         estimate D2E/DX2                !
 ! R8    R(3,5)                  1.5304         estimate D2E/DX2                !
 ! R9    R(3,15)                 1.0968         estimate D2E/DX2                !
 ! R10   R(3,16)                 1.0966         estimate D2E/DX2                !
 ! R11   R(4,6)                  1.5322         estimate D2E/DX2                !
 ! R12   R(4,17)                 1.0969         estimate D2E/DX2                !
 ! R13   R(4,18)                 1.0971         estimate D2E/DX2                !
 ! R14   R(5,7)                  1.5286         estimate D2E/DX2                !
 ! R15   R(5,19)                 1.0969         estimate D2E/DX2                !
 ! R16   R(5,20)                 1.0968         estimate D2E/DX2                !
 ! R17   R(6,8)                  1.5293         estimate D2E/DX2                !
 ! R18   R(6,21)                 1.0972         estimate D2E/DX2                !
 ! R19   R(6,22)                 1.0971         estimate D2E/DX2                !
 ! R20   R(7,9)                  1.5204         estimate D2E/DX2                !
 ! R21   R(7,23)                 1.0962         estimate D2E/DX2                !
 ! R22   R(7,24)                 1.0961         estimate D2E/DX2                !
 ! R23   R(8,10)                 1.5213         estimate D2E/DX2                !
 ! R24   R(8,25)                 1.0961         estimate D2E/DX2                !
 ! R25   R(8,26)                 1.096          estimate D2E/DX2                !
 ! R26   R(9,27)                 1.0944         estimate D2E/DX2                !
 ! R27   R(9,28)                 1.0947         estimate D2E/DX2                !
 ! R28   R(9,29)                 1.0947         estimate D2E/DX2                !
 ! R29   R(10,30)                1.0945         estimate D2E/DX2                !
 ! R30   R(10,31)                1.0946         estimate D2E/DX2                !
 ! R31   R(10,32)                1.0945         estimate D2E/DX2                !
 ! A1    A(2,1,3)              113.3661         estimate D2E/DX2                !
 ! A2    A(2,1,11)             109.033          estimate D2E/DX2                !
 ! A3    A(2,1,12)             108.9746         estimate D2E/DX2                !
 ! A4    A(3,1,11)             109.0686         estimate D2E/DX2                !
 ! A5    A(3,1,12)             109.4136         estimate D2E/DX2                !
 ! A6    A(11,1,12)            106.7735         estimate D2E/DX2                !
 ! A7    A(1,2,4)              113.269          estimate D2E/DX2                !
 ! A8    A(1,2,13)             109.2803         estimate D2E/DX2                !
 ! A9    A(1,2,14)             108.9678         estimate D2E/DX2                !
 ! A10   A(4,2,13)             109.317          estimate D2E/DX2                !
 ! A11   A(4,2,14)             109.0132         estimate D2E/DX2                !
 ! A12   A(13,2,14)            106.7878         estimate D2E/DX2                !
 ! A13   A(1,3,5)              111.2191         estimate D2E/DX2                !
 ! A14   A(1,3,15)             109.544          estimate D2E/DX2                !
 ! A15   A(1,3,16)             109.4283         estimate D2E/DX2                !
 ! A16   A(5,3,15)             109.673          estimate D2E/DX2                !
 ! A17   A(5,3,16)             109.6993         estimate D2E/DX2                !
 ! A18   A(15,3,16)            107.1888         estimate D2E/DX2                !
 ! A19   A(2,4,6)              113.2603         estimate D2E/DX2                !
 ! A20   A(2,4,17)             109.3157         estimate D2E/DX2                !
 ! A21   A(2,4,18)             109.0231         estimate D2E/DX2                !
 ! A22   A(6,4,17)             109.2847         estimate D2E/DX2                !
 ! A23   A(6,4,18)             108.9613         estimate D2E/DX2                !
 ! A24   A(17,4,18)            106.7906         estimate D2E/DX2                !
 ! A25   A(3,5,7)              111.3325         estimate D2E/DX2                !
 ! A26   A(3,5,19)             109.6607         estimate D2E/DX2                !
 ! A27   A(3,5,20)             109.5022         estimate D2E/DX2                !
 ! A28   A(7,5,19)             109.468          estimate D2E/DX2                !
 ! A29   A(7,5,20)             109.6504         estimate D2E/DX2                !
 ! A30   A(19,5,20)            107.1326         estimate D2E/DX2                !
 ! A31   A(4,6,8)              113.3608         estimate D2E/DX2                !
 ! A32   A(4,6,21)             109.0573         estimate D2E/DX2                !
 ! A33   A(4,6,22)             108.9752         estimate D2E/DX2                !
 ! A34   A(8,6,21)             109.0573         estimate D2E/DX2                !
 ! A35   A(8,6,22)             109.4262         estimate D2E/DX2                !
 ! A36   A(21,6,22)            106.7515         estimate D2E/DX2                !
 ! A37   A(5,7,9)              111.4951         estimate D2E/DX2                !
 ! A38   A(5,7,23)             109.8575         estimate D2E/DX2                !
 ! A39   A(5,7,24)             109.8612         estimate D2E/DX2                !
 ! A40   A(9,7,23)             109.0831         estimate D2E/DX2                !
 ! A41   A(9,7,24)             109.2131         estimate D2E/DX2                !
 ! A42   A(23,7,24)            107.2289         estimate D2E/DX2                !
 ! A43   A(6,8,10)             111.3732         estimate D2E/DX2                !
 ! A44   A(6,8,25)             109.7595         estimate D2E/DX2                !
 ! A45   A(6,8,26)             109.7969         estimate D2E/DX2                !
 ! A46   A(10,8,25)            109.2621         estimate D2E/DX2                !
 ! A47   A(10,8,26)            109.2907         estimate D2E/DX2                !
 ! A48   A(25,8,26)            107.265          estimate D2E/DX2                !
 ! A49   A(7,9,27)             110.262          estimate D2E/DX2                !
 ! A50   A(7,9,28)             111.0042         estimate D2E/DX2                !
 ! A51   A(7,9,29)             110.9916         estimate D2E/DX2                !
 ! A52   A(27,9,28)            108.0784         estimate D2E/DX2                !
 ! A53   A(27,9,29)            108.0901         estimate D2E/DX2                !
 ! A54   A(28,9,29)            108.3087         estimate D2E/DX2                !
 ! A55   A(8,10,30)            110.2366         estimate D2E/DX2                !
 ! A56   A(8,10,31)            110.9984         estimate D2E/DX2                !
 ! A57   A(8,10,32)            111.0028         estimate D2E/DX2                !
 ! A58   A(30,10,31)           108.0865         estimate D2E/DX2                !
 ! A59   A(30,10,32)           108.0834         estimate D2E/DX2                !
 ! A60   A(31,10,32)           108.328          estimate D2E/DX2                !
 ! D1    D(3,1,2,4)           -176.9114         estimate D2E/DX2                !
 ! D2    D(3,1,2,13)            60.9543         estimate D2E/DX2                !
 ! D3    D(3,1,2,14)           -55.3915         estimate D2E/DX2                !
 ! D4    D(11,1,2,4)           -55.2089         estimate D2E/DX2                !
 ! D5    D(11,1,2,13)         -177.3432         estimate D2E/DX2                !
 ! D6    D(11,1,2,14)           66.311          estimate D2E/DX2                !
 ! D7    D(12,1,2,4)            60.9863         estimate D2E/DX2                !
 ! D8    D(12,1,2,13)          -61.148          estimate D2E/DX2                !
 ! D9    D(12,1,2,14)         -177.4938         estimate D2E/DX2                !
 ! D10   D(2,1,3,5)           -179.4806         estimate D2E/DX2                !
 ! D11   D(2,1,3,15)           -58.0786         estimate D2E/DX2                !
 ! D12   D(2,1,3,16)            59.162          estimate D2E/DX2                !
 ! D13   D(11,1,3,5)            58.8369         estimate D2E/DX2                !
 ! D14   D(11,1,3,15)         -179.7612         estimate D2E/DX2                !
 ! D15   D(11,1,3,16)          -62.5205         estimate D2E/DX2                !
 ! D16   D(12,1,3,5)           -57.623          estimate D2E/DX2                !
 ! D17   D(12,1,3,15)           63.7789         estimate D2E/DX2                !
 ! D18   D(12,1,3,16)         -178.9804         estimate D2E/DX2                !
 ! D19   D(1,2,4,6)            177.5402         estimate D2E/DX2                !
 ! D20   D(1,2,4,17)           -60.3471         estimate D2E/DX2                !
 ! D21   D(1,2,4,18)            56.0528         estimate D2E/DX2                !
 ! D22   D(13,2,4,6)           -60.3459         estimate D2E/DX2                !
 ! D23   D(13,2,4,17)           61.7667         estimate D2E/DX2                !
 ! D24   D(13,2,4,18)          178.1667         estimate D2E/DX2                !
 ! D25   D(14,2,4,6)            56.0458         estimate D2E/DX2                !
 ! D26   D(14,2,4,17)          178.1585         estimate D2E/DX2                !
 ! D27   D(14,2,4,18)          -65.4415         estimate D2E/DX2                !
 ! D28   D(1,3,5,7)           -178.4476         estimate D2E/DX2                !
 ! D29   D(1,3,5,19)           -57.1506         estimate D2E/DX2                !
 ! D30   D(1,3,5,20)            60.1329         estimate D2E/DX2                !
 ! D31   D(15,3,5,7)            60.2259         estimate D2E/DX2                !
 ! D32   D(15,3,5,19)         -178.4771         estimate D2E/DX2                !
 ! D33   D(15,3,5,20)          -61.1936         estimate D2E/DX2                !
 ! D34   D(16,3,5,7)           -57.2488         estimate D2E/DX2                !
 ! D35   D(16,3,5,19)           64.0482         estimate D2E/DX2                !
 ! D36   D(16,3,5,20)         -178.6683         estimate D2E/DX2                !
 ! D37   D(2,4,6,8)           -176.9231         estimate D2E/DX2                !
 ! D38   D(2,4,6,21)           -55.2212         estimate D2E/DX2                !
 ! D39   D(2,4,6,22)            60.9616         estimate D2E/DX2                !
 ! D40   D(17,4,6,8)            60.947          estimate D2E/DX2                !
 ! D41   D(17,4,6,21)         -177.3511         estimate D2E/DX2                !
 ! D42   D(17,4,6,22)          -61.1683         estimate D2E/DX2                !
 ! D43   D(18,4,6,8)           -55.401          estimate D2E/DX2                !
 ! D44   D(18,4,6,21)           66.3009         estimate D2E/DX2                !
 ! D45   D(18,4,6,22)         -177.5164         estimate D2E/DX2                !
 ! D46   D(3,5,7,9)           -178.6323         estimate D2E/DX2                !
 ! D47   D(3,5,7,23)           -57.58           estimate D2E/DX2                !
 ! D48   D(3,5,7,24)            60.149          estimate D2E/DX2                !
 ! D49   D(19,5,7,9)            59.9583         estimate D2E/DX2                !
 ! D50   D(19,5,7,23)         -178.9895         estimate D2E/DX2                !
 ! D51   D(19,5,7,24)          -61.2604         estimate D2E/DX2                !
 ! D52   D(20,5,7,9)           -57.2992         estimate D2E/DX2                !
 ! D53   D(20,5,7,23)           63.753          estimate D2E/DX2                !
 ! D54   D(20,5,7,24)         -178.5179         estimate D2E/DX2                !
 ! D55   D(4,6,8,10)          -179.4642         estimate D2E/DX2                !
 ! D56   D(4,6,8,25)           -58.3328         estimate D2E/DX2                !
 ! D57   D(4,6,8,26)            59.3434         estimate D2E/DX2                !
 ! D58   D(21,6,8,10)           58.8339         estimate D2E/DX2                !
 ! D59   D(21,6,8,25)          179.9652         estimate D2E/DX2                !
 ! D60   D(21,6,8,26)          -62.3586         estimate D2E/DX2                !
 ! D61   D(22,6,8,10)          -57.6003         estimate D2E/DX2                !
 ! D62   D(22,6,8,25)           63.531          estimate D2E/DX2                !
 ! D63   D(22,6,8,26)         -178.7928         estimate D2E/DX2                !
 ! D64   D(5,7,9,27)          -179.9475         estimate D2E/DX2                !
 ! D65   D(5,7,9,28)            60.3123         estimate D2E/DX2                !
 ! D66   D(5,7,9,29)           -60.2008         estimate D2E/DX2                !
 ! D67   D(23,7,9,27)           58.5496         estimate D2E/DX2                !
 ! D68   D(23,7,9,28)          -61.1906         estimate D2E/DX2                !
 ! D69   D(23,7,9,29)          178.2963         estimate D2E/DX2                !
 ! D70   D(24,7,9,27)          -58.3521         estimate D2E/DX2                !
 ! D71   D(24,7,9,28)         -178.0923         estimate D2E/DX2                !
 ! D72   D(24,7,9,29)           61.3946         estimate D2E/DX2                !
 ! D73   D(6,8,10,30)         -179.9951         estimate D2E/DX2                !
 ! D74   D(6,8,10,31)          -60.2651         estimate D2E/DX2                !
 ! D75   D(6,8,10,32)           60.2759         estimate D2E/DX2                !
 ! D76   D(25,8,10,30)          58.5835         estimate D2E/DX2                !
 ! D77   D(25,8,10,31)         178.3135         estimate D2E/DX2                !
 ! D78   D(25,8,10,32)         -61.1455         estimate D2E/DX2                !
 ! D79   D(26,8,10,30)         -58.5076         estimate D2E/DX2                !
 ! D80   D(26,8,10,31)          61.2224         estimate D2E/DX2                !
 ! D81   D(26,8,10,32)        -178.2365         estimate D2E/DX2                !
 --------------------------------------------------------------------------------
 Trust Radius=3.00D-01 FncErr=1.00D-07 GrdErr=1.00D-06 EigMax=2.50D+02 EigMin=1.00D-04
 Number of steps in this run=    182 maximum allowed number of steps=    192.
 GradGradGradGradGradGradGradGradGradGradGradGradGradGradGradGradGradGrad

                          Input orientation:                          
 ---------------------------------------------------------------------
 Center     Atomic      Atomic             Coordinates (Angstroms)
 Number     Number       Type             X           Y           Z
 ---------------------------------------------------------------------
      1          6           0        0.660900    0.387900    0.066100
      2          6           0       -0.642900   -0.416100    0.097200
      3          6           0        1.914100   -0.489400    0.024000
      4          6           0       -1.896200    0.462500    0.063500
      5          6           0        3.185800    0.361800    0.007100
      6          6           0       -3.199200   -0.343000    0.034200
      7          6           0        4.438100   -0.511000   -0.073500
      8          6           0       -4.449800    0.530500   -0.074800
      9          6           0        5.705000    0.329500   -0.056800
     10          6           0       -5.715800   -0.312900   -0.087000
     11          1           0        0.654500    1.046100   -0.811600
     12          1           0        0.700300    1.037900    0.949000
     13          1           0       -0.661800   -1.040700    0.998600
     14          1           0       -0.661600   -1.098500   -0.761600
     15          1           0        1.926200   -1.154000    0.896400
     16          1           0        1.883700   -1.126300   -0.868200
     17          1           0       -1.899000    1.124300    0.938300
     18          1           0       -1.856400    1.108400   -0.822400
     19          1           0        3.160900    1.045500   -0.850300
     20          1           0        3.224700    0.980000    0.912300
     21          1           0       -3.172100   -1.037400   -0.814900
     22          1           0       -3.260200   -0.955900    0.942100
     23          1           0        4.460200   -1.209400    0.771100
     24          1           0        4.415400   -1.111100   -0.990500
     25          1           0       -4.488700    1.228900    0.769100
     26          1           0       -4.405200    1.129900   -0.991300
     27          1           0        6.587900   -0.314500   -0.116200
     28          1           0        5.774200    0.916700    0.864500
     29          1           0        5.729400    1.019000   -0.906700
     30          1           0       -6.598200    0.329900   -0.165500
     31          1           0       -5.720200   -1.001500   -0.937900
     32          1           0       -5.804400   -0.900800    0.832000
 ---------------------------------------------------------------------
                    Distance matrix (angstroms):
                    1          2          3          4          5
     1  C    0.000000
     2  C    1.532083   0.000000
     3  C    1.530339   2.559098   0.000000
     4  C    2.558189   1.530959   3.927602   0.000000
     5  C    2.525724   3.907965   1.530375   5.083310   0.000000
     6  C    3.928817   2.558121   5.115406   1.532155   6.423839
     7  C    3.885196   5.084752   2.525975   6.410135   1.528572
     8  C    5.114630   3.926592   6.445865   2.558246   7.637903
     9  C    5.045935   6.393393   3.879181   7.603315   2.520217
    10  C    6.416920   5.077292   7.632748   3.900415   8.927629
    11  H    1.097099   2.155735   2.154665   2.759069   2.747001
    12  H    1.097071   2.154963   2.159069   2.803035   2.742626
    13  H    2.158701   1.096816   2.808743   2.158186   4.213562
    14  H    2.154873   1.097067   2.760870   2.154472   4.186390
    15  H    2.160518   2.789891   1.096778   4.232911   2.162197
    16  H    2.158925   2.796442   1.096625   4.204759   2.162419
    17  H    2.802875   2.158256   4.240248   1.096933   5.225297
    18  H    2.765023   2.154611   4.181630   1.097082   5.164229
    19  H    2.742668   4.183650   2.162135   5.171961   1.096905
    20  H    2.764002   4.191875   2.160066   5.216501   1.096846
    21  H    4.183244   2.759491   5.183964   2.156202   6.561733
    22  H    4.236532   2.802766   5.275785   2.155062   6.645410
    23  H    4.181276   5.208176   2.749397   6.610580   2.162513
    24  H    4.178478   5.220394   2.769878   6.589645   2.162535
    25  H    5.264966   4.236467   6.671100   2.793975   7.760828
    26  H    5.228195   4.210683   6.602009   2.802340   7.694807
    27  H    5.971258   7.234662   4.679172   8.521501   3.470860
    28  H    5.202202   6.598809   4.193320   7.725473   2.782600
    29  H    5.199454   6.608596   4.206898   7.707189   2.781518
    30  H    7.263025   6.007589   8.553737   4.709440   9.785574
    31  H    6.607336   5.214700   7.711682   4.215338   9.059164
    32  H    6.636826   5.236024   7.771574   4.209894   9.115828
                    6          7          8          9         10
     6  C    0.000000
     7  C    7.639907   0.000000
     8  C    1.529341   8.948714   0.000000
     9  C    8.930023   1.520446  10.156805   0.000000
    10  C    2.519697  10.155841   1.521259  11.438893   0.000000
    11  H    4.182820   4.157521   5.182914   5.156626   6.553827
    12  H    4.236726   4.173218   5.275334   5.153687   6.638094
    13  H    2.802722   5.238221   4.239080   6.597534   5.220262
    14  H    2.764687   5.179341   4.180406   6.562737   5.159185
    15  H    5.260308   2.768356   6.665894   4.169975   7.750786
    16  H    5.221471   2.745014   6.594520   4.168940   7.682727
    17  H    2.158909   6.622445   2.808122   7.709912   4.205324
    18  H    2.154864   6.542479   2.760181   7.639869   4.178023
    19  H    6.569714   2.158090   7.667423   2.759482   9.012418
    20  H    6.617241   2.160375   7.750766   2.741203   9.088604
    21  H    1.097222   7.664327   2.153735   9.013658   2.743200
    22  H    1.097110   7.777738   2.158383   9.111798   2.739063
    23  H    7.743389   1.096175   9.117615   2.145497  10.251391
    24  H    7.721536   1.096141   9.062292   2.147136  10.202679
    25  H    2.161888   9.133728   1.096104  10.266574   2.148448
    26  H    2.162295   9.040955   1.096012  10.184796   2.148744
    27  H    9.788297   2.159184  11.070075   1.094430  12.303735
    28  H    9.099349   2.168717  10.274318   1.094708  11.594713
    29  H    9.080762   2.168543  10.224813   1.094685  11.551557
    30  H    3.470717  11.068672   2.159650  12.303680   1.094524
    31  H    2.781015  10.206803   2.169304  11.536165   1.094632
    32  H    2.781132  10.289834   2.169296  11.609044   1.094549
                   11         12         13         14         15
    11  H    0.000000
    12  H    1.761215   0.000000
    13  H    3.060099   2.485630   0.000000
    14  H    2.516730   3.056980   1.761149   0.000000
    15  H    3.061850   2.511976   2.592494   3.073882   0.000000
    16  H    2.496689   3.063725   3.157822   2.547683   1.765329
    17  H    3.096551   2.600758   2.494298   3.059683   4.452478
    18  H    2.511696   3.111196   3.059696   2.510309   4.730834
    19  H    2.506699   3.048293   4.731141   4.383618   3.068101
    20  H    3.095501   2.525331   4.381274   4.714386   2.498061
    21  H    4.357046   4.734310   3.096837   2.511809   5.379108
    22  H    4.733745   4.434055   2.600397   3.110571   5.190383
    23  H    4.698465   4.383931   5.129825   5.347364   2.537701
    24  H    4.339342   4.709759   5.453387   5.082173   3.123836
    25  H    5.383729   5.195630   4.455212   4.733553   6.844367
    26  H    5.063584   5.462541   4.762799   4.362691   6.990439
    27  H    6.126993   6.134123   7.370773   7.320276   4.843714
    28  H    5.388635   5.076051   6.728409   6.937201   4.369888
    29  H    5.075863   5.360581   6.979969   6.734222   4.736816
    30  H    7.316560   7.416972   6.202783   6.135053   8.717510
    31  H    6.696672   6.995882   5.416547   5.062601   7.864817
    32  H    6.943287   6.788473   5.147199   5.387675   7.735014
                   16         17         18         19         20
    16  H    0.000000
    17  H    4.757884   0.000000
    18  H    4.357101   1.761287   0.000000
    19  H    2.519578   5.367298   5.017772   0.000000
    20  H    3.066751   5.125798   5.370591   1.764970   0.000000
    21  H    5.056862   3.060628   2.517058   6.666829   6.926195
    22  H    5.455816   2.485983   3.057033   6.960519   6.767756
    23  H    3.054924   6.775953   6.914541   3.066218   2.517910
    24  H    2.534698   6.970576   6.655067   2.498870   3.067754
    25  H    6.988219   2.597329   3.078376   7.821283   7.718743
    26  H    6.682504   3.162977   2.554481   7.567884   7.865211
    27  H    4.832600   8.672346   8.592413   3.759366   3.747620
    28  H    4.723567   7.676363   7.817189   3.128333   2.550734
    29  H    4.403771   7.849051   7.586795   2.569256   3.095772
    30  H    8.634636   4.892027   4.849974   9.809234   9.903214
    31  H    7.605243   4.758227   4.403858   9.114374   9.346701
    32  H    7.877081   4.400509   4.728703   9.327101   9.223259
                   21         22         23         24         25
    21  H    0.000000
    22  H    1.761094   0.000000
    23  H    7.797242   7.726453   0.000000
    24  H    7.589890   7.916683   1.764909   0.000000
    25  H    3.062451   2.512467   9.275135   9.373089   0.000000
    26  H    2.499768   3.065880   9.336685   9.100828   1.765158
    27  H    9.811644   9.925546   2.472904   2.473606  11.218596
    28  H    9.309950   9.226757   2.501124   3.065834  10.268091
    29  H    9.136406   9.387822   3.064580   2.504185  10.356734
    30  H    3.745583   3.744637  11.204235  11.138065   2.476221
    31  H    2.551320   3.096462  10.324943  10.136329   3.066778
    32  H    3.108045   2.547177  10.269418  10.383162   2.504126
                   26         27         28         29         30
    26  H    0.000000
    27  H   11.122065   0.000000
    28  H   10.349378   1.771929   0.000000
    29  H   10.135560   1.772043   1.774717   0.000000
    30  H    2.476125  13.201928  12.429059  12.369073   0.000000
    31  H    2.504984  12.354614  11.791920  11.626553   1.772036
    32  H    3.066908  12.442344  11.720424  11.821051   1.771933
                   31         32
    31  H    0.000000
    32  H    1.774761   0.000000
 Stoichiometry    C10H22
 Framework group  C1[X(C10H22)]
 Deg. of freedom    90
 Full point group                 C1      NOp   1
 Largest Abelian subgroup         C1      NOp   1
 Largest concise Abelian subgroup C1      NOp   1
                         Standard orientation:                         
 ---------------------------------------------------------------------
 Center     Atomic      Atomic             Coordinates (Angstroms)
 Number     Number       Type             X           Y           Z
 ---------------------------------------------------------------------
      1          6           0       -0.662490   -0.385241    0.067907
      2          6           0        0.644312    0.413856    0.099387
      3          6           0       -1.912381    0.496762    0.025710
      4          6           0        1.894312   -0.469436    0.065784
      5          6           0       -3.187263   -0.349657    0.008428
      6          6           0        3.200331    0.331174    0.036864
      7          6           0       -4.436264    0.527849   -0.072270
      8          6           0        4.447666   -0.546995   -0.072039
      9          6           0       -5.706312   -0.307894   -0.055949
     10          6           0        5.716824    0.291650   -0.083859
     11          1           0       -0.658392   -1.043319   -0.809899
     12          1           0       -0.704498   -1.035232    0.950694
     13          1           0        0.665382    1.038234    1.000892
     14          1           0        0.665737    1.096320   -0.759299
     15          1           0       -1.922155    1.161262    0.898215
     16          1           0       -1.879420    1.133688   -0.866381
     17          1           0        1.894461   -1.131383    0.940477
     18          1           0        1.852259   -1.115038   -0.820229
     19          1           0       -3.164764   -1.033307   -0.849078
     20          1           0       -3.228656   -0.967853    0.913520
     21          1           0        3.176000    1.025808   -0.812128
     22          1           0        3.263457    0.943694    0.944875
     23          1           0       -4.455905    1.226190    0.772440
     24          1           0       -4.411136    1.128008   -0.989168
     25          1           0        4.483783   -1.245673    0.771755
     26          1           0        4.400993   -1.146075   -0.988645
     27          1           0       -6.586778    0.339424   -0.115413
     28          1           0       -5.777892   -0.894979    0.865243
     29          1           0       -5.733136   -0.997160   -0.905965
     30          1           0        6.596821   -0.354444   -0.162295
     31          1           0        5.723971    0.980366   -0.934647
     32          1           0        5.807453    0.879065    0.835253
 ---------------------------------------------------------------------
 Rotational constants (GHZ):           8.3179527           0.2561151           0.2525142
 Standard basis: 6-311++G(d,p) (5D, 7F)
 There are   384 symmetry adapted cartesian basis functions of A   symmetry.
 There are   374 symmetry adapted basis functions of A   symmetry.
   374 basis functions,   558 primitive gaussians,   384 cartesian basis functions
    41 alpha electrons       41 beta electrons
       nuclear repulsion energy       519.1384668567 Hartrees.
 NAtoms=   32 NActive=   32 NUniq=   32 SFac= 1.00D+00 NAtFMM=   60 NAOKFM=F Big=F
 Integral buffers will be    131072 words long.
 Raffenetti 2 integral format.
 Two-electron integral symmetry is turned on.
 R6APFD:  NTU= -4 IXU= 1 FactS= 1.050
 Nuclear repulsion after empirical dispersion term =      519.1180945025 Hartrees.
 One-electron integrals computed using PRISM.
 NBasis=   374 RedAO= T EigKep=  2.93D-06  NBF=   374
 NBsUse=   374 1.00D-06 EigRej= -1.00D+00 NBFU=   374
 ExpMin= 3.60D-02 ExpMax= 4.56D+03 ExpMxC= 6.82D+02 IAcc=3 IRadAn=         5 AccDes= 0.00D+00
 Harris functional with IExCor= 1009 and IRadAn=       5 diagonalized for initial guess.
 HarFok:  IExCor= 1009 AccDes= 0.00D+00 IRadAn=         5 IDoV= 1 UseB2=F ITyADJ=14
 ICtDFT=  3500011 ScaDFX=  1.000000  1.000000  1.000000  1.000000
 FoFCou: FMM=F IPFlag=           0 FMFlag=      100000 FMFlg1=           0
         NFxFlg=           0 DoJE=T BraDBF=F KetDBF=T FulRan=T
         wScrn=  0.000000 ICntrl=       500 IOpCl=  0 I1Cent=   200000004 NGrid=           0
         NMat0=    1 NMatS0=      1 NMatT0=    0 NMatD0=    1 NMtDS0=    0 NMtDT0=    0
 Petite list used in FoFCou.
 Requested convergence on RMS density matrix=1.00D-08 within  32 cycles.
 Requested convergence on MAX density matrix=1.00D-06.
 Requested convergence on             energy=1.00D-06.
 No special actions if energy rises.
 SCF Done:  E(RM08HX) =  -394.365448728     A.U. after   11 cycles
            NFock= 11  Conv=0.54D-08     -V/T= 2.0059
 QCSCF skips out because SCF is already converged.

 **********************************************************************

            Population analysis using the SCF Density.

 **********************************************************************

 Orbital symmetries:
       Occupied  (A) (A) (A) (A) (A) (A) (A) (A) (A) (A) (A) (A)
                 (A) (A) (A) (A) (A) (A) (A) (A) (A) (A) (A) (A)
                 (A) (A) (A) (A) (A) (A) (A) (A) (A) (A) (A) (A)
                 (A) (A) (A) (A) (A)
       Virtual   (A) (A) (A) (A) (A) (A) (A) (A) (A) (A) (A) (A)
                 (A) (A) (A) (A) (A) (A) (A) (A) (A) (A) (A) (A)
                 (A) (A) (A) (A) (A) (A) (A) (A) (A) (A) (A) (A)
                 (A) (A) (A) (A) (A) (A) (A) (A) (A) (A) (A) (A)
                 (A) (A) (A) (A) (A) (A) (A) (A) (A) (A) (A) (A)
                 (A) (A) (A) (A) (A) (A) (A) (A) (A) (A) (A) (A)
                 (A) (A) (A) (A) (A) (A) (A) (A) (A) (A) (A) (A)
                 (A) (A) (A) (A) (A) (A) (A) (A) (A) (A) (A) (A)
                 (A) (A) (A) (A) (A) (A) (A) (A) (A) (A) (A) (A)
                 (A) (A) (A) (A) (A) (A) (A) (A) (A) (A) (A) (A)
                 (A) (A) (A) (A) (A) (A) (A) (A) (A) (A) (A) (A)
                 (A) (A) (A) (A) (A) (A) (A) (A) (A) (A) (A) (A)
                 (A) (A) (A) (A) (A) (A) (A) (A) (A) (A) (A) (A)
                 (A) (A) (A) (A) (A) (A) (A) (A) (A) (A) (A) (A)
                 (A) (A) (A) (A) (A) (A) (A) (A) (A) (A) (A) (A)
                 (A) (A) (A) (A) (A) (A) (A) (A) (A) (A) (A) (A)
                 (A) (A) (A) (A) (A) (A) (A) (A) (A) (A) (A) (A)
                 (A) (A) (A) (A) (A) (A) (A) (A) (A) (A) (A) (A)
                 (A) (A) (A) (A) (A) (A) (A) (A) (A) (A) (A) (A)
                 (A) (A) (A) (A) (A) (A) (A) (A) (A) (A) (A) (A)
                 (A) (A) (A) (A) (A) (A) (A) (A) (A) (A) (A) (A)
                 (A) (A) (A) (A) (A) (A) (A) (A) (A) (A) (A) (A)
                 (A) (A) (A) (A) (A) (A) (A) (A) (A) (A) (A) (A)
                 (A) (A) (A) (A) (A) (A) (A) (A) (A) (A) (A) (A)
                 (A) (A) (A) (A) (A) (A) (A) (A) (A) (A) (A) (A)
                 (A) (A) (A) (A) (A) (A) (A) (A) (A) (A) (A) (A)
                 (A) (A) (A) (A) (A) (A) (A) (A) (A) (A) (A) (A)
                 (A) (A) (A) (A) (A) (A) (A) (A) (A)
 The electronic state is 1-A.
 Alpha  occ. eigenvalues --  -10.51850 -10.51784 -10.51737 -10.51731 -10.51711
 Alpha  occ. eigenvalues --  -10.51698 -10.51683 -10.51663 -10.51036 -10.50973
 Alpha  occ. eigenvalues --   -0.92138  -0.90504  -0.87632  -0.83765  -0.78970
 Alpha  occ. eigenvalues --   -0.73738  -0.68851  -0.66343  -0.65739  -0.65606
 Alpha  occ. eigenvalues --   -0.56245  -0.54740  -0.52235  -0.50717  -0.49825
 Alpha  occ. eigenvalues --   -0.49090  -0.48572  -0.45870  -0.45536  -0.44961
 Alpha  occ. eigenvalues --   -0.42502  -0.42349  -0.40184  -0.39946  -0.39567
 Alpha  occ. eigenvalues --   -0.38950  -0.38614  -0.38272  -0.38256  -0.38042
 Alpha  occ. eigenvalues --   -0.35047
 Alpha virt. eigenvalues --   -0.02692  -0.02032  -0.01586  -0.01506  -0.00950
 Alpha virt. eigenvalues --   -0.00292  -0.00154   0.00617   0.01528   0.01819
 Alpha virt. eigenvalues --    0.01970   0.02671   0.03153   0.03412   0.03726
 Alpha virt. eigenvalues --    0.04292   0.04642   0.05055   0.05269   0.06402
 Alpha virt. eigenvalues --    0.06864   0.07233   0.08014   0.08239   0.08395
 Alpha virt. eigenvalues --    0.09693   0.09745   0.11030   0.11095   0.11224
 Alpha virt. eigenvalues --    0.11831   0.12168   0.12367   0.12600   0.12856
 Alpha virt. eigenvalues --    0.13202   0.13262   0.13467   0.13667   0.14191
 Alpha virt. eigenvalues --    0.14359   0.14467   0.14733   0.15607   0.15692
 Alpha virt. eigenvalues --    0.16401   0.17091   0.17223   0.17688   0.18341
 Alpha virt. eigenvalues --    0.18437   0.18546   0.18660   0.18861   0.19319
 Alpha virt. eigenvalues --    0.19668   0.20231   0.20380   0.21490   0.21598
 Alpha virt. eigenvalues --    0.21919   0.23384   0.23734   0.23817   0.24417
 Alpha virt. eigenvalues --    0.25550   0.25786   0.26205   0.26473   0.26569
 Alpha virt. eigenvalues --    0.27323   0.28104   0.28483   0.29538   0.30327
 Alpha virt. eigenvalues --    0.30598   0.31424   0.31848   0.32262   0.32695
 Alpha virt. eigenvalues --    0.32854   0.33496   0.33602   0.33690   0.34655
 Alpha virt. eigenvalues --    0.35267   0.36971   0.37802   0.38247   0.38440
 Alpha virt. eigenvalues --    0.39382   0.40309   0.41208   0.42674   0.45815
 Alpha virt. eigenvalues --    0.46016   0.47183   0.47610   0.47633   0.48475
 Alpha virt. eigenvalues --    0.50410   0.51724   0.53519   0.56016   0.57054
 Alpha virt. eigenvalues --    0.57511   0.59411   0.59994   0.61772   0.62155
 Alpha virt. eigenvalues --    0.64539   0.67726   0.68066   0.68421   0.68566
 Alpha virt. eigenvalues --    0.69160   0.69870   0.70563   0.71105   0.71193
 Alpha virt. eigenvalues --    0.71280   0.72585   0.72628   0.72849   0.73110
 Alpha virt. eigenvalues --    0.73715   0.73841   0.74856   0.75517   0.76851
 Alpha virt. eigenvalues --    0.77136   0.77225   0.77865   0.78099   0.78160
 Alpha virt. eigenvalues --    0.78683   0.79897   0.80204   0.80303   0.80969
 Alpha virt. eigenvalues --    0.81504   0.81792   0.84955   0.85579   0.87523
 Alpha virt. eigenvalues --    0.88018   0.97775   0.99771   0.99967   1.01734
 Alpha virt. eigenvalues --    1.03333   1.03700   1.05063   1.05684   1.07076
 Alpha virt. eigenvalues --    1.08010   1.11634   1.14434   1.15462   1.23878
 Alpha virt. eigenvalues --    1.27759   1.28286   1.28754   1.29611   1.30420
 Alpha virt. eigenvalues --    1.31124   1.31817   1.32362   1.32492   1.35292
 Alpha virt. eigenvalues --    1.42007   1.49830   1.49854   1.50094   1.50443
 Alpha virt. eigenvalues --    1.53014   1.54256   1.56885   1.58523   1.59305
 Alpha virt. eigenvalues --    1.59707   1.61004   1.61254   1.61975   1.62503
 Alpha virt. eigenvalues --    1.62683   1.63093   1.64448   1.65425   1.66075
 Alpha virt. eigenvalues --    1.66598   1.67024   1.67125   1.68578   1.69083
 Alpha virt. eigenvalues --    1.70554   1.70711   1.70890   1.72909   1.74350
 Alpha virt. eigenvalues --    1.75231   1.76664   1.76896   1.77305   1.77512
 Alpha virt. eigenvalues --    1.78468   1.79018   1.80068   1.81907   1.85386
 Alpha virt. eigenvalues --    1.87900   1.88341   1.88532   1.90935   1.91191
 Alpha virt. eigenvalues --    1.91713   1.93583   1.94058   1.97452   2.02447
 Alpha virt. eigenvalues --    2.02955   2.08035   2.08909   2.10934   2.11565
 Alpha virt. eigenvalues --    2.15328   2.16246   2.18607   2.19405   2.22551
 Alpha virt. eigenvalues --    2.23038   2.24045   2.26307   2.27007   2.27608
 Alpha virt. eigenvalues --    2.28126   2.30161   2.33780   2.34162   2.37631
 Alpha virt. eigenvalues --    2.39085   2.39277   2.41199   2.42404   2.43882
 Alpha virt. eigenvalues --    2.44882   2.47188   2.48171   2.49119   2.49311
 Alpha virt. eigenvalues --    2.50333   2.51865   2.52576   2.54715   2.55160
 Alpha virt. eigenvalues --    2.56335   2.58370   2.59111   2.59775   2.60070
 Alpha virt. eigenvalues --    2.61327   2.62577   2.62991   2.64264   2.64697
 Alpha virt. eigenvalues --    2.65553   2.67110   2.67971   2.68532   2.69203
 Alpha virt. eigenvalues --    2.70137   2.72669   2.73056   2.73811   2.74937
 Alpha virt. eigenvalues --    2.75919   2.76842   2.78513   2.78925   2.80236
 Alpha virt. eigenvalues --    2.81744   2.82417   2.84560   2.86910   2.87311
 Alpha virt. eigenvalues --    2.90604   2.92755   2.92929   2.94163   2.94280
 Alpha virt. eigenvalues --    2.96353   2.97877   3.01361   3.09229   3.12810
 Alpha virt. eigenvalues --    3.15280   3.19434   3.28587   3.37945   3.45150
 Alpha virt. eigenvalues --    3.50829   3.55848   3.80633   3.81143   3.82710
 Alpha virt. eigenvalues --    3.83487   3.85193   3.85267   3.85490   3.85830
 Alpha virt. eigenvalues --    3.86752   3.90017   3.94065   3.97648   4.10832
 Alpha virt. eigenvalues --    4.13598   4.16648   4.21523   4.27735   4.34421
 Alpha virt. eigenvalues --    4.40829   4.44330   4.48318  23.94541  23.95170
 Alpha virt. eigenvalues --   23.95638  23.96115  23.96222  23.97791  23.98713
 Alpha virt. eigenvalues --   23.99415  24.04532  24.04604
          Condensed to atoms (all electrons):
               1          2          3          4          5          6
     1  C    8.842563  -1.172262  -0.449216  -0.215259   0.099934  -0.655812
     2  C   -1.172262   8.906816  -0.309529  -0.436406  -0.666688   0.216309
     3  C   -0.449216  -0.309529   8.069549  -0.665132  -0.187722  -0.520552
     4  C   -0.215259  -0.436406  -0.665132   8.153037  -0.515739  -0.422820
     5  C    0.099934  -0.666688  -0.187722  -0.515739   7.653109  -0.123260
     6  C   -0.655812   0.216309  -0.520552  -0.422820  -0.123260   7.851030
     7  C   -0.401371  -0.501269   0.014972  -0.104634  -0.659172  -0.031686
     8  C   -0.487751  -0.425062  -0.109777   0.063574  -0.031751  -0.756415
     9  C   -0.191517  -0.048291  -0.173751  -0.017358   0.236823  -0.002783
    10  C   -0.040178  -0.157746  -0.015625  -0.194629  -0.002360   0.279259
    11  H    0.515811  -0.044956  -0.159891   0.062071  -0.031045   0.027290
    12  H    0.529597  -0.114860  -0.097594   0.007180   0.027285   0.008565
    13  H   -0.106968   0.517685   0.007490  -0.082411   0.006011   0.013673
    14  H   -0.051015   0.518864   0.073689  -0.183408   0.032035  -0.023042
    15  H   -0.066800   0.079536   0.477042   0.023512  -0.151319   0.005472
    16  H   -0.083989  -0.017435   0.508217   0.016282  -0.090270  -0.005557
    17  H    0.060301  -0.073423   0.016762   0.479392   0.003585  -0.123023
    18  H    0.003569  -0.094927   0.021953   0.526060  -0.004700  -0.129205
    19  H    0.017058   0.011708  -0.077644  -0.004679   0.479494   0.000338
    20  H    0.009332  -0.004635  -0.091601  -0.002875   0.501101  -0.001902
    21  H    0.007040  -0.002584  -0.011376  -0.078998  -0.001096   0.495212
    22  H   -0.001241   0.030351   0.003296  -0.099734  -0.000549   0.494304
    23  H    0.001797   0.004510   0.016277  -0.000444  -0.069249   0.000553
    24  H    0.008819   0.008610   0.008829   0.001250  -0.067204   0.000434
    25  H    0.008600  -0.000393  -0.000613   0.031816   0.000518  -0.087812
    26  H    0.005017   0.013469   0.002057  -0.007069   0.000558  -0.049348
    27  H    0.001455  -0.003066   0.019916  -0.000632   0.059328  -0.000122
    28  H   -0.001565  -0.000986  -0.016888   0.000452  -0.040574   0.000024
    29  H   -0.007787  -0.002435  -0.023231  -0.000053  -0.038882  -0.000009
    30  H   -0.003143   0.000468  -0.000679   0.021027  -0.000131   0.056118
    31  H   -0.001107  -0.007578  -0.000016  -0.017469   0.000037  -0.046761
    32  H   -0.002459  -0.002209   0.000333  -0.023601  -0.000026  -0.032424
               7          8          9         10         11         12
     1  C   -0.401371  -0.487751  -0.191517  -0.040178   0.515811   0.529597
     2  C   -0.501269  -0.425062  -0.048291  -0.157746  -0.044956  -0.114860
     3  C    0.014972  -0.109777  -0.173751  -0.015625  -0.159891  -0.097594
     4  C   -0.104634   0.063574  -0.017358  -0.194629   0.062071   0.007180
     5  C   -0.659172  -0.031751   0.236823  -0.002360  -0.031045   0.027285
     6  C   -0.031686  -0.756415  -0.002783   0.279259   0.027290   0.008565
     7  C    7.446720  -0.004206  -0.161094  -0.000214  -0.011945  -0.004162
     8  C   -0.004206   7.558430  -0.000240  -0.199437  -0.000911  -0.002876
     9  C   -0.161094  -0.000240   6.150601  -0.000011  -0.006325  -0.002709
    10  C   -0.000214  -0.199437  -0.000011   6.114532   0.001087   0.000688
    11  H   -0.011945  -0.000911  -0.006325   0.001087   0.592106  -0.100271
    12  H   -0.004162  -0.002876  -0.002709   0.000688  -0.100271   0.582977
    13  H   -0.003242   0.002598   0.000613  -0.002594   0.011848  -0.025495
    14  H    0.000627  -0.019368   0.001350  -0.006020  -0.022145   0.012046
    15  H   -0.009689   0.000832  -0.008114   0.000200   0.010322  -0.017925
    16  H    0.024850   0.001108  -0.000582   0.000178  -0.020635   0.010796
    17  H    0.001267  -0.010288   0.000185  -0.004847   0.010399  -0.015423
    18  H    0.000750   0.026563   0.000223  -0.003255  -0.016114   0.011080
    19  H   -0.078589   0.000056   0.007997  -0.000031  -0.014848   0.010571
    20  H   -0.066959   0.000135   0.017037  -0.000054   0.011226  -0.014132
    21  H   -0.000129  -0.066225  -0.000070   0.013278   0.005039  -0.002252
    22  H    0.000264  -0.082434  -0.000027   0.011361  -0.002018   0.005389
    23  H    0.460207  -0.000008  -0.070032   0.000002  -0.001147   0.003291
    24  H    0.446022   0.000021  -0.060502  -0.000001   0.003505  -0.001187
    25  H   -0.000026   0.464532   0.000001  -0.073739   0.000516  -0.000203
    26  H    0.000048   0.436141   0.000002  -0.054152  -0.000189   0.000337
    27  H   -0.050419  -0.000011   0.330225  -0.000000  -0.000142  -0.000037
    28  H   -0.006167   0.000002   0.421996   0.000001  -0.000057   0.000246
    29  H   -0.001685  -0.000003   0.429042   0.000000   0.000560  -0.000009
    30  H   -0.000012  -0.050546  -0.000001   0.332660  -0.000027  -0.000029
    31  H   -0.000001   0.004856   0.000001   0.422467  -0.000039   0.000015
    32  H    0.000001  -0.008431   0.000000   0.425536   0.000002  -0.000056
              13         14         15         16         17         18
     1  C   -0.106968  -0.051015  -0.066800  -0.083989   0.060301   0.003569
     2  C    0.517685   0.518864   0.079536  -0.017435  -0.073423  -0.094927
     3  C    0.007490   0.073689   0.477042   0.508217   0.016762   0.021953
     4  C   -0.082411  -0.183408   0.023512   0.016282   0.479392   0.526060
     5  C    0.006011   0.032035  -0.151319  -0.090270   0.003585  -0.004700
     6  C    0.013673  -0.023042   0.005472  -0.005557  -0.123023  -0.129205
     7  C   -0.003242   0.000627  -0.009689   0.024850   0.001267   0.000750
     8  C    0.002598  -0.019368   0.000832   0.001108  -0.010288   0.026563
     9  C    0.000613   0.001350  -0.008114  -0.000582   0.000185   0.000223
    10  C   -0.002594  -0.006020   0.000200   0.000178  -0.004847  -0.003255
    11  H    0.011848  -0.022145   0.010322  -0.020635   0.010399  -0.016114
    12  H   -0.025495   0.012046  -0.017925   0.010796  -0.015423   0.011080
    13  H    0.578155  -0.100742  -0.015479   0.011741  -0.021840   0.012932
    14  H   -0.100742   0.598857   0.010673  -0.017591   0.012563  -0.020867
    15  H   -0.015479   0.010673   0.571334  -0.091786   0.004584  -0.002312
    16  H    0.011741  -0.017591  -0.091786   0.572407  -0.002195   0.004772
    17  H   -0.021840   0.012563   0.004584  -0.002195   0.578079  -0.098031
    18  H    0.012932  -0.020867  -0.002312   0.004772  -0.098031   0.590189
    19  H   -0.002351   0.005276   0.012668  -0.021309   0.000395   0.000341
    20  H    0.005700  -0.002347  -0.024011   0.011514   0.000152   0.000287
    21  H    0.009160  -0.013977   0.000469   0.000541   0.014157  -0.023549
    22  H   -0.011271   0.010136   0.000055   0.000068  -0.026779   0.013101
    23  H   -0.000255   0.000681  -0.004136   0.002833  -0.000148   0.000035
    24  H    0.000284  -0.000290   0.004285  -0.003072   0.000040  -0.000123
    25  H    0.002834  -0.001015  -0.000122   0.000048  -0.002983   0.002527
    26  H   -0.001165   0.003506   0.000038  -0.000156   0.003890  -0.002768
    27  H   -0.000027  -0.000024   0.000174   0.000913   0.000005  -0.000000
    28  H   -0.000063  -0.000014   0.001757  -0.000197   0.000012  -0.000011
    29  H    0.000017  -0.000020  -0.000327   0.001121  -0.000017  -0.000007
    30  H    0.000000  -0.000167   0.000004  -0.000000   0.000253   0.000804
    31  H    0.000017   0.000474  -0.000019   0.000004  -0.000322   0.001257
    32  H    0.000299  -0.000093   0.000007  -0.000010   0.001570  -0.000152
              19         20         21         22         23         24
     1  C    0.017058   0.009332   0.007040  -0.001241   0.001797   0.008819
     2  C    0.011708  -0.004635  -0.002584   0.030351   0.004510   0.008610
     3  C   -0.077644  -0.091601  -0.011376   0.003296   0.016277   0.008829
     4  C   -0.004679  -0.002875  -0.078998  -0.099734  -0.000444   0.001250
     5  C    0.479494   0.501101  -0.001096  -0.000549  -0.069249  -0.067204
     6  C    0.000338  -0.001902   0.495212   0.494304   0.000553   0.000434
     7  C   -0.078589  -0.066959  -0.000129   0.000264   0.460207   0.446022
     8  C    0.000056   0.000135  -0.066225  -0.082434  -0.000008   0.000021
     9  C    0.007997   0.017037  -0.000070  -0.000027  -0.070032  -0.060502
    10  C   -0.000031  -0.000054   0.013278   0.011361   0.000002  -0.000001
    11  H   -0.014848   0.011226   0.005039  -0.002018  -0.001147   0.003505
    12  H    0.010571  -0.014132  -0.002252   0.005389   0.003291  -0.001187
    13  H   -0.002351   0.005700   0.009160  -0.011271  -0.000255   0.000284
    14  H    0.005276  -0.002347  -0.013977   0.010136   0.000681  -0.000290
    15  H    0.012668  -0.024011   0.000469   0.000055  -0.004136   0.004285
    16  H   -0.021309   0.011514   0.000541   0.000068   0.002833  -0.003072
    17  H    0.000395   0.000152   0.014157  -0.026779  -0.000148   0.000040
    18  H    0.000341   0.000287  -0.023549   0.013101   0.000035  -0.000123
    19  H    0.575388  -0.094467  -0.000218   0.000068   0.010006  -0.020333
    20  H   -0.094467   0.571163   0.000069  -0.000255  -0.018811   0.009853
    21  H   -0.000218   0.000069   0.587240  -0.097826  -0.000052   0.000030
    22  H    0.000068  -0.000255  -0.097826   0.576019   0.000039  -0.000032
    23  H    0.010006  -0.018811  -0.000052   0.000039   0.557087  -0.074733
    24  H   -0.020333   0.009853   0.000030  -0.000032  -0.074733   0.550280
    25  H   -0.000048   0.000036   0.010401  -0.019133  -0.000001   0.000002
    26  H    0.000033  -0.000037  -0.021780   0.010816   0.000002  -0.000003
    27  H   -0.001417  -0.000589   0.000000   0.000001  -0.003218  -0.003415
    28  H    0.002700   0.000244   0.000004  -0.000003  -0.023218   0.012627
    29  H   -0.000424   0.001400  -0.000004   0.000003   0.013262  -0.022684
    30  H    0.000001   0.000000  -0.001230  -0.000825   0.000000   0.000000
    31  H   -0.000004   0.000003   0.000581   0.001149   0.000000  -0.000000
    32  H    0.000003  -0.000003   0.002546  -0.000103  -0.000000  -0.000000
              25         26         27         28         29         30
     1  C    0.008600   0.005017   0.001455  -0.001565  -0.007787  -0.003143
     2  C   -0.000393   0.013469  -0.003066  -0.000986  -0.002435   0.000468
     3  C   -0.000613   0.002057   0.019916  -0.016888  -0.023231  -0.000679
     4  C    0.031816  -0.007069  -0.000632   0.000452  -0.000053   0.021027
     5  C    0.000518   0.000558   0.059328  -0.040574  -0.038882  -0.000131
     6  C   -0.087812  -0.049348  -0.000122   0.000024  -0.000009   0.056118
     7  C   -0.000026   0.000048  -0.050419  -0.006167  -0.001685  -0.000012
     8  C    0.464532   0.436141  -0.000011   0.000002  -0.000003  -0.050546
     9  C    0.000001   0.000002   0.330225   0.421996   0.429042  -0.000001
    10  C   -0.073739  -0.054152  -0.000000   0.000001   0.000000   0.332660
    11  H    0.000516  -0.000189  -0.000142  -0.000057   0.000560  -0.000027
    12  H   -0.000203   0.000337  -0.000037   0.000246  -0.000009  -0.000029
    13  H    0.002834  -0.001165  -0.000027  -0.000063   0.000017   0.000000
    14  H   -0.001015   0.003506  -0.000024  -0.000014  -0.000020  -0.000167
    15  H   -0.000122   0.000038   0.000174   0.001757  -0.000327   0.000004
    16  H    0.000048  -0.000156   0.000913  -0.000197   0.001121  -0.000000
    17  H   -0.002983   0.003890   0.000005   0.000012  -0.000017   0.000253
    18  H    0.002527  -0.002768  -0.000000  -0.000011  -0.000007   0.000804
    19  H   -0.000048   0.000033  -0.001417   0.002700  -0.000424   0.000001
    20  H    0.000036  -0.000037  -0.000589   0.000244   0.001400   0.000000
    21  H    0.010401  -0.021780   0.000000   0.000004  -0.000004  -0.001230
    22  H   -0.019133   0.010816   0.000001  -0.000003   0.000003  -0.000825
    23  H   -0.000001   0.000002  -0.003218  -0.023218   0.013262   0.000000
    24  H    0.000002  -0.000003  -0.003415   0.012627  -0.022684   0.000000
    25  H    0.553882  -0.074345   0.000000  -0.000000   0.000000  -0.003558
    26  H   -0.074345   0.552232   0.000000  -0.000000  -0.000000  -0.003272
    27  H    0.000000   0.000000   0.474850  -0.022530  -0.021456  -0.000000
    28  H   -0.000000  -0.000000  -0.022530   0.558516  -0.071333   0.000000
    29  H    0.000000  -0.000000  -0.021456  -0.071333   0.559608  -0.000000
    30  H   -0.003558  -0.003272  -0.000000   0.000000  -0.000000   0.473789
    31  H    0.013345  -0.022919  -0.000000  -0.000000   0.000000  -0.020975
    32  H   -0.022470   0.012334  -0.000000   0.000000  -0.000000  -0.022708
              31         32
     1  C   -0.001107  -0.002459
     2  C   -0.007578  -0.002209
     3  C   -0.000016   0.000333
     4  C   -0.017469  -0.023601
     5  C    0.000037  -0.000026
     6  C   -0.046761  -0.032424
     7  C   -0.000001   0.000001
     8  C    0.004856  -0.008431
     9  C    0.000001   0.000000
    10  C    0.422467   0.425536
    11  H   -0.000039   0.000002
    12  H    0.000015  -0.000056
    13  H    0.000017   0.000299
    14  H    0.000474  -0.000093
    15  H   -0.000019   0.000007
    16  H    0.000004  -0.000010
    17  H   -0.000322   0.001570
    18  H    0.001257  -0.000152
    19  H   -0.000004   0.000003
    20  H    0.000003  -0.000003
    21  H    0.000581   0.002546
    22  H    0.001149  -0.000103
    23  H    0.000000  -0.000000
    24  H   -0.000000  -0.000000
    25  H    0.013345  -0.022470
    26  H   -0.022919   0.012334
    27  H   -0.000000  -0.000000
    28  H   -0.000000   0.000000
    29  H    0.000000  -0.000000
    30  H   -0.020975  -0.022708
    31  H    0.558498  -0.071120
    32  H   -0.071120   0.558301
 Mulliken charges:
               1
     1  C   -0.171450
     2  C   -0.221585
     3  C   -0.329542
     4  C   -0.312302
     5  C   -0.418079
     6  C   -0.436048
     7  C   -0.299054
     8  C   -0.303109
     9  C   -0.852688
    10  C   -0.846354
    11  H    0.180923
    12  H    0.189156
    13  H    0.192846
    14  H    0.181367
    15  H    0.189075
    16  H    0.187391
    17  H    0.191729
    18  H    0.179579
    19  H    0.182262
    20  H    0.183427
    21  H    0.175599
    22  H    0.185814
    23  H    0.194871
    24  H    0.198691
    25  H    0.197402
    26  H    0.196722
    27  H    0.220238
    28  H    0.185027
    29  H    0.185352
    30  H    0.222179
    31  H    0.185626
    32  H    0.184934
 Sum of Mulliken charges =  -0.00000
 Mulliken charges with hydrogens summed into heavy atoms:
               1
     1  C    0.198629
     2  C    0.152628
     3  C    0.046924
     4  C    0.059006
     5  C   -0.052391
     6  C   -0.074635
     7  C    0.094508
     8  C    0.091016
     9  C   -0.262071
    10  C   -0.253615
 Electronic spatial extent (au):  <R**2>=           4457.5905
 Charge=             -0.0000 electrons
 Dipole moment (field-independent basis, Debye):
    X=             -0.0053    Y=              0.0018    Z=              0.0021  Tot=              0.0060
 Quadrupole moment (field-independent basis, Debye-Ang):
   XX=            -71.5336   YY=            -70.7694   ZZ=            -68.0178
   XY=             -0.9935   XZ=              0.0125   YZ=             -0.0054
 Traceless Quadrupole moment (field-independent basis, Debye-Ang):
   XX=             -1.4267   YY=             -0.6624   ZZ=              2.0891
   XY=             -0.9935   XZ=              0.0125   YZ=             -0.0054
 Octapole moment (field-independent basis, Debye-Ang**2):
  XXX=              1.8414  YYY=              0.0132  ZZZ=              0.2394  XYY=             -0.1652
  XXY=              0.0272  XXZ=              0.2804  XZZ=             -0.0950  YZZ=             -0.0008
  YYZ=             -0.1399  XYZ=             -0.0827
 Hexadecapole moment (field-independent basis, Debye-Ang**3):
 XXXX=          -6116.6673 YYYY=           -259.5100 ZZZZ=           -151.9768 XXXY=            -66.0424
 XXXZ=              0.7911 YYYX=             -3.0080 YYYZ=             -0.0820 ZZZX=              0.2458
 ZZZY=             -0.0008 XXYY=          -1044.5375 XXZZ=          -1004.3680 YYZZ=            -60.9152
 XXYZ=              0.3088 YYXZ=             -0.0453 ZZXY=              3.0732
 N-N= 5.191180945025D+02 E-N=-1.949498388941D+03  KE= 3.920369227955D+02
 R6APFD:  NTU= -4 IXU= 1 FactS= 1.050
 Calling FoFJK, ICntrl=      2127 FMM=F ISym2X=0 I1Cent= 0 IOpClX= 0 NMat=1 NMatS=1 NMatT=0.
 ***** Axes restored to original set *****
 -------------------------------------------------------------------
 Center     Atomic                   Forces (Hartrees/Bohr)
 Number     Number              X              Y              Z
 -------------------------------------------------------------------
      1        6          -0.004190166   -0.006140467    0.000311532
      2        6           0.000197429    0.004175539   -0.000682697
      3        6          -0.003312944    0.010905509    0.000624367
      4        6          -0.000200946   -0.004119747   -0.000491125
      5        6          -0.000924255   -0.012860166   -0.000495417
      6        6           0.004313473    0.005978704   -0.000057203
      7        6           0.000117323    0.007192410    0.000796777
      8        6           0.003123050   -0.005249513    0.001181646
      9        6           0.003638508   -0.003157991   -0.000459982
     10        6          -0.002933431    0.003357704   -0.000398450
     11        1           0.000130340    0.002736303   -0.001932163
     12        1           0.000662602    0.002838516    0.001839992
     13        1          -0.000060688   -0.002966232    0.001993786
     14        1          -0.000167237   -0.002991196   -0.001956767
     15        1           0.000388621   -0.002669000    0.001691682
     16        1           0.000232682   -0.002604930   -0.001931824
     17        1          -0.000017257    0.002981708    0.001793081
     18        1           0.000235224    0.002881524   -0.002060234
     19        1          -0.000103294    0.002593033   -0.001718420
     20        1           0.000323664    0.002433560    0.001913954
     21        1          -0.000187246   -0.002858724   -0.001841796
     22        1          -0.000907789   -0.002749999    0.001981496
     23        1          -0.001941068   -0.002831323    0.001335432
     24        1          -0.001949884   -0.002621357   -0.001492751
     25        1           0.001467002    0.003000779    0.001338254
     26        1           0.001761624    0.002734040   -0.001534354
     27        1           0.003332866    0.001417122   -0.000026768
     28        1           0.000464544    0.001727982    0.001123380
     29        1           0.000445212    0.001915264   -0.000961326
     30        1          -0.003121111   -0.001369835   -0.000084362
     31        1          -0.000352832   -0.001902376   -0.000963515
     32        1          -0.000464013   -0.001776842    0.001163774
 -------------------------------------------------------------------
 Cartesian Forces:  Max     0.012860166 RMS     0.002903640

 GradGradGradGradGradGradGradGradGradGradGradGradGradGradGradGradGradGrad
 Berny optimization.
 FormGI is forming the generalized inverse of G from B-inverse, IUseBI=4.
 Internal  Forces:  Max     0.007615289 RMS     0.001707215
 Search for a local minimum.
 Step number   1 out of a maximum of  182
 All quantities printed in internal units (Hartrees-Bohrs-Radians)
 Mixed Optimization -- RFO/linear search
 Second derivative matrix not updated -- first step.
 ITU=  0
     Eigenvalues ---    0.00341   0.00342   0.00356   0.00364   0.00365
     Eigenvalues ---    0.00378   0.00388   0.00485   0.00495   0.03467
     Eigenvalues ---    0.03472   0.03473   0.03473   0.03679   0.03682
     Eigenvalues ---    0.03720   0.03724   0.04818   0.04818   0.04818
     Eigenvalues ---    0.04822   0.04879   0.04884   0.04925   0.04928
     Eigenvalues ---    0.05599   0.05607   0.05698   0.05702   0.08083
     Eigenvalues ---    0.08109   0.08140   0.08167   0.08417   0.08419
     Eigenvalues ---    0.08437   0.08440   0.12016   0.12035   0.12050
     Eigenvalues ---    0.12068   0.12267   0.12268   0.12281   0.12282
     Eigenvalues ---    0.16000   0.16000   0.16000   0.16000   0.16000
     Eigenvalues ---    0.16000   0.21897   0.21898   0.21905   0.21906
     Eigenvalues ---    0.21931   0.21931   0.21932   0.21933   0.29225
     Eigenvalues ---    0.29232   0.29335   0.29389   0.29392   0.29484
     Eigenvalues ---    0.29556   0.30246   0.30324   0.33991   0.34004
     Eigenvalues ---    0.34005   0.34007   0.34008   0.34009   0.34024
     Eigenvalues ---    0.34027   0.34033   0.34037   0.34041   0.34058
     Eigenvalues ---    0.34109   0.34113   0.34117   0.34127   0.34274
     Eigenvalues ---    0.34277   0.34283   0.34292   0.34295   0.34306
 RFO step:  Lambda=-2.52646543D-03 EMin= 3.40603719D-03
 Linear search not attempted -- first point.
 Iteration  1 RMS(Cart)=  0.03926037 RMS(Int)=  0.00035280
 Iteration  2 RMS(Cart)=  0.00092689 RMS(Int)=  0.00006606
 Iteration  3 RMS(Cart)=  0.00000022 RMS(Int)=  0.00006606
 Variable       Old X    -DE/DX   Delta X   Delta X   Delta X     New X
                                 (Linear)    (Quad)   (Total)
    R1        2.89522  -0.00184   0.00000  -0.00623  -0.00623   2.88898
    R2        2.89192  -0.00025   0.00000  -0.00086  -0.00086   2.89106
    R3        2.07322   0.00319   0.00000   0.00930   0.00930   2.08252
    R4        2.07316   0.00319   0.00000   0.00930   0.00930   2.08246
    R5        2.89309  -0.00170   0.00000  -0.00576  -0.00576   2.88733
    R6        2.07268   0.00333   0.00000   0.00971   0.00971   2.08239
    R7        2.07316   0.00340   0.00000   0.00991   0.00991   2.08307
    R8        2.89199   0.00050   0.00000   0.00168   0.00168   2.89367
    R9        2.07261   0.00297   0.00000   0.00865   0.00865   2.08126
   R10        2.07232   0.00308   0.00000   0.00897   0.00897   2.08129
   R11        2.89535  -0.00187   0.00000  -0.00634  -0.00634   2.88901
   R12        2.07290   0.00323   0.00000   0.00942   0.00942   2.08232
   R13        2.07319   0.00337   0.00000   0.00983   0.00983   2.08302
   R14        2.88858   0.00127   0.00000   0.00425   0.00425   2.89284
   R15        2.07285   0.00296   0.00000   0.00864   0.00864   2.08149
   R16        2.07274   0.00296   0.00000   0.00864   0.00864   2.08138
   R17        2.89004  -0.00031   0.00000  -0.00106  -0.00106   2.88898
   R18        2.07345   0.00323   0.00000   0.00943   0.00943   2.08288
   R19        2.07324   0.00323   0.00000   0.00942   0.00942   2.08266
   R20        2.87323   0.00762   0.00000   0.02491   0.02491   2.89813
   R21        2.07147   0.00279   0.00000   0.00813   0.00813   2.07960
   R22        2.07141   0.00272   0.00000   0.00793   0.00793   2.07933
   R23        2.87476   0.00666   0.00000   0.02183   0.02183   2.89660
   R24        2.07134   0.00289   0.00000   0.00841   0.00841   2.07975
   R25        2.07116   0.00285   0.00000   0.00829   0.00829   2.07945
   R26        2.06817   0.00186   0.00000   0.00537   0.00537   2.07354
   R27        2.06870   0.00190   0.00000   0.00551   0.00551   2.07421
   R28        2.06866   0.00196   0.00000   0.00568   0.00568   2.07434
   R29        2.06835   0.00172   0.00000   0.00497   0.00497   2.07332
   R30        2.06856   0.00195   0.00000   0.00564   0.00564   2.07419
   R31        2.06840   0.00197   0.00000   0.00570   0.00570   2.07410
    A1        1.97861  -0.00190   0.00000  -0.00690  -0.00689   1.97173
    A2        1.90298   0.00068   0.00000   0.00523   0.00524   1.90822
    A3        1.90197   0.00114   0.00000   0.00747   0.00746   1.90943
    A4        1.90361   0.00081   0.00000   0.00491   0.00492   1.90853
    A5        1.90963   0.00021   0.00000  -0.00128  -0.00126   1.90836
    A6        1.86355  -0.00089   0.00000  -0.00969  -0.00970   1.85385
    A7        1.97692  -0.00257   0.00000  -0.01003  -0.01002   1.96690
    A8        1.90730   0.00078   0.00000   0.00185   0.00184   1.90914
    A9        1.90185   0.00110   0.00000   0.00857   0.00859   1.91044
   A10        1.90794   0.00086   0.00000   0.00237   0.00237   1.91031
   A11        1.90264   0.00095   0.00000   0.00727   0.00729   1.90993
   A12        1.86380  -0.00104   0.00000  -0.01011  -0.01012   1.85368
   A13        1.94114   0.00459   0.00000   0.02520   0.02513   1.96627
   A14        1.91190  -0.00103   0.00000  -0.00080  -0.00083   1.91108
   A15        1.90988  -0.00103   0.00000  -0.00057  -0.00060   1.90928
   A16        1.91416  -0.00144   0.00000  -0.00582  -0.00592   1.90823
   A17        1.91461  -0.00141   0.00000  -0.00535  -0.00546   1.90915
   A18        1.87080   0.00015   0.00000  -0.01414  -0.01420   1.85660
   A19        1.97677  -0.00255   0.00000  -0.00992  -0.00991   1.96685
   A20        1.90792   0.00087   0.00000   0.00253   0.00252   1.91044
   A21        1.90281   0.00092   0.00000   0.00709   0.00711   1.90993
   A22        1.90738   0.00074   0.00000   0.00158   0.00158   1.90895
   A23        1.90173   0.00111   0.00000   0.00868   0.00870   1.91043
   A24        1.86385  -0.00104   0.00000  -0.01004  -0.01004   1.85381
   A25        1.94312   0.00542   0.00000   0.02908   0.02900   1.97212
   A26        1.91394  -0.00163   0.00000  -0.00520  -0.00528   1.90866
   A27        1.91117  -0.00126   0.00000  -0.00218  -0.00223   1.90895
   A28        1.91058  -0.00135   0.00000  -0.00326  -0.00333   1.90724
   A29        1.91376  -0.00173   0.00000  -0.00638  -0.00648   1.90728
   A30        1.86982   0.00033   0.00000  -0.01376  -0.01384   1.85598
   A31        1.97852  -0.00182   0.00000  -0.00651  -0.00650   1.97202
   A32        1.90341   0.00069   0.00000   0.00585   0.00585   1.90926
   A33        1.90198   0.00125   0.00000   0.00873   0.00872   1.91070
   A34        1.90341   0.00075   0.00000   0.00431   0.00432   1.90772
   A35        1.90985   0.00004   0.00000  -0.00294  -0.00293   1.90692
   A36        1.86317  -0.00087   0.00000  -0.00970  -0.00972   1.85345
   A37        1.94596   0.00295   0.00000   0.01790   0.01787   1.96383
   A38        1.91737  -0.00183   0.00000  -0.01377  -0.01406   1.90332
   A39        1.91744  -0.00181   0.00000  -0.01489  -0.01512   1.90232
   A40        1.90386   0.00052   0.00000   0.01429   0.01437   1.91823
   A41        1.90613   0.00033   0.00000   0.01141   0.01151   1.91763
   A42        1.87150  -0.00026   0.00000  -0.01594  -0.01625   1.85525
   A43        1.94383   0.00205   0.00000   0.01360   0.01358   1.95740
   A44        1.91566  -0.00124   0.00000  -0.00941  -0.00961   1.90606
   A45        1.91632  -0.00145   0.00000  -0.01219  -0.01236   1.90396
   A46        1.90698   0.00047   0.00000   0.01191   0.01195   1.91893
   A47        1.90748   0.00054   0.00000   0.01133   0.01140   1.91888
   A48        1.87213  -0.00046   0.00000  -0.01618  -0.01638   1.85575
   A49        1.92443   0.00448   0.00000   0.03190   0.03179   1.95622
   A50        1.93739   0.00000   0.00000  -0.00221  -0.00228   1.93511
   A51        1.93717   0.00008   0.00000  -0.00169  -0.00177   1.93539
   A52        1.88632  -0.00185   0.00000  -0.00727  -0.00737   1.87895
   A53        1.88653  -0.00189   0.00000  -0.00742  -0.00753   1.87899
   A54        1.89034  -0.00101   0.00000  -0.01436  -0.01440   1.87594
   A55        1.92399   0.00426   0.00000   0.03050   0.03040   1.95439
   A56        1.93729   0.00003   0.00000  -0.00199  -0.00206   1.93523
   A57        1.93736   0.00003   0.00000  -0.00200  -0.00207   1.93529
   A58        1.88647  -0.00176   0.00000  -0.00670  -0.00679   1.87967
   A59        1.88641  -0.00176   0.00000  -0.00667  -0.00677   1.87964
   A60        1.89068  -0.00098   0.00000  -0.01413  -0.01417   1.87651
    D1       -3.08769  -0.00039   0.00000  -0.02550  -0.02550  -3.11319
    D2        1.06385  -0.00030   0.00000  -0.02304  -0.02305   1.04081
    D3       -0.96676  -0.00010   0.00000  -0.01677  -0.01678  -0.98355
    D4       -0.96358  -0.00014   0.00000  -0.02008  -0.02008  -0.98365
    D5       -3.09522  -0.00005   0.00000  -0.01762  -0.01763  -3.11285
    D6        1.15734   0.00015   0.00000  -0.01135  -0.01136   1.14598
    D7        1.06441  -0.00020   0.00000  -0.02462  -0.02460   1.03981
    D8       -1.06723  -0.00011   0.00000  -0.02216  -0.02215  -1.08938
    D9       -3.09785   0.00009   0.00000  -0.01589  -0.01588  -3.11374
   D10       -3.13253  -0.00003   0.00000   0.00155   0.00154  -3.13099
   D11       -1.01366   0.00046   0.00000   0.01016   0.01018  -1.00349
   D12        1.03257  -0.00055   0.00000  -0.00774  -0.00777   1.02481
   D13        1.02690  -0.00021   0.00000  -0.00406  -0.00406   1.02284
   D14       -3.13742   0.00029   0.00000   0.00456   0.00458  -3.13284
   D15       -1.09119  -0.00073   0.00000  -0.01334  -0.01336  -1.10455
   D16       -1.00571   0.00028   0.00000   0.00551   0.00551  -1.00020
   D17        1.11315   0.00078   0.00000   0.01412   0.01415   1.12730
   D18       -3.12380  -0.00024   0.00000  -0.00377  -0.00379  -3.12759
   D19        3.09866   0.00047   0.00000   0.02954   0.02953   3.12819
   D20       -1.05326   0.00033   0.00000   0.02663   0.02662  -1.02663
   D21        0.97831   0.00009   0.00000   0.02000   0.02000   0.99831
   D22       -1.05324   0.00034   0.00000   0.02678   0.02678  -1.02646
   D23        1.07803   0.00019   0.00000   0.02387   0.02387   1.10190
   D24        3.10960  -0.00004   0.00000   0.01725   0.01725   3.12684
   D25        0.97818   0.00010   0.00000   0.02008   0.02008   0.99827
   D26        3.10945  -0.00004   0.00000   0.01717   0.01717   3.12662
   D27       -1.14217  -0.00028   0.00000   0.01055   0.01055  -1.13162
   D28       -3.11450  -0.00012   0.00000  -0.00737  -0.00736  -3.12186
   D29       -0.99747   0.00063   0.00000   0.00408   0.00408  -0.99339
   D30        1.04952  -0.00065   0.00000  -0.01689  -0.01691   1.03261
   D31        1.05114  -0.00086   0.00000  -0.01896  -0.01892   1.03222
   D32       -3.11501  -0.00011   0.00000  -0.00750  -0.00748  -3.12250
   D33       -1.06803  -0.00139   0.00000  -0.02848  -0.02847  -1.09650
   D34       -0.99918   0.00063   0.00000   0.00480   0.00479  -0.99439
   D35        1.11785   0.00139   0.00000   0.01625   0.01623   1.13408
   D36       -3.11835   0.00011   0.00000  -0.00472  -0.00476  -3.12311
   D37       -3.08789  -0.00041   0.00000  -0.02596  -0.02596  -3.11385
   D38       -0.96379  -0.00017   0.00000  -0.02061  -0.02061  -0.98440
   D39        1.06398  -0.00013   0.00000  -0.02411  -0.02410   1.03988
   D40        1.06373  -0.00033   0.00000  -0.02358  -0.02359   1.04014
   D41       -3.09536  -0.00009   0.00000  -0.01823  -0.01824  -3.11360
   D42       -1.06759  -0.00006   0.00000  -0.02174  -0.02173  -1.08931
   D43       -0.96693  -0.00013   0.00000  -0.01731  -0.01732  -0.98425
   D44        1.15717   0.00011   0.00000  -0.01196  -0.01197   1.14520
   D45       -3.09824   0.00015   0.00000  -0.01547  -0.01546  -3.11370
   D46       -3.11772  -0.00020   0.00000  -0.00977  -0.00976  -3.12748
   D47       -1.00496   0.00116   0.00000   0.01070   0.01057  -0.99439
   D48        1.04980  -0.00134   0.00000  -0.02588  -0.02572   1.02408
   D49        1.04647  -0.00078   0.00000  -0.02003  -0.02003   1.02644
   D50       -3.12396   0.00058   0.00000   0.00045   0.00030  -3.12365
   D51       -1.06920  -0.00192   0.00000  -0.03613  -0.03599  -1.10518
   D52       -1.00006   0.00061   0.00000   0.00225   0.00224  -0.99782
   D53        1.11270   0.00197   0.00000   0.02273   0.02257   1.13527
   D54       -3.11573  -0.00053   0.00000  -0.01385  -0.01372  -3.12945
   D55       -3.13224  -0.00009   0.00000  -0.00201  -0.00202  -3.13426
   D56       -1.01810   0.00102   0.00000   0.01555   0.01546  -1.00264
   D57        1.03574  -0.00114   0.00000  -0.01700  -0.01691   1.01883
   D58        1.02685  -0.00030   0.00000  -0.00823  -0.00823   1.01861
   D59        3.14099   0.00081   0.00000   0.00933   0.00924  -3.13296
   D60       -1.08836  -0.00135   0.00000  -0.02322  -0.02312  -1.11148
   D61       -1.00532   0.00030   0.00000   0.00263   0.00263  -1.00269
   D62        1.10882   0.00141   0.00000   0.02019   0.02011   1.12893
   D63       -3.12052  -0.00075   0.00000  -0.01236  -0.01226  -3.13278
   D64       -3.14068   0.00004   0.00000   0.00236   0.00237  -3.13831
   D65        1.05265  -0.00057   0.00000  -0.00797  -0.00797   1.04468
   D66       -1.05070   0.00065   0.00000   0.01281   0.01285  -1.03786
   D67        1.02188   0.00007   0.00000  -0.00157  -0.00164   1.02024
   D68       -1.06798  -0.00053   0.00000  -0.01190  -0.01198  -1.07996
   D69        3.11186   0.00069   0.00000   0.00888   0.00883   3.12069
   D70       -1.01844  -0.00009   0.00000   0.00302   0.00307  -1.01537
   D71       -3.10830  -0.00069   0.00000  -0.00731  -0.00727  -3.11556
   D72        1.07154   0.00052   0.00000   0.01347   0.01355   1.08509
   D73       -3.14151   0.00008   0.00000   0.00233   0.00233  -3.13918
   D74       -1.05182   0.00068   0.00000   0.01259   0.01260  -1.03922
   D75        1.05201  -0.00052   0.00000  -0.00796  -0.00797   1.04405
   D76        1.02247  -0.00001   0.00000  -0.00269  -0.00273   1.01974
   D77        3.11216   0.00059   0.00000   0.00757   0.00754   3.11970
   D78       -1.06719  -0.00062   0.00000  -0.01297  -0.01303  -1.08022
   D79       -1.02115  -0.00004   0.00000   0.00350   0.00354  -1.01761
   D80        1.06853   0.00056   0.00000   0.01376   0.01381   1.08234
   D81       -3.11081  -0.00064   0.00000  -0.00679  -0.00676  -3.11758
         Item               Value     Threshold  Converged?
 Maximum Force            0.007615     0.000450     NO 
 RMS     Force            0.001707     0.000300     NO 
 Maximum Displacement     0.155548     0.001800     NO 
 RMS     Displacement     0.039482     0.001200     NO 
 Predicted change in Energy=-1.300119D-03
 GradGradGradGradGradGradGradGradGradGradGradGradGradGradGradGradGradGrad

                          Input orientation:                          
 ---------------------------------------------------------------------
 Center     Atomic      Atomic             Coordinates (Angstroms)
 Number     Number       Type             X           Y           Z
 ---------------------------------------------------------------------
      1          6           0        0.643189    0.402523    0.024769
      2          6           0       -0.650413   -0.412062    0.039821
      3          6           0        1.898832   -0.471287    0.005675
      4          6           0       -1.900441    0.466291    0.018813
      5          6           0        3.190217    0.351570    0.005665
      6          6           0       -3.193909   -0.348662    0.014969
      7          6           0        4.451376   -0.514861   -0.041197
      8          6           0       -4.448514    0.522851   -0.045057
      9          6           0        5.738155    0.319280   -0.020799
     10          6           0       -5.733542   -0.312710   -0.037581
     11          1           0        0.646459    1.065774   -0.855309
[...]
 1531017,-0.02078092,-0.00329317,-0.13166327,0.22784806,-0.00041998,-0.
 00065638,0.00000089,-0.00013873,0.00028162,-0.00000056,-0.00082900,0.0
 0177569,-0.00000455,-0.00006550,-0.00012762,0.00000018,-0.00350407,-0.
 00560376,0.00000987,-0.00002462,0.00007140,-0.00000015,-0.02001158,0.0
 1753706,-0.00005097,-0.00001151,-0.00003660,0.00000006,-0.22120397,0.1
 2534768,-0.00038496,-0.00000987,0.00001789,-0.00000004,0.00001874,0.00
 001152,-0.00002880,0.00001869,0.00001163,0.00002878,0.00000524,-0.0000
 0868,0.00001487,0.00000527,-0.00000872,-0.00001483,-0.00000706,-0.0000
 4309,0.00010325,-0.00000716,-0.00004361,-0.00010305,0.00000287,0.00000
 509,0.00000596,0.00000287,0.00000507,-0.00000597,0.00028549,-0.0000933
 3,-0.00012069,0.00028543,-0.00009294,0.00012129,0.00000075,-0.00000412
 ,-0.00000498,0.00000074,-0.00000410,0.00000499,0.00053396,-0.00003047,
 0.00067370,0.00053522,-0.00003375,-0.00067285,0.00000074,0.00000217,0.
 00000147,0.00000074,0.00000216,-0.00000148,0.24211721,-0.00027770,-0.0
 0028817,0.00000027,-0.00007453,0.00009514,-0.00000013,-0.00093422,0.00
 090583,-0.00000129,-0.00002834,-0.00003504,0.00000002,-0.00248371,-0.0
 0242256,0.00000448,-0.00000869,0.00001126,-0.00000003,-0.01704422,0.01
 304838,-0.00004293,-0.00000367,-0.00000422,0.00000001,0.12644508,-0.13
 697560,0.00028048,-0.00000051,0.00000064,0.,0.00000703,-0.00000397,-0.
 00001827,0.00000701,-0.00000391,0.00001830,0.00000257,0.00000106,0.000
 00368,0.00000257,0.00000104,-0.00000369,0.00007461,0.00003698,0.000031
 86,0.00007490,0.00003700,-0.00003198,0.00000014,0.00000033,0.00000326,
 0.00000014,0.00000032,-0.00000327,-0.00016155,0.00001795,-0.00026350,-
 0.00016342,0.00002055,0.00026403,0.00000065,0.00000057,-0.00000003,0.0
 0000065,0.00000057,0.00000002,0.00079020,0.00067108,0.00018014,0.00078
 898,0.00067184,-0.00018229,-0.00000014,0.00000018,0.00000079,-0.000000
 14,0.00000018,-0.00000080,-0.13514922,0.14577923,0.00000027,0.00000016
 ,-0.00000530,0.00000005,0.00000002,0.00002049,0.00000105,0.00000039,0.
 00059017,0.00000003,-0.00000004,-0.00001895,0.00000275,0.00000246,0.00
 024358,0.,0.00000003,0.00000276,0.00002548,-0.00002048,-0.00142792,0.,
 0.,0.00000171,-0.00038686,0.00027943,-0.04632133,0.,0.,-0.00000094,0.0
 0000109,0.00000407,0.00000420,-0.00000110,-0.00000405,0.00000418,0.000
 00101,0.00000168,-0.00000258,-0.00000101,-0.00000170,-0.00000259,-0.00
 007538,-0.00004293,-0.00001947,0.00007512,0.00004268,-0.00001957,0.000
 00069,-0.00000093,0.00000036,-0.00000069,0.00000093,0.00000036,0.00030
 411,-0.00031677,0.00022278,-0.00030348,0.00031738,0.00021991,-0.000000
 09,-0.00000019,-0.00000053,0.00000009,0.00000018,-0.00000053,0.0002799
 3,-0.00025959,-0.00005796,-0.00028274,0.00025625,-0.00005932,0.0000001
 2,-0.00000036,-0.00000017,-0.00000012,0.00000036,-0.00000017,0.0004206
 6,-0.00030704,0.04536770,0.00004182,0.00009845,0.00008857,0.00002195,-
 0.00002311,0.00000705,-0.00013957,-0.00009015,0.00013504,0.00000514,0.
 00001161,-0.00000450,0.00189377,-0.00082255,-0.00118887,0.00000152,-0.
 00000803,-0.00000053,-0.00184205,-0.01688121,-0.02410056,0.00000111,0.
 00000419,0.00000025,-0.04604620,-0.00320324,-0.00509418,0.00000114,-0.
 00000241,-0.00000039,-0.00000251,-0.00000199,-0.00000300,-0.00005380,0
 .00003608,0.00001744,0.00000024,-0.00000076,-0.00000410,0.00000903,0.0
 0000480,0.00000661,0.00004021,-0.00000820,-0.00003053,0.00011908,0.000
 20767,0.00018441,-0.00000272,0.00000103,0.00000179,-0.00000045,-0.0000
 0030,-0.00000023,-0.00001751,0.00009940,0.00002424,-0.00051042,0.00053
 053,0.00066519,0.00000111,0.00000126,0.00000214,0.00000017,0.00000036,
 -0.00000114,0.00102719,0.00054059,0.00038324,-0.00462503,-0.00304577,0
 .00016007,-0.00000062,0.00000031,0.00000070,-0.00000017,-0.00000023,-0
 .00000021,0.00120152,0.01411511,0.02210676,0.05027335,-0.00001095,-0.0
 0000743,0.00005642,0.00000100,0.00002422,-0.00001185,0.00001221,0.0001
 1214,0.00022935,-0.00000567,-0.00001782,-0.00000352,0.00106634,0.00040
 804,0.00039293,-0.00000362,0.00001217,-0.00000078,-0.00092324,-0.01202
 123,-0.01572440,-0.00000122,-0.00000766,-0.00000073,-0.00350635,-0.135
 39280,-0.12347302,-0.00000227,0.00000393,-0.00000083,0.00000349,0.0000
 0287,-0.00000073,-0.00003214,0.00002341,0.00000265,-0.00000189,-0.0000
 0666,0.00000258,0.00000359,-0.00000182,0.00000374,-0.00001172,-0.00006
 306,0.00000115,0.00020100,0.00006033,0.00006945,-0.00000099,0.00000443
 ,0.00000267,0.00000103,0.00000016,0.00000023,-0.00007725,0.00001143,0.
 00009565,-0.00052507,0.00057328,0.00008806,0.00000109,0.00000033,0.000
 00123,-0.00000043,-0.00000229,0.00000113,0.00042899,-0.00012801,0.0001
 5362,-0.00347439,-0.00120351,0.00060730,-0.00000039,0.00000184,0.00000
 130,0.00000029,0.,0.00000008,-0.00155264,-0.01081203,-0.01478447,0.007
 99734,0.14650506,-0.00006419,-0.00006685,-0.00003270,-0.00002032,0.000
 02908,0.00000455,-0.00016530,0.00030460,0.00029079,-0.00000675,-0.0000
 1594,-0.00000518,0.00025702,0.00017155,0.00011833,-0.00000458,0.000006
 80,-0.00000093,0.00006427,0.00073990,0.00097633,-0.00000049,-0.0000052
 8,-0.00000121,-0.00562341,-0.12373390,-0.21820583,-0.00000201,0.000001
 91,-0.00000026,-0.00000275,0.00000063,-0.00001072,-0.00001442,0.000004
 70,0.00002372,0.00000219,-0.00000095,-0.00000154,0.00000558,0.00000463
 ,0.00000320,0.00002503,0.00000915,-0.00002543,0.00017613,0.00006235,-0
 .00001531,-0.00000188,0.00000274,0.00000661,-0.00000021,-0.00000014,-0
 .00000301,-0.00000297,-0.00011303,-0.00010582,-0.00068036,0.00010068,0
 .00008339,0.00000180,0.00000180,0.00000207,0.00000055,-0.00000036,-0.0
 0000053,-0.00053664,-0.00005403,0.00064547,0.00032837,0.00028488,0.001
 52500,-0.00000059,0.00000150,0.00000254,-0.00000018,0.00000005,-0.0000
 0123,0.00013757,0.00169658,0.00067249,0.00637622,0.13649797,0.23392221
 ,0.00004184,0.00009811,-0.00008894,0.00002194,-0.00002313,-0.00000692,
 -0.00013951,-0.00009087,-0.00013508,0.00000513,0.00001162,0.00000448,0
 .00189295,-0.00081769,0.00119557,0.00000152,-0.00000803,0.00000055,-0.
 00187370,-0.01677341,0.02417077,0.00000111,0.00000419,-0.00000026,-0.0
 4605884,-0.00333965,0.00532780,0.00000114,-0.00000241,0.00000040,-0.00
 005381,0.00003604,-0.00001764,-0.00000247,-0.00000200,0.00000300,0.000
 00905,0.00000479,-0.00000662,0.00000023,-0.00000075,0.00000410,0.00011
 944,0.00020717,-0.00018515,0.00004003,-0.00000805,0.00003052,-0.000000
 45,-0.00000031,0.00000023,-0.00000272,0.00000102,-0.00000181,-0.000510
 90,0.00052797,-0.00066839,-0.00001746,0.00009909,-0.00002460,0.0000001
 6,0.00000036,0.00000114,0.00000111,0.00000126,-0.00000214,-0.00462448,
 -0.00304620,-0.00015458,0.00102666,0.00053877,-0.00038517,-0.00000017,
 -0.00000023,0.00000021,-0.00000062,0.00000031,-0.00000071,0.00122987,0
 .01402042,-0.02216774,-0.00139914,0.00041665,-0.00024665,0.05029023,-0
 .00001057,-0.00000726,-0.00005663,0.00000108,0.00002412,0.00001183,0.0
 0001343,0.00010971,-0.00022839,-0.00000564,-0.00001773,0.00000352,0.00
 106642,0.00040563,-0.00039296,-0.00000360,0.00001213,0.00000074,-0.000
 94410,-0.01195409,0.01578067,-0.00000122,-0.00000764,0.00000076,-0.003
 64060,-0.13431506,0.12310177,-0.00000227,0.00000392,0.00000081,-0.0000
 3207,0.00002337,-0.00000265,0.00000352,0.00000284,0.00000068,0.0000035
 7,-0.00000186,-0.00000372,-0.00000191,-0.00000666,-0.00000258,0.000200
 31,0.00005985,-0.00006948,-0.00001193,-0.00006313,-0.00000113,0.000001
 03,0.00000016,-0.00000024,-0.00000098,0.00000441,-0.00000266,-0.000521
 97,0.00057265,-0.00009111,-0.00007699,0.00001150,-0.00009629,-0.000000
 43,-0.00000229,-0.00000113,0.00000108,0.00000031,-0.00000122,-0.003474
 62,-0.00120763,-0.00059997,0.00043151,-0.00012856,-0.00014966,0.000000
 30,0.,-0.00000009,-0.00000039,0.00000183,-0.00000129,-0.00157197,-0.01
 075450,0.01483255,0.00043803,0.01192243,-0.01593102,0.00814375,0.14531
 329,0.00006430,0.00006685,-0.00003271,0.00002032,-0.00002920,0.0000046
 1,0.00016455,-0.00030415,0.00029324,0.00000679,0.00001602,-0.00000524,
 -0.00025989,-0.00017380,0.00012212,0.00000460,-0.00000687,-0.00000091,
 -0.00006314,-0.00070371,0.00094058,0.00000049,0.00000531,-0.00000124,0
 .00585833,0.12336213,-0.21927863,0.00000202,-0.00000193,-0.00000025,0.
 00001446,-0.00000467,0.00002374,0.00000274,-0.00000068,-0.00001069,-0.
 00000559,-0.00000460,0.00000322,-0.00000217,0.00000098,-0.00000152,-0.
 00017694,-0.00006241,-0.00001522,-0.00002481,-0.00000891,-0.00002538,0
 .00000020,0.00000013,-0.00000301,0.00000187,-0.00000274,0.00000663,0.0
 0068200,-0.00010230,0.00008450,0.00000339,0.00011262,-0.00010584,-0.00
 000055,0.00000037,-0.00000053,-0.00000180,-0.00000179,0.00000207,-0.00
 032082,-0.00027636,0.00152833,0.00053533,0.00005827,0.00064567,0.00000
 018,-0.00000005,-0.00000123,0.00000059,-0.00000150,0.00000255,-0.00012
 968,-0.00162870,0.00058657,0.00026826,0.01579204,-0.01986748,-0.006646
 10,-0.13610033,0.23510556,-0.00013874,0.00028162,-0.00000055,-0.000420
 01,-0.00065640,0.00000088,-0.00006551,-0.00012762,0.00000019,-0.000829
 10,0.00177569,-0.00000390,-0.00002462,0.00007141,-0.00000017,-0.003504
 18,-0.00560400,0.00000734,-0.00001151,-0.00003660,0.00000008,-0.020012
 50,0.01753685,-0.00004348,-0.00000987,0.00001789,-0.00000005,-0.221211
 16,0.12534863,-0.00034293,0.00000524,-0.00000868,0.00001487,0.00000527
 ,-0.00000872,-0.00001483,0.00001874,0.00001152,-0.00002880,0.00001870,
 0.00001163,0.00002878,0.00000287,0.00000507,-0.00000597,0.00000287,0.0
 0000508,0.00000595,-0.00000707,-0.00004354,-0.00010306,-0.00000715,-0.
 00004315,0.00010324,0.00000073,-0.00000410,0.00000500,0.00000075,-0.00
 000412,-0.00000498,0.00028563,-0.00009313,0.00012118,0.00028533,-0.000
 09313,-0.00012079,0.00000074,0.00000216,-0.00000148,0.00000074,0.00000
 217,0.00000147,0.00053503,-0.00003353,-0.00067281,0.00053413,-0.000030
 72,0.00067375,-0.00001652,0.00000021,-0.00000001,0.00000212,-0.0000040
 9,-0.00000243,0.00000212,-0.00000408,0.00000245,0.24212590,-0.00007453
 ,0.00009514,-0.00000014,-0.00027772,-0.00028818,0.00000031,-0.00002834
 ,-0.00003504,0.,-0.00093428,0.00090580,-0.00000106,-0.00000869,0.00001
 126,-0.00000004,-0.00248372,-0.00242266,0.00000306,-0.00000367,-0.0000
 0422,0.00000001,-0.01704532,0.01304852,-0.00003700,-0.00000051,0.00000
 064,0.,0.12644668,-0.13697298,0.00024748,0.00000257,0.00000106,0.00000
 368,0.00000257,0.00000104,-0.00000369,0.00000703,-0.00000397,-0.000018
 27,0.00000701,-0.00000392,0.00001830,0.00000014,0.00000032,-0.00000326
 ,0.00000014,0.00000033,0.00000327,0.00007492,0.00003702,-0.00003197,0.
 00007460,0.00003697,0.00003187,0.00000065,0.00000057,0.00000002,0.0000
 0065,0.00000057,-0.00000003,-0.00016315,0.00002025,0.00026404,-0.00016
 182,0.00001824,-0.00026351,-0.00000014,0.00000018,-0.00000080,-0.00000
 014,0.00000018,0.00000079,0.00078924,0.00067136,-0.00018207,0.00078987
 ,0.00067156,0.00018036,0.00000021,-0.00000095,0.,-0.00000010,0.0000004
 2,0.00000035,-0.00000010,0.00000042,-0.00000035,-0.13515003,0.14577621
 ,0.00000005,0.00000003,0.00002049,0.00000026,0.00000012,-0.00000531,0.
 00000003,-0.00000005,-0.00001895,0.00000084,0.00000047,0.00059020,0.,0
 .00000003,0.00000276,0.00000252,0.00000139,0.00024367,0.,0.,0.00000171
 ,0.00001954,-0.00001506,-0.00142778,0.,0.,-0.00000094,-0.00034526,0.00
 024697,-0.04632061,0.00000101,0.00000168,-0.00000258,-0.00000101,-0.00
 000170,-0.00000259,0.00000109,0.00000408,0.00000419,-0.00000110,-0.000
 00404,0.00000418,-0.00000069,0.00000093,0.00000036,0.00000069,-0.00000
 093,0.00000036,0.00007513,0.00004269,-0.00001955,-0.00007538,-0.000042
 92,-0.00001949,0.00000010,0.00000018,-0.00000053,-0.00000009,-0.000000
 19,-0.00000053,-0.00030350,0.00031735,0.00022026,0.00030411,-0.0003167
 9,0.00022244,-0.00000011,0.00000036,-0.00000017,0.00000012,-0.00000036
 ,-0.00000017,-0.00028235,0.00025663,-0.00005953,0.00028036,-0.00025922
 ,-0.00005775,-0.00000001,0.,0.00000053,0.00000007,-0.00000021,-0.00000
 023,-0.00000007,0.00000020,-0.00000022,0.00037460,-0.00027148,0.045366
 96,0.00002196,-0.00002314,0.00000704,0.00004183,0.00009851,0.00008862,
 0.00000515,0.00001163,-0.00000449,-0.00013945,-0.00009051,0.00013485,0
 .00000152,-0.00000804,-0.00000053,0.00189398,-0.00082242,-0.00118988,0
 .00000111,0.00000420,0.00000025,-0.00184219,-0.01687111,-0.02410658,0.
 00000114,-0.00000242,-0.00000038,-0.04604602,-0.00320051,-0.00509159,0
 .00000023,-0.00000076,-0.00000410,0.00000904,0.00000481,0.00000661,-0.
 00000250,-0.00000200,-0.00000299,-0.00005381,0.00003609,0.00001743,-0.
 00000045,-0.00000031,-0.00000023,-0.00000272,0.00000103,0.00000179,0.0
 0011900,0.00020771,0.00018452,0.00004015,-0.00000817,-0.00003049,0.000
 00017,0.00000036,-0.00000114,0.00000111,0.00000127,0.00000214,-0.00051
 077,0.00053026,0.00066556,-0.00001747,0.00009943,0.00002426,-0.0000001
 7,-0.00000023,-0.00000021,-0.00000062,0.00000031,0.00000070,-0.0046249
 4,-0.00304609,0.00015901,0.00102680,0.00054039,0.00038352,0.00000213,-
 0.00000010,0.00000007,0.,0.00000082,0.00000079,-0.00000027,0.00000049,
 -0.00000061,0.00120113,0.01410749,0.02211218,0.05027408,0.00000102,0.0
 0002419,-0.00001186,-0.00001091,-0.00000735,0.00005646,-0.00000566,-0.
 00001781,-0.00000351,0.00001240,0.00011185,0.00022930,-0.00000361,0.00
 001216,-0.00000078,0.00106701,0.00040801,0.00039297,-0.00000122,-0.000
 00766,-0.00000073,-0.00092311,-0.01201473,-0.01573015,-0.00000227,0.00
 000393,-0.00000083,-0.00350387,-0.13530502,-0.12344050,-0.00000190,-0.
 00000666,0.00000258,0.00000359,-0.00000182,0.00000374,0.00000350,0.000
 00286,-0.00000072,-0.00003214,0.00002340,0.00000264,0.00000103,0.00000
 016,0.00000023,-0.00000099,0.00000443,0.00000267,0.00020096,0.00006034
 ,0.00006947,-0.00001178,-0.00006308,0.00000118,-0.00000043,-0.00000229
 ,0.00000113,0.00000109,0.00000033,0.00000123,-0.00052491,0.00057337,0.
 00008852,-0.00007724,0.00001142,0.00009574,0.00000029,0.,0.00000008,-0
 .00000039,0.00000184,0.00000129,-0.00347409,-0.00120418,0.00060651,0.0
 0042920,-0.00012820,0.00015330,-0.00000409,0.00000042,-0.00000021,0.00
 000082,-0.00000050,0.00000034,0.00000049,-0.00000165,0.00000067,-0.001
 55231,-0.01080716,-0.01478827,0.00799316,0.14640708,-0.00002031,0.0000
 2909,0.00000454,-0.00006418,-0.00006683,-0.00003266,-0.00000675,-0.000
 01595,-0.00000518,-0.00016521,0.00030465,0.00029106,-0.00000458,0.0000
 0680,-0.00000094,0.00025786,0.00017174,0.00011886,-0.00000049,-0.00000
 528,-0.00000121,0.00006318,0.00073423,0.00097014,-0.00000201,0.0000019
 1,-0.00000026,-0.00562098,-0.12370066,-0.21829322,0.00000219,-0.000000
 95,-0.00000154,0.00000558,0.00000463,0.00000320,-0.00000275,0.00000062
 ,-0.00001071,-0.00001443,0.00000470,0.00002372,-0.00000021,-0.00000014
 ,-0.00000301,-0.00000188,0.00000274,0.00000661,0.00017628,0.00006238,-
 0.00001528,0.00002500,0.00000911,-0.00002543,0.00000055,-0.00000036,-0
 .00000053,0.00000180,0.00000180,0.00000207,-0.00068060,0.00010093,0.00
 008365,-0.00000303,-0.00011297,-0.00010585,-0.00000018,0.00000005,-0.0
 0000123,-0.00000059,0.00000151,0.00000254,0.00032692,0.00028342,0.0015
 2541,-0.00053657,-0.00005450,0.00064506,-0.00000243,0.00000035,-0.0000
 0023,0.00000079,0.00000034,0.00000099,0.00000060,-0.00000067,-0.000000
 28,0.00013684,0.00169252,0.00066795,0.00637555,0.13646414,0.23401920,0
 .00002193,-0.00002310,-0.00000693,0.00004183,0.00009805,-0.00008891,0.
 00000512,0.00001161,0.00000448,-0.00013960,-0.00009054,-0.00013522,0.0
 0000151,-0.00000802,0.00000055,0.00189267,-0.00081782,0.00119460,0.000
 00111,0.00000419,-0.00000027,-0.00187251,-0.01678272,0.02416422,0.0000
 0113,-0.00000241,0.00000040,-0.04606056,-0.00334083,0.00532719,0.00000
 905,0.00000479,-0.00000662,0.00000023,-0.00000075,0.00000411,-0.000053
 80,0.00003603,-0.00001765,-0.00000249,-0.00000199,0.00000301,-0.000002
 72,0.00000102,-0.00000181,-0.00000045,-0.00000030,0.00000024,0.0000401
 0,-0.00000808,0.00003057,0.00011947,0.00020715,-0.00018505,0.00000111,
 0.00000126,-0.00000214,0.00000016,0.00000036,0.00000114,-0.00001752,0.
 00009906,-0.00002460,-0.00051060,0.00052813,-0.00066798,-0.00000062,0.
 00000030,-0.00000071,-0.00000017,-0.00000023,0.00000021,0.00102704,0.0
 0053900,-0.00038487,-0.00462421,-0.00304594,-0.00015561,0.00000212,-0.
 00000010,-0.00000007,-0.00000027,0.00000049,0.00000060,0.,0.00000082,-
 0.00000080,0.00122991,0.01402849,-0.02216311,-0.00139915,0.00041635,-0
 .00024596,0.05029019,0.00000107,0.00002414,0.00001182,-0.00001062,-0.0
 0000732,-0.00005659,-0.00000565,-0.00001774,0.00000354,0.00001322,0.00
 011000,-0.00022847,-0.00000360,0.00001214,0.00000073,0.00106590,0.0004
 0562,-0.00039289,-0.00000122,-0.00000764,0.00000076,-0.00094352,-0.011
 96138,0.01577594,-0.00000227,0.00000393,0.00000081,-0.00364153,-0.1343
 9913,0.12312858,0.00000357,-0.00000185,-0.00000372,-0.00000190,-0.0000
 0666,-0.00000257,-0.00003209,0.00002338,-0.00000266,0.00000351,0.00000
 285,0.00000068,-0.00000098,0.00000441,-0.00000266,0.00000103,0.0000001
 6,-0.00000024,-0.00001186,-0.00006311,-0.00000109,0.00020037,0.0000598
 7,-0.00006949,0.00000108,0.00000031,-0.00000122,-0.00000043,-0.0000022
 9,-0.00000112,-0.00007700,0.00001151,-0.00009621,-0.00052214,0.0005725
 8,-0.00009070,-0.00000039,0.00000183,-0.00000129,0.00000029,0.,-0.0000
 0008,0.00043137,-0.00012832,-0.00014998,-0.00347509,-0.00120720,-0.000
 60076,-0.00000408,0.00000042,0.00000020,0.00000049,-0.00000165,-0.0000
 0066,0.00000082,-0.00000050,-0.00000033,-0.00157196,-0.01075898,0.0148
 2809,0.00043788,0.01192233,-0.01591937,0.00814573,0.14540833,0.0000203
 3,-0.00002919,0.00000462,0.00006432,0.00006687,-0.00003275,0.00000679,
 0.00001601,-0.00000524,0.00016466,-0.00030411,0.00029301,0.00000460,-0
 .00000686,-0.00000091,-0.00025909,-0.00017363,0.00012158,0.00000049,0.
 00000531,-0.00000123,-0.00006431,-0.00070932,0.00094679,0.00000202,-0.
 00000193,-0.00000025,0.00585773,0.12339020,-0.21918463,-0.00000558,-0.
 00000461,0.00000322,-0.00000218,0.00000097,-0.00000153,0.00001445,-0.0
 0000467,0.00002374,0.00000274,-0.00000068,-0.00001070,0.00000187,-0.00
 000274,0.00000663,0.00000020,0.00000013,-0.00000301,-0.00002485,-0.000
 00895,-0.00002539,-0.00017681,-0.00006240,-0.00001525,-0.00000180,-0.0
 0000179,0.00000207,-0.00000055,0.00000037,-0.00000053,0.00000331,0.000
 11267,-0.00010579,0.00068174,-0.00010204,0.00008426,0.00000059,-0.0000
 0150,0.00000255,0.00000018,-0.00000005,-0.00000123,0.00053542,0.000057
 83,0.00064611,-0.00032224,-0.00027785,0.00152796,0.00000245,-0.0000003
 5,-0.00000022,-0.00000061,0.00000067,-0.00000028,-0.00000080,-0.000000
 33,0.00000099,-0.00013037,-0.00163243,0.00059087,0.00026832,0.01580339
 ,-0.01986744,-0.00664303,-0.13612903,0.23500196\\-0.00000262,0.0000004
 0,0.00000015,-0.00000439,0.00000014,-0.00000019,0.00000357,0.00000071,
 -0.00000085,0.,0.00000287,0.00000026,-0.00000615,-0.00000313,-0.000001
 12,-0.00000049,-0.00000097,-0.00000051,0.00000194,0.00000035,-0.000001
 39,0.00000076,-0.00000078,-0.00000189,-0.00000422,0.00000102,-0.000000
 19,0.00000973,0.00000080,-0.00000043,0.00000019,-0.00000007,0.,-0.0000
 0157,-0.00000110,0.00000104,0.00000067,0.00000046,0.00000035,0.0000004
 2,0.00000123,0.00000010,-0.00000108,-0.00000177,0.00000060,-0.00000168
 ,-0.00000065,-0.00000056,0.00000068,0.00000081,-0.00000023,0.00000055,
 -0.00000018,0.00000021,0.00000354,-0.00000113,-0.00000052,0.00000131,0
 .00000046,0.00000089,-0.00000190,0.00000067,-0.00000029,-0.00000057,0.
 00000049,0.00000113,-0.00000113,0.00000080,0.00000152,-0.00000109,-0.0
 0000114,-0.00000003,0.00000180,0.00000039,0.00000184,0.00000066,0.0000
 0168,-0.00000047,0.00000169,-0.00000185,-0.00000058,0.00000149,-0.0000
 0124,0.00000061,0.00000122,-0.00000062,0.00000032,0.00000096,0.0000016
 5,-0.00000041,-0.00000215,-0.00000067,-0.00000123,-0.00000212,0.000000
 34,0.00000190\\\@


 Statistics are no substitute for judgment.
                            -- Henry Clay
 Job cpu time:       0 days  5 hours  5 minutes 42.3 seconds.
 Elapsed time:       0 days  0 hours 19 minutes 18.1 seconds.
 File lengths (MBytes):  RWF=    363 Int=      0 D2E=      0 Chk=     13 Scr=      1
 Normal termination of Gaussian 16 at Wed Oct  1 18:22:26 2025.
