 Entering Gaussian System, Link 0=g16
 Input=DCEE0064.gjf
 Output=DCEE0064.log
 Initial command:
 /usr/local/g16/l1.exe "/dados_01/scratch/Gau-2393484.inp" -scrdir="/dados_01/scratch/"
 Entering Link 1 = /usr/local/g16/l1.exe PID=   2393485.
  
 Copyright (c) 1988-2017, Gaussian, Inc.  All Rights Reserved.
  
 This is part of the Gaussian(R) 16 program.  It is based on
 the Gaussian(R) 09 system (copyright 2009, Gaussian, Inc.),
 the Gaussian(R) 03 system (copyright 2003, Gaussian, Inc.),
 the Gaussian(R) 98 system (copyright 1998, Gaussian, Inc.),
 the Gaussian(R) 94 system (copyright 1995, Gaussian, Inc.),
 the Gaussian 92(TM) system (copyright 1992, Gaussian, Inc.),
 the Gaussian 90(TM) system (copyright 1990, Gaussian, Inc.),
 the Gaussian 88(TM) system (copyright 1988, Gaussian, Inc.),
 the Gaussian 86(TM) system (copyright 1986, Carnegie Mellon
 University), and the Gaussian 82(TM) system (copyright 1983,
 Carnegie Mellon University). Gaussian is a federally registered
 trademark of Gaussian, Inc.
  
 This software contains proprietary and confidential information,
 including trade secrets, belonging to Gaussian, Inc.
  
 This software is provided under written license and may be
 used, copied, transmitted, or stored only in accord with that
 written license.
  
 The following legend is applicable only to US Government
 contracts under FAR:
  
                    RESTRICTED RIGHTS LEGEND
  
 Use, reproduction and disclosure by the US Government is
 subject to restrictions as set forth in subparagraphs (a)
 and (c) of the Commercial Computer Software - Restricted
 Rights clause in FAR 52.227-19.
  
 Gaussian, Inc.
 340 Quinnipiac St., Bldg. 40, Wallingford CT 06492
  
  
 ---------------------------------------------------------------
 Warning -- This program may not be used in any manner that
 competes with the business of Gaussian, Inc. or will provide
 assistance to any competitor of Gaussian, Inc.  The licensee
 of this program is prohibited from giving any competitor of
 Gaussian, Inc. access to this program.  By using this program,
 the user acknowledges that Gaussian, Inc. is engaged in the
 business of creating and licensing software in the field of
 computational chemistry and represents and warrants to the
 licensee that it is not a competitor of Gaussian, Inc. and that
 it will not use this program in any manner prohibited above.
 ---------------------------------------------------------------
  

 Cite this work as:
 Gaussian 16, Revision B.01,
 M. J. Frisch, G. W. Trucks, H. B. Schlegel, G. E. Scuseria, 
 M. A. Robb, J. R. Cheeseman, G. Scalmani, V. Barone, 
 G. A. Petersson, H. Nakatsuji, X. Li, M. Caricato, A. V. Marenich, 
 J. Bloino, B. G. Janesko, R. Gomperts, B. Mennucci, H. P. Hratchian, 
 J. V. Ortiz, A. F. Izmaylov, J. L. Sonnenberg, D. Williams-Young, 
 F. Ding, F. Lipparini, F. Egidi, J. Goings, B. Peng, A. Petrone, 
 T. Henderson, D. Ranasinghe, V. G. Zakrzewski, J. Gao, N. Rega, 
 G. Zheng, W. Liang, M. Hada, M. Ehara, K. Toyota, R. Fukuda, 
 J. Hasegawa, M. Ishida, T. Nakajima, Y. Honda, O. Kitao, H. Nakai, 
 T. Vreven, K. Throssell, J. A. Montgomery, Jr., J. E. Peralta, 
 F. Ogliaro, M. J. Bearpark, J. J. Heyd, E. N. Brothers, K. N. Kudin, 
 V. N. Staroverov, T. A. Keith, R. Kobayashi, J. Normand, 
 K. Raghavachari, A. P. Rendell, J. C. Burant, S. S. Iyengar, 
 J. Tomasi, M. Cossi, J. M. Millam, M. Klene, C. Adamo, R. Cammi, 
 J. W. Ochterski, R. L. Martin, K. Morokuma, O. Farkas, 
 J. B. Foresman, and D. J. Fox, Gaussian, Inc., Wallingford CT, 2016.
 
 ******************************************
 Gaussian 16:  ES64L-G16RevB.01 20-Dec-2017
                 1-Oct-2025 
 ******************************************
 %nprocs=16
 Will use up to   16 processors via shared memory.
 %mem=40GB
 %chk=DCEE0064.chk
 ----------------------------------------------------------------------
 # opt freq=noraman M08HX/6-311++G** scf=xqc Empiricaldispersion=pfd In
 t(Grid=ultraFine)
 ----------------------------------------------------------------------
 1/18=20,19=15,26=4,38=1/1,3;
 2/9=110,12=2,17=6,18=5,40=1/2;
 3/5=4,6=6,7=1111,11=2,25=1,30=1,71=1,74=-74,75=-5,124=11/1,2,3;
 4//1;
 5/5=2,8=3,13=1,38=5/2,8;
 6/7=2,8=2,9=2,10=2,28=1/1;
 7//1,2,3,16;
 1/18=20,19=15,26=4/3(2);
 2/9=110/2;
 99//99;
 2/9=110/2;
 3/5=4,6=6,7=1111,11=2,25=1,30=1,71=1,74=-74,75=-5,124=11/1,2,3;
 4/5=5,16=3,69=1/1;
 5/5=2,8=3,13=1,38=5/2,8;
 7//1,2,3,16;
 1/18=20,19=15,26=4/3(-5);
 2/9=110/2;
 6/7=2,8=2,9=2,10=2,19=2,28=1/1;
 99/9=1/99;
 --------
 DCEE0064
 --------
 Symbolic Z-matrix:
 Charge =  0 Multiplicity = 1
 C                    -0.609     0.3658    0.1187 
 C                    -1.8776   -0.4704   -0.0646 
 C                     0.6461   -0.5055    0.0327 
 C                    -3.1349    0.3921    0.059 
 C                     1.947     0.2785    0.2323 
 C                    -4.4011   -0.4364   -0.1569 
 C                     3.2027   -0.59      0.122 
 C                    -5.6515    0.424    -0.068 
 C                     4.4464    0.2285    0.3126 
 C                     5.4319    0.3133   -0.5879 
 H                    -0.5667    1.1477   -0.649 
 H                    -0.6368    0.8692    1.0926 
 H                    -1.9061   -1.2677    0.688 
 H                    -1.8574   -0.9547   -1.0485 
 H                     0.5896   -1.2988    0.7884 
 H                     0.6737   -1.0017   -0.9454 
 H                    -3.1652    0.8599    1.0505 
 H                    -3.0969    1.2023   -0.6794 
 H                     1.9221    0.7647    1.2162 
 H                     1.9944    1.0827   -0.5134 
 H                    -4.3677   -0.919    -1.1406 
 H                    -4.4571   -1.2333    0.5938 
 H                     3.2149   -1.0972   -0.8502 
 H                     3.1774   -1.3713    0.8908 
 H                    -5.6416    1.2105   -0.8294 
 H                    -6.5449   -0.1885   -0.2241 
 H                    -5.7321    0.8982    0.9153 
 H                     4.5512    0.7682    1.2504 
 H                     6.3102    0.9164   -0.3855 
 H                     5.3815   -0.2116   -1.5353 
 

 GradGradGradGradGradGradGradGradGradGradGradGradGradGradGradGradGradGrad
 Berny optimization.
 Initialization pass.
                           ----------------------------
                           !    Initial Parameters    !
                           ! (Angstroms and Degrees)  !
 --------------------------                            --------------------------
 ! Name  Definition              Value          Derivative Info.                !
 --------------------------------------------------------------------------------
 ! R1    R(1,2)                  1.5304         estimate D2E/DX2                !
 ! R2    R(1,3)                  1.5303         estimate D2E/DX2                !
 ! R3    R(1,11)                 1.0966         estimate D2E/DX2                !
 ! R4    R(1,12)                 1.0967         estimate D2E/DX2                !
 ! R5    R(2,4)                  1.5297         estimate D2E/DX2                !
 ! R6    R(2,13)                 1.0968         estimate D2E/DX2                !
 ! R7    R(2,14)                 1.0968         estimate D2E/DX2                !
 ! R8    R(3,5)                  1.5319         estimate D2E/DX2                !
 ! R9    R(3,15)                 1.0971         estimate D2E/DX2                !
 ! R10   R(3,16)                 1.0971         estimate D2E/DX2                !
 ! R11   R(4,6)                  1.5285         estimate D2E/DX2                !
 ! R12   R(4,17)                 1.0967         estimate D2E/DX2                !
 ! R13   R(4,18)                 1.0969         estimate D2E/DX2                !
 ! R14   R(5,7)                  1.5308         estimate D2E/DX2                !
 ! R15   R(5,19)                 1.0978         estimate D2E/DX2                !
 ! R16   R(5,20)                 1.0977         estimate D2E/DX2                !
 ! R17   R(6,8)                  1.5204         estimate D2E/DX2                !
 ! R18   R(6,21)                 1.0962         estimate D2E/DX2                !
 ! R19   R(6,22)                 1.0962         estimate D2E/DX2                !
 ! R20   R(7,9)                  1.501          estimate D2E/DX2                !
 ! R21   R(7,23)                 1.0966         estimate D2E/DX2                !
 ! R22   R(7,24)                 1.0964         estimate D2E/DX2                !
 ! R23   R(8,25)                 1.0947         estimate D2E/DX2                !
 ! R24   R(8,26)                 1.0944         estimate D2E/DX2                !
 ! R25   R(8,27)                 1.0946         estimate D2E/DX2                !
 ! R26   R(9,10)                 1.3376         estimate D2E/DX2                !
 ! R27   R(9,28)                 1.0871         estimate D2E/DX2                !
 ! R28   R(10,29)                1.0845         estimate D2E/DX2                !
 ! R29   R(10,30)                1.0843         estimate D2E/DX2                !
 ! A1    A(2,1,3)              111.2249         estimate D2E/DX2                !
 ! A2    A(2,1,11)             109.7376         estimate D2E/DX2                !
 ! A3    A(2,1,12)             109.643          estimate D2E/DX2                !
 ! A4    A(3,1,11)             109.572          estimate D2E/DX2                !
 ! A5    A(3,1,12)             109.3934         estimate D2E/DX2                !
 ! A6    A(11,1,12)            107.1808         estimate D2E/DX2                !
 ! A7    A(1,2,4)              111.3192         estimate D2E/DX2                !
 ! A8    A(1,2,13)             109.6669         estimate D2E/DX2                !
 ! A9    A(1,2,14)             109.4772         estimate D2E/DX2                !
 ! A10   A(4,2,13)             109.4557         estimate D2E/DX2                !
 ! A11   A(4,2,14)             109.6686         estimate D2E/DX2                !
 ! A12   A(13,2,14)            107.1602         estimate D2E/DX2                !
 ! A13   A(1,3,5)              113.4385         estimate D2E/DX2                !
 ! A14   A(1,3,15)             109.3147         estimate D2E/DX2                !
 ! A15   A(1,3,16)             109.1623         estimate D2E/DX2                !
 ! A16   A(5,3,15)             108.9076         estimate D2E/DX2                !
 ! A17   A(5,3,16)             109.0418         estimate D2E/DX2                !
 ! A18   A(15,3,16)            106.7596         estimate D2E/DX2                !
 ! A19   A(2,4,6)              111.3367         estimate D2E/DX2                !
 ! A20   A(2,4,17)             109.6487         estimate D2E/DX2                !
 ! A21   A(2,4,18)             109.488          estimate D2E/DX2                !
 ! A22   A(6,4,17)             109.634          estimate D2E/DX2                !
 ! A23   A(6,4,18)             109.511          estimate D2E/DX2                !
 ! A24   A(17,4,18)            107.1271         estimate D2E/DX2                !
 ! A25   A(3,5,7)              113.3812         estimate D2E/DX2                !
 ! A26   A(3,5,19)             108.916          estimate D2E/DX2                !
 ! A27   A(3,5,20)             108.8491         estimate D2E/DX2                !
 ! A28   A(7,5,19)             109.5407         estimate D2E/DX2                !
 ! A29   A(7,5,20)             109.3463         estimate D2E/DX2                !
 ! A30   A(19,5,20)            106.5802         estimate D2E/DX2                !
 ! A31   A(4,6,8)              111.4864         estimate D2E/DX2                !
 ! A32   A(4,6,21)             109.8854         estimate D2E/DX2                !
 ! A33   A(4,6,22)             109.8537         estimate D2E/DX2                !
 ! A34   A(8,6,21)             109.066          estimate D2E/DX2                !
 ! A35   A(8,6,22)             109.2275         estimate D2E/DX2                !
 ! A36   A(21,6,22)            107.2197         estimate D2E/DX2                !
 ! A37   A(5,7,9)              111.171          estimate D2E/DX2                !
 ! A38   A(5,7,23)             109.598          estimate D2E/DX2                !
 ! A39   A(5,7,24)             109.5632         estimate D2E/DX2                !
 ! A40   A(9,7,23)             110.8279         estimate D2E/DX2                !
 ! A41   A(9,7,24)             108.5817         estimate D2E/DX2                !
 ! A42   A(23,7,24)            106.9964         estimate D2E/DX2                !
 ! A43   A(6,8,25)             111.0057         estimate D2E/DX2                !
 ! A44   A(6,8,26)             110.2617         estimate D2E/DX2                !
 ! A45   A(6,8,27)             110.9912         estimate D2E/DX2                !
 ! A46   A(25,8,26)            108.0756         estimate D2E/DX2                !
 ! A47   A(25,8,27)            108.313          estimate D2E/DX2                !
 ! A48   A(26,8,27)            108.0876         estimate D2E/DX2                !
 ! A49   A(7,9,10)             124.0231         estimate D2E/DX2                !
 ! A50   A(7,9,28)             117.3965         estimate D2E/DX2                !
 ! A51   A(10,9,28)            118.5716         estimate D2E/DX2                !
 ! A52   A(9,10,29)            120.4167         estimate D2E/DX2                !
 ! A53   A(9,10,30)            121.5529         estimate D2E/DX2                !
 ! A54   A(29,10,30)           118.0304         estimate D2E/DX2                !
 ! D1    D(3,1,2,4)            178.4491         estimate D2E/DX2                !
 ! D2    D(3,1,2,13)            57.172          estimate D2E/DX2                !
 ! D3    D(3,1,2,14)           -60.1339         estimate D2E/DX2                !
 ! D4    D(11,1,2,4)           -60.1418         estimate D2E/DX2                !
 ! D5    D(11,1,2,13)          178.5811         estimate D2E/DX2                !
 ! D6    D(11,1,2,14)           61.2751         estimate D2E/DX2                !
 ! D7    D(12,1,2,4)            57.328          estimate D2E/DX2                !
 ! D8    D(12,1,2,13)          -63.9492         estimate D2E/DX2                !
 ! D9    D(12,1,2,14)          178.7449         estimate D2E/DX2                !
 ! D10   D(2,1,3,5)           -179.0665         estimate D2E/DX2                !
 ! D11   D(2,1,3,15)           -57.3176         estimate D2E/DX2                !
 ! D12   D(2,1,3,16)            59.123          estimate D2E/DX2                !
 ! D13   D(11,1,3,5)            59.4277         estimate D2E/DX2                !
 ! D14   D(11,1,3,15)         -178.8234         estimate D2E/DX2                !
 ! D15   D(11,1,3,16)          -62.3828         estimate D2E/DX2                !
 ! D16   D(12,1,3,5)           -57.7992         estimate D2E/DX2                !
 ! D17   D(12,1,3,15)           63.9497         estimate D2E/DX2                !
 ! D18   D(12,1,3,16)         -179.6097         estimate D2E/DX2                !
 ! D19   D(1,2,4,6)            178.6518         estimate D2E/DX2                !
 ! D20   D(1,2,4,17)           -59.8476         estimate D2E/DX2                !
 ! D21   D(1,2,4,18)            57.414          estimate D2E/DX2                !
 ! D22   D(13,2,4,6)           -59.948          estimate D2E/DX2                !
 ! D23   D(13,2,4,17)           61.5527         estimate D2E/DX2                !
 ! D24   D(13,2,4,18)          178.8143         estimate D2E/DX2                !
 ! D25   D(14,2,4,6)            57.3465         estimate D2E/DX2                !
 ! D26   D(14,2,4,17)          178.8472         estimate D2E/DX2                !
 ! D27   D(14,2,4,18)          -63.8912         estimate D2E/DX2                !
 ! D28   D(1,3,5,7)           -179.004          estimate D2E/DX2                !
 ! D29   D(1,3,5,19)            58.7631         estimate D2E/DX2                !
 ! D30   D(1,3,5,20)           -57.0686         estimate D2E/DX2                !
 ! D31   D(15,3,5,7)            59.0202         estimate D2E/DX2                !
 ! D32   D(15,3,5,19)          -63.2127         estimate D2E/DX2                !
 ! D33   D(15,3,5,20)         -179.0444         estimate D2E/DX2                !
 ! D34   D(16,3,5,7)           -57.1263         estimate D2E/DX2                !
 ! D35   D(16,3,5,19)         -179.3592         estimate D2E/DX2                !
 ! D36   D(16,3,5,20)           64.8091         estimate D2E/DX2                !
 ! D37   D(2,4,6,8)           -178.629          estimate D2E/DX2                !
 ! D38   D(2,4,6,21)           -57.5851         estimate D2E/DX2                !
 ! D39   D(2,4,6,22)            60.145          estimate D2E/DX2                !
 ! D40   D(17,4,6,8)            59.8618         estimate D2E/DX2                !
 ! D41   D(17,4,6,21)         -179.0943         estimate D2E/DX2                !
 ! D42   D(17,4,6,22)          -61.3643         estimate D2E/DX2                !
 ! D43   D(18,4,6,8)           -57.4047         estimate D2E/DX2                !
 ! D44   D(18,4,6,21)           63.6392         estimate D2E/DX2                !
 ! D45   D(18,4,6,22)         -178.6307         estimate D2E/DX2                !
 ! D46   D(3,5,7,9)            179.474          estimate D2E/DX2                !
 ! D47   D(3,5,7,23)            56.6107         estimate D2E/DX2                !
 ! D48   D(3,5,7,24)           -60.5071         estimate D2E/DX2                !
 ! D49   D(19,5,7,9)           -58.6409         estimate D2E/DX2                !
 ! D50   D(19,5,7,23)          178.4957         estimate D2E/DX2                !
 ! D51   D(19,5,7,24)           61.3779         estimate D2E/DX2                !
 ! D52   D(20,5,7,9)            57.8163         estimate D2E/DX2                !
 ! D53   D(20,5,7,23)          -65.047          estimate D2E/DX2                !
 ! D54   D(20,5,7,24)          177.8352         estimate D2E/DX2                !
 ! D55   D(4,6,8,25)            60.3316         estimate D2E/DX2                !
 ! D56   D(4,6,8,26)          -179.9308         estimate D2E/DX2                !
 ! D57   D(4,6,8,27)           -60.1877         estimate D2E/DX2                !
 ! D58   D(21,6,8,25)          -61.1893         estimate D2E/DX2                !
 ! D59   D(21,6,8,26)           58.5483         estimate D2E/DX2                !
 ! D60   D(21,6,8,27)          178.2914         estimate D2E/DX2                !
 ! D61   D(22,6,8,25)         -178.0784         estimate D2E/DX2                !
 ! D62   D(22,6,8,26)          -58.3408         estimate D2E/DX2                !
 ! D63   D(22,6,8,27)           61.4023         estimate D2E/DX2                !
 ! D64   D(5,7,9,10)          -122.461          estimate D2E/DX2                !
 ! D65   D(5,7,9,28)            58.6335         estimate D2E/DX2                !
 ! D66   D(23,7,9,10)           -0.3082         estimate D2E/DX2                !
 ! D67   D(23,7,9,28)         -179.2137         estimate D2E/DX2                !
 ! D68   D(24,7,9,10)          116.9397         estimate D2E/DX2                !
 ! D69   D(24,7,9,28)          -61.9659         estimate D2E/DX2                !
 ! D70   D(7,9,10,29)         -179.4572         estimate D2E/DX2                !
 ! D71   D(7,9,10,30)            0.5884         estimate D2E/DX2                !
 ! D72   D(28,9,10,29)          -0.5636         estimate D2E/DX2                !
 ! D73   D(28,9,10,30)         179.4819         estimate D2E/DX2                !
 --------------------------------------------------------------------------------
 Trust Radius=3.00D-01 FncErr=1.00D-07 GrdErr=1.00D-06 EigMax=2.50D+02 EigMin=1.00D-04
 Number of steps in this run=    166 maximum allowed number of steps=    180.
 GradGradGradGradGradGradGradGradGradGradGradGradGradGradGradGradGradGrad

                          Input orientation:                          
 ---------------------------------------------------------------------
 Center     Atomic      Atomic             Coordinates (Angstroms)
 Number     Number       Type             X           Y           Z
 ---------------------------------------------------------------------
      1          6           0       -0.609000    0.365800    0.118700
      2          6           0       -1.877600   -0.470400   -0.064600
      3          6           0        0.646100   -0.505500    0.032700
      4          6           0       -3.134900    0.392100    0.059000
      5          6           0        1.947000    0.278500    0.232300
      6          6           0       -4.401100   -0.436400   -0.156900
      7          6           0        3.202700   -0.590000    0.122000
      8          6           0       -5.651500    0.424000   -0.068000
      9          6           0        4.446400    0.228500    0.312600
     10          6           0        5.431900    0.313300   -0.587900
     11          1           0       -0.566700    1.147700   -0.649000
     12          1           0       -0.636800    0.869200    1.092600
     13          1           0       -1.906100   -1.267700    0.688000
     14          1           0       -1.857400   -0.954700   -1.048500
     15          1           0        0.589600   -1.298800    0.788400
     16          1           0        0.673700   -1.001700   -0.945400
     17          1           0       -3.165200    0.859900    1.050500
     18          1           0       -3.096900    1.202300   -0.679400
     19          1           0        1.922100    0.764700    1.216200
     20          1           0        1.994400    1.082700   -0.513400
     21          1           0       -4.367700   -0.919000   -1.140600
     22          1           0       -4.457100   -1.233300    0.593800
     23          1           0        3.214900   -1.097200   -0.850200
     24          1           0        3.177400   -1.371300    0.890800
     25          1           0       -5.641600    1.210500   -0.829400
     26          1           0       -6.544900   -0.188500   -0.224100
     27          1           0       -5.732100    0.898200    0.915300
     28          1           0        4.551200    0.768200    1.250400
     29          1           0        6.310200    0.916400   -0.385500
     30          1           0        5.381500   -0.211600   -1.535300
 ---------------------------------------------------------------------
                    Distance matrix (angstroms):
                    1          2          3          4          5
     1  C    0.000000
     2  C    1.530417   0.000000
     3  C    1.530306   2.525819   0.000000
     4  C    2.526742   1.529701   3.886173   0.000000
     5  C    2.560012   3.908525   1.531939   5.086123   0.000000
     6  C    3.885808   2.525416   5.051233   1.528492   6.400073
     7  C    3.929710   5.085132   2.559554   6.413553   1.530765
     8  C    5.046291   3.878438   6.366622   2.520004   7.605824
     9  C    5.060980   6.373674   3.880642   7.587304   2.501189
    10  C    6.082311   7.369994   4.894840   8.591551   3.580289
    11  H    1.096595   2.162922   2.160710   2.769088   2.801943
    12  H    1.096661   2.161764   2.158476   2.745261   2.786587
    13  H    2.162150   1.096771   2.743008   2.158825   4.176694
    14  H    2.159764   1.096820   2.763745   2.161581   4.199368
    15  H    2.157784   2.738783   1.097087   4.154885   2.153986
    16  H    2.155849   2.750858   1.097112   4.178149   2.155732
    17  H    2.765239   2.161263   4.174475   1.096735   5.209805
    18  H    2.743418   2.159305   4.175370   1.096860   5.208218
    19  H    2.787489   4.195669   2.154590   5.201076   1.097757
    20  H    2.773299   4.195941   2.153722   5.207138   1.097749
    21  H    4.167058   2.749476   5.165831   2.162827   6.572237
    22  H    4.194129   2.769355   5.185285   2.162441   6.590047
    23  H    4.207297   5.190723   2.779992   6.585182   2.161464
    24  H    4.236801   5.222780   2.809524   6.606558   2.160867
    25  H    5.190325   4.192617   6.574423   2.782549   7.718982
    26  H    5.971572   4.678525   7.202563   3.470640   8.516969
    27  H    5.211926   4.206001   6.590204   2.781157   7.734280
    28  H    5.298144   6.677786   4.284263   7.786977   2.838695
    29  H    6.959361   8.310611   5.854803   9.470078   4.452652
    30  H    6.241410   7.411104   4.996900   8.685351   3.893636
                    6          7          8          9         10
     6  C    0.000000
     7  C    7.610463   0.000000
     8  C    1.520425   8.914099   0.000000
     9  C    8.884862   1.501020  10.106961   0.000000
    10  C    9.870952   2.507836  11.096139   1.337648   0.000000
    11  H    4.177817   4.221661   5.168800   5.186596   6.056662
    12  H    4.175619   4.220556   5.166470   5.182453   6.321568
    13  H    2.762235   5.184542   4.178685   6.537109   7.614048
    14  H    2.744812   5.206504   4.154201   6.556710   7.413088
    15  H    5.152127   2.788329   6.530910   4.175397   5.285919
    16  H    5.166710   2.775731   6.542981   4.162838   4.949495
    17  H    2.160013   6.596550   2.760931   7.673305   8.768880
    18  H    2.158537   6.598450   2.739624   7.670315   8.575495
    19  H    6.581102   2.161579   7.689256   2.734245   3.972057
    20  H    6.583098   2.159085   7.687136   2.724745   3.523341
    21  H    1.096213   7.682015   2.145288   9.006492   9.892229
    22  H    1.096237   7.701231   2.147374   9.027084  10.078725
    23  H    7.675987   1.096619   9.029891   2.150855   2.640720
    24  H    7.707488   1.096414   9.060457   2.122271   3.179182
    25  H    2.168727   9.075715   1.094719  10.199815  11.112412
    26  H    2.159131   9.762003   1.094389  11.012294  11.992827
    27  H    2.168486   9.092564   1.094642  10.218298  11.279921
    28  H    9.141949   2.221811  10.293286   1.087073   2.088519
    29  H   10.798809   3.490466  11.976040   2.105778   1.084484
    30  H    9.881791   2.763512  11.148275   2.117271   1.084263
                   11         12         13         14         15
    11  H    0.000000
    12  H    1.765119   0.000000
    13  H    3.068504   2.518167   0.000000
    14  H    2.499118   3.066070   1.765155   0.000000
    15  H    3.064068   2.509346   2.497912   3.079028   0.000000
    16  H    2.499273   3.061229   3.064983   2.533635   1.761080
    17  H    3.118226   2.528768   2.498684   3.067395   4.339033
    18  H    2.530972   3.050087   3.064097   2.515004   4.690439
    19  H    3.133654   2.564014   4.366321   4.729675   2.493311
    20  H    2.565511   3.089989   4.709739   4.390182   3.056090
    21  H    4.354368   4.701538   3.086235   2.512243   5.332927
    22  H    4.727465   4.389077   2.552970   3.087589   5.050875
    23  H    4.402335   4.740970   5.349745   5.078175   3.101266
    24  H    4.768085   4.428170   5.088598   5.411437   2.590840
    25  H    5.078494   5.372019   4.732646   4.365348   6.909538
    26  H    6.140427   6.144760   4.849233   4.820721   7.291023
    27  H    5.402836   5.098466   4.402393   4.722610   6.693788
    28  H    5.472170   5.191382   6.793961   7.023068   4.492239
    29  H    6.885832   7.102663   8.569147   8.405372   6.245832
    30  H    6.165574   6.655368   7.692043   7.293205   5.435429
                   16         17         18         19         20
    16  H    0.000000
    17  H    4.710236   0.000000
    18  H    4.375591   1.764782   0.000000
    19  H    3.057971   5.090888   5.382857   0.000000
    20  H    2.505114   5.396007   5.095409   1.760076   0.000000
    21  H    5.045855   3.067802   2.515463   6.924661   6.698992
    22  H    5.361705   2.501813   3.066485   6.713686   6.943457
    23  H    2.544775   6.938918   6.719799   3.067248   2.520916
    24  H    3.126779   6.725499   6.961019   2.498832   3.064863
    25  H    6.692555   3.128818   2.549130   7.848106   7.643604
    26  H    7.299983   3.761133   3.745708   8.641362   8.638246
    27  H    6.935856   2.570743   3.095129   7.661275   7.859645
    28  H    4.794694   7.719534   7.899747   2.629325   3.122039
    29  H    5.980195   9.583762   9.416031   4.673743   4.320896
    30  H    4.809950   8.993362   8.637994   4.526739   3.767219
                   21         22         23         24         25
    21  H    0.000000
    22  H    1.764914   0.000000
    23  H    7.590251   7.807896   0.000000
    24  H    7.826857   7.641521   1.762844   0.000000
    25  H    2.500887   3.066056   9.152240   9.348772   0.000000
    26  H    2.472610   2.473758   9.821987   9.857238   1.771875
    27  H    3.064397   2.504452   9.335278   9.194043   1.774739
    28  H    9.386709   9.251302   3.110938   2.567898  10.412222
    29  H   10.860774  11.023384   3.721749   4.083742  11.963656
    30  H    9.782796  10.118053   2.438812   3.476913  11.136849
                   26         27         28         29         30
    26  H    0.000000
    27  H    1.771946   0.000000
    28  H   11.234450  10.289580   0.000000
    29  H   12.903505  12.112366   2.406702   0.000000
    30  H   11.998283  11.434562   3.067496   1.859276   0.000000
 Stoichiometry    C10H20
 Framework group  C1[X(C10H20)]
 Deg. of freedom    84
 Full point group                 C1      NOp   1
 Largest Abelian subgroup         C1      NOp   1
 Largest concise Abelian subgroup C1      NOp   1
                         Standard orientation:                         
 ---------------------------------------------------------------------
 Center     Atomic      Atomic             Coordinates (Angstroms)
 Number     Number       Type             X           Y           Z
 ---------------------------------------------------------------------
      1          6           0       -0.482990   -0.376183   -0.069373
      2          6           0       -1.749518    0.480516   -0.004951
      3          6           0        0.774111    0.495574   -0.109036
      4          6           0       -3.008853   -0.387850   -0.003753
      5          6           0        2.073028   -0.311835   -0.197023
      6          6           0       -4.272951    0.465837    0.094029
      7          6           0        3.330757    0.560591   -0.212235
      8          6           0       -5.525332   -0.395551    0.129272
      9          6           0        4.572413   -0.279562   -0.286363
     10          6           0        5.559012   -0.238274    0.615978
     11          1           0       -0.441283   -1.041567    0.801284
     12          1           0       -0.513268   -1.012377   -0.962125
     13          1           0       -1.777370    1.163251   -0.862857
     14          1           0       -1.726867    1.099236    0.900414
     15          1           0        0.718245    1.173976   -0.969413
     16          1           0        0.804179    1.125236    0.788894
     17          1           0       -3.041579   -0.991290   -0.918967
     18          1           0       -2.971549   -1.085389    0.841913
     19          1           0        2.045673   -0.932425   -1.102113
     20          1           0        2.119755   -1.002422    0.655009
     21          1           0       -4.237104    1.082816    0.999422
     22          1           0       -4.328301    1.148510   -0.761910
     23          1           0        3.345441    1.200342    0.678313
     24          1           0        3.306047    1.225185   -1.083915
     25          1           0       -5.516044   -1.066306    0.994380
     26          1           0       -6.417184    0.234972    0.198036
     27          1           0       -5.608360   -1.004047   -0.776863
     28          1           0        4.674708   -0.946887   -1.138384
     29          1           0        6.435717   -0.866015    0.500066
     30          1           0        5.511098    0.415632    1.479539
 ---------------------------------------------------------------------
 Rotational constants (GHZ):           7.7910413           0.2713142           0.2687623
 Standard basis: 6-311++G(d,p) (5D, 7F)
 There are   370 symmetry adapted cartesian basis functions of A   symmetry.
 There are   360 symmetry adapted basis functions of A   symmetry.
   360 basis functions,   540 primitive gaussians,   370 cartesian basis functions
    40 alpha electrons       40 beta electrons
       nuclear repulsion energy       500.1750159089 Hartrees.
 NAtoms=   30 NActive=   30 NUniq=   30 SFac= 1.00D+00 NAtFMM=   60 NAOKFM=F Big=F
 Integral buffers will be    131072 words long.
 Raffenetti 2 integral format.
 Two-electron integral symmetry is turned on.
 R6APFD:  NTU= -4 IXU= 1 FactS= 1.050
 Nuclear repulsion after empirical dispersion term =      500.1562498332 Hartrees.
 One-electron integrals computed using PRISM.
 NBasis=   360 RedAO= T EigKep=  3.57D-06  NBF=   360
 NBsUse=   360 1.00D-06 EigRej= -1.00D+00 NBFU=   360
 ExpMin= 3.60D-02 ExpMax= 4.56D+03 ExpMxC= 6.82D+02 IAcc=3 IRadAn=         5 AccDes= 0.00D+00
 Harris functional with IExCor= 1009 and IRadAn=       5 diagonalized for initial guess.
 HarFok:  IExCor= 1009 AccDes= 0.00D+00 IRadAn=         5 IDoV= 1 UseB2=F ITyADJ=14
 ICtDFT=  3500011 ScaDFX=  1.000000  1.000000  1.000000  1.000000
 FoFCou: FMM=F IPFlag=           0 FMFlag=      100000 FMFlg1=           0
         NFxFlg=           0 DoJE=T BraDBF=F KetDBF=T FulRan=T
         wScrn=  0.000000 ICntrl=       500 IOpCl=  0 I1Cent=   200000004 NGrid=           0
         NMat0=    1 NMatS0=      1 NMatT0=    0 NMatD0=    1 NMtDS0=    0 NMtDT0=    0
 Petite list used in FoFCou.
 Requested convergence on RMS density matrix=1.00D-08 within  32 cycles.
 Requested convergence on MAX density matrix=1.00D-06.
 Requested convergence on             energy=1.00D-06.
 No special actions if energy rises.
 SCF Done:  E(RM08HX) =  -393.125372339     A.U. after   12 cycles
            NFock= 12  Conv=0.53D-08     -V/T= 2.0058
 QCSCF skips out because SCF is already converged.

 **********************************************************************

            Population analysis using the SCF Density.

 **********************************************************************

 Orbital symmetries:
       Occupied  (A) (A) (A) (A) (A) (A) (A) (A) (A) (A) (A) (A)
                 (A) (A) (A) (A) (A) (A) (A) (A) (A) (A) (A) (A)
                 (A) (A) (A) (A) (A) (A) (A) (A) (A) (A) (A) (A)
                 (A) (A) (A) (A)
       Virtual   (A) (A) (A) (A) (A) (A) (A) (A) (A) (A) (A) (A)
                 (A) (A) (A) (A) (A) (A) (A) (A) (A) (A) (A) (A)
                 (A) (A) (A) (A) (A) (A) (A) (A) (A) (A) (A) (A)
                 (A) (A) (A) (A) (A) (A) (A) (A) (A) (A) (A) (A)
                 (A) (A) (A) (A) (A) (A) (A) (A) (A) (A) (A) (A)
                 (A) (A) (A) (A) (A) (A) (A) (A) (A) (A) (A) (A)
                 (A) (A) (A) (A) (A) (A) (A) (A) (A) (A) (A) (A)
                 (A) (A) (A) (A) (A) (A) (A) (A) (A) (A) (A) (A)
                 (A) (A) (A) (A) (A) (A) (A) (A) (A) (A) (A) (A)
                 (A) (A) (A) (A) (A) (A) (A) (A) (A) (A) (A) (A)
                 (A) (A) (A) (A) (A) (A) (A) (A) (A) (A) (A) (A)
                 (A) (A) (A) (A) (A) (A) (A) (A) (A) (A) (A) (A)
                 (A) (A) (A) (A) (A) (A) (A) (A) (A) (A) (A) (A)
                 (A) (A) (A) (A) (A) (A) (A) (A) (A) (A) (A) (A)
                 (A) (A) (A) (A) (A) (A) (A) (A) (A) (A) (A) (A)
                 (A) (A) (A) (A) (A) (A) (A) (A) (A) (A) (A) (A)
                 (A) (A) (A) (A) (A) (A) (A) (A) (A) (A) (A) (A)
                 (A) (A) (A) (A) (A) (A) (A) (A) (A) (A) (A) (A)
                 (A) (A) (A) (A) (A) (A) (A) (A) (A) (A) (A) (A)
                 (A) (A) (A) (A) (A) (A) (A) (A) (A) (A) (A) (A)
                 (A) (A) (A) (A) (A) (A) (A) (A) (A) (A) (A) (A)
                 (A) (A) (A) (A) (A) (A) (A) (A) (A) (A) (A) (A)
                 (A) (A) (A) (A) (A) (A) (A) (A) (A) (A) (A) (A)
                 (A) (A) (A) (A) (A) (A) (A) (A) (A) (A) (A) (A)
                 (A) (A) (A) (A) (A) (A) (A) (A) (A) (A) (A) (A)
                 (A) (A) (A) (A) (A) (A) (A) (A) (A) (A) (A) (A)
                 (A) (A) (A) (A) (A) (A) (A) (A)
 The electronic state is 1-A.
 Alpha  occ. eigenvalues --  -10.53290 -10.52693 -10.52242 -10.52008 -10.51940
 Alpha  occ. eigenvalues --  -10.51874 -10.51871 -10.51862 -10.51784 -10.51040
 Alpha  occ. eigenvalues --   -0.92583  -0.90926  -0.87944  -0.84019  -0.79294
 Alpha  occ. eigenvalues --   -0.73788  -0.68448  -0.66432  -0.65859  -0.63558
 Alpha  occ. eigenvalues --   -0.56410  -0.54792  -0.52944  -0.51081  -0.50021
 Alpha  occ. eigenvalues --   -0.49574  -0.48107  -0.46206  -0.45676  -0.43755
 Alpha  occ. eigenvalues --   -0.42477  -0.41592  -0.40649  -0.39645  -0.39464
 Alpha  occ. eigenvalues --   -0.38890  -0.38500  -0.38489  -0.35884  -0.31572
 Alpha virt. eigenvalues --   -0.02733  -0.01906  -0.01715  -0.01524  -0.00775
 Alpha virt. eigenvalues --   -0.00361   0.00010   0.00894   0.01558   0.01847
 Alpha virt. eigenvalues --    0.01998   0.02298   0.03046   0.03458   0.03614
 Alpha virt. eigenvalues --    0.04057   0.04756   0.05284   0.05368   0.06391
 Alpha virt. eigenvalues --    0.06740   0.07668   0.08115   0.08316   0.09002
 Alpha virt. eigenvalues --    0.09613   0.10209   0.10811   0.11166   0.11611
 Alpha virt. eigenvalues --    0.11959   0.12199   0.12363   0.12677   0.12808
 Alpha virt. eigenvalues --    0.13029   0.13287   0.13738   0.13920   0.14360
 Alpha virt. eigenvalues --    0.14431   0.15050   0.15131   0.15687   0.16061
 Alpha virt. eigenvalues --    0.16554   0.16944   0.17161   0.17345   0.17775
 Alpha virt. eigenvalues --    0.17959   0.18433   0.19153   0.19744   0.20066
 Alpha virt. eigenvalues --    0.20175   0.20607   0.21653   0.22248   0.22631
 Alpha virt. eigenvalues --    0.23184   0.23907   0.24247   0.24989   0.25162
 Alpha virt. eigenvalues --    0.25370   0.25929   0.26885   0.27133   0.28600
 Alpha virt. eigenvalues --    0.29092   0.29724   0.30628   0.31037   0.31252
 Alpha virt. eigenvalues --    0.31397   0.32046   0.32329   0.32621   0.33620
 Alpha virt. eigenvalues --    0.34393   0.35137   0.36094   0.37109   0.37404
 Alpha virt. eigenvalues --    0.38501   0.38609   0.39312   0.40532   0.43694
 Alpha virt. eigenvalues --    0.44115   0.45843   0.46452   0.47685   0.48186
 Alpha virt. eigenvalues --    0.48849   0.51242   0.52802   0.54557   0.54983
 Alpha virt. eigenvalues --    0.57367   0.57862   0.59061   0.60170   0.60829
 Alpha virt. eigenvalues --    0.62879   0.64471   0.64900   0.67348   0.67737
 Alpha virt. eigenvalues --    0.68804   0.69094   0.69395   0.70028   0.70584
 Alpha virt. eigenvalues --    0.71387   0.71780   0.71897   0.72376   0.72718
 Alpha virt. eigenvalues --    0.73659   0.74336   0.75302   0.75638   0.76049
 Alpha virt. eigenvalues --    0.76461   0.76976   0.77160   0.78199   0.78672
 Alpha virt. eigenvalues --    0.79037   0.79586   0.80298   0.80703   0.80912
 Alpha virt. eigenvalues --    0.81586   0.84763   0.85315   0.85597   0.88068
 Alpha virt. eigenvalues --    0.90370   0.92983   0.97524   0.98919   0.99543
 Alpha virt. eigenvalues --    1.02165   1.03957   1.05286   1.06106   1.06599
 Alpha virt. eigenvalues --    1.06794   1.11251   1.12612   1.17196   1.19750
 Alpha virt. eigenvalues --    1.21963   1.26671   1.27959   1.29180   1.30224
 Alpha virt. eigenvalues --    1.31154   1.31845   1.32167   1.33562   1.41227
 Alpha virt. eigenvalues --    1.46964   1.49609   1.49784   1.50715   1.51220
 Alpha virt. eigenvalues --    1.52992   1.54813   1.57512   1.58909   1.59740
 Alpha virt. eigenvalues --    1.60297   1.61053   1.61403   1.62364   1.62703
 Alpha virt. eigenvalues --    1.64960   1.65208   1.65770   1.66181   1.66861
 Alpha virt. eigenvalues --    1.68100   1.68815   1.69202   1.70010   1.70148
 Alpha virt. eigenvalues --    1.71629   1.71946   1.74261   1.75232   1.76382
 Alpha virt. eigenvalues --    1.76754   1.77274   1.77635   1.79903   1.81063
 Alpha virt. eigenvalues --    1.82874   1.84711   1.87110   1.87861   1.89268
 Alpha virt. eigenvalues --    1.90181   1.91237   1.91479   1.94893   1.96129
 Alpha virt. eigenvalues --    1.99387   2.01241   2.05130   2.05310   2.08299
 Alpha virt. eigenvalues --    2.10418   2.12998   2.15627   2.16194   2.17811
 Alpha virt. eigenvalues --    2.21512   2.21802   2.22539   2.24355   2.24970
 Alpha virt. eigenvalues --    2.27364   2.27469   2.28554   2.30921   2.32327
 Alpha virt. eigenvalues --    2.33564   2.35926   2.37081   2.39739   2.41072
 Alpha virt. eigenvalues --    2.42267   2.43656   2.46587   2.47041   2.48408
 Alpha virt. eigenvalues --    2.49758   2.51708   2.52224   2.55050   2.55574
 Alpha virt. eigenvalues --    2.56898   2.58588   2.59090   2.59453   2.60310
 Alpha virt. eigenvalues --    2.61377   2.62372   2.63130   2.63919   2.64686
 Alpha virt. eigenvalues --    2.66411   2.66515   2.68070   2.69470   2.71283
 Alpha virt. eigenvalues --    2.72726   2.73037   2.75196   2.76100   2.77448
 Alpha virt. eigenvalues --    2.78233   2.78844   2.81091   2.82862   2.84559
 Alpha virt. eigenvalues --    2.85791   2.86875   2.88235   2.89379   2.92222
 Alpha virt. eigenvalues --    2.92443   2.93634   2.95217   2.97827   3.02681
 Alpha virt. eigenvalues --    3.05603   3.09400   3.12377   3.13362   3.16676
 Alpha virt. eigenvalues --    3.23402   3.33442   3.42335   3.49622   3.54859
 Alpha virt. eigenvalues --    3.59503   3.76432   3.81054   3.81458   3.83786
 Alpha virt. eigenvalues --    3.84512   3.85200   3.86191   3.88169   3.93028
 Alpha virt. eigenvalues --    3.97037   4.02717   4.11819   4.15022   4.20090
 Alpha virt. eigenvalues --    4.26879   4.34444   4.40620   4.43786   4.46789
 Alpha virt. eigenvalues --   23.83767  23.94772  23.95061  23.95756  23.95937
 Alpha virt. eigenvalues --   23.97576  23.98557  23.99243  24.04536  24.30984
          Condensed to atoms (all electrons):
               1          2          3          4          5          6
     1  C    8.758280  -0.553284  -1.210603   0.125779  -0.399178  -0.338004
     2  C   -0.553284   7.563660  -0.088145  -0.440212  -0.449919  -0.055454
     3  C   -1.210603  -0.088145   8.415888  -0.481288  -0.799501  -0.410586
     4  C    0.125779  -0.440212  -0.481288   7.621478  -0.484343  -0.703199
     5  C   -0.399178  -0.449919  -0.799501  -0.484343   8.545319  -0.091908
     6  C   -0.338004  -0.055454  -0.410586  -0.703199  -0.091908   7.395710
     7  C   -0.206048  -0.234034   0.532995  -0.056484  -0.859773  -0.013945
     8  C   -0.164422  -0.161222  -0.028527   0.237114  -0.013681  -0.200586
     9  C   -0.580287  -0.093660  -0.481295  -0.035380   0.209135  -0.004092
    10  C    0.018669   0.008797   0.146858   0.001169   0.170480  -0.000047
    11  H    0.465679  -0.092102  -0.029913  -0.005025   0.028749  -0.010186
    12  H    0.542626  -0.104258  -0.123895   0.021953   0.024812  -0.003101
    13  H   -0.103116   0.536244   0.013120  -0.100193   0.004376   0.016789
    14  H   -0.065847   0.481608   0.018965  -0.119067   0.021250   0.012494
    15  H   -0.136158  -0.031213   0.550397  -0.003314  -0.093402  -0.008220
    16  H   -0.042545   0.077648   0.484888   0.028326  -0.135363   0.001615
    17  H    0.007934  -0.082610   0.012597   0.477658   0.000375  -0.067412
    18  H    0.024883  -0.088667  -0.008005   0.501070  -0.007102  -0.078118
    19  H    0.078294   0.039792  -0.048215   0.004304   0.481527   0.001953
    20  H   -0.006617  -0.016425  -0.139494  -0.003850   0.489284   0.000713
    21  H    0.005754   0.021688   0.007925  -0.074577   0.000312   0.453411
    22  H    0.006000   0.005872   0.003676  -0.063977   0.000897   0.451746
    23  H    0.027572   0.007654   0.054730   0.000018  -0.013579   0.000325
    24  H    0.000902  -0.002839  -0.027856  -0.000446  -0.126305   0.000305
    25  H   -0.007065  -0.021920  -0.001646  -0.043867   0.000202   0.000141
    26  H    0.001290   0.018739  -0.002321   0.056823  -0.000594  -0.053649
    27  H   -0.002423  -0.018464  -0.001814  -0.031873   0.000031  -0.008222
    28  H   -0.007927  -0.003750  -0.022393  -0.000708   0.021141  -0.000114
    29  H   -0.002410  -0.000262  -0.000162  -0.000086   0.003300  -0.000008
    30  H   -0.001419  -0.000470  -0.002497  -0.000060  -0.004566  -0.000020
               7          8          9         10         11         12
     1  C   -0.206048  -0.164422  -0.580287   0.018669   0.465679   0.542626
     2  C   -0.234034  -0.161222  -0.093660   0.008797  -0.092102  -0.104258
     3  C    0.532995  -0.028527  -0.481295   0.146858  -0.029913  -0.123895
     4  C   -0.056484   0.237114  -0.035380   0.001169  -0.005025   0.021953
     5  C   -0.859773  -0.013681   0.209135   0.170480   0.028749   0.024812
     6  C   -0.013945  -0.200586  -0.004092  -0.000047  -0.010186  -0.003101
     7  C    7.642428  -0.001541  -0.996717   0.377734  -0.006904   0.001458
     8  C   -0.001541   6.125600  -0.000215   0.000006  -0.003132  -0.002546
     9  C   -0.996717  -0.000215   7.568684  -0.558595   0.009094  -0.004895
    10  C    0.377734   0.000006  -0.558595   6.066511  -0.003498  -0.000236
    11  H   -0.006904  -0.003132   0.009094  -0.003498   0.573555  -0.096322
    12  H    0.001458  -0.002546  -0.004895  -0.000236  -0.096322   0.578126
    13  H   -0.010819   0.000358  -0.001298   0.000897   0.008459  -0.016154
    14  H    0.005659  -0.005804   0.003998  -0.001705  -0.016912   0.009567
    15  H    0.049018  -0.000309   0.026195  -0.010463   0.014819  -0.023368
    16  H   -0.020008   0.001442  -0.048415   0.021930  -0.029291   0.012563
    17  H    0.002430   0.008856   0.000637  -0.000158   0.013493  -0.016060
    18  H   -0.001541   0.013117  -0.001008   0.000379  -0.017945   0.012511
    19  H   -0.170720   0.000282  -0.054707   0.032205   0.005985  -0.013111
    20  H   -0.005046  -0.000070   0.058938  -0.023585  -0.010123   0.008314
    21  H    0.000231  -0.071174  -0.000001   0.000008   0.003922  -0.001550
    22  H    0.000273  -0.058924   0.000001   0.000000  -0.001639   0.003530
    23  H    0.384014  -0.000012  -0.139919  -0.013338   0.005371  -0.001281
    24  H    0.568161  -0.000019  -0.029847  -0.038262  -0.001936   0.002817
    25  H    0.000009   0.430597   0.000008  -0.000003   0.000442  -0.000095
    26  H   -0.000054   0.335958  -0.000011   0.000000  -0.000137   0.000008
    27  H   -0.000054   0.418261  -0.000005   0.000001  -0.000072   0.000438
    28  H   -0.014189  -0.000010   0.373718  -0.083334   0.000660   0.000894
    29  H    0.042196  -0.000000  -0.089429   0.419993   0.000120  -0.000198
    30  H    0.039687  -0.000001  -0.049490   0.368970  -0.000155   0.000045
              13         14         15         16         17         18
     1  C   -0.103116  -0.065847  -0.136158  -0.042545   0.007934   0.024883
     2  C    0.536244   0.481608  -0.031213   0.077648  -0.082610  -0.088667
     3  C    0.013120   0.018965   0.550397   0.484888   0.012597  -0.008005
     4  C   -0.100193  -0.119067  -0.003314   0.028326   0.477658   0.501070
     5  C    0.004376   0.021250  -0.093402  -0.135363   0.000375  -0.007102
     6  C    0.016789   0.012494  -0.008220   0.001615  -0.067412  -0.078118
     7  C   -0.010819   0.005659   0.049018  -0.020008   0.002430  -0.001541
     8  C    0.000358  -0.005804  -0.000309   0.001442   0.008856   0.013117
     9  C   -0.001298   0.003998   0.026195  -0.048415   0.000637  -0.001008
    10  C    0.000897  -0.001705  -0.010463   0.021930  -0.000158   0.000379
    11  H    0.008459  -0.016912   0.014819  -0.029291   0.013493  -0.017945
    12  H   -0.016154   0.009567  -0.023368   0.012563  -0.016060   0.012511
    13  H    0.573581  -0.098062  -0.018138   0.016172  -0.024989   0.013286
    14  H   -0.098062   0.585979   0.016239  -0.028331   0.013612  -0.026210
    15  H   -0.018138   0.016239   0.593048  -0.116237   0.006550  -0.003624
    16  H    0.016172  -0.028331  -0.116237   0.621711  -0.003723   0.008302
    17  H   -0.024989   0.013612   0.006550  -0.003723   0.571921  -0.097698
    18  H    0.013286  -0.026210  -0.003624   0.008302  -0.097698   0.581250
    19  H    0.005453  -0.003511  -0.027411   0.018561  -0.000011   0.000749
    20  H   -0.002609   0.005988   0.013529  -0.026743   0.000206   0.000134
    21  H    0.004426  -0.004881   0.000522  -0.000231   0.010165  -0.018566
    22  H   -0.003848   0.003295  -0.000434   0.000661  -0.020850   0.010988
    23  H   -0.000101   0.001442   0.011272  -0.022359   0.000173  -0.000563
    24  H   -0.000059   0.000412  -0.005957   0.004145  -0.000186   0.000151
    25  H   -0.000292   0.001603   0.000032  -0.000107   0.002491  -0.000618
    26  H    0.000338   0.001019  -0.000063  -0.000026  -0.000874  -0.001397
    27  H    0.001679  -0.000428  -0.000073   0.000034  -0.000260   0.002204
    28  H   -0.000390   0.000332   0.004423  -0.002831   0.000054  -0.000135
    29  H    0.000008  -0.000001   0.000030  -0.000222   0.000008  -0.000005
    30  H   -0.000001  -0.000005  -0.000174   0.000385  -0.000007   0.000010
              19         20         21         22         23         24
     1  C    0.078294  -0.006617   0.005754   0.006000   0.027572   0.000902
     2  C    0.039792  -0.016425   0.021688   0.005872   0.007654  -0.002839
     3  C   -0.048215  -0.139494   0.007925   0.003676   0.054730  -0.027856
     4  C    0.004304  -0.003850  -0.074577  -0.063977   0.000018  -0.000446
     5  C    0.481527   0.489284   0.000312   0.000897  -0.013579  -0.126305
     6  C    0.001953   0.000713   0.453411   0.451746   0.000325   0.000305
     7  C   -0.170720  -0.005046   0.000231   0.000273   0.384014   0.568161
     8  C    0.000282  -0.000070  -0.071174  -0.058924  -0.000012  -0.000019
     9  C   -0.054707   0.058938  -0.000001   0.000001  -0.139919  -0.029847
    10  C    0.032205  -0.023585   0.000008   0.000000  -0.013338  -0.038262
    11  H    0.005985  -0.010123   0.003922  -0.001639   0.005371  -0.001936
    12  H   -0.013111   0.008314  -0.001550   0.003530  -0.001281   0.002817
    13  H    0.005453  -0.002609   0.004426  -0.003848  -0.000101  -0.000059
    14  H   -0.003511   0.005988  -0.004881   0.003295   0.001442   0.000412
    15  H   -0.027411   0.013529   0.000522  -0.000434   0.011272  -0.005957
    16  H    0.018561  -0.026743  -0.000231   0.000661  -0.022359   0.004145
    17  H   -0.000011   0.000206   0.010165  -0.020850   0.000173  -0.000186
    18  H    0.000749   0.000134  -0.018566   0.010988  -0.000563   0.000151
    19  H    0.567777  -0.078121   0.000079  -0.000147   0.001790  -0.010823
    20  H   -0.078121   0.531575  -0.000239   0.000098  -0.005467   0.006470
    21  H    0.000079  -0.000239   0.556404  -0.075170   0.000065  -0.000053
    22  H   -0.000147   0.000098  -0.075170   0.552997  -0.000074   0.000047
    23  H    0.001790  -0.005467   0.000065  -0.000074   0.563182  -0.052368
    24  H   -0.010823   0.006470  -0.000053   0.000047  -0.052368   0.506245
    25  H   -0.000015   0.000008  -0.022836   0.012167   0.000001   0.000001
    26  H    0.000002   0.000005  -0.005312  -0.001825   0.000001   0.000002
    27  H   -0.000001  -0.000018   0.013338  -0.022863   0.000003  -0.000002
    28  H   -0.013763   0.008628   0.000000  -0.000000   0.000436   0.003164
    29  H    0.000544   0.000625   0.000000  -0.000000  -0.002881  -0.000086
    30  H    0.000877   0.000822  -0.000002   0.000001  -0.000742   0.003194
              25         26         27         28         29         30
     1  C   -0.007065   0.001290  -0.002423  -0.007927  -0.002410  -0.001419
     2  C   -0.021920   0.018739  -0.018464  -0.003750  -0.000262  -0.000470
     3  C   -0.001646  -0.002321  -0.001814  -0.022393  -0.000162  -0.002497
     4  C   -0.043867   0.056823  -0.031873  -0.000708  -0.000086  -0.000060
     5  C    0.000202  -0.000594   0.000031   0.021141   0.003300  -0.004566
     6  C    0.000141  -0.053649  -0.008222  -0.000114  -0.000008  -0.000020
     7  C    0.000009  -0.000054  -0.000054  -0.014189   0.042196   0.039687
     8  C    0.430597   0.335958   0.418261  -0.000010  -0.000000  -0.000001
     9  C    0.000008  -0.000011  -0.000005   0.373718  -0.089429  -0.049490
    10  C   -0.000003   0.000000   0.000001  -0.083334   0.419993   0.368970
    11  H    0.000442  -0.000137  -0.000072   0.000660   0.000120  -0.000155
    12  H   -0.000095   0.000008   0.000438   0.000894  -0.000198   0.000045
    13  H   -0.000292   0.000338   0.001679  -0.000390   0.000008  -0.000001
    14  H    0.001603   0.001019  -0.000428   0.000332  -0.000001  -0.000005
    15  H    0.000032  -0.000063  -0.000073   0.004423   0.000030  -0.000174
    16  H   -0.000107  -0.000026   0.000034  -0.002831  -0.000222   0.000385
    17  H    0.002491  -0.000874  -0.000260   0.000054   0.000008  -0.000007
    18  H   -0.000618  -0.001397   0.002204  -0.000135  -0.000005   0.000010
    19  H   -0.000015   0.000002  -0.000001  -0.013763   0.000544   0.000877
    20  H    0.000008   0.000005  -0.000018   0.008628   0.000625   0.000822
    21  H   -0.022836  -0.005312   0.013338   0.000000   0.000000  -0.000002
    22  H    0.012167  -0.001825  -0.022863  -0.000000  -0.000000   0.000001
    23  H    0.000001   0.000001   0.000003   0.000436  -0.002881  -0.000742
    24  H    0.000001   0.000002  -0.000002   0.003164  -0.000086   0.003194
    25  H    0.556791  -0.019943  -0.071049   0.000001   0.000000   0.000000
    26  H   -0.019943   0.476448  -0.024240  -0.000000  -0.000000  -0.000000
    27  H   -0.071049  -0.024240   0.560208  -0.000000  -0.000000  -0.000000
    28  H    0.000001  -0.000000  -0.000000   0.451173  -0.008182  -0.003017
    29  H    0.000000  -0.000000  -0.000000  -0.008182   0.454520  -0.009097
    30  H    0.000000  -0.000000  -0.000000  -0.003017  -0.009097   0.470479
 Mulliken charges:
               1
     1  C   -0.236308
     2  C   -0.222794
     3  C   -0.333885
     4  C   -0.427741
     5  C   -0.521974
     6  C   -0.288335
     7  C   -1.048417
     8  C   -0.859395
     9  C    0.918857
    10  C   -0.901382
    11  H    0.194945
    12  H    0.187408
    13  H    0.184882
    14  H    0.187303
    15  H    0.192481
    16  H    0.178049
    17  H    0.185675
    18  H    0.182168
    19  H    0.180383
    20  H    0.193069
    21  H    0.196341
    22  H    0.197504
    23  H    0.194634
    24  H    0.201031
    25  H    0.184963
    26  H    0.219816
    27  H    0.185665
    28  H    0.296118
    29  H    0.191685
    30  H    0.187253
 Sum of Mulliken charges =  -0.00000
 Mulliken charges with hydrogens summed into heavy atoms:
               1
     1  C    0.146045
     2  C    0.149392
     3  C    0.036645
     4  C   -0.059898
     5  C   -0.148521
     6  C    0.105510
     7  C   -0.652752
     8  C   -0.268952
     9  C    1.214975
    10  C   -0.522444
 Electronic spatial extent (au):  <R**2>=           4134.5868
 Charge=              0.0000 electrons
 Dipole moment (field-independent basis, Debye):
    X=             -0.4441    Y=              0.1400    Z=             -0.1504  Tot=              0.4893
 Quadrupole moment (field-independent basis, Debye-Ang):
   XX=            -72.1364   YY=            -69.2722   ZZ=            -66.2620
   XY=             -1.0071   XZ=              0.0066   YZ=              1.1721
 Traceless Quadrupole moment (field-independent basis, Debye-Ang):
   XX=             -2.9129   YY=             -0.0487   ZZ=              2.9615
   XY=             -1.0071   XZ=              0.0066   YZ=              1.1721
 Octapole moment (field-independent basis, Debye-Ang**2):
  XXX=             -9.3726  YYY=              1.0371  ZZZ=             -0.6819  XYY=             -1.9880
  XXY=             -4.4342  XXZ=              3.3043  XZZ=              0.0425  YZZ=              0.8260
  YYZ=             -0.9803  XYZ=              5.9751
 Hexadecapole moment (field-independent basis, Debye-Ang**3):
 XXXX=          -5655.8322 YYYY=           -243.4320 ZZZZ=           -170.2648 XXXY=           -110.5902
 XXXZ=             41.4791 YYYX=              1.4467 YYYZ=              1.1943 ZZZX=             -1.3298
 ZZZY=              3.5106 XXYY=           -972.9184 XXZZ=           -929.8588 YYZZ=            -62.1527
 XXYZ=             30.1953 YYXZ=             -4.7299 ZZXY=              6.4832
 N-N= 5.001562498332D+02 E-N=-1.909012739442D+03  KE= 3.908424823882D+02
 R6APFD:  NTU= -4 IXU= 1 FactS= 1.050
 Calling FoFJK, ICntrl=      2127 FMM=F ISym2X=0 I1Cent= 0 IOpClX= 0 NMat=1 NMatS=1 NMatT=0.
 ***** Axes restored to original set *****
 -------------------------------------------------------------------
 Center     Atomic                   Forces (Hartrees/Bohr)
 Number     Number              X              Y              Z
 -------------------------------------------------------------------
      1        6           0.003589609   -0.010680023   -0.000745780
      2        6           0.000806848    0.012651977    0.002420761
      3        6           0.004240676    0.004816955    0.001302272
      4        6           0.000313102   -0.012415641   -0.003156777
      5        6          -0.006230159   -0.001720085   -0.000868595
      6        6          -0.000076207    0.007150480    0.001350819
      7        6          -0.001004225    0.005438843    0.002073246
      8        6          -0.003737157   -0.003094174   -0.000528558
      9        6           0.009477339   -0.005866724   -0.013627464
     10        6          -0.008282132    0.002342915    0.011108005
     11        1          -0.000215428    0.002845420   -0.001374334
     12        1          -0.000425533    0.002390727    0.002311673
     13        1           0.000191830   -0.002771520    0.001320513
     14        1          -0.000140948   -0.002088625   -0.002163788
     15        1          -0.000735363   -0.003163251    0.001396863
     16        1          -0.000212482   -0.002447665   -0.002395327
     17        1          -0.000165085    0.002126558    0.002285628
     18        1          -0.000127434    0.002898459   -0.001378850
     19        1           0.000611856    0.002062892    0.002006827
     20        1           0.001428301    0.002086210   -0.000907920
     21        1           0.002075936   -0.002423160   -0.001792866
     22        1           0.001741550   -0.002973542    0.000956004
     23        1           0.001940053   -0.000656114   -0.001876408
     24        1          -0.002086262   -0.003140859    0.002162834
     25        1          -0.000321983    0.001946769   -0.000698661
     26        1          -0.003332052    0.001470443    0.000119129
     27        1          -0.000524933    0.001654435    0.001370133
     28        1          -0.001818987    0.002210063    0.004212440
     29        1           0.002990472    0.001222781   -0.001491311
     30        1           0.000028798   -0.001874543   -0.003390509
 -------------------------------------------------------------------
 Cartesian Forces:  Max     0.013627464 RMS     0.003932466

 GradGradGradGradGradGradGradGradGradGradGradGradGradGradGradGradGradGrad
 Berny optimization.
 FormGI is forming the generalized inverse of G from B-inverse, IUseBI=4.
 Internal  Forces:  Max     0.007963069 RMS     0.001907235
 Search for a local minimum.
 Step number   1 out of a maximum of  166
 All quantities printed in internal units (Hartrees-Bohrs-Radians)
 Mixed Optimization -- RFO/linear search
 Second derivative matrix not updated -- first step.
 ITU=  0
     Eigenvalues ---    0.00343   0.00359   0.00364   0.00365   0.00373
     Eigenvalues ---    0.00389   0.00496   0.00752   0.01629   0.02914
     Eigenvalues ---    0.02914   0.03457   0.03461   0.03675   0.03681
     Eigenvalues ---    0.03682   0.03721   0.04270   0.04811   0.04817
     Eigenvalues ---    0.04879   0.04880   0.04888   0.04928   0.05479
     Eigenvalues ---    0.05607   0.05702   0.08084   0.08102   0.08113
     Eigenvalues ---    0.08166   0.08447   0.08450   0.09183   0.12017
     Eigenvalues ---    0.12030   0.12037   0.12067   0.12287   0.12290
     Eigenvalues ---    0.12705   0.15998   0.16000   0.16000   0.16000
     Eigenvalues ---    0.16000   0.16000   0.21897   0.21898   0.21899
     Eigenvalues ---    0.21906   0.21922   0.21925   0.21934   0.22000
     Eigenvalues ---    0.29245   0.29353   0.29385   0.29395   0.29451
     Eigenvalues ---    0.29563   0.30326   0.32271   0.33931   0.33932
     Eigenvalues ---    0.34003   0.34006   0.34032   0.34036   0.34042
     Eigenvalues ---    0.34046   0.34054   0.34059   0.34062   0.34082
     Eigenvalues ---    0.34102   0.34104   0.34273   0.34282   0.34310
     Eigenvalues ---    0.35153   0.35458   0.35484   0.57735
 RFO step:  Lambda=-2.72358663D-03 EMin= 3.43456347D-03
 Linear search not attempted -- first point.
 Iteration  1 RMS(Cart)=  0.02336853 RMS(Int)=  0.00020914
 Iteration  2 RMS(Cart)=  0.00045911 RMS(Int)=  0.00008660
 Iteration  3 RMS(Cart)=  0.00000008 RMS(Int)=  0.00008660
 Variable       Old X    -DE/DX   Delta X   Delta X   Delta X     New X
                                 (Linear)    (Quad)   (Total)
    R1        2.89207   0.00046   0.00000   0.00155   0.00155   2.89362
    R2        2.89186  -0.00044   0.00000  -0.00149  -0.00149   2.89037
    R3        2.07226   0.00298   0.00000   0.00869   0.00869   2.08095
    R4        2.07239   0.00316   0.00000   0.00921   0.00921   2.08160
    R5        2.89072   0.00123   0.00000   0.00415   0.00415   2.89487
    R6        2.07260   0.00292   0.00000   0.00850   0.00850   2.08109
    R7        2.07269   0.00286   0.00000   0.00834   0.00834   2.08103
    R8        2.89495  -0.00150   0.00000  -0.00509  -0.00509   2.88985
    R9        2.07319   0.00329   0.00000   0.00959   0.00959   2.08278
   R10        2.07324   0.00324   0.00000   0.00944   0.00944   2.08269
   R11        2.88843   0.00132   0.00000   0.00444   0.00444   2.89287
   R12        2.07253   0.00298   0.00000   0.00868   0.00868   2.08120
   R13        2.07277   0.00307   0.00000   0.00894   0.00894   2.08170
   R14        2.89273   0.00127   0.00000   0.00428   0.00428   2.89700
   R15        2.07446   0.00270   0.00000   0.00789   0.00789   2.08235
   R16        2.07444   0.00221   0.00000   0.00645   0.00645   2.08090
   R17        2.87319   0.00765   0.00000   0.02499   0.02499   2.89817
   R18        2.07154   0.00274   0.00000   0.00797   0.00797   2.07951
   R19        2.07159   0.00273   0.00000   0.00793   0.00793   2.07952
   R20        2.83652   0.00051   0.00000   0.00156   0.00156   2.83807
   R21        2.07231   0.00199   0.00000   0.00579   0.00579   2.07810
   R22        2.07192   0.00380   0.00000   0.01107   0.01107   2.08299
   R23        2.06872   0.00188   0.00000   0.00545   0.00545   2.07417
   R24        2.06810   0.00188   0.00000   0.00544   0.00544   2.07353
   R25        2.06857   0.00199   0.00000   0.00575   0.00575   2.07432
   R26        2.52779  -0.00796   0.00000  -0.01373  -0.01373   2.51406
   R27        2.05427   0.00456   0.00000   0.01286   0.01286   2.06713
   R28        2.04938   0.00282   0.00000   0.00790   0.00790   2.05728
   R29        2.04896   0.00387   0.00000   0.01082   0.01082   2.05978
    A1        1.94124   0.00442   0.00000   0.02428   0.02421   1.96545
    A2        1.91528  -0.00143   0.00000  -0.00713  -0.00719   1.90810
    A3        1.91363  -0.00132   0.00000  -0.00367  -0.00382   1.90981
    A4        1.91239  -0.00110   0.00000  -0.00277  -0.00275   1.90964
    A5        1.90928  -0.00087   0.00000   0.00169   0.00163   1.91090
    A6        1.87066   0.00013   0.00000  -0.01383  -0.01389   1.85677
    A7        1.94289   0.00526   0.00000   0.02822   0.02815   1.97104
    A8        1.91405  -0.00172   0.00000  -0.00625  -0.00635   1.90769
    A9        1.91074  -0.00122   0.00000  -0.00252  -0.00257   1.90817
   A10        1.91036  -0.00115   0.00000  -0.00141  -0.00146   1.90890
   A11        1.91408  -0.00169   0.00000  -0.00618  -0.00626   1.90782
   A12        1.87030   0.00031   0.00000  -0.01351  -0.01358   1.85672
   A13        1.97988  -0.00256   0.00000  -0.01008  -0.01007   1.96981
   A14        1.90790   0.00045   0.00000   0.00067   0.00070   1.90860
   A15        1.90524   0.00086   0.00000   0.00334   0.00335   1.90859
   A16        1.90080   0.00139   0.00000   0.00983   0.00983   1.91062
   A17        1.90314   0.00092   0.00000   0.00556   0.00555   1.90869
   A18        1.86331  -0.00100   0.00000  -0.00936  -0.00938   1.85392
   A19        1.94319   0.00554   0.00000   0.02964   0.02956   1.97275
   A20        1.91373  -0.00157   0.00000  -0.00564  -0.00565   1.90808
   A21        1.91093  -0.00129   0.00000  -0.00089  -0.00100   1.90993
   A22        1.91347  -0.00164   0.00000  -0.00690  -0.00694   1.90653
   A23        1.91133  -0.00160   0.00000  -0.00415  -0.00431   1.90702
   A24        1.86972   0.00035   0.00000  -0.01378  -0.01385   1.85587
   A25        1.97888  -0.00315   0.00000  -0.01356  -0.01353   1.96534
   A26        1.90094   0.00126   0.00000   0.00779   0.00774   1.90868
   A27        1.89978   0.00206   0.00000   0.01604   0.01600   1.91578
   A28        1.91185   0.00076   0.00000  -0.00020  -0.00017   1.91168
   A29        1.90845   0.00013   0.00000  -0.00342  -0.00335   1.90510
   A30        1.86018  -0.00093   0.00000  -0.00616  -0.00625   1.85393
   A31        1.94581   0.00305   0.00000   0.01833   0.01831   1.96411
   A32        1.91786  -0.00196   0.00000  -0.01492  -0.01521   1.90266
   A33        1.91731  -0.00176   0.00000  -0.01415  -0.01440   1.90291
   A34        1.90356   0.00055   0.00000   0.01451   0.01459   1.91815
   A35        1.90638   0.00024   0.00000   0.01097   0.01107   1.91745
   A36        1.87134  -0.00023   0.00000  -0.01575  -0.01607   1.85527
   A37        1.94030   0.00272   0.00000   0.01367   0.01364   1.95394
   A38        1.91285   0.00075   0.00000   0.00541   0.00546   1.91831
   A39        1.91224  -0.00226   0.00000  -0.01150  -0.01163   1.90061
   A40        1.93431  -0.00261   0.00000  -0.02009  -0.02006   1.91425
   A41        1.89511   0.00102   0.00000   0.01548   0.01551   1.91062
   A42        1.86744   0.00026   0.00000  -0.00363  -0.00358   1.86386
   A43        1.93742  -0.00004   0.00000  -0.00245  -0.00253   1.93489
   A44        1.92443   0.00449   0.00000   0.03197   0.03186   1.95629
   A45        1.93716   0.00011   0.00000  -0.00149  -0.00157   1.93559
   A46        1.88628  -0.00184   0.00000  -0.00717  -0.00727   1.87901
   A47        1.89042  -0.00100   0.00000  -0.01434  -0.01438   1.87604
   A48        1.88648  -0.00191   0.00000  -0.00758  -0.00769   1.87879
   A49        2.16461   0.00243   0.00000   0.01109   0.01081   2.17542
   A50        2.04896  -0.00337   0.00000  -0.01851  -0.01878   2.03018
   A51        2.06946   0.00095   0.00000   0.00814   0.00785   2.07732
   A52        2.10167   0.00281   0.00000   0.01727   0.01727   2.11893
   A53        2.12150  -0.00121   0.00000  -0.00745  -0.00746   2.11404
   A54        2.06002  -0.00160   0.00000  -0.00982  -0.00982   2.05020
    D1        3.11452   0.00029   0.00000   0.01307   0.01306   3.12759
    D2        0.99784  -0.00055   0.00000   0.00056   0.00059   0.99843
    D3       -1.04954   0.00078   0.00000   0.02204   0.02206  -1.02748
    D4       -1.04967   0.00085   0.00000   0.02075   0.02070  -1.02898
    D5        3.11683   0.00001   0.00000   0.00824   0.00822   3.12505
    D6        1.06945   0.00134   0.00000   0.02971   0.02969   1.09915
    D7        1.00056  -0.00061   0.00000  -0.00242  -0.00242   0.99814
    D8       -1.11612  -0.00145   0.00000  -0.01493  -0.01490  -1.13102
    D9        3.11969  -0.00012   0.00000   0.00655   0.00657   3.12626
   D10       -3.12530  -0.00024   0.00000  -0.01231  -0.01233  -3.13763
   D11       -1.00038   0.00014   0.00000  -0.00605  -0.00607  -1.00645
   D12        1.03189  -0.00032   0.00000  -0.01502  -0.01504   1.01685
   D13        1.03721  -0.00060   0.00000  -0.01738  -0.01740   1.01981
   D14       -3.12106  -0.00022   0.00000  -0.01113  -0.01114  -3.13219
   D15       -1.08879  -0.00068   0.00000  -0.02010  -0.02011  -1.10890
   D16       -1.00879   0.00038   0.00000  -0.00004  -0.00001  -1.00880
   D17        1.11613   0.00076   0.00000   0.00622   0.00625   1.12239
   D18       -3.13478   0.00030   0.00000  -0.00276  -0.00272  -3.13750
   D19        3.11806   0.00021   0.00000   0.01056   0.01056   3.12862
   D20       -1.04454   0.00073   0.00000   0.01757   0.01754  -1.02699
   D21        1.00206  -0.00051   0.00000  -0.00292  -0.00297   0.99909
   D22       -1.04629   0.00071   0.00000   0.02017   0.02021  -1.02608
   D23        1.07430   0.00123   0.00000   0.02717   0.02719   1.10149
   D24        3.12090  -0.00001   0.00000   0.00668   0.00668   3.12757
   D25        1.00089  -0.00056   0.00000  -0.00061  -0.00058   1.00031
   D26        3.12147  -0.00005   0.00000   0.00639   0.00640   3.12788
   D27       -1.11511  -0.00129   0.00000  -0.01409  -0.01411  -1.12922
   D28       -3.12421  -0.00004   0.00000  -0.00885  -0.00884  -3.13305
   D29        1.02561   0.00020   0.00000  -0.00507  -0.00504   1.02057
   D30       -0.99604  -0.00049   0.00000  -0.01075  -0.01080  -1.00683
   D31        1.03010   0.00010   0.00000  -0.01003  -0.01000   1.02010
   D32       -1.10327   0.00034   0.00000  -0.00625  -0.00620  -1.10947
   D33       -3.12491  -0.00036   0.00000  -0.01193  -0.01196  -3.13688
   D34       -0.99704   0.00001   0.00000  -0.00735  -0.00735  -1.00439
   D35       -3.13041   0.00025   0.00000  -0.00358  -0.00355  -3.13396
   D36        1.13113  -0.00045   0.00000  -0.00926  -0.00931   1.12182
   D37       -3.11766  -0.00028   0.00000  -0.01485  -0.01485  -3.13252
   D38       -1.00505   0.00111   0.00000   0.00542   0.00525  -0.99980
   D39        1.04973  -0.00140   0.00000  -0.03120  -0.03106   1.01866
   D40        1.04479  -0.00083   0.00000  -0.02258  -0.02255   1.02223
   D41       -3.12579   0.00055   0.00000  -0.00231  -0.00245  -3.12823
   D42       -1.07101  -0.00196   0.00000  -0.03892  -0.03876  -1.10977
   D43       -1.00190   0.00063   0.00000   0.00054   0.00054  -1.00136
   D44        1.11071   0.00202   0.00000   0.02081   0.02065   1.13136
   D45       -3.11769  -0.00049   0.00000  -0.01580  -0.01567  -3.13336
   D46        3.13241  -0.00051   0.00000   0.01044   0.01048  -3.14029
   D47        0.98804   0.00045   0.00000   0.02293   0.02293   1.01097
   D48       -1.05605   0.00101   0.00000   0.03088   0.03086  -1.02519
   D49       -1.02348  -0.00050   0.00000   0.01101   0.01105  -1.01242
   D50        3.11534   0.00046   0.00000   0.02350   0.02350   3.13884
   D51        1.07125   0.00102   0.00000   0.03145   0.03143   1.10268
   D52        1.00909  -0.00112   0.00000   0.00153   0.00155   1.01064
   D53       -1.13528  -0.00016   0.00000   0.01402   0.01400  -1.12128
   D54        3.10381   0.00040   0.00000   0.02197   0.02193   3.12574
   D55        1.05298  -0.00063   0.00000  -0.00987  -0.00987   1.04312
   D56       -3.14039  -0.00002   0.00000   0.00047   0.00048  -3.13991
   D57       -1.05047   0.00059   0.00000   0.01091   0.01094  -1.03953
   D58       -1.06795  -0.00052   0.00000  -0.01278  -0.01287  -1.08083
   D59        1.02186   0.00009   0.00000  -0.00245  -0.00252   1.01934
   D60        3.11177   0.00070   0.00000   0.00799   0.00794   3.11971
   D61       -3.10806  -0.00068   0.00000  -0.00829  -0.00825  -3.11631
   D62       -1.01824  -0.00008   0.00000   0.00205   0.00210  -1.01614
   D63        1.07167   0.00054   0.00000   0.01248   0.01256   1.08423
   D64       -2.13735   0.00003   0.00000   0.03101   0.03098  -2.10636
   D65        1.02335  -0.00084   0.00000  -0.01369  -0.01346   1.00988
   D66       -0.00538   0.00105   0.00000   0.03339   0.03326   0.02788
   D67       -3.12787   0.00018   0.00000  -0.01131  -0.01119  -3.13906
   D68        2.04098   0.00047   0.00000   0.02675   0.02653   2.06751
   D69       -1.08151  -0.00039   0.00000  -0.01795  -0.01792  -1.09943
   D70       -3.13212  -0.00063   0.00000  -0.02931  -0.02949   3.12158
   D71        0.01027  -0.00050   0.00000  -0.02499  -0.02518  -0.01491
   D72       -0.00984   0.00020   0.00000   0.01562   0.01580   0.00596
   D73        3.13255   0.00034   0.00000   0.01993   0.02012  -3.13052
         Item               Value     Threshold  Converged?
 Maximum Force            0.007963     0.000450     NO 
 RMS     Force            0.001907     0.000300     NO 
 Maximum Displacement     0.113232     0.001800     NO 
 RMS     Displacement     0.023196     0.001200     NO 
 Predicted change in Energy=-1.402666D-03
 GradGradGradGradGradGradGradGradGradGradGradGradGradGradGradGradGradGrad

                          Input orientation:                          
 ---------------------------------------------------------------------
 Center     Atomic      Atomic             Coordinates (Angstroms)
 Number     Number       Type             X           Y           Z
 ---------------------------------------------------------------------
      1          6           0       -0.591664    0.338795    0.124508
      2          6           0       -1.875374   -0.474654   -0.062778
      3          6           0        0.668855   -0.522942    0.035486
      4          6           0       -3.143409    0.378160    0.044503
      5          6           0        1.954272    0.282979    0.227273
      6          6           0       -4.427535   -0.429631   -0.160362
      7          6           0        3.214299   -0.584231    0.125037
      8          6           0       -5.689002    0.437174   -0.063274
      9          6           0        4.467283    0.221131    0.317285
     10          6           0        5.442579    0.328509   -0.581152
     11          1           0       -0.547861    1.131391   -0.638706
     12          1           0       -0.620120    0.848542    1.100584
     13          1           0       -1.910516   -1.277759    0.689935
     14          1           0       -1.852336   -0.970897   -1.045593
     15          1           0        0.619528   -1.321710    0.793311
     16          1           0        0.697260   -1.028562   -0.943384
     17          1           0       -3.173750    0.863403    1.032702
     18          1           0       -3.102638    1.190518   -0.698404
     19          1           0        1.929328    0.782198    1.209317
     20          1           0        2.006179    1.085749   -0.524675
     21          1           0       -4.387318   -0.923858   -1.142741
     22          1           0       -4.468436   -1.234570    0.588876
     23          1           0        3.244062   -1.087831   -0.852105
     24          1           0        3.165606   -1.376250    0.890112
     25          1           0       -5.677210    1.230801   -0.821398
     26          1           0       -6.604820   -0.149246   -0.209490
     27          1           0       -5.757025    0.920950    0.919701
     28          1           0        4.552313    0.768082    1.260781
     29          1           0        6.321549    0.942864   -0.393610
     30          1           0        5.388401   -0.193207   -1.536637
 ---------------------------------------------------------------------
                    Distance matrix (angstroms):
                    1          2          3          4          5
     1  C    0.000000
     2  C    1.531237   0.000000
     3  C    1.529517   2.546584   0.000000
     4  C    2.553303   1.531899   3.917324   0.000000
     5  C    2.548620   3.914630   1.529244   5.101845   0.000000
     6  C    3.922441   2.554423   5.101006   1.530842   6.433159
     7  C    3.916291   5.094316   2.547756   6.430641   1.533028
     8  C    5.101744   3.921120   6.430702   2.548556   7.650348
     9  C    5.063986   6.392016   3.880864   7.617198   2.515383
    10  C    6.075372   7.380123   4.888113   8.608897   3.581048
    11  H    1.101192   2.161797   2.161424   2.787652   2.780358
    12  H    1.101534   2.163313   2.162605   2.775528   2.776694
    13  H    2.161556   1.101267   2.766082   2.163025   4.193632
    14  H    2.161880   1.101232   2.779533   2.162205   4.205076
    15  H    2.161379   2.770367   1.102162   4.196424   2.162630
    16  H    2.161338   2.775019   1.102110   4.207794   2.161171
    17  H    2.786969   2.162465   4.204998   1.101326   5.223238
    18  H    2.776258   2.164023   4.206982   1.101589   5.220425
    19  H    2.780075   4.204005   2.161032   5.220412   1.101932
    20  H    2.779958   4.208879   2.165664   5.229044   1.101163
    21  H    4.196093   2.770914   5.207095   2.156874   6.599178
    22  H    4.209570   2.779585   5.215786   2.157067   6.609455
    23  H    4.207353   5.216095   2.781835   6.614592   2.169731
    24  H    4.200548   5.208873   2.773496   6.602778   2.158640
    25  H    5.249113   4.235331   6.639458   2.810147   7.761288
    26  H    6.042167   4.742897   7.287387   3.510560   8.581121
    27  H    5.258535   4.240305   6.645194   2.809196   7.768563
    28  H    5.285442   6.679174   4.271924   7.800994   2.837830
    29  H    6.958869   8.325164   5.855396   9.491906   4.460275
    30  H    6.229254   7.417136   4.985419   8.695875   3.889907
                    6          7          8          9         10
     6  C    0.000000
     7  C    7.648725   0.000000
     8  C    1.533648   8.963677   0.000000
     9  C    8.931374   1.501844  10.165708   0.000000
    10  C    9.908128   2.509388  11.144150   1.330383   0.000000
    11  H    4.209214   4.204820   5.219616   5.185958   6.044278
    12  H    4.209528   4.208005   5.217025   5.185449   6.313081
    13  H    2.788855   5.202291   4.217259   6.562154   7.633071
    14  H    2.776374   5.214469   4.203286   6.573885   7.424281
    15  H    5.213267   2.779083   6.604920   4.172790   5.279601
    16  H    5.218752   2.770278   6.611151   4.167025   4.948829
    17  H    2.160398   6.612615   2.776568   7.701281   8.782469
    18  H    2.160955   6.612979   2.767706   7.699029   8.589385
    19  H    6.614700   2.166552   7.731589   2.748043   3.969200
    20  H    6.619802   2.161137   7.736236   2.741076   3.519296
    21  H    1.100430   7.714090   2.170723   9.046913   9.925254
    22  H    1.100435   7.724151   2.170210   9.057589  10.101505
    23  H    7.730792   1.099684   9.096566   2.139421   2.629241
    24  H    7.723689   1.102273   9.088538   2.138719   3.202410
    25  H    2.180754   9.124090   1.097603  10.258010  11.158922
    26  H    2.195814   9.834441   1.097265  11.090813  12.062595
    27  H    2.181318   9.131359   1.097683  10.265921  11.315241
    28  H    9.170160   2.215614  10.331851   1.093879   2.092491
    29  H   10.838864   3.500859  12.025730   2.112954   1.088666
    30  H    9.914768   2.764196  11.192722   2.111199   1.089988
                   11         12         13         14         15
    11  H    0.000000
    12  H    1.763621   0.000000
    13  H    3.070199   2.520895   0.000000
    14  H    2.507355   3.071611   1.763407   0.000000
    15  H    3.071022   2.518162   2.532537   3.100766   0.000000
    16  H    2.511683   3.071941   3.087123   2.552296   1.762977
    17  H    3.124214   2.554575   2.509546   3.070847   4.384175
    18  H    2.556158   3.084834   3.072626   2.521013   4.731916
    19  H    3.110240   2.552628   4.388346   4.739087   2.512979
    20  H    2.556991   3.097609   4.733070   4.403327   3.075019
    21  H    4.384008   4.729238   3.101369   2.537278   5.382851
    22  H    4.740848   4.405762   2.560280   3.095963   5.092816
    23  H    4.398768   4.742830   5.383645   5.101410   3.106488
    24  H    4.734489   4.396103   5.081022   5.393608   2.548500
    25  H    5.133564   5.423494   4.771266   4.418981   6.983660
    26  H    6.205724   6.207134   4.911109   4.894924   7.387252
    27  H    5.441352   5.140599   4.436524   4.763198   6.760616
    28  H    5.454523   5.175538   6.802903   7.025876   4.478008
    29  H    6.876366   7.101288   8.594891   8.420212   6.249009
[...]
 5,-0.00000487,0.00000271,-0.00000607,-0.00040748,0.00006618,-0.0002056
 2,0.00320835,-0.00137969,-0.00075501,-0.00000011,-0.00000118,-0.000000
 96,0.00000195,0.00000391,-0.00000242,0.00112413,0.01037872,-0.00963221
 ,0.01185502,0.19455683,-0.00021307,-0.00030804,0.00017888,-0.00005207,
 0.00006598,-0.00002793,0.00019661,-0.00004856,0.00003368,-0.00002075,-
 0.00002457,0.00000220,0.00024715,-0.00162742,0.00139714,-0.00000459,0.
 00001220,-0.00000249,0.00877653,0.12178472,-0.16656831,-0.00000439,-0.
 00000335,-0.00000035,0.00182377,-0.00458779,0.00448497,-0.00064502,0.0
 0023554,0.00064408,0.00014963,-0.00006738,-0.00001870,0.00003595,-0.00
 001921,-0.00003072,-0.00001242,-0.00000500,0.00002176,-0.00000287,-0.0
 0000026,-0.00001061,-0.00056026,-0.00003587,0.00010202,0.00000515,0.00
 011786,-0.00011365,0.00000304,-0.00000035,-0.00000214,0.00000483,-0.00
 000452,0.00000240,-0.00049954,-0.00008466,0.00062822,0.00036774,-0.000
 45027,0.00140155,-0.00000015,0.00000028,-0.00000338,-0.00000157,-0.000
 00267,0.00000526,0.00169149,0.02063904,-0.01854151,-0.01156469,-0.1364
 9668,0.17599776,0.00003725,-0.00011559,0.00007183,-0.00012704,0.000090
 87,0.00012894,0.00002408,0.00002227,0.00001019,0.00189777,0.00094513,-
 0.00101071,0.00000463,-0.00001104,-0.00000346,-0.00027453,0.01988164,-
 0.02080037,0.00000409,0.00000693,0.00000136,-0.04635937,-0.00580391,0.
 00515135,-0.00000068,-0.00000797,-0.00000065,0.00000429,0.00000055,0.0
 0000038,-0.00005427,-0.00003473,0.00000880,-0.00000194,0.00000260,-0.0
 0000213,0.00009021,-0.00023295,0.00015230,0.00003869,0.00001003,-0.000
 02618,0.00000836,-0.00000583,0.00000583,0.00000025,0.00000107,-0.00000
 381,-0.00001480,-0.00010475,0.00001242,-0.00051738,-0.00058190,0.00055
 870,-0.00000072,0.00000038,-0.00000008,-0.00000237,-0.00000083,0.00000
 123,0.00101855,-0.00066099,0.00029664,-0.00440817,0.00316738,0.0003927
 3,0.00000035,0.00000004,-0.00000091,0.00000059,-0.00000062,0.00000153,
 0.05018838,0.00001906,-0.00000420,-0.00005533,0.00003259,0.00019234,-0
 .00024892,0.00000216,0.00002420,0.00001434,-0.00114778,0.00049049,-0.0
 0032298,0.00000394,-0.00001654,0.00000119,-0.00007453,-0.01485834,0.01
 433196,0.00000889,0.00000935,0.00000508,-0.00550328,-0.17437958,0.1300
 1812,-0.00000663,-0.00001148,-0.00000254,0.00000787,0.00000577,-0.0000
 0137,0.00003738,0.00002431,-0.00000127,-0.00000359,0.00000220,0.000002
 85,-0.00022446,0.00009840,-0.00006832,0.00000413,-0.00006207,-0.000005
 65,-0.00000456,-0.00000008,-0.00000446,0.00000120,-0.00000631,-0.00000
 302,0.00007867,0.00000545,-0.00007852,0.00067182,0.00059223,-0.0000162
 9,-0.00000131,0.00000002,0.00000026,0.00000163,0.00000448,-0.00000205,
 -0.00039627,-0.00004313,-0.00028242,0.00356386,-0.00129080,-0.00090157
 ,0.00000051,-0.00000162,-0.00000081,-0.00000143,0.00000193,-0.00000116
 ,0.00179649,0.18981216,-0.00005327,0.00006842,-0.00002847,-0.00019054,
 -0.00031107,0.00020291,-0.00002084,-0.00002339,0.00000175,0.00014231,-
 0.00008362,0.00001081,-0.00000440,0.00001134,-0.00000328,-0.00008164,-
 0.00235533,0.00222351,-0.00000575,-0.00000319,-0.00000170,0.00475823,0
 .13027269,-0.17951034,0.00000403,0.00000332,0.00000091,-0.00000212,-0.
 00000436,0.00000256,-0.00001175,-0.00000484,0.00002236,-0.00000288,0.0
 0000174,-0.00001053,0.00014565,-0.00006179,-0.00002388,0.00002897,-0.0
 0001566,-0.00002775,0.00000494,-0.00000550,0.00000215,0.00000253,0.000
 00031,-0.00000194,0.00001466,0.00012720,-0.00010282,-0.00061154,-0.000
 01722,0.00006286,-0.00000016,0.00000081,-0.00000290,-0.00000206,-0.000
 00249,0.00000522,-0.00058711,-0.00005270,0.00060034,0.00064016,-0.0006
 0240,0.00137135,0.00000049,0.00000027,-0.00000086,0.00000139,-0.000002
 20,0.00000129,-0.00546799,-0.14330267,0.19125388,-0.00038727,0.0006499
 7,0.00008990,-0.00086712,-0.00168181,-0.00031570,-0.00014841,-0.000264
 16,-0.00004924,-0.00320622,0.00558704,0.00073253,-0.00005396,0.0001144
 1,0.00001553,-0.01997377,-0.01601275,-0.00324242,-0.00004231,-0.000059
 38,-0.00001531,-0.23043515,-0.11916617,-0.02583877,0.00000976,0.000055
 71,0.00000884,-0.00003020,-0.00001197,0.00000054,0.00001697,-0.0000158
 0,0.00002608,0.00002112,-0.00000612,-0.00002925,-0.00000753,0.00006105
 ,-0.00009363,-0.00000533,0.00002702,0.00010776,0.00000525,0.00001031,-
 0.00001318,0.00000571,0.00000588,0.00001586,0.00030020,0.00009546,-0.0
 0009628,0.00030179,0.00008011,0.00012621,0.00000431,-0.00000374,-0.000
 00664,0.00000186,-0.00000485,0.00000356,0.00049694,-0.00007887,0.00068
 771,0.00053902,0.00014779,-0.00062773,0.00000031,0.00000194,0.00000373
 ,0.00000361,-0.00000001,-0.00000385,-0.00015025,0.00059876,0.00012721,
 0.25199422,0.00028133,-0.00032333,-0.00003890,0.00100286,0.00093838,0.
 00009241,0.00008372,0.00010156,0.00002032,0.00253872,-0.00272781,-0.00
 034545,0.00002943,-0.00003975,-0.00000444,0.01813929,0.01272305,0.0028
 8285,0.00001158,0.00001421,0.00000181,-0.12016912,-0.12422313,-0.01688
 860,0.00000399,-0.00000754,-0.00000088,0.00000040,0.00000327,-0.000000
 35,-0.00000709,-0.00000117,-0.00002046,-0.00000939,-0.00000591,0.00001
 797,-0.00008444,0.00003807,0.00004261,-0.00006131,0.00003542,-0.000030
 41,-0.00000256,-0.00000012,0.00000458,-0.00000293,0.00000188,-0.000003
 68,0.00008171,-0.00007871,0.00022727,0.00021060,0.00009948,-0.00028067
 ,-0.00000032,0.00000006,0.00000346,0.00000026,0.00000079,-0.00000337,-
 0.00083021,0.00068311,-0.00013268,-0.00073869,0.00068882,0.00030205,-0
 .00000087,0.00000030,-0.00000019,-0.00000123,0.00000022,0.00000017,-0.
 01774644,-0.01180859,-0.00431601,0.12823562,0.13201313,0.00002549,-0.0
 0002363,-0.00000658,0.00009039,-0.00001205,0.00059602,0.00000575,0.000
 00274,0.00001620,0.00025731,-0.00022297,0.00021228,0.00000288,0.000000
 96,-0.00001583,0.00208176,0.00151520,-0.00110204,0.00000039,-0.0000002
 3,0.00000202,-0.02600732,-0.01687465,-0.05034607,0.00000062,0.00000137
 ,0.00000056,-0.00000082,0.00000046,0.00000015,-0.00000134,0.00000272,0
 .00000243,0.00000018,-0.00000612,0.00000505,0.00006226,-0.00003491,-0.
 00002083,-0.00008325,0.00005567,-0.00001569,-0.00000099,0.00000250,-0.
 00000208,0.00000095,-0.00000079,-0.00000275,0.00033957,0.00026342,0.00
 031366,-0.00028752,-0.00032418,0.00012548,-0.00000086,-0.00000113,0.00
 000036,0.00000112,0.00000070,0.00000012,0.00019257,0.00035594,-0.00000
 133,-0.00038479,-0.00012505,-0.00009011,-0.00000037,0.00000036,-0.0000
 0045,-0.00000017,0.00000040,-0.00000041,0.02021619,0.01199988,0.003070
 76,0.02813606,0.01861115,0.04966135,0.00003907,-0.00008461,-0.00009722
 ,-0.00012508,0.00011365,-0.00013114,0.00002374,0.00002290,-0.00000277,
 0.00186049,0.00054999,0.00137691,0.00000410,-0.00001116,0.00000198,-0.
 00214079,0.01260278,0.02564508,0.00000390,0.00000639,0.00000235,-0.046
 34834,0.00368921,0.00840555,-0.00000128,-0.00000699,-0.00000094,0.0000
 0413,0.00000073,0.00000032,-0.00000268,0.00000153,0.00000375,-0.000054
 19,-0.00002990,-0.00002509,0.00003914,0.00000002,0.00003371,0.00011754
 ,-0.00018165,-0.00020715,0.00000021,-0.00000002,0.00000445,0.00000905,
 -0.00000422,-0.00000692,-0.00051950,-0.00038911,-0.00075533,-0.0000097
 0,-0.00008905,-0.00003593,-0.00000291,-0.00000041,-0.00000201,-0.00000
 054,0.00000012,0.00000060,-0.00438433,0.00318881,0.00011939,0.00101197
 ,-0.00053235,-0.00045194,0.00000146,-0.00000072,-0.00000175,-0.0000001
 7,0.00000025,0.00000114,-0.00140471,0.00053336,0.00117406,0.00160670,-
 0.01096619,-0.02464634,0.05027383,-0.00000317,-0.00000021,0.00006513,-
 0.00004056,0.00003162,0.00019396,-0.00000356,0.00001964,-0.00000818,-0
 .00108717,0.00034280,0.00033103,0.00000239,-0.00001225,-0.00000364,0.0
 0122280,-0.00999970,-0.01844509,0.00000635,0.00000868,0.00000111,0.003
 84526,-0.09961752,-0.10489019,-0.00000319,-0.00001088,-0.00000203,0.00
 000637,0.00000127,0.00000005,-0.00000374,0.00000264,0.00000104,0.00003
 257,0.00002222,0.00000444,0.00001196,-0.00006499,-0.00000620,-0.000177
 09,0.00005307,0.00008118,0.00000187,-0.00000681,0.00000165,-0.00000357
 ,-0.00000278,0.00000288,0.00045859,0.00053391,0.00020665,0.00007082,0.
 00000928,0.00011930,0.00000066,0.00000367,0.00000233,-0.00000100,0.000
 00013,0.00000079,0.00362981,-0.00157089,0.00027605,-0.00057915,-0.0000
 6546,0.00003522,-0.00000084,-0.00000016,0.00000120,-0.00000021,-0.0000
 0140,0.00000038,-0.00062110,0.01121870,0.02067645,0.00165027,-0.008125
 18,-0.01518622,-0.00841563,0.10722532,0.00006075,-0.00006789,-0.000034
 07,0.00014975,0.00026441,0.00037072,0.00002158,0.00003102,0.00000787,-
 0.00034248,0.00023369,0.00024700,0.00000608,-0.00001567,-0.00000753,0.
 00004628,-0.00046138,-0.00077419,0.00000823,0.00000718,0.00000236,0.00
 888341,-0.10517075,-0.25391186,-0.00000376,-0.00000859,-0.00000331,0.0
 0000465,0.00000293,-0.00000134,0.00000240,0.00000257,-0.00001025,0.000
 01627,0.00000222,0.00002458,-0.00001995,0.00000382,-0.00002388,-0.0001
 9825,0.00007319,-0.00000741,-0.00000165,-0.00000175,-0.00000131,-0.000
 00599,0.00000378,0.00000388,0.00073653,0.00012527,0.00011916,0.0000159
 4,-0.00009865,-0.00010976,0.00000164,0.00000182,0.00000722,0.00000025,
 0.00000012,-0.00000268,0.00000047,-0.00005239,0.00160591,0.00046737,-0
 .00020422,0.00064245,-0.00000195,0.00000109,0.00000238,-0.00000089,-0.
 00000014,-0.00000061,0.00030680,-0.01107387,-0.01911622,0.00024735,-0.
 00014124,-0.00240229,-0.01040306,0.11654040,0.27337037,0.00000209,0.00
 003460,0.00006337,0.00001346,0.00000113,0.,-0.00021517,0.00000829,0.00
 018497,-0.00000041,-0.00000039,0.00000208,0.00228593,-0.00057286,-0.00
 070651,-0.00000147,-0.00000075,-0.00000163,-0.00041714,-0.01145013,-0.
 02263002,0.00000022,0.00000019,-0.00000010,-0.05485945,-0.01641441,-0.
 02044340,0.00537780,0.00925117,0.02329223,-0.00000731,0.00000567,-0.00
 000823,-0.00004959,0.00003312,0.00002474,-0.00000027,-0.00000095,-0.00
 000424,0.00000787,0.00000374,0.00000669,0.00004822,-0.00000547,-0.0000
 3334,0.00013460,0.00015645,0.00020653,-0.00000296,0.00000133,0.0000037
 4,-0.00000017,0.00000028,-0.00000204,-0.00056763,0.00048444,0.00069703
 ,-0.00009062,0.00014509,-0.00004721,0.00000122,0.00000085,0.00000258,0
 .00000061,0.00000008,-0.00000139,-0.00382659,-0.00291841,-0.00036107,0
 .00061082,-0.00013780,0.00059752,-0.00000055,-0.00000008,-0.00000073,0
 .00000150,0.00000026,-0.00000010,-0.00000112,0.00000034,0.00000111,0.0
 5298318,-0.00003514,-0.00006541,0.00005946,-0.00001268,0.00004184,0.00
 000208,-0.00018708,0.00017199,0.00017816,-0.00001149,-0.00002471,-0.00
 001381,0.00013046,-0.00009130,0.00000109,-0.00000251,0.00001624,0.0000
 0090,-0.00113627,-0.00476231,-0.01608053,-0.00000541,-0.00000801,-0.00
 000143,-0.01490667,-0.09896308,-0.11010503,-0.00245697,0.00723524,0.00
 361378,0.00000622,-0.00000290,0.00000027,-0.00003008,0.00002052,0.0000
 0902,-0.00000286,-0.00000847,0.00000490,0.00000422,-0.00000119,0.00000
 079,-0.00002258,-0.00005836,0.00000811,0.00018153,0.00006066,0.0000607
 2,-0.00000011,0.00000436,0.00000269,0.00000172,-0.00000057,0.00000144,
 -0.00037568,0.00041306,0.00020380,0.00003688,-0.00005547,0.00008156,0.
 00000062,-0.00000016,0.00000024,-0.00000092,-0.00000330,0.00000179,-0.
 00331353,-0.00058234,-0.00056111,0.00065708,0.00029558,0.00036721,0.00
 000133,0.00000087,0.00000049,-0.00000780,0.00000005,-0.00000068,0.0000
 0097,0.00000265,0.00000172,0.02283443,0.09335678,-0.00005877,-0.000063
 43,-0.00003139,-0.00001956,0.00003200,0.00000444,-0.00015252,0.0003068
 8,0.00021581,-0.00000553,-0.00001648,-0.00000256,0.00048067,-0.0000641
 2,0.00018919,-0.00000393,0.00000593,-0.00000009,0.00155503,-0.00207649
 ,-0.00229817,-0.00000070,-0.00000278,-0.00000132,-0.01681952,-0.107563
 28,-0.26305189,-0.00299309,-0.01207398,-0.01632160,-0.00000570,0.00000
 624,-0.00001159,-0.00001748,0.00000563,0.00001904,0.00000314,0.0000002
 1,-0.00000191,0.00000479,0.00000261,0.00000407,0.00004590,0.00001748,-
 0.00002400,0.00016775,0.00005005,0.00001136,-0.00000203,0.00000140,0.0
 0000582,-0.00000046,0.00000089,-0.00000334,-0.00063257,0.00013213,0.00
 007726,-0.00008125,-0.00001028,-0.00011600,0.00000105,0.00000116,0.000
 00215,0.00000073,0.,-0.00000092,-0.00029121,-0.00060078,0.00118870,-0.
 00072772,-0.00049646,0.00019940,-0.00000010,0.00000040,-0.00000128,-0.
 00000164,0.00000078,-0.00000001,-0.00000053,0.00000078,0.00000212,0.01
 568799,0.12191736,0.28018921,0.00003280,0.00001122,-0.00002321,0.00000
 058,0.00001658,0.00001019,-0.00002634,-0.00000239,-0.00005978,-0.00000
 198,-0.00001754,-0.00000811,0.00071464,0.00015497,0.00012388,-0.000002
 25,0.00000917,0.00000229,0.00248893,-0.00443169,0.00542335,-0.00000229
 ,-0.00000598,-0.00000078,-0.01412472,-0.01358123,-0.00753509,-0.233112
 14,-0.13428130,-0.04149887,-0.00001783,0.00001483,-0.00000935,-0.00000
 583,0.00000474,0.00001022,0.00000272,0.00000022,-0.00000234,0.00000201
 ,-0.00000100,0.00000120,0.00005797,0.00004540,-0.00003518,0.00001709,-
 0.00000218,0.00001202,-0.00000034,0.00000128,0.00000308,-0.00000111,0.
 00000269,-0.00000357,-0.00004447,0.00001801,0.00002619,-0.00004648,0.0
 0014014,-0.00007254,0.00000054,-0.00000072,0.00000048,0.00000067,0.000
 00034,-0.00000097,0.00029012,0.00030435,-0.00000938,-0.00178250,-0.000
 69297,0.00002547,0.00000030,0.00000206,-0.00000163,-0.00000525,0.00000
 009,0.00000009,0.00000049,0.00000112,0.00000180,-0.00129974,0.00342438
 ,-0.00091495,0.24533216,-0.00014490,-0.00023937,-0.00002393,-0.0000516
 4,0.00009322,0.00000767,-0.00032661,0.00060884,0.00006909,-0.00002250,
 -0.00004299,-0.00000607,-0.00155925,-0.00156858,0.00011121,-0.00000657
 ,0.00002156,0.00000286,-0.00425810,0.00965106,-0.00332927,-0.00000690,
 -0.00000986,-0.00000229,-0.00207575,0.00143354,-0.00275175,-0.13602689
 ,-0.13108052,-0.03714382,0.00001796,-0.00000324,-0.00000564,0.00000767
 ,0.00000157,0.00000676,-0.00000084,-0.00000558,0.00000717,0.00000218,-
 0.00000135,-0.00000512,-0.00002019,-0.00004536,0.00006041,0.00001856,0
 .00000307,-0.00002458,0.00000093,0.00000224,0.00000222,0.00000226,0.00
 000049,-0.00000024,-0.00004723,0.00004553,0.00007785,0.00003342,-0.000
 14202,0.00000175,0.00000062,-0.00000053,-0.00000154,-0.00000042,-0.000
 00255,0.00000215,0.00032938,0.00009316,0.00017020,0.00165798,0.0007168
 6,0.00020659,0.00000161,0.00000134,0.00000016,-0.00000892,0.00000061,-
 0.00000056,0.00000129,0.00000222,0.00000113,0.00316838,-0.00468396,0.0
 0278774,0.14847031,0.12846835,0.00011017,0.00017312,0.00005035,0.00003
 979,-0.00007210,-0.00001467,0.00031650,-0.00048492,-0.00008778,0.00001
 654,0.00003076,0.00000524,0.00094522,0.00123633,0.00027919,0.00000537,
 -0.00001503,-0.00000258,0.00329930,-0.00444705,-0.00090152,0.00000394,
 0.00000593,0.00000169,0.01999480,0.01318440,0.00728485,-0.04572645,-0.
 03951353,-0.06459251,-0.00000361,-0.00000597,0.00000482,-0.00000604,0.
 00000047,-0.00000642,-0.00000051,0.00000299,-0.00000333,0.00000010,0.0
 0000234,0.00000527,-0.00001430,0.00000880,-0.00001882,-0.00000537,0.00
 000955,0.00002879,-0.00000106,-0.00000076,-0.00000096,-0.00000092,-0.0
 0000104,-0.00000009,-0.00005810,0.00000453,-0.00005481,0.00000899,-0.0
 0002174,-0.00001502,0.00000009,0.00000055,0.00000151,0.00000014,0.0000
 0133,-0.00000107,0.00011956,0.00030506,0.00029294,-0.00037314,0.000089
 25,0.00014811,-0.00000073,-0.00000078,-0.00000024,0.00000468,-0.000000
 87,0.00000014,-0.00000076,-0.00000080,-0.00000035,-0.00144183,0.002419
 87,-0.00023514,0.04256761,0.04037862,0.05946793,-0.00003020,-0.0000581
 1,-0.00000706,-0.00001142,0.00001096,-0.00000232,-0.00009089,0.0001501
 5,0.00004343,-0.00000086,0.00000055,0.00000067,-0.00042640,-0.00039081
 ,0.00006208,-0.00000167,-0.00000368,0.00000044,-0.00058400,0.00470412,
 -0.00024277,0.00000190,0.00000217,0.00000090,0.00524158,0.00881301,0.0
 2199892,-0.05253016,-0.01688276,-0.01599174,-0.00000156,0.00000447,-0.
 00000360,0.00001030,-0.00000866,-0.00000377,0.00000207,0.00000400,-0.0
 0000163,-0.00000296,-0.00000202,-0.00000102,0.00000406,0.00000505,0.00
 000746,-0.00002612,-0.00002282,-0.00002211,0.00000067,-0.00000184,-0.0
 0000109,-0.00000107,0.00000081,-0.00000104,0.00003543,-0.00005056,-0.0
 0008299,-0.00004007,0.00000903,-0.00002192,-0.00000037,-0.00000002,0.0
 0000012,0.00000045,0.00000136,-0.00000094,-0.00036644,-0.00064112,-0.0
 0051660,0.00063893,0.00017979,-0.00034230,-0.00000101,-0.00000048,-0.0
 0000022,0.00000349,0.00000092,0.00000029,-0.00000045,-0.00000118,-0.00
 000069,-0.00012731,-0.00477206,0.00478223,0.00153225,-0.00915586,-0.01
 979998,0.04677183,0.00007727,0.00012789,-0.00001322,0.00002911,-0.0000
 4471,-0.00000297,0.00023599,-0.00034682,-0.00007049,0.00000856,0.00002
 024,-0.00000084,0.00054044,0.00079713,-0.00018532,0.00000504,-0.000007
 21,-0.00000215,0.00307111,-0.00516979,0.00374697,0.00000136,0.00000328
 ,-0.00000072,-0.00183865,0.00655481,0.00244499,-0.01516067,-0.09468522
 ,-0.11443037,0.00000122,-0.00001252,0.00001327,-0.00000174,-0.00000232
 ,-0.00000040,-0.00000427,-0.00000364,0.00000274,0.00000014,0.00000509,
 0.00000129,-0.00002014,-0.00000331,-0.00000874,-0.00003061,-0.00000229
 ,-0.00000123,-0.00000051,0.00000060,-0.00000004,0.00000187,-0.00000400
 ,0.00000405,0.00003703,-0.00011599,-0.00011804,0.00011836,0.00000433,-
 0.00001153,-0.00000006,0.00000141,0.00000022,-0.00000121,-0.00000164,0
 .00000165,0.00010263,0.00015509,-0.00019476,-0.00104578,-0.00028096,0.
 00033777,0.00000035,-0.00000151,0.00000125,0.00000100,-0.00000116,-0.0
 0000033,0.00000003,0.00000041,0.00000016,-0.00462859,0.00769170,-0.002
 30158,0.00039512,-0.00331774,-0.01328931,0.01810559,0.08863884,-0.0000
 2753,-0.00003295,-0.00000652,-0.00000836,0.00001005,-0.00000496,-0.000
 03612,0.00008508,0.00008066,-0.00000010,-0.00000511,-0.00000061,-0.000
 19054,-0.00018869,0.00021709,-0.00000181,0.00000140,-0.00000026,-0.003
 13717,0.00198315,-0.00020827,0.00000051,-0.00000085,-0.00000037,-0.002
 45158,-0.01190547,-0.01687490,-0.01254364,-0.11217748,-0.27458240,0.00
 000496,-0.00000317,-0.00000303,-0.00000404,0.00000176,0.00000739,0.000
 00017,-0.00000059,-0.00000124,0.00000222,0.00000143,0.00000355,-0.0000
 1305,-0.00001007,0.00000143,0.00003969,0.00001810,0.00001180,-0.000001
 39,0.00000119,0.00000261,-0.00000002,0.00000017,-0.00000096,-0.0002234
 6,0.00011077,0.00009350,0.00003573,-0.00005358,-0.00003717,0.00000060,
 0.00000081,0.00000168,0.00000020,-0.00000002,-0.00000068,0.00115296,0.
 00070995,0.00042934,0.00037581,0.00014906,0.00007208,-0.00000009,-0.00
 000007,-0.00000046,0.00000008,0.00000074,-0.00000011,-0.00000042,0.000
 00034,0.00000103,0.00491123,-0.00217485,-0.00000735,0.00196789,-0.0005
 9879,-0.00163553,0.01014726,0.12407767,0.29244265\\0.00000174,0.000002
 14,0.00000089,-0.00000133,-0.00000173,-0.00000103,0.00000040,-0.000001
 66,-0.00000173,-0.00000094,0.00000241,0.00000098,0.00000094,-0.0000006
 7,-0.00000005,0.00000029,0.00000028,-0.00000154,-0.00000172,-0.0000021
 4,-0.00000114,-0.00000018,0.00000197,0.00000252,0.00000170,-0.00000156
 ,-0.00000222,-0.00000189,0.00000135,-0.00000142,-0.00000034,0.00000048
 ,0.00000179,0.00000018,-0.00000201,0.00000170,0.00000026,-0.00000055,-
 0.00000144,-0.00000059,0.00000273,-0.00000164,0.00000002,-0.00000176,-
 0.00000220,-0.00000062,0.00000142,-0.00000204,0.00000062,-0.00000123,0
 .00000255,0.00000031,0.00000145,0.00000242,0.00000022,-0.00000215,0.00
 000133,0.00000013,0.00000039,0.00000153,-0.00000117,0.00000252,-0.0000
 0068,0.00000027,0.00000016,-0.00000031,0.00000082,0.00000093,-0.000002
 75,-0.00000112,-0.00000272,-0.00000282,0.00000058,0.00000293,0.0000032
 0,-0.00000045,0.00000152,0.00000034,0.00000015,-0.00000116,0.00000307,
 0.00000091,-0.00000333,0.00000066,0.00000106,-0.00000109,0.00000120,-0
 .00000025,0.00000108,-0.00000118\\\@


 WE LEARN WISDOM FROM FAILURE MUCH MORE THAN FROM SUCCESS.
 WE DISCOVER WHAT WILL DO BY FINDING OUT WHAT WILL NOT DO...
 AND HE WHO NEVER MADE A MISTAKE NEVER MADE A DISCOVERY
 Job cpu time:       0 days  5 hours 35 minutes  6.0 seconds.
 Elapsed time:       0 days  0 hours 21 minutes  2.5 seconds.
 File lengths (MBytes):  RWF=    315 Int=      0 D2E=      0 Chk=     12 Scr=      1
 Normal termination of Gaussian 16 at Wed Oct  1 18:58:09 2025.
