 Entering Gaussian System, Link 0=g16
 Input=DEXY0098.gjf
 Output=DEXY0098.log
 Initial command:
 /usr/local/g16/l1.exe "/dados_01/scratch/Gau-2016078.inp" -scrdir="/dados_01/scratch/"
 Entering Link 1 = /usr/local/g16/l1.exe PID=   2016079.
  
 Copyright (c) 1988-2017, Gaussian, Inc.  All Rights Reserved.
  
 This is part of the Gaussian(R) 16 program.  It is based on
 the Gaussian(R) 09 system (copyright 2009, Gaussian, Inc.),
 the Gaussian(R) 03 system (copyright 2003, Gaussian, Inc.),
 the Gaussian(R) 98 system (copyright 1998, Gaussian, Inc.),
 the Gaussian(R) 94 system (copyright 1995, Gaussian, Inc.),
 the Gaussian 92(TM) system (copyright 1992, Gaussian, Inc.),
 the Gaussian 90(TM) system (copyright 1990, Gaussian, Inc.),
 the Gaussian 88(TM) system (copyright 1988, Gaussian, Inc.),
 the Gaussian 86(TM) system (copyright 1986, Carnegie Mellon
 University), and the Gaussian 82(TM) system (copyright 1983,
 Carnegie Mellon University). Gaussian is a federally registered
 trademark of Gaussian, Inc.
  
 This software contains proprietary and confidential information,
 including trade secrets, belonging to Gaussian, Inc.
  
 This software is provided under written license and may be
 used, copied, transmitted, or stored only in accord with that
 written license.
  
 The following legend is applicable only to US Government
 contracts under FAR:
  
                    RESTRICTED RIGHTS LEGEND
  
 Use, reproduction and disclosure by the US Government is
 subject to restrictions as set forth in subparagraphs (a)
 and (c) of the Commercial Computer Software - Restricted
 Rights clause in FAR 52.227-19.
  
 Gaussian, Inc.
 340 Quinnipiac St., Bldg. 40, Wallingford CT 06492
  
  
 ---------------------------------------------------------------
 Warning -- This program may not be used in any manner that
 competes with the business of Gaussian, Inc. or will provide
 assistance to any competitor of Gaussian, Inc.  The licensee
 of this program is prohibited from giving any competitor of
 Gaussian, Inc. access to this program.  By using this program,
 the user acknowledges that Gaussian, Inc. is engaged in the
 business of creating and licensing software in the field of
 computational chemistry and represents and warrants to the
 licensee that it is not a competitor of Gaussian, Inc. and that
 it will not use this program in any manner prohibited above.
 ---------------------------------------------------------------
  

 Cite this work as:
 Gaussian 16, Revision B.01,
 M. J. Frisch, G. W. Trucks, H. B. Schlegel, G. E. Scuseria, 
 M. A. Robb, J. R. Cheeseman, G. Scalmani, V. Barone, 
 G. A. Petersson, H. Nakatsuji, X. Li, M. Caricato, A. V. Marenich, 
 J. Bloino, B. G. Janesko, R. Gomperts, B. Mennucci, H. P. Hratchian, 
 J. V. Ortiz, A. F. Izmaylov, J. L. Sonnenberg, D. Williams-Young, 
 F. Ding, F. Lipparini, F. Egidi, J. Goings, B. Peng, A. Petrone, 
 T. Henderson, D. Ranasinghe, V. G. Zakrzewski, J. Gao, N. Rega, 
 G. Zheng, W. Liang, M. Hada, M. Ehara, K. Toyota, R. Fukuda, 
 J. Hasegawa, M. Ishida, T. Nakajima, Y. Honda, O. Kitao, H. Nakai, 
 T. Vreven, K. Throssell, J. A. Montgomery, Jr., J. E. Peralta, 
 F. Ogliaro, M. J. Bearpark, J. J. Heyd, E. N. Brothers, K. N. Kudin, 
 V. N. Staroverov, T. A. Keith, R. Kobayashi, J. Normand, 
 K. Raghavachari, A. P. Rendell, J. C. Burant, S. S. Iyengar, 
 J. Tomasi, M. Cossi, J. M. Millam, M. Klene, C. Adamo, R. Cammi, 
 J. W. Ochterski, R. L. Martin, K. Morokuma, O. Farkas, 
 J. B. Foresman, and D. J. Fox, Gaussian, Inc., Wallingford CT, 2016.
 
 ******************************************
 Gaussian 16:  ES64L-G16RevB.01 20-Dec-2017
                19-Sep-2025 
 ******************************************
 %nprocs=16
 Will use up to   16 processors via shared memory.
 %mem=40GB
 %chk=DEXY0098.chk
 ----------------------------------------------------------------------
 # opt freq=noraman M08HX/6-311++G** scf=xqc Empiricaldispersion=pfd In
 t(Grid=ultraFine)
 ----------------------------------------------------------------------
 1/18=20,19=15,26=4,38=1/1,3;
 2/9=110,12=2,17=6,18=5,40=1/2;
 3/5=4,6=6,7=1111,11=2,25=1,30=1,71=1,74=-74,75=-5,124=11/1,2,3;
 4//1;
 5/5=2,8=3,13=1,38=5/2,8;
 6/7=2,8=2,9=2,10=2,28=1/1;
 7//1,2,3,16;
 1/18=20,19=15,26=4/3(2);
 2/9=110/2;
 99//99;
 2/9=110/2;
 3/5=4,6=6,7=1111,11=2,25=1,30=1,71=1,74=-74,75=-5,124=11/1,2,3;
 4/5=5,16=3,69=1/1;
 5/5=2,8=3,13=1,38=5/2,8;
 7//1,2,3,16;
 1/18=20,19=15,26=4/3(-5);
 2/9=110/2;
 6/7=2,8=2,9=2,10=2,19=2,28=1/1;
 99/9=1/99;
 --------
 DEXY0098
 --------
 Symbolic Z-matrix:
 Charge =  0 Multiplicity = 1
 O                    -1.0808    0.5814    0.5035 
 O                     1.0979    0.6044   -0.492 
 C                    -1.663    -0.2323   -0.5061 
 C                     1.6443   -0.2585    0.4966 
 C                     0.0003    1.3694    0.0056 
 C                    -2.7964   -1.0331    0.0987 
 C                     2.7978   -1.0314   -0.1064 
 H                    -2.0493    0.4018   -1.3118 
 H                    -0.9179   -0.9179   -0.9231 
 H                     2.0016    0.3352    1.3455 
 H                     0.887    -0.9644    0.8533 
 H                    -0.3602    2.0193   -0.7993 
 H                     0.3514    2.0176    0.8159 
 H                    -3.2714   -1.6686   -0.6539 
 H                    -2.4291   -1.6652    0.914 
 H                    -3.5529   -0.3677    0.5279 
 H                     3.2463   -1.7033    0.6307 
 H                     2.459    -1.6227   -0.9636 
 H                     3.569    -0.3475   -0.4763 
 

 GradGradGradGradGradGradGradGradGradGradGradGradGradGradGradGradGradGrad
 Berny optimization.
 Initialization pass.
                           ----------------------------
                           !    Initial Parameters    !
                           ! (Angstroms and Degrees)  !
 --------------------------                            --------------------------
 ! Name  Definition              Value          Derivative Info.                !
 --------------------------------------------------------------------------------
 ! R1    R(1,3)                  1.4214         estimate D2E/DX2                !
 ! R2    R(1,5)                  1.4275         estimate D2E/DX2                !
 ! R3    R(2,4)                  1.4214         estimate D2E/DX2                !
 ! R4    R(2,5)                  1.4274         estimate D2E/DX2                !
 ! R5    R(3,6)                  1.5138         estimate D2E/DX2                !
 ! R6    R(3,8)                  1.0957         estimate D2E/DX2                !
 ! R7    R(3,9)                  1.095          estimate D2E/DX2                !
 ! R8    R(4,7)                  1.5138         estimate D2E/DX2                !
 ! R9    R(4,10)                 1.0958         estimate D2E/DX2                !
 ! R10   R(4,11)                 1.095          estimate D2E/DX2                !
 ! R11   R(5,12)                 1.0955         estimate D2E/DX2                !
 ! R12   R(5,13)                 1.0955         estimate D2E/DX2                !
 ! R13   R(6,14)                 1.0936         estimate D2E/DX2                !
 ! R14   R(6,15)                 1.0951         estimate D2E/DX2                !
 ! R15   R(6,16)                 1.0951         estimate D2E/DX2                !
 ! R16   R(7,17)                 1.0936         estimate D2E/DX2                !
 ! R17   R(7,18)                 1.0951         estimate D2E/DX2                !
 ! R18   R(7,19)                 1.0951         estimate D2E/DX2                !
 ! A1    A(3,1,5)              112.2398         estimate D2E/DX2                !
 ! A2    A(4,2,5)              112.2391         estimate D2E/DX2                !
 ! A3    A(1,3,6)              109.0094         estimate D2E/DX2                !
 ! A4    A(1,3,8)              109.5982         estimate D2E/DX2                !
 ! A5    A(1,3,9)              110.4995         estimate D2E/DX2                !
 ! A6    A(6,3,8)              109.6313         estimate D2E/DX2                !
 ! A7    A(6,3,9)              109.2918         estimate D2E/DX2                !
 ! A8    A(8,3,9)              108.7972         estimate D2E/DX2                !
 ! A9    A(2,4,7)              109.0152         estimate D2E/DX2                !
 ! A10   A(2,4,10)             109.5862         estimate D2E/DX2                !
 ! A11   A(2,4,11)             110.6131         estimate D2E/DX2                !
 ! A12   A(7,4,10)             109.6793         estimate D2E/DX2                !
 ! A13   A(7,4,11)             109.1237         estimate D2E/DX2                !
 ! A14   A(10,4,11)            108.8094         estimate D2E/DX2                !
 ! A15   A(1,5,2)              114.0858         estimate D2E/DX2                !
 ! A16   A(1,5,12)             109.5439         estimate D2E/DX2                !
 ! A17   A(1,5,13)             108.1424         estimate D2E/DX2                !
 ! A18   A(2,5,12)             108.3509         estimate D2E/DX2                !
 ! A19   A(2,5,13)             109.1793         estimate D2E/DX2                !
 ! A20   A(12,5,13)            107.3318         estimate D2E/DX2                !
 ! A21   A(3,6,14)             110.9568         estimate D2E/DX2                !
 ! A22   A(3,6,15)             110.5897         estimate D2E/DX2                !
 ! A23   A(3,6,16)             110.6318         estimate D2E/DX2                !
 ! A24   A(14,6,15)            108.8222         estimate D2E/DX2                !
 ! A25   A(14,6,16)            108.8305         estimate D2E/DX2                !
 ! A26   A(15,6,16)            106.896          estimate D2E/DX2                !
 ! A27   A(4,7,17)             110.9602         estimate D2E/DX2                !
 ! A28   A(4,7,18)             110.5943         estimate D2E/DX2                !
 ! A29   A(4,7,19)             110.6283         estimate D2E/DX2                !
 ! A30   A(17,7,18)            108.8286         estimate D2E/DX2                !
 ! A31   A(17,7,19)            108.817          estimate D2E/DX2                !
 ! A32   A(18,7,19)            106.8984         estimate D2E/DX2                !
 ! D1    D(5,1,3,6)           -179.9975         estimate D2E/DX2                !
 ! D2    D(5,1,3,8)            -60.0068         estimate D2E/DX2                !
 ! D3    D(5,1,3,9)             59.8791         estimate D2E/DX2                !
 ! D4    D(3,1,5,2)            -62.2148         estimate D2E/DX2                !
 ! D5    D(3,1,5,12)            59.4286         estimate D2E/DX2                !
 ! D6    D(3,1,5,13)           176.1063         estimate D2E/DX2                !
 ! D7    D(5,2,4,7)            179.9955         estimate D2E/DX2                !
 ! D8    D(5,2,4,10)           -59.9588         estimate D2E/DX2                !
 ! D9    D(5,2,4,11)            60.0057         estimate D2E/DX2                !
 ! D10   D(4,2,5,1)            -58.539          estimate D2E/DX2                !
 ! D11   D(4,2,5,12)           179.1615         estimate D2E/DX2                !
 ! D12   D(4,2,5,13)            62.5661         estimate D2E/DX2                !
 ! D13   D(1,3,6,14)           179.7233         estimate D2E/DX2                !
 ! D14   D(1,3,6,15)           -59.4168         estimate D2E/DX2                !
 ! D15   D(1,3,6,16)            58.8246         estimate D2E/DX2                !
 ! D16   D(8,3,6,14)            59.7531         estimate D2E/DX2                !
 ! D17   D(8,3,6,15)          -179.3869         estimate D2E/DX2                !
 ! D18   D(8,3,6,16)           -61.1456         estimate D2E/DX2                !
 ! D19   D(9,3,6,14)           -59.4111         estimate D2E/DX2                !
 ! D20   D(9,3,6,15)            61.4489         estimate D2E/DX2                !
 ! D21   D(9,3,6,16)           179.6902         estimate D2E/DX2                !
 ! D22   D(2,4,7,17)           179.7001         estimate D2E/DX2                !
 ! D23   D(2,4,7,18)           -59.4265         estimate D2E/DX2                !
 ! D24   D(2,4,7,19)            58.8186         estimate D2E/DX2                !
 ! D25   D(10,4,7,17)           59.712          estimate D2E/DX2                !
 ! D26   D(10,4,7,18)         -179.4146         estimate D2E/DX2                !
 ! D27   D(10,4,7,19)          -61.1695         estimate D2E/DX2                !
 ! D28   D(11,4,7,17)          -59.3944         estimate D2E/DX2                !
 ! D29   D(11,4,7,18)           61.479          estimate D2E/DX2                !
 ! D30   D(11,4,7,19)          179.724          estimate D2E/DX2                !
 --------------------------------------------------------------------------------
 Trust Radius=3.00D-01 FncErr=1.00D-07 GrdErr=1.00D-06 EigMax=2.50D+02 EigMin=1.00D-04
 Number of steps in this run=     90 maximum allowed number of steps=    114.
 GradGradGradGradGradGradGradGradGradGradGradGradGradGradGradGradGradGrad

                          Input orientation:                          
 ---------------------------------------------------------------------
 Center     Atomic      Atomic             Coordinates (Angstroms)
 Number     Number       Type             X           Y           Z
 ---------------------------------------------------------------------
      1          8           0       -1.080800    0.581400    0.503500
      2          8           0        1.097900    0.604400   -0.492000
      3          6           0       -1.663000   -0.232300   -0.506100
      4          6           0        1.644300   -0.258500    0.496600
      5          6           0        0.000300    1.369400    0.005600
      6          6           0       -2.796400   -1.033100    0.098700
      7          6           0        2.797800   -1.031400   -0.106400
      8          1           0       -2.049300    0.401800   -1.311800
      9          1           0       -0.917900   -0.917900   -0.923100
     10          1           0        2.001600    0.335200    1.345500
     11          1           0        0.887000   -0.964400    0.853300
     12          1           0       -0.360200    2.019300   -0.799300
     13          1           0        0.351400    2.017600    0.815900
     14          1           0       -3.271400   -1.668600   -0.653900
     15          1           0       -2.429100   -1.665200    0.914000
     16          1           0       -3.552900   -0.367700    0.527900
     17          1           0        3.246300   -1.703300    0.630700
     18          1           0        2.459000   -1.622700   -0.963600
     19          1           0        3.569000   -0.347500   -0.476300
 ---------------------------------------------------------------------
                    Distance matrix (angstroms):
                    1          2          3          4          5
     1  O    0.000000
     2  O    2.395471   0.000000
     3  C    1.421393   2.884932   0.000000
     4  C    2.851605   1.421436   3.456057   0.000000
     5  C    1.427454   1.427430   2.365131   2.365138   0.000000
     6  C    2.390347   4.265666   1.513823   4.525279   3.688117
     7  C    4.244601   2.390437   4.549402   1.513785   3.688142
     8  H    2.065324   3.258525   1.095656   4.165212   2.621574
     9  H    2.075964   2.562556   1.095039   3.002536   2.633879
    10  H    3.204804   2.065320   4.144849   1.095798   2.621088
    11  H    2.526677   2.077365   2.981013   1.095004   2.636561
    12  H    2.069809   2.054855   2.617815   3.299356   1.095534
    13  H    2.052184   2.065187   3.296595   2.637077   1.095454
    14  H    3.346760   4.927831   2.161424   5.241769   4.513137
    15  H    2.652100   4.423534   2.157961   4.329621   3.991988
    16  H    2.648144   4.859539   2.158521   5.198441   3.989429
    17  H    4.894878   3.346873   5.249513   2.161443   4.513175
    18  H    4.420478   2.652353   4.374174   2.157999   3.992144
    19  H    4.841849   2.648149   5.233353   2.158454   3.989435
                    6          7          8          9         10
     6  C    0.000000
     7  C    5.597959   0.000000
     8  H    2.146301   5.196290   0.000000
     9  H    2.141520   3.806088   1.781225   0.000000
    10  H    5.142719   2.146985   4.845149   3.903881   0.000000
    11  H    3.760529   2.139315   3.895641   2.532869   1.781447
    12  H    4.007321   4.445205   2.394164   2.992240   3.607556
    13  H    4.441823   4.016455   3.591835   3.640385   2.415389
    14  H    1.093568   6.127069   2.492572   2.484951   5.984759
    15  H    1.095068   5.363152   3.061196   2.493415   4.880461
    16  H    1.095108   6.416714   2.497487   3.057997   5.658181
    17  H    6.102984   1.093580   6.020642   4.513503   2.493130
    18  H    5.394010   1.095086   4.954252   3.449904   3.061785
    19  H    6.427985   1.095123   5.729294   4.545026   2.498355
                   11         12         13         14         15
    11  H    0.000000
    12  H    3.631675   0.000000
    13  H    3.029949   1.765007   0.000000
    14  H    4.478821   4.700727   5.373366   0.000000
    15  H    3.389886   4.559746   4.615606   1.779829   0.000000
    16  H    4.491620   4.201495   4.584338   1.779953   1.759405
    17  H    2.482301   5.376755   4.718034   6.643178   5.682594
    18  H    2.491118   4.608584   4.567317   5.738946   5.236479
    19  H    3.056391   4.598335   4.197193   6.969069   6.296544
                   16         17         18         19
    16  H    0.000000
    17  H    6.929900   0.000000
    18  H    6.320011   1.779924   0.000000
    19  H    7.192377   1.779825   1.759459   0.000000
 Stoichiometry    C5H12O2
 Framework group  C1[X(C5H12O2)]
 Deg. of freedom    51
 Full point group                 C1      NOp   1
 Largest Abelian subgroup         C1      NOp   1
 Largest concise Abelian subgroup C1      NOp   1
                         Standard orientation:                         
 ---------------------------------------------------------------------
 Center     Atomic      Atomic             Coordinates (Angstroms)
 Number     Number       Type             X           Y           Z
 ---------------------------------------------------------------------
      1          8           0        1.076864    0.617414   -0.511512
      2          8           0       -1.094653    0.641234    0.499544
      3          6           0        1.665951   -0.196541    0.493878
      4          6           0       -1.648444   -0.221425   -0.485146
      5          6           0       -0.000341    1.405821   -0.005873
      6          6           0        2.794685   -0.997765   -0.119032
      7          6           0       -2.797904   -0.993893    0.126068
      8          1           0        2.058250    0.437386    1.296811
      9          1           0        0.923586   -0.881863    0.916178
     10          1           0       -2.011575    0.372438   -1.331454
     11          1           0       -0.893990   -0.927609   -0.847271
     12          1           0        0.366159    2.055558    0.796445
     13          1           0       -0.356974    2.054181   -0.813625
     14          1           0        3.274808   -1.633471    0.630136
     15          1           0        2.421318   -1.629699   -0.931701
     16          1           0        3.548356   -0.332647   -0.553614
     17          1           0       -3.251925   -1.665597   -0.607824
     18          1           0       -2.453213   -1.585349    0.980808
     19          1           0       -3.566172   -0.309703    0.501491
 ---------------------------------------------------------------------
 Rotational constants (GHZ):           4.7550807           1.3149324           1.1407402
 Standard basis: 6-311++G(d,p) (5D, 7F)
 There are   245 symmetry adapted cartesian basis functions of A   symmetry.
 There are   238 symmetry adapted basis functions of A   symmetry.
   238 basis functions,   360 primitive gaussians,   245 cartesian basis functions
    29 alpha electrons       29 beta electrons
       nuclear repulsion energy       332.4322850815 Hartrees.
 NAtoms=   19 NActive=   19 NUniq=   19 SFac= 1.00D+00 NAtFMM=   60 NAOKFM=F Big=F
 Integral buffers will be    131072 words long.
 Raffenetti 2 integral format.
 Two-electron integral symmetry is turned on.
 R6APFD:  NTU= -4 IXU= 1 FactS= 1.050
 Nuclear repulsion after empirical dispersion term =      332.4216085467 Hartrees.
 One-electron integrals computed using PRISM.
 NBasis=   238 RedAO= T EigKep=  4.68D-05  NBF=   238
 NBsUse=   238 1.00D-06 EigRej= -1.00D+00 NBFU=   238
 ExpMin= 3.60D-02 ExpMax= 8.59D+03 ExpMxC= 1.30D+03 IAcc=3 IRadAn=         5 AccDes= 0.00D+00
 Harris functional with IExCor= 1009 and IRadAn=       5 diagonalized for initial guess.
 HarFok:  IExCor= 1009 AccDes= 0.00D+00 IRadAn=         5 IDoV= 1 UseB2=F ITyADJ=14
 ICtDFT=  3500011 ScaDFX=  1.000000  1.000000  1.000000  1.000000
 FoFCou: FMM=F IPFlag=           0 FMFlag=      100000 FMFlg1=           0
         NFxFlg=           0 DoJE=T BraDBF=F KetDBF=T FulRan=T
         wScrn=  0.000000 ICntrl=       500 IOpCl=  0 I1Cent=   200000004 NGrid=           0
         NMat0=    1 NMatS0=      1 NMatT0=    0 NMatD0=    1 NMtDS0=    0 NMtDT0=    0
 Petite list used in FoFCou.
 Requested convergence on RMS density matrix=1.00D-08 within  32 cycles.
 Requested convergence on MAX density matrix=1.00D-06.
 Requested convergence on             energy=1.00D-06.
 No special actions if energy rises.
 SCF Done:  E(RM08HX) =  -348.183677666     A.U. after   12 cycles
            NFock= 12  Conv=0.22D-08     -V/T= 2.0048
 QCSCF skips out because SCF is already converged.

 **********************************************************************

            Population analysis using the SCF Density.

 **********************************************************************

 Orbital symmetries:
       Occupied  (A) (A) (A) (A) (A) (A) (A) (A) (A) (A) (A) (A)
                 (A) (A) (A) (A) (A) (A) (A) (A) (A) (A) (A) (A)
                 (A) (A) (A) (A) (A)
       Virtual   (A) (A) (A) (A) (A) (A) (A) (A) (A) (A) (A) (A)
                 (A) (A) (A) (A) (A) (A) (A) (A) (A) (A) (A) (A)
                 (A) (A) (A) (A) (A) (A) (A) (A) (A) (A) (A) (A)
                 (A) (A) (A) (A) (A) (A) (A) (A) (A) (A) (A) (A)
                 (A) (A) (A) (A) (A) (A) (A) (A) (A) (A) (A) (A)
                 (A) (A) (A) (A) (A) (A) (A) (A) (A) (A) (A) (A)
                 (A) (A) (A) (A) (A) (A) (A) (A) (A) (A) (A) (A)
                 (A) (A) (A) (A) (A) (A) (A) (A) (A) (A) (A) (A)
                 (A) (A) (A) (A) (A) (A) (A) (A) (A) (A) (A) (A)
                 (A) (A) (A) (A) (A) (A) (A) (A) (A) (A) (A) (A)
                 (A) (A) (A) (A) (A) (A) (A) (A) (A) (A) (A) (A)
                 (A) (A) (A) (A) (A) (A) (A) (A) (A) (A) (A) (A)
                 (A) (A) (A) (A) (A) (A) (A) (A) (A) (A) (A) (A)
                 (A) (A) (A) (A) (A) (A) (A) (A) (A) (A) (A) (A)
                 (A) (A) (A) (A) (A) (A) (A) (A) (A) (A) (A) (A)
                 (A) (A) (A) (A) (A) (A) (A) (A) (A) (A) (A) (A)
                 (A) (A) (A) (A) (A) (A) (A) (A) (A) (A) (A) (A)
                 (A) (A) (A) (A) (A)
 The electronic state is 1-A.
 Alpha  occ. eigenvalues --  -19.62047 -19.61976 -10.62673 -10.57489 -10.57412
 Alpha  occ. eigenvalues --  -10.51797 -10.51736  -1.18886  -1.12843  -0.87695
 Alpha  occ. eigenvalues --   -0.85366  -0.76348  -0.71416  -0.68012  -0.59118
 Alpha  occ. eigenvalues --   -0.58933  -0.56931  -0.53336  -0.52475  -0.49061
 Alpha  occ. eigenvalues --   -0.45565  -0.45500  -0.44356  -0.43432  -0.41892
 Alpha  occ. eigenvalues --   -0.41847  -0.37862  -0.34985  -0.34850
 Alpha virt. eigenvalues --   -0.02674  -0.01484  -0.01209  -0.00774   0.00878
 Alpha virt. eigenvalues --    0.01082   0.01317   0.02360   0.02975   0.04196
 Alpha virt. eigenvalues --    0.04285   0.05112   0.05533   0.05612   0.08098
 Alpha virt. eigenvalues --    0.08129   0.08854   0.09188   0.09976   0.11150
 Alpha virt. eigenvalues --    0.11964   0.12168   0.12192   0.13091   0.13652
 Alpha virt. eigenvalues --    0.14142   0.14552   0.14943   0.15515   0.15594
 Alpha virt. eigenvalues --    0.16207   0.18071   0.19679   0.19723   0.21060
 Alpha virt. eigenvalues --    0.21518   0.21788   0.23504   0.23619   0.23775
 Alpha virt. eigenvalues --    0.25451   0.25738   0.26835   0.27095   0.27883
 Alpha virt. eigenvalues --    0.28724   0.29929   0.30355   0.31682   0.33114
 Alpha virt. eigenvalues --    0.33534   0.35047   0.36195   0.37113   0.37926
 Alpha virt. eigenvalues --    0.38853   0.41857   0.42274   0.46344   0.46629
 Alpha virt. eigenvalues --    0.48056   0.50289   0.51110   0.53001   0.57058
 Alpha virt. eigenvalues --    0.57148   0.60099   0.60862   0.63514   0.66502
 Alpha virt. eigenvalues --    0.66564   0.67242   0.67655   0.69144   0.69334
 Alpha virt. eigenvalues --    0.70347   0.70836   0.72223   0.72484   0.74480
 Alpha virt. eigenvalues --    0.75030   0.75247   0.77178   0.77352   0.79593
 Alpha virt. eigenvalues --    0.88745   0.92241   1.00226   1.00643   1.01488
 Alpha virt. eigenvalues --    1.02897   1.06631   1.08989   1.12714   1.13531
 Alpha virt. eigenvalues --    1.21077   1.24663   1.25579   1.30007   1.30350
 Alpha virt. eigenvalues --    1.33821   1.35277   1.36670   1.39044   1.48144
 Alpha virt. eigenvalues --    1.49573   1.49648   1.51397   1.55683   1.57528
 Alpha virt. eigenvalues --    1.58325   1.60096   1.60628   1.62712   1.63066
 Alpha virt. eigenvalues --    1.63808   1.64480   1.66636   1.68503   1.68823
 Alpha virt. eigenvalues --    1.71176   1.71463   1.73280   1.74657   1.75477
 Alpha virt. eigenvalues --    1.77607   1.78755   1.81346   1.84036   1.84854
 Alpha virt. eigenvalues --    1.89558   1.89707   1.96156   1.98376   2.03058
 Alpha virt. eigenvalues --    2.05540   2.10076   2.11969   2.13864   2.14947
 Alpha virt. eigenvalues --    2.19698   2.23017   2.27299   2.31055   2.32672
 Alpha virt. eigenvalues --    2.38010   2.38166   2.47152   2.48094   2.48310
 Alpha virt. eigenvalues --    2.48731   2.50940   2.50976   2.54346   2.56573
 Alpha virt. eigenvalues --    2.57024   2.58272   2.58632   2.59225   2.63056
 Alpha virt. eigenvalues --    2.64110   2.65433   2.66565   2.67172   2.68554
 Alpha virt. eigenvalues --    2.72422   2.80346   2.80846   2.81432   2.87207
 Alpha virt. eigenvalues --    2.93430   2.93844   3.03751   3.04201   3.04310
 Alpha virt. eigenvalues --    3.12376   3.22591   3.23208   3.29003   3.30222
 Alpha virt. eigenvalues --    3.33495   3.35616   3.47732   3.81814   3.81933
 Alpha virt. eigenvalues --    3.83210   3.84898   3.85329   3.85390   3.89805
 Alpha virt. eigenvalues --    4.05721   4.07293   4.11064   4.24027   4.30550
 Alpha virt. eigenvalues --    4.34045   5.23362   5.23930   5.45352   5.53478
 Alpha virt. eigenvalues --    5.72426   5.84481  23.86655  23.92187  23.92831
 Alpha virt. eigenvalues --   24.03245  24.03335  49.93107  49.95906
          Condensed to atoms (all electrons):
               1          2          3          4          5          6
     1  O    8.103076  -0.062286   0.146758  -0.028329   0.229609  -0.136295
     2  O   -0.062286   8.101937  -0.029315   0.150997   0.236801   0.011789
     3  C    0.146758  -0.029315   5.933814  -0.025290  -0.243373  -0.192256
     4  C   -0.028329   0.150997  -0.025290   5.919245  -0.241373   0.026401
     5  C    0.229609   0.236801  -0.243373  -0.241373   5.776558  -0.072898
     6  C   -0.136295   0.011789  -0.192256   0.026401  -0.072898   5.947842
     7  C    0.014910  -0.138337   0.024404  -0.186320  -0.068803   0.001262
     8  H   -0.054977  -0.016784   0.419041  -0.004342   0.006382  -0.059484
     9  H   -0.064917   0.027092   0.423806  -0.012474   0.011779  -0.067893
    10  H   -0.017275  -0.056862  -0.004332   0.424606   0.007484   0.003254
    11  H    0.025630  -0.064105  -0.013545   0.419758   0.011325   0.004085
    12  H   -0.022139  -0.105549   0.003350   0.016905   0.375208   0.006762
    13  H   -0.102419  -0.022329   0.010619  -0.005075   0.385381  -0.007568
    14  H    0.021166   0.000977  -0.060615   0.001250   0.000561   0.421961
    15  H   -0.003380  -0.000782  -0.047247   0.003885   0.001661   0.404988
    16  H   -0.011674  -0.000570  -0.032422   0.000307   0.001517   0.387466
    17  H    0.001060   0.021131   0.001332  -0.061289   0.000611  -0.000990
    18  H   -0.000797  -0.004184   0.004284  -0.046195   0.001464  -0.002814
    19  H   -0.000624  -0.011337   0.000016  -0.033913   0.001647   0.001028
               7          8          9         10         11         12
     1  O    0.014910  -0.054977  -0.064917  -0.017275   0.025630  -0.022139
     2  O   -0.138337  -0.016784   0.027092  -0.056862  -0.064105  -0.105549
     3  C    0.024404   0.419041   0.423806  -0.004332  -0.013545   0.003350
     4  C   -0.186320  -0.004342  -0.012474   0.424606   0.419758   0.016905
     5  C   -0.068803   0.006382   0.011779   0.007484   0.011325   0.375208
     6  C    0.001262  -0.059484  -0.067893   0.003254   0.004085   0.006762
     7  C    5.941924   0.003284   0.004713  -0.065577  -0.064705  -0.008465
     8  H    0.003284   0.593357  -0.089251  -0.001495   0.004401   0.015799
     9  H    0.004713  -0.089251   0.590251   0.004084  -0.022780  -0.005147
    10  H   -0.065577  -0.001495   0.004084   0.595027  -0.090796  -0.003491
    11  H   -0.064705   0.004401  -0.022780  -0.090796   0.595884  -0.000621
    12  H   -0.008465   0.015799  -0.005147  -0.003491  -0.000621   0.571623
    13  H    0.006381  -0.003272   0.000309   0.016199  -0.003946  -0.071984
    14  H   -0.000971  -0.009554  -0.008259   0.000236  -0.000300   0.002046
    15  H   -0.003070   0.011397  -0.018213   0.001415  -0.005707   0.001735
    16  H    0.001101  -0.011745   0.012573  -0.000535   0.001453  -0.003075
    17  H    0.421994   0.000231  -0.000228  -0.009263  -0.008418  -0.000467
    18  H    0.404612   0.001304  -0.005316   0.011442  -0.019062  -0.000795
    19  H    0.388945  -0.000494   0.001380  -0.012015   0.012732   0.001715
              13         14         15         16         17         18
     1  O   -0.102419   0.021166  -0.003380  -0.011674   0.001060  -0.000797
     2  O   -0.022329   0.000977  -0.000782  -0.000570   0.021131  -0.004184
     3  C    0.010619  -0.060615  -0.047247  -0.032422   0.001332   0.004284
     4  C   -0.005075   0.001250   0.003885   0.000307  -0.061289  -0.046195
     5  C    0.385381   0.000561   0.001661   0.001517   0.000611   0.001464
     6  C   -0.007568   0.421961   0.404988   0.387466  -0.000990  -0.002814
     7  C    0.006381  -0.000971  -0.003070   0.001101   0.421994   0.404612
     8  H   -0.003272  -0.009554   0.011397  -0.011745   0.000231   0.001304
     9  H    0.000309  -0.008259  -0.018213   0.012573  -0.000228  -0.005316
    10  H    0.016199   0.000236   0.001415  -0.000535  -0.009263   0.011442
    11  H   -0.003946  -0.000300  -0.005707   0.001453  -0.008418  -0.019062
    12  H   -0.071984   0.002046   0.001735  -0.003075  -0.000467  -0.000795
    13  H    0.566330  -0.000480  -0.000907   0.001679   0.001989   0.001463
    14  H   -0.000480   0.526077  -0.040116  -0.036682  -0.000012   0.000005
    15  H   -0.000907  -0.040116   0.542744  -0.050984  -0.000013   0.000739
    16  H    0.001679  -0.036682  -0.050984   0.526545  -0.000033  -0.000065
    17  H    0.001989  -0.000012  -0.000013  -0.000033   0.526094  -0.039782
    18  H    0.001463   0.000005   0.000739  -0.000065  -0.039782   0.541525
    19  H   -0.003129  -0.000035  -0.000046   0.000042  -0.036652  -0.050759
              19
     1  O   -0.000624
     2  O   -0.011337
     3  C    0.000016
     4  C   -0.033913
     5  C    0.001647
     6  C    0.001028
     7  C    0.388945
     8  H   -0.000494
     9  H    0.001380
    10  H   -0.012015
    11  H    0.012732
    12  H    0.001715
    13  H   -0.003129
    14  H   -0.000035
    15  H   -0.000046
    16  H    0.000042
    17  H   -0.036652
    18  H   -0.050759
    19  H    0.526905
 Mulliken charges:
               1
     1  O   -0.037095
     2  O   -0.038283
     3  C   -0.319030
     4  C   -0.318754
     5  C   -0.421543
     6  C   -0.676641
     7  C   -0.677282
     8  H    0.196203
     9  H    0.218489
    10  H    0.197894
    11  H    0.218717
    12  H    0.226588
    13  H    0.230757
    14  H    0.182746
    15  H    0.201902
    16  H    0.215101
    17  H    0.182704
    18  H    0.202932
    19  H    0.214593
 Sum of Mulliken charges =  -0.00000
 Mulliken charges with hydrogens summed into heavy atoms:
               1
     1  O   -0.037095
     2  O   -0.038283
     3  C    0.095662
     4  C    0.097857
     5  C    0.035802
     6  C   -0.076891
     7  C   -0.077052
 Electronic spatial extent (au):  <R**2>=           1109.7660
 Charge=             -0.0000 electrons
 Dipole moment (field-independent basis, Debye):
    X=              0.0703    Y=             -0.4484    Z=              0.0201  Tot=              0.4543
 Quadrupole moment (field-independent basis, Debye-Ang):
   XX=            -44.0883   YY=            -42.9404   ZZ=            -47.3019
   XY=              0.1188   XZ=              4.4048   YZ=             -0.0343
 Traceless Quadrupole moment (field-independent basis, Debye-Ang):
   XX=              0.6886   YY=              1.8365   ZZ=             -2.5250
   XY=              0.1188   XZ=              4.4048   YZ=             -0.0343
 Octapole moment (field-independent basis, Debye-Ang**2):
  XXX=              0.4426  YYY=             10.2835  ZZZ=              0.0023  XYY=              0.1175
  XXY=             -3.0420  XXZ=             -0.0330  XZZ=             -0.0060  YZZ=              0.4780
  YYZ=             -0.0865  XYZ=              2.2070
 Hexadecapole moment (field-independent basis, Debye-Ang**3):
 XXXX=          -1084.4280 YYYY=           -287.4463 ZZZZ=           -129.9908 XXXY=             -0.1295
 XXXZ=              5.0126 YYYX=              0.2284 YYYZ=              0.2654 ZZZX=              1.6119
 ZZZY=             -0.2521 XXYY=           -233.9235 XXZZ=           -204.2867 YYZZ=            -66.0055
 XXYZ=             -0.1418 YYXZ=              5.1062 ZZXY=              0.0090
 N-N= 3.324216085467D+02 E-N=-1.477568762548D+03  KE= 3.465086779795D+02
 R6APFD:  NTU= -4 IXU= 1 FactS= 1.050
 Calling FoFJK, ICntrl=      2127 FMM=F ISym2X=0 I1Cent= 0 IOpClX= 0 NMat=1 NMatS=1 NMatT=0.
 ***** Axes restored to original set *****
 -------------------------------------------------------------------
 Center     Atomic                   Forces (Hartrees/Bohr)
 Number     Number              X              Y              Z
 -------------------------------------------------------------------
      1        8           0.018922176    0.008269155   -0.006231159
      2        8          -0.019908488    0.006370351    0.004713526
      3        6          -0.001988236   -0.001618862    0.004142319
      4        6           0.002475041   -0.001348287   -0.003995712
      5        6           0.000485040   -0.014657207    0.001345899
      6        6          -0.001404457    0.001986867    0.007010851
      7        6           0.001891915    0.002628690   -0.006979895
      8        1           0.001319820    0.003556849   -0.004952873
      9        1           0.005233002    0.000597526   -0.002792786
     10        1          -0.001538616    0.003234885    0.005110256
     11        1          -0.005335468    0.000785763    0.002637105
     12        1           0.002584569   -0.003424495   -0.007159538
     13        1          -0.002679600   -0.003208327    0.007223882
     14        1          -0.000253548   -0.000677788   -0.001092541
     15        1           0.000998010   -0.001562194   -0.000295583
     16        1          -0.001269985    0.000726868   -0.000910657
     17        1           0.000181618   -0.000721893    0.001082793
     18        1          -0.001023561   -0.001554763    0.000197992
     19        1           0.001310768    0.000616861    0.000946122
 -------------------------------------------------------------------
 Cartesian Forces:  Max     0.019908488 RMS     0.005312044

 GradGradGradGradGradGradGradGradGradGradGradGradGradGradGradGradGradGrad
 Berny optimization.
 FormGI is forming the generalized inverse of G from B-inverse, IUseBI=4.
 Internal  Forces:  Max     0.024340001 RMS     0.004680331
 Search for a local minimum.
 Step number   1 out of a maximum of   90
 All quantities printed in internal units (Hartrees-Bohrs-Radians)
 Mixed Optimization -- RFO/linear search
 Second derivative matrix not updated -- first step.
 ITU=  0
     Eigenvalues ---    0.00583   0.00584   0.01329   0.01329   0.01408
     Eigenvalues ---    0.01409   0.05370   0.05372   0.05651   0.05651
     Eigenvalues ---    0.05784   0.05784   0.06063   0.06073   0.07535
     Eigenvalues ---    0.09436   0.11197   0.11205   0.12576   0.13700
     Eigenvalues ---    0.13701   0.14648   0.16000   0.16000   0.16000
     Eigenvalues ---    0.16000   0.16000   0.16000   0.22038   0.22039
     Eigenvalues ---    0.22204   0.25000   0.25000   0.30969   0.30973
     Eigenvalues ---    0.34151   0.34167   0.34181   0.34190   0.34227
     Eigenvalues ---    0.34229   0.34231   0.34233   0.34237   0.34241
     Eigenvalues ---    0.34402   0.34403   0.41357   0.41361   0.42245
     Eigenvalues ---    0.42251
 RFO step:  Lambda=-6.45903001D-03 EMin= 5.83099386D-03
 Linear search not attempted -- first point.
 Iteration  1 RMS(Cart)=  0.07313524 RMS(Int)=  0.00066147
 Iteration  2 RMS(Cart)=  0.00114410 RMS(Int)=  0.00025869
 Iteration  3 RMS(Cart)=  0.00000037 RMS(Int)=  0.00025869
 Variable       Old X    -DE/DX   Delta X   Delta X   Delta X     New X
                                 (Linear)    (Quad)   (Total)
    R1        2.68604  -0.00358   0.00000  -0.00836  -0.00836   2.67769
    R2        2.69750  -0.02434   0.00000  -0.05795  -0.05795   2.63955
    R3        2.68612  -0.00369   0.00000  -0.00859  -0.00859   2.67753
    R4        2.69745  -0.02354   0.00000  -0.05604  -0.05604   2.64141
    R5        2.86071   0.00308   0.00000   0.00973   0.00973   2.87044
    R6        2.07049   0.00524   0.00000   0.01504   0.01504   2.08553
    R7        2.06932   0.00425   0.00000   0.01219   0.01219   2.08151
    R8        2.86064   0.00319   0.00000   0.01010   0.01010   2.87074
    R9        2.07076   0.00521   0.00000   0.01497   0.01497   2.08573
   R10        2.06926   0.00404   0.00000   0.01159   0.01159   2.08084
   R11        2.07026   0.00238   0.00000   0.00683   0.00683   2.07709
   R12        2.07011   0.00259   0.00000   0.00742   0.00742   2.07753
   R13        2.06654   0.00126   0.00000   0.00358   0.00358   2.07013
   R14        2.06938   0.00102   0.00000   0.00291   0.00291   2.07229
   R15        2.06945   0.00096   0.00000   0.00276   0.00276   2.07221
   R16        2.06657   0.00125   0.00000   0.00356   0.00356   2.07013
   R17        2.06941   0.00100   0.00000   0.00287   0.00287   2.07228
   R18        2.06948   0.00099   0.00000   0.00283   0.00283   2.07232
    A1        1.95895  -0.00329   0.00000  -0.01283  -0.01283   1.94612
    A2        1.95894  -0.00273   0.00000  -0.01063  -0.01063   1.94831
    A3        1.90257  -0.00414   0.00000  -0.01733  -0.01715   1.88542
    A4        1.91285   0.00008   0.00000  -0.00587  -0.00575   1.90710
    A5        1.92858  -0.00117   0.00000  -0.01741  -0.01725   1.91133
    A6        1.91343   0.00349   0.00000   0.02643   0.02619   1.93962
    A7        1.90750   0.00469   0.00000   0.03278   0.03253   1.94004
    A8        1.89887  -0.00286   0.00000  -0.01799  -0.01868   1.88019
    A9        1.90267  -0.00436   0.00000  -0.01820  -0.01800   1.88467
   A10        1.91264   0.00020   0.00000  -0.00573  -0.00561   1.90703
   A11        1.93056  -0.00128   0.00000  -0.01808  -0.01790   1.91267
   A12        1.91427   0.00342   0.00000   0.02567   0.02542   1.93969
   A13        1.90457   0.00509   0.00000   0.03583   0.03557   1.94014
   A14        1.89908  -0.00298   0.00000  -0.01880  -0.01954   1.87954
   A15        1.99117  -0.00634   0.00000  -0.03604  -0.03651   1.95466
   A16        1.91190   0.00559   0.00000   0.02733   0.02656   1.93846
   A17        1.88744  -0.00506   0.00000  -0.03785  -0.03784   1.84960
   A18        1.89108  -0.00559   0.00000  -0.04558  -0.04582   1.84526
   A19        1.90554   0.00644   0.00000   0.03744   0.03708   1.94261
   A20        1.87329   0.00579   0.00000   0.06163   0.06188   1.93517
   A21        1.93656  -0.00080   0.00000  -0.00883  -0.00885   1.92771
   A22        1.93015  -0.00033   0.00000  -0.00039  -0.00043   1.92973
   A23        1.93089   0.00020   0.00000   0.00362   0.00359   1.93448
   A24        1.89931  -0.00001   0.00000  -0.00463  -0.00467   1.89463
   A25        1.89945  -0.00009   0.00000  -0.00357  -0.00358   1.89587
   A26        1.86569   0.00110   0.00000   0.01446   0.01443   1.88011
   A27        1.93662  -0.00088   0.00000  -0.00936  -0.00938   1.92724
   A28        1.93023  -0.00038   0.00000  -0.00076  -0.00080   1.92943
   A29        1.93083   0.00037   0.00000   0.00478   0.00476   1.93559
   A30        1.89942   0.00002   0.00000  -0.00469  -0.00474   1.89468
   A31        1.89921  -0.00013   0.00000  -0.00363  -0.00363   1.89558
   A32        1.86573   0.00105   0.00000   0.01433   0.01429   1.88002
    D1       -3.14155   0.00031   0.00000   0.00491   0.00495  -3.13660
    D2       -1.04732   0.00210   0.00000   0.02306   0.02298  -1.02433
    D3        1.04509  -0.00212   0.00000  -0.01382  -0.01378   1.03131
    D4       -1.08585   0.00298   0.00000   0.03824   0.03883  -1.04702
    D5        1.03722  -0.00451   0.00000  -0.02546  -0.02551   1.01172
    D6        3.07363   0.00261   0.00000   0.04169   0.04115   3.11478
    D7        3.14151   0.00059   0.00000   0.01249   0.01253  -3.12914
    D8       -1.04648   0.00222   0.00000   0.02927   0.02919  -1.01729
    D9        1.04730  -0.00214   0.00000  -0.00903  -0.00899   1.03831
   D10       -1.02170   0.00140   0.00000  -0.00342  -0.00248  -1.02417
   D11        3.12696   0.00262   0.00000   0.01942   0.01856  -3.13767
   D12        1.09198  -0.00468   0.00000  -0.04909  -0.04917   1.04281
   D13        3.13676   0.00035   0.00000   0.00474   0.00475   3.14151
   D14       -1.03702  -0.00042   0.00000  -0.00724  -0.00722  -1.04424
   D15        1.02668   0.00086   0.00000   0.01272   0.01275   1.03943
   D16        1.04289   0.00067   0.00000   0.00653   0.00672   1.04961
   D17       -3.13089  -0.00010   0.00000  -0.00545  -0.00525  -3.13614
   D18       -1.06719   0.00118   0.00000   0.01451   0.01472  -1.05247
   D19       -1.03692  -0.00076   0.00000  -0.00717  -0.00740  -1.04432
   D20        1.07248  -0.00153   0.00000  -0.01916  -0.01937   1.05311
   D21        3.13619  -0.00025   0.00000   0.00081   0.00059   3.13678
   D22        3.13636   0.00036   0.00000   0.00475   0.00476   3.14112
   D23       -1.03719  -0.00045   0.00000  -0.00792  -0.00789  -1.04508
   D24        1.02658   0.00086   0.00000   0.01237   0.01241   1.03899
   D25        1.04217   0.00072   0.00000   0.00736   0.00756   1.04973
   D26       -3.13138  -0.00009   0.00000  -0.00530  -0.00509  -3.13647
   D27       -1.06761   0.00121   0.00000   0.01499   0.01521  -1.05240
   D28       -1.03663  -0.00076   0.00000  -0.00662  -0.00687  -1.04349
   D29        1.07301  -0.00157   0.00000  -0.01928  -0.01952   1.05349
   D30        3.13678  -0.00026   0.00000   0.00101   0.00078   3.13756
         Item               Value     Threshold  Converged?
 Maximum Force            0.024340     0.000450     NO 
 RMS     Force            0.004680     0.000300     NO 
 Maximum Displacement     0.218634     0.001800     NO 
 RMS     Displacement     0.074002     0.001200     NO 
 Predicted change in Energy=-3.343539D-03
 GradGradGradGradGradGradGradGradGradGradGradGradGradGradGradGradGradGrad

                          Input orientation:                          
 ---------------------------------------------------------------------
 Center     Atomic      Atomic             Coordinates (Angstroms)
 Number     Number       Type             X           Y           Z
 ---------------------------------------------------------------------
      1          8           0       -1.045252    0.600215    0.506608
      2          8           0        1.046085    0.611313   -0.490065
      3          6           0       -1.590514   -0.230645   -0.503425
      4          6           0        1.577190   -0.254498    0.497798
      5          6           0       -0.001577    1.387151    0.014171
      6          6           0       -2.717114   -1.042036    0.112768
      7          6           0        2.714944   -1.040975   -0.130477
      8          1           0       -1.959907    0.397881   -1.331960
      9          1           0       -0.802204   -0.886439   -0.905638
     10          1           0        1.932653    0.344494    1.353986
     11          1           0        0.785165   -0.925671    0.864843
     12          1           0       -0.339747    2.012183   -0.824342
     13          1           0        0.331909    2.009305    0.856995
     14          1           0       -3.168655   -1.700921   -0.636916
     15          1           0       -2.341084   -1.658555    0.938030
     16          1           0       -3.496420   -0.384197    0.515744
     17          1           0        3.156547   -1.725551    0.601908
     18          1           0        2.352369   -1.628151   -0.982710
     19          1           0        3.499210   -0.368405   -0.498117
 ---------------------------------------------------------------------
                    Distance matrix (angstroms):
                    1          2          3          4          5
     1  O    0.000000
     2  O    2.316716   0.000000
     3  C    1.416970   2.767802   0.000000
     4  C    2.758227   1.416888   3.322253   0.000000
     5  C    1.396789   1.397775   2.325917   2.328392   0.000000
     6  C    2.376388   4.154352   1.518972   4.382866   3.644834
     7  C    4.151923   2.375805   4.396897   1.519132   3.646396
     8  H    2.063459   3.128950   1.103615   4.035426   2.574059
     9  H    2.064862   2.414981   1.101488   2.833813   2.579974
    10  H    3.106664   2.063424   4.024111   1.103722   2.573612
    11  H    2.409791   2.065472   2.828263   1.101136   2.586842
    12  H    2.064659   1.998677   2.587988   3.249698   1.099149
    13  H    2.001219   2.068575   3.250204   2.608553   1.099382
    14  H    3.333424   4.809577   2.161033   5.089476   4.471073
    15  H    2.639574   4.320263   2.163348   4.185458   3.950081
    16  H    2.641472   4.757841   2.166740   5.075299   3.950086
    17  H    4.803476   3.332775   5.098146   2.160834   4.473041
    18  H    4.327530   2.638992   4.210590   2.163268   3.953085
    19  H    4.753928   2.641539   5.091591   2.167713   3.949673
                    6          7          8          9         10
     6  C    0.000000
     7  C    5.437502   0.000000
     8  H    2.175766   5.036675   0.000000
     9  H    2.174452   3.604870   1.780872   0.000000
    10  H    5.008335   2.176037   4.729606   3.755069   0.000000
    11  H    3.584009   2.174397   3.756748   2.378210   1.780256
    12  H    3.982248   4.374284   2.342769   2.936407   3.562316
    13  H    4.377338   3.994767   3.555366   3.574692   2.362409
    14  H    1.095466   5.942117   2.519748   2.517079   5.845576
    15  H    1.096610   5.204473   3.086597   2.522584   4.738149
    16  H    1.096567   6.279332   2.527158   3.087293   5.541523
    17  H    5.933493   1.095466   5.867445   4.318393   2.519647
    18  H    5.219508   1.096602   4.777291   3.241514   3.086687
    19  H    6.282487   1.096623   5.575342   4.351620   2.528361
                   11         12         13         14         15
    11  H    0.000000
    12  H    3.570681   0.000000
    13  H    2.969779   1.810531   0.000000
    14  H    4.299882   4.671723   5.315214   0.000000
    15  H    3.211840   4.537139   4.539235   1.779641   0.000000
    16  H    4.329785   4.183665   4.527848   1.780398   1.771191
    17  H    2.516424   5.313089   4.689648   6.445423   5.508304
    18  H    2.522510   4.530409   4.549490   5.532321   5.071358
    19  H    3.087757   4.528930   4.185884   6.801124   6.151101
                   16         17         18         19
    16  H    0.000000
    17  H    6.787387   0.000000
    18  H    6.164505   1.779664   0.000000
    19  H    7.068734   1.780258   1.771168   0.000000
 Stoichiometry    C5H12O2
 Framework group  C1[X(C5H12O2)]
 Deg. of freedom    51
 Full point group                 C1      NOp   1
 Largest Abelian subgroup         C1      NOp   1
 Largest concise Abelian subgroup C1      NOp   1
                         Standard orientation:                         
 ---------------------------------------------------------------------
 Center     Atomic      Atomic             Coordinates (Angstroms)
 Number     Number       Type             X           Y           Z
 ---------------------------------------------------------------------
      1          8           0        1.042806    0.635669   -0.502740
      2          8           0       -1.047023    0.641734    0.497135
      3          6           0        1.588490   -0.203720    0.499986
      4          6           0       -1.580736   -0.215685   -0.496623
      5          6           0        0.000898    1.420108   -0.002636
      6          6           0        2.713105   -1.011759   -0.124185
      7          6           0       -2.718578   -1.005544    0.127235
      8          1           0        1.959942    0.417870    1.332822
      9          1           0        0.799924   -0.861597    0.898279
     10          1           0       -1.936695    0.390402   -1.347597
     11          1           0       -0.790140   -0.885013   -0.870062
     12          1           0        0.341139    2.038167    0.840197
     13          1           0       -0.333032    2.049223   -0.840099
     14          1           0        3.164903   -1.677034    0.619677
     15          1           0        2.335036   -1.621360   -0.953645
     16          1           0        3.492668   -0.351820   -0.523211
     17          1           0       -3.162170   -1.683836   -0.609781
     18          1           0       -2.355498   -1.599794    0.974334
     19          1           0       -3.501412   -0.334834    0.501268
 ---------------------------------------------------------------------
 Rotational constants (GHZ):           4.6751503           1.3984155           1.1995356
 Standard basis: 6-311++G(d,p) (5D, 7F)
 There are   245 symmetry adapted cartesian basis functions of A   symmetry.
 There are   238 symmetry adapted basis functions of A   symmetry.
   238 basis functions,   360 primitive gaussians,   245 cartesian basis functions
    29 alpha electrons       29 beta electrons
       nuclear repulsion energy       336.9629108607 Hartrees.
 NAtoms=   19 NActive=   19 NUniq=   19 SFac= 1.00D+00 NAtFMM=   60 NAOKFM=F Big=F
 Integral buffers will be    131072 words long.
 Raffenetti 2 integral format.
 Two-electron integral symmetry is turned on.
 R6APFD:  NTU= -4 IXU= 1 FactS= 1.050
 Nuclear repulsion after empirical dispersion term =      336.9519339373 Hartrees.
 One-electron integrals computed using PRISM.
 NBasis=   238 RedAO= T EigKep=  4.68D-05  NBF=   238
 NBsUse=   238 1.00D-06 EigRej= -1.00D+00 NBFU=   238
 Initial guess from the checkpoint file:  "DEXY0098.chk"
 B after Tr=    -0.000000   -0.000000    0.000000
         Rot=    0.999993   -0.003302    0.001507    0.000451 Ang=  -0.42 deg.
 ExpMin= 3.60D-02 ExpMax= 8.59D+03 ExpMxC= 1.30D+03 IAcc=3 IRadAn=         5 AccDes= 0.00D+00
 Harris functional with IExCor= 1009 and IRadAn=       5 diagonalized for initial guess.
 HarFok:  IExCor= 1009 AccDes= 0.00D+00 IRadAn=         5 IDoV= 1 UseB2=F ITyADJ=14
 ICtDFT=  3500011 ScaDFX=  1.000000  1.000000  1.000000  1.000000
 FoFCou: FMM=F IPFlag=           0 FMFlag=      100000 FMFlg1=           0
         NFxFlg=           0 DoJE=T BraDBF=F KetDBF=T FulRan=T
         wScrn=  0.000000 ICntrl=       500 IOpCl=  0 I1Cent=   200000004 NGrid=           0
         NMat0=    1 NMatS0=      1 NMatT0=    0 NMatD0=    1 NMtDS0=    0 NMtDT0=    0
 Petite list used in FoFCou.
 Requested convergence on RMS density matrix=1.00D-08 within  32 cycles.
 Requested convergence on MAX density matrix=1.00D-06.
 Requested convergence on             energy=1.00D-06.
 No special actions if energy rises.
 SCF Done:  E(RM08HX) =  -348.186431078     A.U. after   10 cycles
            NFock= 10  Conv=0.65D-08     -V/T= 2.0046
 QCSCF skips out because SCF is already converged.
 R6APFD:  NTU= -4 IXU= 1 FactS= 1.050
 Calling FoFJK, ICntrl=      2127 FMM=F ISym2X=0 I1Cent= 0 IOpClX= 0 NMat=1 NMatS=1 NMatT=0.
 ***** Axes restored to original set *****
 -------------------------------------------------------------------
 Center     Atomic                   Forces (Hartrees/Bohr)
 Number     Number              X              Y              Z
 -------------------------------------------------------------------
      1        8          -0.001349594    0.003049454   -0.001072736
      2        8           0.000898181    0.002808835    0.001335416
      3        6          -0.003706471   -0.003068072    0.002519656
      4        6           0.004194672   -0.002459415   -0.002491116
      5        6           0.000046060   -0.002999772   -0.000497264
      6        6           0.000371866    0.000932953    0.000256721
      7        6          -0.000400890    0.000904708   -0.000159194
      8        1           0.000342709    0.000048374   -0.000776253
      9        1          -0.000903817   -0.000119846   -0.000851263
     10        1          -0.000368090   -0.000026191    0.000781158
     11        1           0.000764823   -0.000243491    0.000833303
     12        1          -0.000303720    0.001244846   -0.000531016
     13        1           0.000492094    0.000556611    0.000652897
     14        1          -0.000388175   -0.000458123    0.000059427
     15        1           0.000536572    0.000004782   -0.000638986
     16        1           0.000440450    0.000164695   -0.000741858
     17        1           0.000406976   -0.000490605   -0.000080866
     18        1          -0.000534783   -0.000027385    0.000622874
     19        1          -0.000538862    0.000177643    0.000779101
 -------------------------------------------------------------------
 Cartesian Forces:  Max     0.004194672 RMS     0.001354273

 GradGradGradGradGradGradGradGradGradGradGradGradGradGradGradGradGradGrad
 Berny optimization.
 Using GEDIIS/GDIIS optimizer.
 FormGI is forming the generalized inverse of G from B-inverse, IUseBI=4.
 Internal  Forces:  Max     0.009596010 RMS     0.002046595
 Search for a local minimum.
 Step number   2 out of a maximum of   90
 All quantities printed in internal units (Hartrees-Bohrs-Radians)
 Mixed Optimization -- RFO/linear search
 Update second derivatives using D2CorX and points    1    2
 DE= -2.75D-03 DEPred=-3.34D-03 R= 8.24D-01
 TightC=F SS=  1.41D+00  RLast= 1.89D-01 DXNew= 5.0454D-01 5.6561D-01
 Trust test= 8.24D-01 RLast= 1.89D-01 DXMaxT set to 5.05D-01
 ITU=  1  0
 Use linear search instead of GDIIS.
     Eigenvalues ---    0.00583   0.00584   0.01315   0.01342   0.01404
     Eigenvalues ---    0.01409   0.05386   0.05392   0.05705   0.05720
     Eigenvalues ---    0.05732   0.05755   0.05834   0.05872   0.07994
     Eigenvalues ---    0.09797   0.10949   0.11295   0.12243   0.13662
     Eigenvalues ---    0.13688   0.14144   0.15987   0.16000   0.16000
     Eigenvalues ---    0.16000   0.16000   0.16073   0.21343   0.21952
     Eigenvalues ---    0.23267   0.24999   0.26963   0.30971   0.31244
     Eigenvalues ---    0.33958   0.34158   0.34185   0.34187   0.34227
     Eigenvalues ---    0.34229   0.34231   0.34233   0.34239   0.34392
     Eigenvalues ---    0.34403   0.34467   0.41352   0.41544   0.42248
     Eigenvalues ---    0.48151
 RFO step:  Lambda=-1.13495243D-03 EMin= 5.83098954D-03
 Quartic linear search produced a step of -0.14332.
 Iteration  1 RMS(Cart)=  0.10124575 RMS(Int)=  0.00131670
 Iteration  2 RMS(Cart)=  0.00257812 RMS(Int)=  0.00004525
 Iteration  3 RMS(Cart)=  0.00000174 RMS(Int)=  0.00004524
 Iteration  4 RMS(Cart)=  0.00000000 RMS(Int)=  0.00004524
 Variable       Old X    -DE/DX   Delta X   Delta X   Delta X     New X
                                 (Linear)    (Quad)   (Total)
    R1        2.67769   0.00287   0.00120   0.00310   0.00430   2.68198
    R2        2.63955   0.00272   0.00830  -0.01307  -0.00476   2.63479
    R3        2.67753   0.00285   0.00123   0.00299   0.00422   2.68175
    R4        2.64141   0.00237   0.00803  -0.01318  -0.00515   2.63626
    R5        2.87044  -0.00149  -0.00139  -0.00095  -0.00234   2.86810
    R6        2.08553   0.00050  -0.00216   0.00611   0.00396   2.08948
    R7        2.08151  -0.00026  -0.00175   0.00329   0.00154   2.08305
    R8        2.87074  -0.00158  -0.00145  -0.00106  -0.00250   2.86824
    R9        2.08573   0.00047  -0.00215   0.00603   0.00389   2.08962
   R10        2.08084  -0.00012  -0.00166   0.00345   0.00179   2.08263
   R11        2.07709   0.00121  -0.00098   0.00522   0.00424   2.08133
   R12        2.07753   0.00096  -0.00106   0.00481   0.00375   2.08128
   R13        2.07013   0.00040  -0.00051   0.00214   0.00163   2.07176
   R14        2.07229  -0.00030  -0.00042   0.00019  -0.00023   2.07207
   R15        2.07221  -0.00049  -0.00040  -0.00032  -0.00072   2.07149
   R16        2.07013   0.00042  -0.00051   0.00219   0.00168   2.07181
   R17        2.07228  -0.00029  -0.00041   0.00019  -0.00022   2.07206
   R18        2.07232  -0.00054  -0.00041  -0.00042  -0.00083   2.07149
    A1        1.94612   0.00900   0.00184   0.02646   0.02829   1.97442
    A2        1.94831   0.00869   0.00152   0.02613   0.02765   1.97596
    A3        1.88542  -0.00058   0.00246  -0.00666  -0.00423   1.88120
    A4        1.90710   0.00003   0.00082  -0.00253  -0.00171   1.90539
    A5        1.91133   0.00094   0.00247   0.00257   0.00502   1.91635
    A6        1.93962   0.00036  -0.00375   0.00901   0.00528   1.94491
    A7        1.94004  -0.00021  -0.00466   0.00982   0.00519   1.94523
    A8        1.88019  -0.00052   0.00268  -0.01226  -0.00949   1.87070
    A9        1.88467  -0.00051   0.00258  -0.00671  -0.00415   1.88052
   A10        1.90703   0.00006   0.00080  -0.00199  -0.00120   1.90583
   A11        1.91267   0.00087   0.00256   0.00166   0.00420   1.91687
   A12        1.93969   0.00033  -0.00364   0.00878   0.00517   1.94486
   A13        1.94014  -0.00022  -0.00510   0.01064   0.00557   1.94571
   A14        1.87954  -0.00050   0.00280  -0.01243  -0.00953   1.87001
   A15        1.95466   0.00960   0.00523   0.02633   0.03164   1.98630
   A16        1.93846  -0.00260  -0.00381   0.00045  -0.00325   1.93521
   A17        1.84960  -0.00195   0.00542  -0.01868  -0.01325   1.83635
   A18        1.84526  -0.00162   0.00657  -0.01773  -0.01116   1.83410
   A19        1.94261  -0.00316  -0.00531  -0.00114  -0.00637   1.93624
   A20        1.93517  -0.00024  -0.00887   0.01184   0.00288   1.93805
   A21        1.92771   0.00085   0.00127   0.00101   0.00228   1.92999
   A22        1.92973  -0.00081   0.00006  -0.00439  -0.00432   1.92541
   A23        1.93448  -0.00076  -0.00052  -0.00241  -0.00292   1.93156
   A24        1.89463  -0.00010   0.00067  -0.00297  -0.00229   1.89234
   A25        1.89587  -0.00004   0.00051  -0.00157  -0.00106   1.89481
   A26        1.88011   0.00090  -0.00207   0.01056   0.00849   1.88861
   A27        1.92724   0.00091   0.00134   0.00126   0.00260   1.92985
   A28        1.92943  -0.00078   0.00012  -0.00433  -0.00420   1.92523
   A29        1.93559  -0.00091  -0.00068  -0.00287  -0.00355   1.93204
   A30        1.89468  -0.00013   0.00068  -0.00302  -0.00233   1.89235
   A31        1.89558  -0.00000   0.00052  -0.00139  -0.00087   1.89471
   A32        1.88002   0.00094  -0.00205   0.01058   0.00854   1.88855
    D1       -3.13660   0.00024  -0.00071   0.02004   0.01932  -3.11728
    D2       -1.02433   0.00034  -0.00329   0.02545   0.02217  -1.00216
    D3        1.03131   0.00028   0.00198   0.01064   0.01261   1.04391
    D4       -1.04702  -0.00139  -0.00556  -0.03090  -0.03661  -1.08363
    D5        1.01172   0.00109   0.00366  -0.03580  -0.03213   0.97958
    D6        3.11478  -0.00185  -0.00590  -0.03273  -0.03849   3.07629
    D7       -3.12914   0.00028  -0.00180   0.02603   0.02423  -3.10492
    D8       -1.01729   0.00040  -0.00418   0.03145   0.02729  -0.99000
    D9        1.03831   0.00034   0.00129   0.01621   0.01749   1.05580
   D10       -1.02417  -0.00116   0.00035  -0.06097  -0.06077  -1.08494
   D11       -3.13767  -0.00243  -0.00266  -0.06522  -0.06771   3.07781
   D12        1.04281   0.00061   0.00705  -0.06794  -0.06091   0.98190
   D13        3.14151  -0.00022  -0.00068  -0.00041  -0.00110   3.14042
   D14       -1.04424  -0.00032   0.00104  -0.00631  -0.00528  -1.04952
   D15        1.03943  -0.00022  -0.00183   0.00248   0.00065   1.04008
   D16        1.04961  -0.00010  -0.00096   0.00153   0.00054   1.05015
   D17       -3.13614  -0.00021   0.00075  -0.00437  -0.00365  -3.13979
   D18       -1.05247  -0.00011  -0.00211   0.00441   0.00228  -1.05019
   D19       -1.04432   0.00045   0.00106   0.00442   0.00551  -1.03881
   D20        1.05311   0.00035   0.00278  -0.00148   0.00132   1.05443
   D21        3.13678   0.00045  -0.00009   0.00731   0.00725  -3.13916
   D22        3.14112  -0.00019  -0.00068   0.00033  -0.00036   3.14076
   D23       -1.04508  -0.00027   0.00113  -0.00543  -0.00430  -1.04938
   D24        1.03899  -0.00019  -0.00178   0.00313   0.00135   1.04033
   D25        1.04973  -0.00013  -0.00108   0.00178   0.00067   1.05041
   D26       -3.13647  -0.00021   0.00073  -0.00398  -0.00327  -3.13974
   D27       -1.05240  -0.00013  -0.00218   0.00458   0.00238  -1.05002
   D28       -1.04349   0.00043   0.00098   0.00450   0.00551  -1.03798
   D29        1.05349   0.00035   0.00280  -0.00126   0.00157   1.05506
   D30        3.13756   0.00042  -0.00011   0.00730   0.00722  -3.13841
         Item               Value     Threshold  Converged?
 Maximum Force            0.009596     0.000450     NO 
 RMS     Force            0.002047     0.000300     NO 
 Maximum Displacement     0.303901     0.001800     NO 
 RMS     Displacement     0.100025     0.001200     NO 
 Predicted change in Energy=-6.541452D-04
 GradGradGradGradGradGradGradGradGradGradGradGradGradGradGradGradGradGrad

                          Input orientation:                          
 ---------------------------------------------------------------------
 Center     Atomic      Atomic             Coordinates (Angstroms)
 Number     Number       Type             X           Y           Z
 ---------------------------------------------------------------------
      1          8           0       -1.070333    0.553044    0.485332
      2          8           0        1.061800    0.557242   -0.470921
      3          6           0       -1.666400   -0.249907   -0.521758
      4          6           0        1.655459   -0.271580    0.516264
      5          6           0       -0.002294    1.316645    0.016082
      6          6           0       -2.827510   -0.997324    0.108086
      7          6           0        2.822368   -0.996540   -0.129101
      8          1           0       -2.005425    0.399121   -1.350259
      9          1           0       -0.917903   -0.944243   -0.937357
     10          1           0        1.988213    0.354721    1.364656
     11          1           0        0.907734   -0.979661    0.908832
     12          1           0       -0.313861    1.949247   -0.829973
     13          1           0        0.312837    1.930968    0.874164
     14          1           0       -3.323906   -1.633887   -0.633746
     15          1           0       -2.471484   -1.633039    0.927478
     16          1           0       -3.564666   -0.295253    0.514687
     17          1           0        3.317364   -1.652442    0.596685
     18          1           0        2.472411   -1.609728   -0.968039
     19          1           0        3.559195   -0.280885   -0.511911
 ---------------------------------------------------------------------
                    Distance matrix (angstroms):
                    1          2          3          4          5
     1  O    0.000000
     2  O    2.336756   0.000000
     3  C    1.419245   2.845549   0.000000
     4  C    2.847965   1.419123   3.480332   0.000000
     5  C    1.394270   1.395049   2.347894   2.349636   0.000000
     6  C    2.373526   4.228316   1.517732   4.559641   3.653048
     7  C    4.234602   2.372905   4.567349   1.517807   3.653850
     8  H    2.065789   3.194700   1.105708   4.163630   2.592542
     9  H    2.071026   2.528091   1.102304   3.031119   2.618970
    10  H    3.188612   2.066059   4.156962   1.105780   2.589608
    11  H    2.537968   2.071117   3.034022   1.102080   2.626437
    12  H    2.061956   1.989734   2.600122   3.259241   1.101394
    13  H    1.990735   2.063328   3.259170   2.604217   1.101365
    14  H    3.333705   4.905300   2.162236   5.288901   4.490102
    15  H    2.633947   4.385995   2.159050   4.365127   3.953249
    16  H    2.634799   4.806491   2.163258   5.220179   3.941740
    17  H    4.912073   3.333176   5.296785   2.162216   4.491404
    18  H    4.397830   2.633004   4.379274   2.158982   3.956807
    19  H    4.808582   2.634600   5.225696   2.163663   3.938919
                    6          7          8          9         10
     6  C    0.000000
     7  C    5.654854   0.000000
     8  H    2.180058   5.171719   0.000000
     9  H    2.177697   3.826962   1.777025   0.000000
    10  H    5.157343   2.180145   4.829273   3.928370   0.000000
    11  H    3.820151   2.177938   3.935864   2.596655   1.776454
    12  H    3.985055   4.359451   2.352653   2.957818   3.557873
    13  H    4.361599   3.984292   3.559347   3.614301   2.352025
    14  H    1.096328   6.199803   2.526836   2.521237   6.013883
    15  H    1.096490   5.435656   3.087875   2.523027   4.902165
    16  H    1.096188   6.457590   2.528124   3.087875   5.655031
    17  H    6.198983   1.096355   6.027569   4.559860   2.526881
    18  H    5.442632   1.096488   4.922660   3.455147   3.087876
    19  H    6.456599   1.096184   5.668353   4.545927   2.528534
                   11         12         13         14         15
    11  H    0.000000
    12  H    3.618596   0.000000
    13  H    2.971004   1.815811   0.000000
    14  H    4.551300   4.683772   5.311109   0.000000
    15  H    3.441855   4.536159   4.522989   1.778776   0.000000
    16  H    4.541599   4.172963   4.485567   1.780114   1.776264
    17  H    2.521188   5.309738   4.684550   6.754315   5.798325
    18  H    2.523459   4.522022   4.538061   5.805999   5.294868
    19  H    3.088210   4.480537   4.165613   7.015877   6.345806
                   16         17         18         19
    16  H    0.000000
    17  H    7.015057   0.000000
    18  H    6.353945   1.778800   0.000000
    19  H    7.197465   1.780066   1.776225   0.000000
 Stoichiometry    C5H12O2
 Framework group  C1[X(C5H12O2)]
 Deg. of freedom    51
 Full point group                 C1      NOp   1
 Largest Abelian subgroup         C1      NOp   1
 Largest concise Abelian subgroup C1      NOp   1
                         Standard orientation:                         
 ---------------------------------------------------------------------
 Center     Atomic      Atomic             Coordinates (Angstroms)
 Number     Number       Type             X           Y           Z
 ---------------------------------------------------------------------
      1          8           0        1.063659    0.603377   -0.487012
      2          8           0       -1.060964    0.600266    0.485818
      3          6           0        1.666346   -0.211211    0.506704
      4          6           0       -1.663515   -0.217041   -0.505571
      5          6           0        0.000438    1.363377   -0.001263
      6          6           0        2.821409   -0.953429   -0.140175
      7          6           0       -2.826445   -0.947272    0.141030
      8          1           0        2.012769    0.428378    1.339474
      9          1           0        0.920072   -0.908933    0.920629
     10          1           0       -2.001926    0.418829   -1.344556
     11          1           0       -0.919919   -0.921900   -0.911551
     12          1           0        0.319517    1.986391    0.849097
     13          1           0       -0.320443    1.987349   -0.850203
     14          1           0        3.322612   -1.598641    0.590873
     15          1           0        2.458077   -1.579780   -0.963561
     16          1           0        3.556423   -0.248054   -0.544931
     17          1           0       -3.328047   -1.594623   -0.587892
     18          1           0       -2.470886   -1.569952    0.970568
     19          1           0       -3.559208   -0.234749    0.537249
 ---------------------------------------------------------------------
 Rotational constants (GHZ):           5.0080884           1.3017113           1.1462023
 Standard basis: 6-311++G(d,p) (5D, 7F)
 There are   245 symmetry adapted cartesian basis functions of A   symmetry.
 There are   238 symmetry adapted basis functions of A   symmetry.
   238 basis functions,   360 primitive gaussians,   245 cartesian basis functions
    29 alpha electrons       29 beta electrons
       nuclear repulsion energy       334.1222105872 Hartrees.
 NAtoms=   19 NActive=   19 NUniq=   19 SFac= 1.00D+00 NAtFMM=   60 NAOKFM=F Big=F
 Integral buffers will be    131072 words long.
 Raffenetti 2 integral format.
 Two-electron integral symmetry is turned on.
 R6APFD:  NTU= -4 IXU= 1 FactS= 1.050
 Nuclear repulsion after empirical dispersion term =      334.1115052484 Hartrees.
 One-electron integrals computed using PRISM.
 NBasis=   238 RedAO= T EigKep=  4.81D-05  NBF=   238
 NBsUse=   238 1.00D-06 EigRej= -1.00D+00 NBFU=   238
 Initial guess from the checkpoint file:  "DEXY0098.chk"
 B after Tr=    -0.000000    0.000000   -0.000000
         Rot=    0.999997   -0.001463   -0.001903    0.000077 Ang=  -0.28 deg.
 ExpMin= 3.60D-02 ExpMax= 8.59D+03 ExpMxC= 1.30D+03 IAcc=3 IRadAn=         5 AccDes= 0.00D+00
 Harris functional with IExCor= 1009 and IRadAn=       5 diagonalized for initial guess.
 HarFok:  IExCor= 1009 AccDes= 0.00D+00 IRadAn=         5 IDoV= 1 UseB2=F ITyADJ=14
 ICtDFT=  3500011 ScaDFX=  1.000000  1.000000  1.000000  1.000000
 FoFCou: FMM=F IPFlag=           0 FMFlag=      100000 FMFlg1=           0
         NFxFlg=           0 DoJE=T BraDBF=F KetDBF=T FulRan=T
         wScrn=  0.000000 ICntrl=       500 IOpCl=  0 I1Cent=   200000004 NGrid=           0
         NMat0=    1 NMatS0=      1 NMatT0=    0 NMatD0=    1 NMtDS0=    0 NMtDT0=    0
 Petite list used in FoFCou.
 Requested convergence on RMS density matrix=1.00D-08 within  32 cycles.
 Requested convergence on MAX density matrix=1.00D-06.
 Requested convergence on             energy=1.00D-06.
 No special actions if energy rises.
 SCF Done:  E(RM08HX) =  -348.186792315     A.U. after   10 cycles
            NFock= 10  Conv=0.73D-08     -V/T= 2.0047
 QCSCF skips out because SCF is already converged.
 R6APFD:  NTU= -4 IXU= 1 FactS= 1.050
 Calling FoFJK, ICntrl=      2127 FMM=F ISym2X=0 I1Cent= 0 IOpClX= 0 NMat=1 NMatS=1 NMatT=0.
 ***** Axes restored to original set *****
 -------------------------------------------------------------------
 Center     Atomic                   Forces (Hartrees/Bohr)
 Number     Number              X              Y              Z
 -------------------------------------------------------------------
      1        8           0.000059746   -0.002014517   -0.000031815
      2        8          -0.000183460   -0.001660406    0.000267122
      3        6           0.000010768    0.000414897    0.000408664
      4        6           0.000091930    0.000682764   -0.000391782
      5        6           0.000197609    0.001479122   -0.000367666
      6        6           0.000439617   -0.000068372   -0.000845039
      7        6          -0.000478658   -0.000213026    0.000922485
      8        1          -0.000027746   -0.000398948    0.000478714
      9        1          -0.000167422    0.000038914    0.000502015
     10        1           0.000042488   -0.000374714   -0.000544918
     11        1           0.000027085   -0.000071702   -0.000485617
     12        1          -0.000314933    0.000914659    0.000770760
     13        1           0.000341816    0.000742402   -0.000687317
     14        1          -0.000089193   -0.000017895    0.000215345
     15        1          -0.000017445    0.000315530   -0.000250417
     16        1           0.000431049   -0.000038418   -0.000156836
     17        1           0.000090366   -0.000026759   -0.000237159
     18        1           0.000023292    0.000299816    0.000255254
     19        1          -0.000476908   -0.000003346    0.000178208
 -------------------------------------------------------------------
 Cartesian Forces:  Max     0.002014517 RMS     0.000549681

 GradGradGradGradGradGradGradGradGradGradGradGradGradGradGradGradGradGrad
 Berny optimization.
 Using GEDIIS/GDIIS optimizer.
 FormGI is forming the generalized inverse of G from B-inverse, IUseBI=4.
 Internal  Forces:  Max     0.004135589 RMS     0.000722606
 Search for a local minimum.
 Step number   3 out of a maximum of   90
 All quantities printed in internal units (Hartrees-Bohrs-Radians)
 Mixed Optimization -- En-DIIS/RFO-DIIS
 Update second derivatives using D2CorX and points    1    2    3
 DE= -3.61D-04 DEPred=-6.54D-04 R= 5.52D-01
 TightC=F SS=  1.41D+00  RLast= 1.50D-01 DXNew= 8.4853D-01 4.4960D-01
 Trust test= 5.52D-01 RLast= 1.50D-01 DXMaxT set to 5.05D-01
 ITU=  1  1  0
 Use linear search instead of GDIIS.
     Eigenvalues ---    0.00583   0.00584   0.01308   0.01374   0.01409
     Eigenvalues ---    0.01558   0.05380   0.05408   0.05729   0.05731
     Eigenvalues ---    0.05766   0.05779   0.05802   0.05844   0.07764
     Eigenvalues ---    0.09876   0.10925   0.11297   0.12440   0.13654
     Eigenvalues ---    0.13680   0.14299   0.15938   0.16000   0.16000
     Eigenvalues ---    0.16000   0.16001   0.16066   0.21763   0.21929
     Eigenvalues ---    0.23643   0.24996   0.30097   0.30971   0.32021
     Eigenvalues ---    0.33968   0.34159   0.34186   0.34190   0.34228
     Eigenvalues ---    0.34230   0.34233   0.34238   0.34373   0.34396
     Eigenvalues ---    0.34403   0.34455   0.41330   0.41540   0.42248
     Eigenvalues ---    0.49392
 RFO step:  Lambda=-9.23596249D-05 EMin= 5.83061723D-03
 Quartic linear search produced a step of -0.29970.
 Iteration  1 RMS(Cart)=  0.04020926 RMS(Int)=  0.00037178
 Iteration  2 RMS(Cart)=  0.00055746 RMS(Int)=  0.00000476
 Iteration  3 RMS(Cart)=  0.00000010 RMS(Int)=  0.00000476
 Variable       Old X    -DE/DX   Delta X   Delta X   Delta X     New X
                                 (Linear)    (Quad)   (Total)
    R1        2.68198  -0.00062  -0.00129   0.00085  -0.00044   2.68155
    R2        2.63479   0.00058   0.00143   0.00205   0.00348   2.63827
    R3        2.68175  -0.00065  -0.00127   0.00079  -0.00048   2.68128
    R4        2.63626   0.00009   0.00154   0.00108   0.00262   2.63888
    R5        2.86810  -0.00111   0.00070  -0.00352  -0.00282   2.86528
    R6        2.08948  -0.00058  -0.00119  -0.00052  -0.00170   2.08778
    R7        2.08305  -0.00033  -0.00046  -0.00068  -0.00115   2.08191
    R8        2.86824  -0.00116   0.00075  -0.00368  -0.00293   2.86531
    R9        2.08962  -0.00062  -0.00117  -0.00060  -0.00176   2.08786
   R10        2.08263  -0.00014  -0.00054  -0.00024  -0.00077   2.08186
   R11        2.08133   0.00002  -0.00127   0.00110  -0.00017   2.08116
   R12        2.08128  -0.00002  -0.00112   0.00082  -0.00030   2.08098
   R13        2.07176  -0.00009  -0.00049   0.00019  -0.00030   2.07146
   R14        2.07207  -0.00038   0.00007  -0.00092  -0.00085   2.07122
   R15        2.07149  -0.00037   0.00021  -0.00106  -0.00085   2.07065
   R16        2.07181  -0.00010  -0.00050   0.00020  -0.00031   2.07150
   R17        2.07206  -0.00037   0.00006  -0.00090  -0.00084   2.07122
   R18        2.07149  -0.00039   0.00025  -0.00112  -0.00088   2.07061
    A1        1.97442  -0.00149  -0.00848   0.00589  -0.00259   1.97183
    A2        1.97596  -0.00200  -0.00829   0.00426  -0.00403   1.97193
    A3        1.88120   0.00069   0.00127   0.00133   0.00260   1.88380
    A4        1.90539  -0.00003   0.00051   0.00077   0.00128   1.90667
    A5        1.91635  -0.00035  -0.00151   0.00062  -0.00088   1.91547
    A6        1.94491  -0.00036  -0.00158  -0.00069  -0.00228   1.94263
    A7        1.94523  -0.00026  -0.00156  -0.00144  -0.00299   1.94224
    A8        1.87070   0.00030   0.00284  -0.00055   0.00229   1.87299
    A9        1.88052   0.00086   0.00124   0.00185   0.00309   1.88361
   A10        1.90583  -0.00009   0.00036   0.00086   0.00122   1.90705
   A11        1.91687  -0.00042  -0.00126  -0.00000  -0.00126   1.91561
   A12        1.94486  -0.00037  -0.00155  -0.00057  -0.00212   1.94274
   A13        1.94571  -0.00034  -0.00167  -0.00181  -0.00348   1.94223
   A14        1.87001   0.00035   0.00286  -0.00030   0.00256   1.87257
   A15        1.98630  -0.00414  -0.00948   0.00038  -0.00910   1.97721
   A16        1.93521   0.00099   0.00097   0.00079   0.00178   1.93699
   A17        1.83635   0.00156   0.00397   0.00231   0.00628   1.84263
   A18        1.83410   0.00177   0.00335   0.00519   0.00856   1.84266
   A19        1.93624   0.00078   0.00191  -0.00246  -0.00055   1.93569
   A20        1.93805  -0.00104  -0.00086  -0.00671  -0.00756   1.93049
   A21        1.92999   0.00044  -0.00068   0.00346   0.00277   1.93277
   A22        1.92541  -0.00018   0.00129  -0.00225  -0.00096   1.92445
   A23        1.93156  -0.00043   0.00088  -0.00317  -0.00230   1.92926
   A24        1.89234  -0.00004   0.00069   0.00005   0.00074   1.89308
   A25        1.89481   0.00004   0.00032   0.00037   0.00069   1.89550
   A26        1.88861   0.00017  -0.00255   0.00161  -0.00094   1.88766
   A27        1.92985   0.00048  -0.00078   0.00378   0.00300   1.93285
   A28        1.92523  -0.00016   0.00126  -0.00208  -0.00083   1.92440
   A29        1.93204  -0.00054   0.00106  -0.00388  -0.00281   1.92922
   A30        1.89235  -0.00006   0.00070   0.00002   0.00072   1.89306
   A31        1.89471   0.00007   0.00026   0.00053   0.00080   1.89551
   A32        1.88855   0.00020  -0.00256   0.00169  -0.00087   1.88768
    D1       -3.11728   0.00010  -0.00579   0.00682   0.00103  -3.11625
    D2       -1.00216   0.00006  -0.00665   0.00724   0.00059  -1.00157
    D3        1.04391   0.00020  -0.00378   0.00738   0.00360   1.04751
    D4       -1.08363   0.00026   0.01097   0.01377   0.02475  -1.05888
    D5        0.97958   0.00046   0.00963   0.02124   0.03086   1.01045
    D6        3.07629   0.00067   0.01154   0.01501   0.02654   3.10282
    D7       -3.10492   0.00003  -0.00726   0.00429  -0.00297  -3.10789
    D8       -0.99000   0.00003  -0.00818   0.00522  -0.00296  -0.99296
    D9        1.05580   0.00016  -0.00524   0.00536   0.00012   1.05591
   D10       -1.08494   0.00058   0.01821   0.01945   0.03765  -1.04729
   D11        3.07781   0.00057   0.02029   0.01470   0.03498   3.11279
[...]
 01465,0.00732596,0.00311988,-0.00170097,-0.03883447,0.07289684,-0.1719
 4655,-0.00112967,-0.00064179,-0.00209475,-0.02814389,0.03828075,0.5374
 7870,-0.13443309,-0.07003533,0.02573185,-0.13419892,0.06943895,0.02748
 126,-0.02888791,-0.02826137,-0.01198958,-0.02878075,0.02855623,-0.0113
 1074,0.45874672,-0.07496940,-0.14600485,0.01605309,0.07388826,-0.14497
 229,-0.01668122,-0.02777887,-0.02265172,0.00424398,0.02831861,-0.02294
 284,-0.00516439,-0.00107737,0.58026543,0.04465520,0.03984876,-0.121385
 45,0.04646027,-0.04054672,-0.12278262,-0.02108506,-0.01231282,0.015172
 93,-0.02036166,0.01141610,0.01533302,0.08902539,-0.00074419,0.63433626
 ,-0.01428063,-0.01242085,0.00330678,-0.00049413,-0.00035509,-0.0000984
 8,-0.16348952,-0.04585252,0.04781958,0.00023528,-0.00018847,0.00032181
 ,-0.00020441,0.00004249,-0.00198792,0.52235208,-0.02444058,-0.01545985
 ,0.00617397,0.00028428,0.00165495,0.00097597,-0.04162713,-0.10492477,0
 .02713785,-0.00027373,0.00007868,-0.00013283,0.00051110,-0.00286907,-0
 .00409863,-0.02982722,0.55536527,-0.02805058,-0.01994027,0.01118306,-0
 .00075466,0.00121423,0.00088263,0.05892352,0.03669523,-0.11065902,0.00
 009877,-0.00038140,0.00032581,0.00001024,-0.00238993,-0.00577665,0.026
 34747,0.01927716,0.56259750,-0.00048881,0.00036128,-0.00008814,-0.0141
 6250,0.01225042,0.00358237,0.00023599,0.00017570,0.00032443,-0.1638288
 9,0.04466742,0.04890653,-0.00020808,-0.00000590,-0.00197706,0.00001171
 ,-0.00004666,-0.00000706,0.52218343,-0.00025874,0.00171363,-0.00095357
 ,0.02515528,-0.01580575,-0.00683815,0.00027153,0.00006194,0.00012450,0
 .04012000,-0.10321451,-0.02684101,-0.00050871,-0.00302900,0.00417896,0
 .00004745,0.00000023,0.00005549,0.02917602,0.55640089,-0.00076435,-0.0
 0118572,0.00082925,-0.02742781,0.01926178,0.01147593,0.00010705,0.0003
 7121,0.00033878,0.05988084,-0.03638731,-0.11208063,-0.00000432,0.00244
 020,-0.00561548,-0.00000619,-0.00005385,-0.00003585,0.02700344,-0.0193
 1105,0.56173065,-0.00752749,-0.00119870,-0.01681198,-0.00021318,-0.000
 09999,0.00097684,-0.06926605,0.04101079,-0.04774721,0.00021285,0.00023
 804,-0.00027693,0.00232139,0.00334506,-0.00374751,0.00833342,-0.016346
 92,0.02147775,0.00001297,-0.00009860,0.00006466,0.07345822,-0.01192942
 ,0.01042120,-0.02269809,0.00005385,0.00004719,0.00039693,0.04201109,-0
 .13775920,0.11031586,-0.00020118,-0.00043595,0.00011558,0.00073045,0.0
 0340649,-0.00351693,0.00474362,-0.00857367,0.01097894,0.00002130,0.000
 04420,0.00002275,-0.03849219,0.14380851,-0.01662856,0.00154271,-0.0308
 0382,-0.00134439,0.00018793,0.00025928,-0.04749706,0.10570474,-0.18186
 279,0.00025477,-0.00005622,0.00019748,0.00455846,0.00271915,-0.0008377
 8,-0.00256178,0.00790786,-0.00793178,-0.00002798,-0.00007752,0.0000121
 5,0.05932342,-0.11306117,0.21117485,0.01292330,-0.01442212,-0.00794791
 ,-0.00250188,-0.00108106,-0.00068701,-0.17194935,0.11587510,0.05305562
 ,-0.00052318,-0.00061675,-0.00036282,0.00133595,-0.00061459,-0.0000330
 7,-0.01775049,0.01635098,0.00706976,0.00006243,-0.00007644,0.00004983,
 -0.00518586,0.00525735,0.00291615,0.18519968,0.00243240,-0.01986373,-0
 .01591796,-0.00140138,0.00199711,0.00181336,0.11102512,-0.15150470,-0.
 04410141,-0.00063548,0.00035891,-0.00036058,0.00629891,-0.00006789,-0.
 00346533,-0.01232682,0.01266457,0.00607229,-0.00005688,-0.00001428,-0.
 00003537,0.01463189,-0.01149127,-0.00408970,-0.11750647,0.16788425,0.0
 0988626,-0.02685659,-0.01538434,-0.00128536,0.00169778,0.00066903,0.04
 903143,-0.04293089,-0.07217564,-0.00041470,-0.00104447,0.00058427,0.00
 401041,0.00098477,-0.00145441,0.00994800,-0.00766036,-0.00325192,0.000
 01281,0.00024342,-0.00007142,-0.01624179,0.01636728,0.00824507,-0.0555
 6826,0.05859451,0.08348492,-0.00020507,0.00007055,0.00098002,-0.007443
 96,0.00164508,-0.01671267,0.00020900,-0.00023469,-0.00028570,-0.069020
 43,-0.03944860,-0.04850387,0.00230841,-0.00323308,-0.00382924,0.000013
 45,0.00009685,0.00006729,0.00828004,0.01578154,0.02195394,-0.00004408,
 0.00007515,0.00009837,0.00014904,0.00018318,0.00019248,0.07315786,-0.0
 0001807,0.00005743,-0.00039811,0.01229581,0.00980877,0.02380043,0.0001
 9194,-0.00043375,-0.00013387,-0.04045944,-0.13204613,-0.10909811,-0.00
 083574,0.00340091,0.00363433,-0.00001983,0.00004213,-0.00002168,-0.004
 64045,-0.00806243,-0.01099179,-0.00007733,0.00014690,0.00004718,0.0000
 9028,0.00003241,0.00026372,0.03660657,0.13784046,-0.00134940,-0.000188
 54,0.00024728,-0.01623690,-0.00047175,-0.03028359,0.00026099,0.0000367
 7,0.00019508,-0.04829518,-0.10447127,-0.18795625,0.00454185,-0.0026273
 4,-0.00081371,-0.00002904,0.00007885,0.00001378,-0.00263953,-0.0078660
 4,-0.00838536,0.00009577,-0.00004109,-0.00004824,0.00006419,0.00011924
 ,-0.00008704,0.05994012,0.11120745,0.21756785,-0.00249040,0.00110834,-
 0.00065411,0.01292339,0.01456492,-0.00748096,-0.00051906,0.00062806,-0
 .00034486,-0.17218070,-0.11734049,0.04963236,0.00132413,0.00060901,-0.
 00001380,0.00006369,0.00007573,0.00005144,-0.01780024,-0.01656299,0.00
 658989,0.00014863,-0.00009233,0.00006073,0.00017373,-0.00022650,-0.000
 40167,-0.00515007,-0.00528632,0.00274348,0.18544991,0.00144520,0.00208
 604,-0.00177504,-0.00273025,-0.02101510,0.01576102,0.00065058,0.000314
 39,0.00035128,-0.11240639,-0.15378074,0.04159671,-0.00641454,-0.000121
 44,0.00349517,0.00005764,-0.00000940,0.00003817,0.01206276,0.01260259,
 -0.00561134,-0.00018834,0.00004377,-0.00011465,0.00023505,-0.00005784,
 0.00026072,-0.01419349,-0.01114611,0.00353564,0.11907995,0.17097021,-0
 .00125830,-0.00165312,0.00057550,0.00987086,0.02675284,-0.01424182,-0.
 00039339,0.00103938,0.00062637,0.04577173,0.04041886,-0.06966568,0.003
 84370,-0.00096004,-0.00139165,0.00001359,-0.00024179,-0.00007694,0.010
 23882,0.00804354,-0.00315108,0.00018743,-0.00026052,-0.00009853,-0.000
 39447,-0.00023615,-0.00096661,-0.01665786,-0.01690339,0.00786440,-0.05
 210991,-0.05592763,0.08015310,-0.00092976,-0.02569788,0.02413416,-0.01
 764085,0.02395008,-0.01985229,0.00287075,0.00114113,0.00532321,-0.0018
 1360,0.00180039,0.00419009,-0.06974081,0.03933220,-0.06202895,-0.00012
 579,-0.00007278,-0.00000822,-0.00015209,0.00098032,-0.00116828,-0.0001
 1710,0.00115380,-0.00113876,-0.00018870,-0.00012302,-0.00060842,0.0001
 1395,-0.00022792,0.00019555,-0.00015263,0.00045655,-0.00021469,0.08877
 907,-0.00668272,-0.01490170,0.02033502,0.01793616,-0.01784616,0.015844
 75,0.00277177,0.00120977,0.00366127,0.00177709,0.00069285,-0.00382157,
 0.03760481,-0.12519760,0.09436974,-0.00031780,0.00011953,-0.00043886,0
 .00037865,-0.00051899,0.00108606,-0.00080733,-0.00014970,-0.00113552,-
 0.00010284,-0.00019811,-0.00024184,0.00021612,0.00005877,0.00048250,-0
 .00015085,0.00006289,0.00010782,-0.04809180,0.14520133,0.00775767,0.01
 363699,-0.00976386,0.00622574,-0.00998958,0.01115023,-0.00071157,-0.00
 327387,0.00070419,0.00160102,-0.00128032,0.00015198,-0.06744553,0.1062
 0755,-0.20109808,0.00009104,-0.00017640,0.00053926,0.00037007,-0.00019
 588,0.00050856,0.00088975,0.00109095,0.00100046,0.00000008,0.00034245,
 0.00005821,0.00030811,-0.00007628,0.00043493,0.00008352,-0.00019054,0.
 00009884,0.05778695,-0.11823196,0.21047940,-0.01774063,-0.02344971,-0.
 02046986,-0.00088042,0.02508544,0.02473023,-0.00181712,-0.00190612,0.0
 0415751,0.00285292,-0.00128013,0.00529311,-0.06988157,-0.03787693,-0.0
 6319591,-0.00015693,-0.00094986,-0.00119778,-0.00012385,0.00007317,-0.
 00000288,0.00011384,0.00022246,0.00019880,-0.00015174,-0.00044671,-0.0
 0022587,-0.00011318,-0.00112309,-0.00116690,-0.00018677,0.00013806,-0.
 00060629,-0.00038241,-0.00488352,-0.00686916,0.08898832,-0.01809633,-0
 .01759826,-0.01652417,0.00647788,-0.01413978,-0.02050245,-0.00180480,0
 .00056589,0.00382586,-0.00275382,0.00122625,-0.00367389,-0.03600837,-0
 .12011079,-0.09223844,-0.00039050,-0.00049153,-0.00110836,0.00031500,0
 .00010446,0.00042774,-0.00022574,0.00006993,-0.00049180,0.00014926,0.0
 0006068,-0.00010639,0.00078155,-0.00015101,0.00111398,0.00010324,-0.00
 019232,0.00023977,0.00507717,0.01148077,0.01226577,0.04672305,0.139203
 17,0.00579789,0.00926092,0.01098867,0.00791810,-0.01378007,-0.01063615
 ,0.00155703,0.00129025,0.00028182,-0.00077793,0.00329037,0.00069814,-0
 .06858922,-0.10406919,-0.20605992,0.00036190,0.00017028,0.00048470,0.0
 0009759,0.00016480,0.00055629,0.00030281,0.00006613,0.00042261,0.00008
 974,0.00019149,0.00010037,0.00090513,-0.00112084,0.00100129,0.00000216
 ,-0.00034824,0.00005518,-0.00677045,-0.01161649,-0.01409456,0.05920137
 ,0.11636823,0.21635831,-0.00586803,-0.00432457,0.00341160,-0.00034723,
 0.00047904,0.00019143,-0.00732175,-0.01187675,-0.02098230,0.00013012,-
 0.00010378,0.00014304,0.00085817,-0.00070064,-0.00172501,-0.09690182,-
 0.06978315,-0.07515914,-0.00001831,-0.00001355,-0.00003277,0.00076728,
 -0.00012320,0.00034289,-0.00007032,0.00099569,-0.00010198,0.00000987,0
 .00000449,-0.00000649,0.00005651,-0.00000752,-0.00004162,-0.00007787,-
 0.00010181,0.00011420,-0.00042050,-0.00031983,0.00013293,0.10328192,-0
 .00405977,-0.00191306,0.00226973,-0.00055060,0.00022343,0.00021572,-0.
 00221565,-0.00856202,-0.01194741,0.00011958,-0.00014330,0.00016126,0.0
 0052484,0.00046001,-0.00131893,-0.07060407,-0.14274627,-0.10708665,-0.
 00000301,0.00000947,-0.00001959,0.00039363,-0.00029040,0.00035809,-0.0
 0013715,0.00045604,0.00016322,-0.00000059,-0.00000079,-0.00001623,-0.0
 0000967,0.00000467,-0.00000683,0.00001817,-0.00005204,0.00008799,-0.00
 024441,-0.00020523,0.00006621,0.07885559,0.15271475,0.00309039,0.00211
 059,-0.00049740,-0.00011817,-0.00011040,-0.00005026,0.00498134,0.00860
 044,0.01015136,0.00004593,0.00004191,-0.00002693,0.00059726,0.00060670
 ,0.00097358,-0.07733050,-0.10870541,-0.16704845,-0.00000814,-0.0000191
 9,0.00000437,-0.00086107,-0.00017958,0.00022445,-0.00054045,-0.0006092
 3,0.00041119,-0.00000187,0.00001427,-0.00000124,0.00002919,-0.00002715
 ,-0.00001579,-0.00007073,-0.00002539,-0.00000516,0.00024219,0.00020088
 ,-0.00009328,0.08362564,0.11796994,0.17750711,0.00194421,0.00220289,-0
 .00053258,0.00002534,0.00018178,-0.00021252,0.00829368,-0.01711958,0.0
 2384279,-0.00011069,-0.00027800,0.00019520,-0.00015706,-0.00026913,0.0
 0038024,-0.07148644,0.04598719,-0.06438336,0.00002485,0.00007191,-0.00
 001510,-0.00416807,-0.00312532,0.00180834,0.00126888,0.00070419,-0.000
 30177,0.00004082,0.00004791,-0.00002331,0.00004784,0.00010127,-0.00003
 369,-0.00003082,0.00016481,-0.00022221,-0.00000106,0.00009741,-0.00008
 363,-0.00487434,0.00837885,-0.00924441,0.07557606,0.00106426,0.0009947
 3,-0.00050191,0.00006436,0.00001220,-0.00022647,0.00450268,-0.00974917
 ,0.01299372,-0.00000267,-0.00015649,0.00010097,-0.00030777,-0.00013654
 ,0.00006455,0.04514339,-0.12685244,0.11379431,0.00001583,0.00005267,-0
 .00000902,-0.00285676,-0.00027389,0.00089430,-0.00015746,0.00062878,-0
 .00073600,-0.00002419,-0.00001571,-0.00001737,-0.00006718,0.00006998,0
 .00004492,0.00008988,0.00017792,-0.00019078,-0.00006274,0.00001292,-0.
 00005304,-0.00561163,0.01202125,-0.01605235,-0.04713417,0.13447190,0.0
 0013311,-0.00054403,0.00138822,0.00033237,-0.00024689,0.00012406,-0.00
 495949,0.00769030,-0.01275668,-0.00002487,0.00029534,-0.00022399,-0.00
 037000,-0.00017881,0.00025133,-0.06229377,0.11448932,-0.20823765,-0.00
 000929,-0.00005098,0.00002266,0.00268205,0.00082462,0.00015043,0.00008
 113,-0.00037036,0.00001138,-0.00001820,-0.00004101,0.00002733,0.000054
 13,-0.00002292,0.00004428,-0.00013793,-0.00016971,-0.00001509,0.000075
 80,0.00002972,0.00001497,-0.00495227,0.01192307,-0.01491389,0.06609608
 ,-0.12716974,0.22514148,0.00257136,0.00077095,-0.00078356,0.00011922,-
 0.00055208,-0.00043903,-0.02002155,0.01911260,0.00942016,0.00018998,0.
 00003276,0.00004491,-0.00055033,0.00010248,0.00039444,-0.16613035,0.12
 010929,0.05554031,0.00000450,-0.00001002,0.00002318,0.00115507,-0.0002
 9257,-0.00030258,-0.00292780,-0.00346939,0.00204401,-0.00005209,-0.000
 03778,-0.00003052,0.00003410,-0.00001448,0.00010148,0.00002543,0.00005
 163,0.00000395,-0.00001511,-0.00001392,-0.00003898,0.01082993,-0.01045
 275,-0.00442534,-0.00640756,0.00532031,0.00330159,0.18116690,0.0018562
 3,0.00146529,0.00034278,-0.00011485,-0.00027352,-0.00024161,-0.0132786
 0,0.01173905,0.00566581,0.00000738,-0.00011348,0.00007853,-0.00031161,
 0.00013190,0.00039578,0.12229131,-0.16807046,-0.05678826,0.00001055,0.
 00001360,0.00000021,0.00074809,0.00098730,-0.00037933,-0.00330043,-0.0
 0097116,0.00105433,0.00000070,0.00001698,-0.00001175,0.00001613,0.0000
 1287,0.00001758,0.00000354,0.00001015,-0.00000833,0.00008750,0.0000359
 3,0.00000277,0.01260757,-0.01198922,-0.00381829,0.01000420,-0.01123823
 ,-0.00646460,-0.13063309,0.17825245,-0.00136079,0.00048168,0.00068839,
 0.00022535,0.00011227,0.00015984,0.01049569,-0.01122745,-0.00607596,-0
 .00010776,0.00012671,-0.00013927,-0.00016160,-0.00029469,-0.00004690,0
 .05611799,-0.05522938,-0.07303046,-0.00000276,-0.00001660,-0.00000801,
 -0.00030097,-0.00044752,-0.00015152,0.00211898,0.00200159,-0.00016826,
 0.00000601,-0.00000073,0.00001975,0.00000503,0.00000010,-0.00003300,0.
 00003234,0.00004298,-0.00006326,0.00001468,0.00001589,-0.00000106,0.01
 500374,-0.01282824,-0.00663103,-0.01726114,0.01709021,0.00898141,-0.06
 482448,0.06015983,0.07648767,-0.00034836,-0.00048346,0.00018013,-0.005
 88011,0.00424777,0.00351599,0.00013035,0.00010014,0.00014566,-0.007274
 92,0.01246436,-0.02070198,0.00085467,0.00074034,-0.00171078,-0.0000184
 2,0.00001444,-0.00003254,-0.09646039,0.07145728,-0.07302503,0.00000970
 ,-0.00000428,-0.00000672,0.00005602,0.00000862,-0.00004126,0.00076747,
 0.00011390,0.00034818,-0.00006642,-0.00099572,-0.00013118,-0.00042035,
 0.00031803,0.00014115,-0.00007728,0.00009894,0.00011667,-0.00002001,-0
 .00001340,-0.00000231,-0.00000895,-0.00000551,0.00002534,-0.00000455,-
 0.00000620,0.00001254,0.10279771,0.00055371,0.00022441,-0.00020926,0.0
 0397825,-0.00180065,-0.00229607,-0.00012109,-0.00013738,-0.00016398,0.
 00204696,-0.00864143,0.01144810,-0.00053896,0.00044773,0.00130590,0.00
 000342,0.00000829,0.00001975,0.07234341,-0.14864457,0.10779000,0.00000
 073,-0.00000082,0.00001626,0.00000848,0.00000344,0.00000739,-0.0003693
 2,-0.00028520,-0.00037253,0.00015116,0.00044567,-0.00016126,0.00023732
 ,-0.00019867,-0.00006882,-0.00001670,-0.00005023,-0.00008918,0.0000134
 3,0.00001482,0.00000071,-0.00000128,0.00000177,-0.00000596,0.00000115,
 -0.00000353,-0.00000344,-0.08072662,0.15916154,-0.00010520,0.00011643,
 -0.00005274,0.00318349,-0.00213675,-0.00059901,0.00004315,-0.00004406,
 -0.00003171,0.00499135,-0.00907361,0.01018237,0.00058333,-0.00061836,0
 .00098920,-0.00000800,0.00001914,0.00000530,-0.07517275,0.10940582,-0.
 16159403,-0.00000202,-0.00001412,-0.00000129,0.00002924,0.00002726,-0.
 00001475,-0.00086879,0.00016568,0.00021673,-0.00053958,0.00060882,0.00
 042322,0.00024712,-0.00020354,-0.00009982,-0.00007113,0.00002446,-0.00
 000681,-0.00000206,-0.00000018,-0.00000638,0.00000141,0.00000095,0.000
 00880,-0.00001021,-0.00000291,0.00000869,0.08123144,-0.11869734,0.1715
 4811,0.00002468,-0.00017546,-0.00021772,0.00194434,-0.00219099,-0.0005
 9065,-0.00010926,0.00027130,0.00020191,0.00824142,0.01648483,0.0243558
 3,-0.00015630,0.00025928,0.00038707,0.00002446,-0.00007085,-0.00001700
 ,-0.07112919,-0.04391975,-0.06519828,0.00004048,-0.00004721,-0.0000247
 1,0.00004657,-0.00009891,-0.00003635,-0.00417816,0.00307549,0.00187807
 ,0.00126854,-0.00069525,-0.00031716,-0.00000151,-0.00009513,-0.0000861
 3,-0.00003105,-0.00015927,-0.00022652,-0.00000900,0.00000123,0.0000013
 8,-0.00000589,0.00001116,0.00000475,0.00002898,0.00000390,-0.00001448,
 -0.00483393,-0.00809091,-0.00943768,0.07519972,-0.00007515,-0.00000118
 ,0.00022342,-0.00106852,0.00096926,0.00048758,0.00000333,-0.00014461,-
 0.00009789,-0.00433179,-0.00919616,-0.01291515,0.00031739,-0.00014122,
 -0.00007578,-0.00001563,0.00005082,0.00000959,-0.04313695,-0.12072219,
 -0.11153240,0.00002439,-0.00001706,0.00001610,0.00006489,0.00006975,-0
 .00004406,0.00278576,-0.00022726,-0.00089686,0.00015319,0.00059750,0.0
 0075190,0.00006087,0.00001240,0.00005296,-0.00008547,0.00016836,0.0001
 9549,0.00000479,0.00000159,-0.00000106,-0.00001125,-0.00001276,0.00001
 503,-0.00001749,-0.00000925,0.00001206,0.00569903,0.01189060,0.0167978
 5,0.04498192,0.12763881,0.00033017,0.00024093,0.00013623,0.00010402,0.
 00052708,0.00141338,-0.00002621,-0.00029124,-0.00023347,-0.00501807,-0
 .00754743,-0.01325805,-0.00035955,0.00017111,0.00025420,-0.00000948,0.
 00005121,0.00002424,-0.06309253,-0.11223158,-0.21476122,-0.00001710,0.
 00003949,0.00002902,0.00005475,0.00002298,0.00004336,0.00274370,-0.000
 82496,0.00011728,0.00008975,0.00038265,0.00004010,0.00007728,-0.000030
 29,0.00001548,-0.00013984,0.00017470,-0.00000623,0.00002547,0.00000577
 ,0.00000891,0.00000432,-0.00001483,-0.00002123,-0.00002078,0.00000212,
 0.00000247,-0.00477104,-0.01122105,-0.01482293,0.06690881,0.12464512,0
 .23238071,0.00012009,0.00056366,-0.00042435,0.00257940,-0.00074899,-0.
 00080257,0.00019033,-0.00003384,0.00004382,-0.02007539,-0.01939451,0.0
 0885552,-0.00055021,-0.00011182,0.00039335,0.00000483,0.00000902,0.000
 02379,-0.16644356,-0.12168569,0.05197219,-0.00005203,0.00003863,-0.000
 02938,0.00003373,0.00001156,0.00010201,0.00115714,0.00029957,-0.000290
 94,-0.00294417,0.00341893,0.00213094,-0.00001490,0.00001473,-0.0000386
 6,0.00002454,-0.00005093,0.00000338,-0.00000463,-0.00000081,-0.0000103
 4,0.00002921,0.00001822,-0.00002052,-0.00001612,0.00000769,0.00000162,
 0.01079777,0.01052684,-0.00409311,-0.00636491,-0.00535331,0.00311633,0
 .18152891,0.00010703,-0.00027728,0.00022954,-0.00181842,0.00149021,-0.
 00032472,-0.00000483,-0.00010692,-0.00007702,0.01300715,0.01157162,-0.
 00514929,0.00031709,0.00013276,-0.00039151,-0.00001053,0.00001299,0.00
 000025,-0.12388848,-0.17099197,0.05373748,-0.00000072,0.00001644,0.000
 01158,-0.00001607,0.00001302,-0.00001653,-0.00073908,0.00096363,0.0004
 0633,0.00324658,-0.00088763,-0.00106591,-0.00008802,0.00003660,-0.0000
 0189,-0.00000428,0.00001079,0.00001009,0.00000584,-0.00000372,0.000002
 60,-0.00000365,-0.00000889,-0.00000238,-0.00000761,0.00000334,0.000004
 73,-0.01302765,-0.01243577,0.00362447,-0.00954538,-0.01092740,0.005898
 21,0.13247104,0.18138821,0.00022848,-0.00012412,0.00016078,-0.00140669
 ,-0.00046277,0.00066176,-0.00010822,-0.00012430,-0.00014378,0.01081170
 ,0.01165082,-0.00585869,-0.00015322,0.00030159,-0.00004788,-0.00000298
 ,0.00001703,-0.00000758,0.05248917,0.05218505,-0.06977556,0.00000609,0
 .00000049,0.00001995,0.00000451,0.00000091,-0.00003341,-0.00031697,0.0
 0047771,-0.00013029,0.00220322,-0.00201277,-0.00023990,0.00001202,-0.0
 0001497,-0.00000173,0.00003192,-0.00004148,-0.00006434,0.00001270,0.00
 000307,0.00000884,-0.00001468,-0.00001241,0.00000217,0.00000146,-0.000
 00469,0.00000051,0.01470573,0.01270078,-0.00615294,-0.01757115,-0.0176
 4391,0.00863775,-0.06093309,-0.05689603,0.07296434\\-0.00002458,-0.000
 00709,0.00001664,-0.00000896,0.00000535,0.00000181,-0.00000082,-0.0000
 0417,-0.00000338,0.00001824,-0.00000032,0.00001309,0.00002644,-0.00001
 938,-0.00002619,0.00001049,0.00000160,-0.00000773,-0.00001036,0.000004
 90,0.00000829,-0.00000044,0.00000040,0.00000114,-0.00000314,0.00000334
 ,0.00000209,-0.00000432,-0.00000168,-0.00000239,0.00000007,-0.00000063
 ,-0.00000543,0.00000147,0.00001221,0.00000438,-0.00000260,0.00000101,-
 0.00000319,-0.00000099,0.00000207,0.00000144,-0.00000094,0.00000034,0.
 00000118,0.00000082,0.00000117,0.00000158,-0.00000180,0.00000096,-0.00
 000077,0.00000215,-0.00000020,-0.00000187,-0.00000073,0.00000012,-0.00
 000067\\\@


 WE ARE PERHAPS NOT FAR REMOVED FROM THE TIME WHEN WE SHALL BE ABLE TO SUBMIT
 THE BULK OF CHEMICAL PHENOMENA TO CALCULATION.

            -- JOSEPH LOUIS GAY-LUSSAC
               MEMOIRES DE LA SOCIETE D'ARCUEIL, 2, 207 (1808)
 Job cpu time:       0 days  1 hours 23 minutes 49.7 seconds.
 Elapsed time:       0 days  0 hours  5 minutes 16.4 seconds.
 File lengths (MBytes):  RWF=    100 Int=      0 D2E=      0 Chk=      6 Scr=      1
 Normal termination of Gaussian 16 at Fri Sep 19 05:59:52 2025.
