 Entering Gaussian System, Link 0=g16
 Input=DICA0030.gjf
 Output=DICA0030.log
 Initial command:
 /usr/local/g16/l1.exe "/dados_01/scratch/Gau-2395683.inp" -scrdir="/dados_01/scratch/"
 Entering Link 1 = /usr/local/g16/l1.exe PID=   2395684.
  
 Copyright (c) 1988-2017, Gaussian, Inc.  All Rights Reserved.
  
 This is part of the Gaussian(R) 16 program.  It is based on
 the Gaussian(R) 09 system (copyright 2009, Gaussian, Inc.),
 the Gaussian(R) 03 system (copyright 2003, Gaussian, Inc.),
 the Gaussian(R) 98 system (copyright 1998, Gaussian, Inc.),
 the Gaussian(R) 94 system (copyright 1995, Gaussian, Inc.),
 the Gaussian 92(TM) system (copyright 1992, Gaussian, Inc.),
 the Gaussian 90(TM) system (copyright 1990, Gaussian, Inc.),
 the Gaussian 88(TM) system (copyright 1988, Gaussian, Inc.),
 the Gaussian 86(TM) system (copyright 1986, Carnegie Mellon
 University), and the Gaussian 82(TM) system (copyright 1983,
 Carnegie Mellon University). Gaussian is a federally registered
 trademark of Gaussian, Inc.
  
 This software contains proprietary and confidential information,
 including trade secrets, belonging to Gaussian, Inc.
  
 This software is provided under written license and may be
 used, copied, transmitted, or stored only in accord with that
 written license.
  
 The following legend is applicable only to US Government
 contracts under FAR:
  
                    RESTRICTED RIGHTS LEGEND
  
 Use, reproduction and disclosure by the US Government is
 subject to restrictions as set forth in subparagraphs (a)
 and (c) of the Commercial Computer Software - Restricted
 Rights clause in FAR 52.227-19.
  
 Gaussian, Inc.
 340 Quinnipiac St., Bldg. 40, Wallingford CT 06492
  
  
 ---------------------------------------------------------------
 Warning -- This program may not be used in any manner that
 competes with the business of Gaussian, Inc. or will provide
 assistance to any competitor of Gaussian, Inc.  The licensee
 of this program is prohibited from giving any competitor of
 Gaussian, Inc. access to this program.  By using this program,
 the user acknowledges that Gaussian, Inc. is engaged in the
 business of creating and licensing software in the field of
 computational chemistry and represents and warrants to the
 licensee that it is not a competitor of Gaussian, Inc. and that
 it will not use this program in any manner prohibited above.
 ---------------------------------------------------------------
  

 Cite this work as:
 Gaussian 16, Revision B.01,
 M. J. Frisch, G. W. Trucks, H. B. Schlegel, G. E. Scuseria, 
 M. A. Robb, J. R. Cheeseman, G. Scalmani, V. Barone, 
 G. A. Petersson, H. Nakatsuji, X. Li, M. Caricato, A. V. Marenich, 
 J. Bloino, B. G. Janesko, R. Gomperts, B. Mennucci, H. P. Hratchian, 
 J. V. Ortiz, A. F. Izmaylov, J. L. Sonnenberg, D. Williams-Young, 
 F. Ding, F. Lipparini, F. Egidi, J. Goings, B. Peng, A. Petrone, 
 T. Henderson, D. Ranasinghe, V. G. Zakrzewski, J. Gao, N. Rega, 
 G. Zheng, W. Liang, M. Hada, M. Ehara, K. Toyota, R. Fukuda, 
 J. Hasegawa, M. Ishida, T. Nakajima, Y. Honda, O. Kitao, H. Nakai, 
 T. Vreven, K. Throssell, J. A. Montgomery, Jr., J. E. Peralta, 
 F. Ogliaro, M. J. Bearpark, J. J. Heyd, E. N. Brothers, K. N. Kudin, 
 V. N. Staroverov, T. A. Keith, R. Kobayashi, J. Normand, 
 K. Raghavachari, A. P. Rendell, J. C. Burant, S. S. Iyengar, 
 J. Tomasi, M. Cossi, J. M. Millam, M. Klene, C. Adamo, R. Cammi, 
 J. W. Ochterski, R. L. Martin, K. Morokuma, O. Farkas, 
 J. B. Foresman, and D. J. Fox, Gaussian, Inc., Wallingford CT, 2016.
 
 ******************************************
 Gaussian 16:  ES64L-G16RevB.01 20-Dec-2017
                 1-Oct-2025 
 ******************************************
 %nprocs=16
 Will use up to   16 processors via shared memory.
 %mem=40GB
 %chk=DICA0030.chk
 ----------------------------------------------------------------------
 # opt freq=noraman M08HX/6-311++G** scf=xqc Empiricaldispersion=pfd In
 t(Grid=ultraFine)
 ----------------------------------------------------------------------
 1/18=20,19=15,26=4,38=1/1,3;
 2/9=110,12=2,17=6,18=5,40=1/2;
 3/5=4,6=6,7=1111,11=2,25=1,30=1,71=1,74=-74,75=-5,124=11/1,2,3;
 4//1;
 5/5=2,8=3,13=1,38=5/2,8;
 6/7=2,8=2,9=2,10=2,28=1/1;
 7//1,2,3,16;
 1/18=20,19=15,26=4/3(2);
 2/9=110/2;
 99//99;
 2/9=110/2;
 3/5=4,6=6,7=1111,11=2,25=1,30=1,71=1,74=-74,75=-5,124=11/1,2,3;
 4/5=5,16=3,69=1/1;
 5/5=2,8=3,13=1,38=5/2,8;
 7//1,2,3,16;
 1/18=20,19=15,26=4/3(-5);
 2/9=110/2;
 6/7=2,8=2,9=2,10=2,19=2,28=1/1;
 99/9=1/99;
 --------
 DICA0030
 --------
 Symbolic Z-matrix:
 Charge =  0 Multiplicity = 1
 O                    -1.1022   -0.4379    0.0006 
 O                     1.1023   -0.4378    0.0006 
 O                     0.        1.5865   -0.0001 
 C                    -2.3611    0.2436   -0.0004 
 C                     2.361     0.2436   -0.0004 
 C                    -3.476    -0.7804   -0.0004 
 C                     3.476    -0.7804   -0.0004 
 C                     0.        0.3629    0.0006 
 H                    -2.4364    0.8728    0.8934 
 H                    -2.4355    0.8718   -0.8951 
 H                     2.4354    0.8718   -0.8951 
 H                     2.4363    0.8729    0.8934 
 H                    -4.4549   -0.2928   -0.0012 
 H                    -3.4035   -1.4292   -0.8795 
 H                    -3.4043   -1.4282    0.8795 
 H                     4.4549   -0.2928   -0.0011 
 H                     3.4043   -1.4282    0.8796 
 H                     3.4035   -1.4292   -0.8794 
 

 GradGradGradGradGradGradGradGradGradGradGradGradGradGradGradGradGradGrad
 Berny optimization.
 Initialization pass.
                           ----------------------------
                           !    Initial Parameters    !
                           ! (Angstroms and Degrees)  !
 --------------------------                            --------------------------
 ! Name  Definition              Value          Derivative Info.                !
 --------------------------------------------------------------------------------
 ! R1    R(1,4)                  1.4315         estimate D2E/DX2                !
 ! R2    R(1,8)                  1.3624         estimate D2E/DX2                !
 ! R3    R(2,5)                  1.4313         estimate D2E/DX2                !
 ! R4    R(2,8)                  1.3624         estimate D2E/DX2                !
 ! R5    R(3,8)                  1.2236         estimate D2E/DX2                !
 ! R6    R(4,6)                  1.5138         estimate D2E/DX2                !
 ! R7    R(4,9)                  1.0956         estimate D2E/DX2                !
 ! R8    R(4,10)                 1.0957         estimate D2E/DX2                !
 ! R9    R(5,7)                  1.5139         estimate D2E/DX2                !
 ! R10   R(5,11)                 1.0957         estimate D2E/DX2                !
 ! R11   R(5,12)                 1.0957         estimate D2E/DX2                !
 ! R12   R(6,13)                 1.0936         estimate D2E/DX2                !
 ! R13   R(6,14)                 1.095          estimate D2E/DX2                !
 ! R14   R(6,15)                 1.095          estimate D2E/DX2                !
 ! R15   R(7,16)                 1.0936         estimate D2E/DX2                !
 ! R16   R(7,17)                 1.0951         estimate D2E/DX2                !
 ! R17   R(7,18)                 1.0949         estimate D2E/DX2                !
 ! A1    A(4,1,8)              115.5711         estimate D2E/DX2                !
 ! A2    A(5,2,8)              115.5767         estimate D2E/DX2                !
 ! A3    A(1,4,6)              109.0048         estimate D2E/DX2                !
 ! A4    A(1,4,9)              109.4668         estimate D2E/DX2                !
 ! A5    A(1,4,10)             109.4639         estimate D2E/DX2                !
 ! A6    A(6,4,9)              109.7458         estimate D2E/DX2                !
 ! A7    A(6,4,10)             109.7432         estimate D2E/DX2                !
 ! A8    A(9,4,10)             109.4021         estimate D2E/DX2                !
 ! A9    A(2,5,7)              109.0071         estimate D2E/DX2                !
 ! A10   A(2,5,11)             109.4641         estimate D2E/DX2                !
 ! A11   A(2,5,12)             109.4685         estimate D2E/DX2                !
 ! A12   A(7,5,11)             109.7419         estimate D2E/DX2                !
 ! A13   A(7,5,12)             109.7472         estimate D2E/DX2                !
 ! A14   A(11,5,12)            109.3978         estimate D2E/DX2                !
 ! A15   A(4,6,13)             110.9552         estimate D2E/DX2                !
 ! A16   A(4,6,14)             110.6121         estimate D2E/DX2                !
 ! A17   A(4,6,15)             110.6073         estimate D2E/DX2                !
 ! A18   A(13,6,14)            108.8357         estimate D2E/DX2                !
 ! A19   A(13,6,15)            108.8427         estimate D2E/DX2                !
 ! A20   A(14,6,15)            106.8737         estimate D2E/DX2                !
 ! A21   A(5,7,16)             110.9577         estimate D2E/DX2                !
 ! A22   A(5,7,17)             110.6044         estimate D2E/DX2                !
 ! A23   A(5,7,18)             110.6124         estimate D2E/DX2                !
 ! A24   A(16,7,17)            108.8368         estimate D2E/DX2                !
 ! A25   A(16,7,18)            108.8416         estimate D2E/DX2                !
 ! A26   A(17,7,18)            106.8737         estimate D2E/DX2                !
 ! A27   A(1,8,2)              108.0055         estimate D2E/DX2                !
 ! A28   A(1,8,3)              126.0002         estimate D2E/DX2                !
 ! A29   A(2,8,3)              125.9943         estimate D2E/DX2                !
 ! D1    D(8,1,4,6)            179.9946         estimate D2E/DX2                !
 ! D2    D(8,1,4,9)            -59.957          estimate D2E/DX2                !
 ! D3    D(8,1,4,10)            59.9512         estimate D2E/DX2                !
 ! D4    D(4,1,8,2)           -179.9556         estimate D2E/DX2                !
 ! D5    D(4,1,8,3)              0.0039         estimate D2E/DX2                !
 ! D6    D(8,2,5,7)           -179.9946         estimate D2E/DX2                !
 ! D7    D(8,2,5,11)           -59.9512         estimate D2E/DX2                !
 ! D8    D(8,2,5,12)            59.9529         estimate D2E/DX2                !
 ! D9    D(5,2,8,1)            179.9556         estimate D2E/DX2                !
 ! D10   D(5,2,8,3)             -0.0039         estimate D2E/DX2                !
 ! D11   D(1,4,6,13)          -179.9975         estimate D2E/DX2                !
 ! D12   D(1,4,6,14)           -59.1064         estimate D2E/DX2                !
 ! D13   D(1,4,6,15)            59.106          estimate D2E/DX2                !
 ! D14   D(9,4,6,13)            60.1266         estimate D2E/DX2                !
 ! D15   D(9,4,6,14)          -178.9824         estimate D2E/DX2                !
 ! D16   D(9,4,6,15)           -60.7699         estimate D2E/DX2                !
 ! D17   D(10,4,6,13)          -60.1265         estimate D2E/DX2                !
 ! D18   D(10,4,6,14)           60.7645         estimate D2E/DX2                !
 ! D19   D(10,4,6,15)          178.9769         estimate D2E/DX2                !
 ! D20   D(2,5,7,16)          -179.9969         estimate D2E/DX2                !
 ! D21   D(2,5,7,17)           -59.1081         estimate D2E/DX2                !
 ! D22   D(2,5,7,18)            59.1027         estimate D2E/DX2                !
 ! D23   D(11,5,7,16)           60.1313         estimate D2E/DX2                !
 ! D24   D(11,5,7,17)         -178.9798         estimate D2E/DX2                !
 ! D25   D(11,5,7,18)          -60.769          estimate D2E/DX2                !
 ! D26   D(12,5,7,16)          -60.1166         estimate D2E/DX2                !
 ! D27   D(12,5,7,17)           60.7722         estimate D2E/DX2                !
 ! D28   D(12,5,7,18)          178.983          estimate D2E/DX2                !
 --------------------------------------------------------------------------------
 Trust Radius=3.00D-01 FncErr=1.00D-07 GrdErr=1.00D-06 EigMax=2.50D+02 EigMin=1.00D-04
 Number of steps in this run=     84 maximum allowed number of steps=    108.
 GradGradGradGradGradGradGradGradGradGradGradGradGradGradGradGradGradGrad

                          Input orientation:                          
 ---------------------------------------------------------------------
 Center     Atomic      Atomic             Coordinates (Angstroms)
 Number     Number       Type             X           Y           Z
 ---------------------------------------------------------------------
      1          8           0       -1.102200   -0.437900    0.000600
      2          8           0        1.102300   -0.437800    0.000600
      3          8           0        0.000000    1.586500   -0.000100
      4          6           0       -2.361100    0.243600   -0.000400
      5          6           0        2.361000    0.243600   -0.000400
      6          6           0       -3.476000   -0.780400   -0.000400
      7          6           0        3.476000   -0.780400   -0.000400
      8          6           0        0.000000    0.362900    0.000600
      9          1           0       -2.436400    0.872800    0.893400
     10          1           0       -2.435500    0.871800   -0.895100
     11          1           0        2.435400    0.871800   -0.895100
     12          1           0        2.436300    0.872900    0.893400
     13          1           0       -4.454900   -0.292800   -0.001200
     14          1           0       -3.403500   -1.429200   -0.879500
     15          1           0       -3.404300   -1.428200    0.879500
     16          1           0        4.454900   -0.292800   -0.001100
     17          1           0        3.404300   -1.428200    0.879600
     18          1           0        3.403500   -1.429200   -0.879400
 ---------------------------------------------------------------------
                    Distance matrix (angstroms):
                    1          2          3          4          5
     1  O    0.000000
     2  O    2.204500   0.000000
     3  O    2.305003   2.304963   0.000000
     4  C    1.431528   3.529794   2.716279   0.000000
     5  C    3.529617   1.431305   2.716192   4.722100   0.000000
     6  C    2.398381   4.591101   4.205329   1.513796   5.926141
     7  C    4.590994   2.398297   4.205329   5.926239   1.513870
     8  C    1.362397   1.362419   1.223600   2.364112   2.364012
     9  H    2.072466   3.877778   2.691422   1.095646   4.920347
    10  H    2.072506   3.877288   2.691372   1.095746   4.919506
    11  H    3.877139   2.072314   2.691281   4.919506   1.095746
    12  H    3.877663   2.072337   2.691305   4.920360   1.095704
    13  H    3.355839   5.559092   4.835070   2.161417   6.836974
    14  H    2.655792   4.696774   4.631588   2.158165   6.066345
    15  H    2.655715   4.697106   4.631562   2.158102   6.066945
    16  H    5.558994   3.355735   4.835070   6.837074   2.161514
    17  H    4.697007   2.655699   4.631581   6.067055   2.158191
    18  H    4.696638   2.655710   4.631569   6.066425   2.158172
                    6          7          8          9         10
     6  C    0.000000
     7  C    6.952000   0.000000
     8  C    3.659196   3.659196   0.000000
     9  H    2.147724   6.203904   2.644454   0.000000
    10  H    2.147765   6.202909   2.644413   1.788501   0.000000
    11  H    6.202814   2.147813   2.644320   5.189718   4.870900
    12  H    6.203835   2.147849   2.644381   4.872700   5.189718
    13  H    1.093618   7.945875   4.502897   2.496653   2.496663
    14  H    1.094995   6.965722   3.945885   3.062297   2.496371
    15  H    1.094993   6.966520   3.945854   2.496322   3.062316
    16  H    7.945875   1.093618   4.502897   7.046188   7.045079
    17  H    6.966532   1.095073   3.945876   6.277624   6.522486
    18  H    6.965709   1.094915   3.945863   6.522764   6.276047
                   11         12         13         14         15
    11  H    0.000000
    12  H    1.788501   0.000000
    13  H    7.044969   7.046120   0.000000
    14  H    6.275954   6.522737   1.779960   0.000000
    15  H    6.522369   6.277568   1.780035   1.759000   0.000000
    16  H    2.496780   2.496744   8.909800   7.988582   7.989469
    17  H    3.062405   2.496453   7.989491   7.031399   6.808600
    18  H    2.496410   3.062346   7.988560   6.807000   7.031349
                   16         17         18
    16  H    0.000000
    17  H    1.780035   0.000000
    18  H    1.779960   1.759000   0.000000
 Stoichiometry    C5H10O3
 Framework group  C1[X(C5H10O3)]
 Deg. of freedom    48
 Full point group                 C1      NOp   1
 Largest Abelian subgroup         C1      NOp   1
 Largest concise Abelian subgroup C1      NOp   1
                         Standard orientation:                         
 ---------------------------------------------------------------------
 Center     Atomic      Atomic             Coordinates (Angstroms)
 Number     Number       Type             X           Y           Z
 ---------------------------------------------------------------------
      1          8           0        1.102201   -0.416197   -0.000642
      2          8           0       -1.102299   -0.416100   -0.000642
      3          8           0       -0.000002    1.608202    0.000058
      4          6           0        2.361100    0.265305    0.000358
      5          6           0       -2.361000    0.265298    0.000358
      6          6           0        3.476001   -0.758693    0.000358
      7          6           0       -3.475999   -0.758704    0.000358
      8          6           0       -0.000001    0.384602   -0.000642
      9          1           0        2.436399    0.894505   -0.893442
     10          1           0        2.435499    0.893505    0.895058
     11          1           0       -2.435401    0.893498    0.895058
     12          1           0       -2.436301    0.894598   -0.893442
     13          1           0        4.454900   -0.271092    0.001158
     14          1           0        3.403502   -1.407493    0.879458
     15          1           0        3.404302   -1.406493   -0.879542
     16          1           0       -4.454900   -0.271105    0.001058
     17          1           0       -3.404298   -1.406504   -0.879642
     18          1           0       -3.403498   -1.407504    0.879358
 ---------------------------------------------------------------------
 Rotational constants (GHZ):           6.1764133           0.8719275           0.7790029
 Standard basis: 6-311++G(d,p) (5D, 7F)
 There are   254 symmetry adapted cartesian basis functions of A   symmetry.
 There are   246 symmetry adapted basis functions of A   symmetry.
   246 basis functions,   378 primitive gaussians,   254 cartesian basis functions
    32 alpha electrons       32 beta electrons
       nuclear repulsion energy       389.0938026442 Hartrees.
 NAtoms=   18 NActive=   18 NUniq=   18 SFac= 1.00D+00 NAtFMM=   60 NAOKFM=F Big=F
 Integral buffers will be    131072 words long.
 Raffenetti 2 integral format.
 Two-electron integral symmetry is turned on.
 R6APFD:  NTU= -4 IXU= 1 FactS= 1.050
 Nuclear repulsion after empirical dispersion term =      389.0837391475 Hartrees.
 One-electron integrals computed using PRISM.
 NBasis=   246 RedAO= T EigKep=  4.64D-05  NBF=   246
 NBsUse=   246 1.00D-06 EigRej= -1.00D+00 NBFU=   246
 ExpMin= 3.60D-02 ExpMax= 8.59D+03 ExpMxC= 1.30D+03 IAcc=3 IRadAn=         5 AccDes= 0.00D+00
 Harris functional with IExCor= 1009 and IRadAn=       5 diagonalized for initial guess.
 HarFok:  IExCor= 1009 AccDes= 0.00D+00 IRadAn=         5 IDoV= 1 UseB2=F ITyADJ=14
 ICtDFT=  3500011 ScaDFX=  1.000000  1.000000  1.000000  1.000000
 FoFCou: FMM=F IPFlag=           0 FMFlag=      100000 FMFlg1=           0
         NFxFlg=           0 DoJE=T BraDBF=F KetDBF=T FulRan=T
         wScrn=  0.000000 ICntrl=       500 IOpCl=  0 I1Cent=   200000004 NGrid=           0
         NMat0=    1 NMatS0=      1 NMatT0=    0 NMatD0=    1 NMtDS0=    0 NMtDT0=    0
 Petite list used in FoFCou.
 Requested convergence on RMS density matrix=1.00D-08 within  32 cycles.
 Requested convergence on MAX density matrix=1.00D-06.
 Requested convergence on             energy=1.00D-06.
 No special actions if energy rises.
 SCF Done:  E(RM08HX) =  -422.227007253     A.U. after   13 cycles
            NFock= 13  Conv=0.30D-08     -V/T= 2.0047
 QCSCF skips out because SCF is already converged.

 **********************************************************************

            Population analysis using the SCF Density.

 **********************************************************************

 Orbital symmetries:
       Occupied  (A) (A) (A) (A) (A) (A) (A) (A) (A) (A) (A) (A)
                 (A) (A) (A) (A) (A) (A) (A) (A) (A) (A) (A) (A)
                 (A) (A) (A) (A) (A) (A) (A) (A)
       Virtual   (A) (A) (A) (A) (A) (A) (A) (A) (A) (A) (A) (A)
                 (A) (A) (A) (A) (A) (A) (A) (A) (A) (A) (A) (A)
                 (A) (A) (A) (A) (A) (A) (A) (A) (A) (A) (A) (A)
                 (A) (A) (A) (A) (A) (A) (A) (A) (A) (A) (A) (A)
                 (A) (A) (A) (A) (A) (A) (A) (A) (A) (A) (A) (A)
                 (A) (A) (A) (A) (A) (A) (A) (A) (A) (A) (A) (A)
                 (A) (A) (A) (A) (A) (A) (A) (A) (A) (A) (A) (A)
                 (A) (A) (A) (A) (A) (A) (A) (A) (A) (A) (A) (A)
                 (A) (A) (A) (A) (A) (A) (A) (A) (A) (A) (A) (A)
                 (A) (A) (A) (A) (A) (A) (A) (A) (A) (A) (A) (A)
                 (A) (A) (A) (A) (A) (A) (A) (A) (A) (A) (A) (A)
                 (A) (A) (A) (A) (A) (A) (A) (A) (A) (A) (A) (A)
                 (A) (A) (A) (A) (A) (A) (A) (A) (A) (A) (A) (A)
                 (A) (A) (A) (A) (A) (A) (A) (A) (A) (A) (A) (A)
                 (A) (A) (A) (A) (A) (A) (A) (A) (A) (A) (A) (A)
                 (A) (A) (A) (A) (A) (A) (A) (A) (A) (A) (A) (A)
                 (A) (A) (A) (A) (A) (A) (A) (A) (A) (A) (A) (A)
                 (A) (A) (A) (A) (A) (A) (A) (A) (A) (A)
 The electronic state is 1-A.
 Alpha  occ. eigenvalues --  -19.66422 -19.66420 -19.60936 -10.72124 -10.59330
 Alpha  occ. eigenvalues --  -10.59328 -10.52848 -10.52846  -1.26733  -1.17825
 Alpha  occ. eigenvalues --   -1.14056  -0.90028  -0.86754  -0.76534  -0.71239
 Alpha  occ. eigenvalues --   -0.66594  -0.63897  -0.60142  -0.57904  -0.56368
 Alpha  occ. eigenvalues --   -0.51118  -0.51019  -0.50310  -0.47243  -0.46440
 Alpha  occ. eigenvalues --   -0.45160  -0.43191  -0.42790  -0.42580  -0.38441
 Alpha  occ. eigenvalues --   -0.37892  -0.37543
 Alpha virt. eigenvalues --   -0.02800  -0.01944  -0.00535  -0.00339   0.00427
 Alpha virt. eigenvalues --    0.00715   0.00976   0.02643   0.03165   0.04582
 Alpha virt. eigenvalues --    0.04604   0.04817   0.05653   0.05793   0.06080
 Alpha virt. eigenvalues --    0.06529   0.07663   0.09223   0.10873   0.11066
 Alpha virt. eigenvalues --    0.11179   0.11416   0.12019   0.12708   0.12849
 Alpha virt. eigenvalues --    0.13286   0.14336   0.14900   0.14932   0.17325
 Alpha virt. eigenvalues --    0.17789   0.18150   0.18421   0.19889   0.21467
 Alpha virt. eigenvalues --    0.22177   0.22383   0.23272   0.23747   0.24578
 Alpha virt. eigenvalues --    0.25036   0.25974   0.26796   0.27002   0.28847
 Alpha virt. eigenvalues --    0.29929   0.29995   0.30150   0.31080   0.32574
 Alpha virt. eigenvalues --    0.33013   0.33981   0.34810   0.38078   0.39882
 Alpha virt. eigenvalues --    0.40323   0.41683   0.41898   0.44435   0.45175
 Alpha virt. eigenvalues --    0.47168   0.48397   0.50224   0.51732   0.53259
 Alpha virt. eigenvalues --    0.54124   0.58145   0.62418   0.62982   0.64111
 Alpha virt. eigenvalues --    0.65518   0.66637   0.67262   0.67526   0.68621
 Alpha virt. eigenvalues --    0.68830   0.69120   0.69528   0.70246   0.71488
 Alpha virt. eigenvalues --    0.73882   0.76865   0.76999   0.78546   0.82185
 Alpha virt. eigenvalues --    0.88795   0.93568   0.94683   1.00238   1.02170
 Alpha virt. eigenvalues --    1.02367   1.03583   1.08610   1.13030   1.13340
 Alpha virt. eigenvalues --    1.15796   1.19826   1.20010   1.21696   1.28057
 Alpha virt. eigenvalues --    1.28069   1.28327   1.29257   1.31413   1.33696
 Alpha virt. eigenvalues --    1.37347   1.44136   1.46338   1.48504   1.48693
 Alpha virt. eigenvalues --    1.54098   1.54452   1.56555   1.57421   1.57997
 Alpha virt. eigenvalues --    1.58066   1.60278   1.62755   1.63402   1.64875
 Alpha virt. eigenvalues --    1.66964   1.68639   1.68960   1.69360   1.71945
 Alpha virt. eigenvalues --    1.75554   1.76113   1.76586   1.80748   1.84572
 Alpha virt. eigenvalues --    1.88524   1.89191   1.91199   1.92717   2.00923
 Alpha virt. eigenvalues --    2.01610   2.02142   2.06920   2.12280   2.13256
 Alpha virt. eigenvalues --    2.13749   2.21440   2.21898   2.28601   2.28955
 Alpha virt. eigenvalues --    2.37470   2.37867   2.44178   2.45024   2.49944
 Alpha virt. eigenvalues --    2.49995   2.51443   2.53522   2.54628   2.54727
 Alpha virt. eigenvalues --    2.59366   2.59495   2.60625   2.63544   2.64152
 Alpha virt. eigenvalues --    2.64155   2.64608   2.66237   2.68546   2.76203
 Alpha virt. eigenvalues --    2.80038   2.84876   2.90003   2.90352   2.93946
 Alpha virt. eigenvalues --    2.98687   2.99908   3.08178   3.09492   3.13284
 Alpha virt. eigenvalues --    3.15153   3.18433   3.21507   3.30562   3.31764
 Alpha virt. eigenvalues --    3.34398   3.45155   3.46807   3.67176   3.67845
 Alpha virt. eigenvalues --    3.80654   3.80815   3.84219   3.84557   3.84804
 Alpha virt. eigenvalues --    3.85097   4.05304   4.09905   4.16791   4.19147
 Alpha virt. eigenvalues --    4.30328   4.33602   5.11426   5.15043   5.15240
 Alpha virt. eigenvalues --    5.33708   5.34502   5.54004   5.68763   5.93701
 Alpha virt. eigenvalues --    5.98251  23.80497  23.90541  23.91154  24.01993
 Alpha virt. eigenvalues --   24.03949  49.90409  49.93281  49.99782
          Condensed to atoms (all electrons):
               1          2          3          4          5          6
     1  O    8.259721  -0.173360  -0.137130   0.159042  -0.121614  -0.115630
     2  O   -0.173360   8.259881  -0.137153  -0.121610   0.158957   0.021366
     3  O   -0.137130  -0.137153   7.980741  -0.071032  -0.071007   0.043714
     4  C    0.159042  -0.121610  -0.071032   6.374221  -0.131964  -0.294049
     5  C   -0.121614   0.158957  -0.071007  -0.131964   6.374078   0.019166
     6  C   -0.115630   0.021366   0.043714  -0.294049   0.019166   5.925473
     7  C    0.021368  -0.115656   0.043704   0.019169  -0.293733  -0.005096
     8  C    0.257909   0.257835   0.596377  -0.499806  -0.499908   0.110984
     9  H   -0.040478  -0.006976  -0.006247   0.453405  -0.008213  -0.070139
    10  H   -0.040540  -0.006946  -0.006235   0.453070  -0.008108  -0.070245
    11  H   -0.006947  -0.040560  -0.006235  -0.008109   0.453092   0.001748
    12  H   -0.006975  -0.040496  -0.006245  -0.008212   0.453433   0.001734
    13  H    0.022859  -0.000392   0.000729  -0.058313   0.000127   0.405844
    14  H   -0.013735   0.000680  -0.000909  -0.022570  -0.000269   0.393669
    15  H   -0.013718   0.000676  -0.000911  -0.022501  -0.000263   0.393583
    16  H   -0.000391   0.022865   0.000729   0.000127  -0.058345  -0.000061
    17  H    0.000676  -0.013718  -0.000911  -0.000263  -0.022519  -0.000185
    18  H    0.000680  -0.013733  -0.000909  -0.000269  -0.022545  -0.000188
               7          8          9         10         11         12
     1  O    0.021368   0.257909  -0.040478  -0.040540  -0.006947  -0.006975
     2  O   -0.115656   0.257835  -0.006976  -0.006946  -0.040560  -0.040496
     3  O    0.043704   0.596377  -0.006247  -0.006235  -0.006235  -0.006245
     4  C    0.019169  -0.499806   0.453405   0.453070  -0.008109  -0.008212
     5  C   -0.293733  -0.499908  -0.008213  -0.008108   0.453092   0.453433
     6  C   -0.005096   0.110984  -0.070139  -0.070245   0.001748   0.001734
     7  C    5.925221   0.110957   0.001732   0.001747  -0.070240  -0.070150
     8  C    0.110957   5.723462  -0.023833  -0.023495  -0.023504  -0.023830
     9  H    0.001732  -0.023833   0.531331  -0.063128  -0.000520  -0.000400
    10  H    0.001747  -0.023495  -0.063128   0.531366  -0.000401  -0.000520
    11  H   -0.070240  -0.023504  -0.000520  -0.000401   0.531405  -0.063142
    12  H   -0.070150  -0.023830  -0.000400  -0.000520  -0.063142   0.531373
    13  H   -0.000060   0.007807  -0.004441  -0.004472  -0.000000  -0.000002
    14  H   -0.000188  -0.006692   0.010843  -0.017044   0.000084  -0.000086
    15  H   -0.000186  -0.006696  -0.017049   0.010853  -0.000087   0.000084
    16  H    0.405885   0.007806  -0.000001  -0.000000  -0.004472  -0.004440
    17  H    0.393612  -0.006700   0.000084  -0.000087   0.010853  -0.017047
    18  H    0.393630  -0.006686  -0.000086   0.000084  -0.017045   0.010845
              13         14         15         16         17         18
     1  O    0.022859  -0.013735  -0.013718  -0.000391   0.000676   0.000680
     2  O   -0.000392   0.000680   0.000676   0.022865  -0.013718  -0.013733
     3  O    0.000729  -0.000909  -0.000911   0.000729  -0.000911  -0.000909
     4  C   -0.058313  -0.022570  -0.022501   0.000127  -0.000263  -0.000269
     5  C    0.000127  -0.000269  -0.000263  -0.058345  -0.022519  -0.022545
     6  C    0.405844   0.393669   0.393583  -0.000061  -0.000185  -0.000188
     7  C   -0.000060  -0.000188  -0.000186   0.405885   0.393612   0.393630
     8  C    0.007807  -0.006692  -0.006696   0.007806  -0.006700  -0.006686
     9  H   -0.004441   0.010843  -0.017049  -0.000001   0.000084  -0.000086
    10  H   -0.004472  -0.017044   0.010853  -0.000000  -0.000087   0.000084
    11  H   -0.000000   0.000084  -0.000087  -0.004472   0.010853  -0.017045
    12  H   -0.000002  -0.000086   0.000084  -0.004440  -0.017047   0.010845
    13  H    0.496478  -0.033388  -0.033389  -0.000006   0.000009   0.000009
    14  H   -0.033388   0.524920  -0.051079   0.000009   0.000026  -0.000029
    15  H   -0.033389  -0.051079   0.524931   0.000009  -0.000030   0.000026
    16  H   -0.000006   0.000009   0.000009   0.496481  -0.033403  -0.033380
    17  H    0.000009   0.000026  -0.000030  -0.033403   0.524962  -0.051083
    18  H    0.000009  -0.000029   0.000026  -0.033380  -0.051083   0.524923
 Mulliken charges:
               1
     1  O   -0.051737
     2  O   -0.051660
     3  O   -0.221069
     4  C   -0.220335
     5  C   -0.220364
     6  C   -0.761688
     7  C   -0.761716
     8  C    0.048014
     9  H    0.244118
    10  H    0.244102
    11  H    0.244081
    12  H    0.244077
    13  H    0.200602
    14  H    0.215758
    15  H    0.215747
    16  H    0.200589
    17  H    0.215726
    18  H    0.215756
 Sum of Mulliken charges =  -0.00000
 Mulliken charges with hydrogens summed into heavy atoms:
               1
     1  O   -0.051737
     2  O   -0.051660
     3  O   -0.221069
     4  C    0.267885
     5  C    0.267794
     6  C   -0.129581
     7  C   -0.129645
     8  C    0.048014
 Electronic spatial extent (au):  <R**2>=           1499.3421
 Charge=             -0.0000 electrons
 Dipole moment (field-independent basis, Debye):
    X=              0.0012    Y=             -0.5852    Z=              0.0014  Tot=              0.5852
 Quadrupole moment (field-independent basis, Debye-Ang):
   XX=            -35.9195   YY=            -55.9823   ZZ=            -47.8922
   XY=              0.0005   XZ=             -0.0000   YZ=             -0.0030
 Traceless Quadrupole moment (field-independent basis, Debye-Ang):
   XX=             10.6785   YY=             -9.3843   ZZ=             -1.2942
   XY=              0.0005   XZ=             -0.0000   YZ=             -0.0030
 Octapole moment (field-independent basis, Debye-Ang**2):
  XXX=              0.0149  YYY=             -8.0761  ZZZ=             -0.0033  XYY=              0.0015
  XXY=              4.2066  XXZ=              0.0092  XZZ=              0.0016  YZZ=              1.0157
  YYZ=             -0.0004  XYZ=              0.0005
 Hexadecapole moment (field-independent basis, Debye-Ang**3):
 XXXX=          -1574.2712 YYYY=           -268.0561 ZZZZ=            -74.8983 XXXY=              0.0027
 XXXZ=              0.0001 YYYX=             -0.0008 YYYZ=             -0.0099 ZZZX=             -0.0040
 ZZZY=              0.0030 XXYY=           -323.6373 XXZZ=           -295.1985 YYZZ=            -50.4335
 XXYZ=             -0.0013 YYXZ=             -0.0019 ZZXY=              0.0007
 N-N= 3.890837391475D+02 E-N=-1.765840751792D+03  KE= 4.202524105995D+02
 R6APFD:  NTU= -4 IXU= 1 FactS= 1.050
 Calling FoFJK, ICntrl=      2127 FMM=F ISym2X=0 I1Cent= 0 IOpClX= 0 NMat=1 NMatS=1 NMatT=0.
 ***** Axes restored to original set *****
 -------------------------------------------------------------------
 Center     Atomic                   Forces (Hartrees/Bohr)
 Number     Number              X              Y              Z
 -------------------------------------------------------------------
      1        8           0.022370052    0.012598111    0.000028842
      2        8          -0.022474318    0.012522311    0.000030938
      3        8          -0.000007834   -0.043089782    0.000060168
      4        6          -0.005286300    0.003609085   -0.000054890
      5        6           0.005395647    0.003665632   -0.000032679
      6        6           0.005023438   -0.009307982    0.000007027
      7        6          -0.005050193   -0.009282041    0.000103398
      8        6           0.000014554    0.009668819   -0.000132313
      9        1           0.003338125    0.003688932   -0.000621757
     10        1           0.003343762    0.003657348    0.000671285
     11        1          -0.003333255    0.003660256    0.000667918
     12        1          -0.003328816    0.003666761   -0.000647188
     13        1           0.000074981    0.001564889    0.000005825
     14        1          -0.001004256    0.000452576   -0.001625467
     15        1          -0.001018107    0.000452532    0.001625146
     16        1          -0.000077703    0.001567267   -0.000002827
     17        1           0.001016514    0.000479723    0.001583741
     18        1           0.001003708    0.000425561   -0.001667170
 -------------------------------------------------------------------
 Cartesian Forces:  Max     0.043089782 RMS     0.008276229

 GradGradGradGradGradGradGradGradGradGradGradGradGradGradGradGradGradGrad
 Berny optimization.
 FormGI is forming the generalized inverse of G from B-inverse, IUseBI=4.
 Internal  Forces:  Max     0.043089809 RMS     0.007713269
 Search for a local minimum.
 Step number   1 out of a maximum of   84
 All quantities printed in internal units (Hartrees-Bohrs-Radians)
 Mixed Optimization -- RFO/linear search
 Second derivative matrix not updated -- first step.
 ITU=  0
     Eigenvalues ---    0.00582   0.00583   0.01275   0.01278   0.02189
     Eigenvalues ---    0.02189   0.02189   0.05368   0.05369   0.05649
     Eigenvalues ---    0.05650   0.05784   0.05785   0.05999   0.05999
     Eigenvalues ---    0.11215   0.11216   0.13681   0.13681   0.16000
     Eigenvalues ---    0.16000   0.16000   0.16000   0.16000   0.16000
     Eigenvalues ---    0.22057   0.22058   0.25000   0.25000   0.25000
     Eigenvalues ---    0.25000   0.30965   0.30972   0.34157   0.34157
     Eigenvalues ---    0.34162   0.34168   0.34233   0.34242   0.34242
     Eigenvalues ---    0.34251   0.34398   0.34398   0.40771   0.40802
     Eigenvalues ---    0.52462   0.52466   0.93806
 RFO step:  Lambda=-8.69551602D-03 EMin= 5.82480032D-03
 Linear search not attempted -- first point.
 Iteration  1 RMS(Cart)=  0.06197382 RMS(Int)=  0.00081622
 Iteration  2 RMS(Cart)=  0.00137454 RMS(Int)=  0.00029171
 Iteration  3 RMS(Cart)=  0.00000046 RMS(Int)=  0.00029171
 Variable       Old X    -DE/DX   Delta X   Delta X   Delta X     New X
                                 (Linear)    (Quad)   (Total)
    R1        2.70520  -0.00197   0.00000  -0.00474  -0.00474   2.70046
    R2        2.57456  -0.03154   0.00000  -0.05914  -0.05914   2.51542
    R3        2.70477  -0.00186   0.00000  -0.00445  -0.00445   2.70032
    R4        2.57460  -0.03154   0.00000  -0.05914  -0.05914   2.51546
    R5        2.31227  -0.04309   0.00000  -0.04551  -0.04551   2.26676
    R6        2.86066   0.00236   0.00000   0.00741   0.00741   2.86807
    R7        2.07047   0.00138   0.00000   0.00394   0.00394   2.07442
    R8        2.07066   0.00132   0.00000   0.00377   0.00377   2.07443
    R9        2.86080   0.00232   0.00000   0.00728   0.00728   2.86808
   R10        2.07066   0.00133   0.00000   0.00379   0.00379   2.07445
   R11        2.07058   0.00135   0.00000   0.00385   0.00385   2.07443
   R12        2.06664   0.00063   0.00000   0.00179   0.00179   2.06843
   R13        2.06924   0.00097   0.00000   0.00276   0.00276   2.07200
   R14        2.06924   0.00097   0.00000   0.00277   0.00277   2.07200
   R15        2.06664   0.00063   0.00000   0.00178   0.00178   2.06842
   R16        2.06939   0.00092   0.00000   0.00263   0.00263   2.07202
   R17        2.06909   0.00102   0.00000   0.00290   0.00290   2.07199
    A1        2.01710  -0.00949   0.00000  -0.03669  -0.03669   1.98041
    A2        2.01719  -0.00950   0.00000  -0.03671  -0.03671   1.98049
    A3        1.90249  -0.00745   0.00000  -0.03191  -0.03153   1.87096
    A4        1.91056   0.00009   0.00000  -0.01135  -0.01097   1.89959
    A5        1.91051   0.00008   0.00000  -0.01134  -0.01096   1.89955
    A6        1.91543   0.00565   0.00000   0.03874   0.03827   1.95370
    A7        1.91538   0.00565   0.00000   0.03879   0.03832   1.95370
    A8        1.90943  -0.00403   0.00000  -0.02308  -0.02422   1.88521
    A9        1.90253  -0.00746   0.00000  -0.03195  -0.03157   1.87096
   A10        1.91051   0.00009   0.00000  -0.01125  -0.01087   1.89964
   A11        1.91059   0.00010   0.00000  -0.01128  -0.01090   1.89968
   A12        1.91536   0.00565   0.00000   0.03875   0.03828   1.95364
   A13        1.91545   0.00564   0.00000   0.03864   0.03818   1.95363
   A14        1.90935  -0.00402   0.00000  -0.02307  -0.02419   1.88516
   A15        1.93653  -0.00269   0.00000  -0.02165  -0.02167   1.91486
   A16        1.93055   0.00074   0.00000   0.00724   0.00713   1.93768
   A17        1.93046   0.00076   0.00000   0.00732   0.00722   1.93768
   A18        1.89954   0.00027   0.00000  -0.00381  -0.00383   1.89571
   A19        1.89966   0.00026   0.00000  -0.00390  -0.00392   1.89574
   A20        1.86530   0.00079   0.00000   0.01589   0.01573   1.88102
   A21        1.93658  -0.00269   0.00000  -0.02167  -0.02170   1.91488
   A22        1.93041   0.00076   0.00000   0.00733   0.00723   1.93764
   A23        1.93055   0.00074   0.00000   0.00722   0.00712   1.93767
   A24        1.89956   0.00026   0.00000  -0.00383  -0.00386   1.89570
   A25        1.89964   0.00026   0.00000  -0.00385  -0.00388   1.89577
   A26        1.86530   0.00079   0.00000   0.01590   0.01573   1.88103
   A27        1.88505   0.00245   0.00000   0.00948   0.00948   1.89453
   A28        2.19912  -0.00124   0.00000  -0.00477  -0.00478   2.19434
   A29        2.19902  -0.00122   0.00000  -0.00470  -0.00471   2.19431
    D1        3.14150   0.00000   0.00000   0.00005   0.00005   3.14155
    D2       -1.04645   0.00241   0.00000   0.02107   0.02109  -1.02536
    D3        1.04635  -0.00241   0.00000  -0.02105  -0.02107   1.02528
    D4       -3.14082  -0.00005   0.00000  -0.00174  -0.00174   3.14063
    D5        0.00007   0.00003   0.00000   0.00110   0.00110   0.00116
    D6       -3.14150  -0.00000   0.00000  -0.00007  -0.00007  -3.14157
    D7       -1.04635   0.00241   0.00000   0.02100   0.02102  -1.02533
    D8        1.04637  -0.00240   0.00000  -0.02100  -0.02102   1.02536
    D9        3.14082   0.00005   0.00000   0.00173   0.00173  -3.14063
   D10       -0.00007  -0.00003   0.00000  -0.00110  -0.00110  -0.00117
   D11       -3.14155  -0.00000   0.00000  -0.00003  -0.00003  -3.14158
   D12       -1.03160  -0.00096   0.00000  -0.01443  -0.01447  -1.04607
   D13        1.03159   0.00096   0.00000   0.01442   0.01446   1.04605
   D14        1.04941   0.00105   0.00000   0.00998   0.01038   1.05979
   D15       -3.12383   0.00009   0.00000  -0.00441  -0.00405  -3.12788
   D16       -1.06064   0.00201   0.00000   0.02444   0.02487  -1.03576
   D17       -1.04941  -0.00105   0.00000  -0.01001  -0.01041  -1.05981
   D18        1.06054  -0.00201   0.00000  -0.02440  -0.02484   1.03570
   D19        3.12374  -0.00009   0.00000   0.00445   0.00409   3.12782
   D20       -3.14154  -0.00000   0.00000   0.00000   0.00000  -3.14154
   D21       -1.03163  -0.00096   0.00000  -0.01437  -0.01441  -1.04604
   D22        1.03154   0.00096   0.00000   0.01448   0.01452   1.04606
   D23        1.04949   0.00104   0.00000   0.00991   0.01031   1.05980
   D24       -3.12379   0.00009   0.00000  -0.00447  -0.00411  -3.12789
   D25       -1.06062   0.00201   0.00000   0.02439   0.02482  -1.03580
   D26       -1.04923  -0.00105   0.00000  -0.01001  -0.01041  -1.05964
   D27        1.06068  -0.00201   0.00000  -0.02439  -0.02482   1.03585
   D28        3.12384  -0.00009   0.00000   0.00447   0.00411   3.12795
         Item               Value     Threshold  Converged?
 Maximum Force            0.043090     0.000450     NO 
 RMS     Force            0.007713     0.000300     NO 
 Maximum Displacement     0.189731     0.001800     NO 
 RMS     Displacement     0.062866     0.001200     NO 
 Predicted change in Energy=-4.484172D-03
 GradGradGradGradGradGradGradGradGradGradGradGradGradGradGradGradGradGrad

                          Input orientation:                          
 ---------------------------------------------------------------------
 Center     Atomic      Atomic             Coordinates (Angstroms)
 Number     Number       Type             X           Y           Z
 ---------------------------------------------------------------------
      1          8           0       -1.080617   -0.484704   -0.001099
      2          8           0        1.080636   -0.484632   -0.001096
      3          8           0       -0.000056    1.492091   -0.000867
      4          6           0       -2.308052    0.247080   -0.000522
      5          6           0        2.308009    0.247113   -0.000519
      6          6           0       -3.435957   -0.768448    0.000196
      7          6           0        3.435916   -0.768418    0.000238
      8          6           0       -0.000029    0.292576   -0.001821
      9          1           0       -2.335999    0.891684    0.887579
     10          1           0       -2.336918    0.891465   -0.888763
     11          1           0        2.336992    0.891502   -0.888764
     12          1           0        2.336051    0.891762    0.887557
     13          1           0       -4.399806   -0.249732    0.000644
     14          1           0       -3.385639   -1.412766   -0.885547
     15          1           0       -3.384677   -1.412578    0.886020
     16          1           0        4.399772   -0.249721    0.000756
     17          1           0        3.384581   -1.412517    0.886090
     18          1           0        3.385593   -1.412757   -0.885483
 ---------------------------------------------------------------------
                    Distance matrix (angstroms):
                    1          2          3          4          5
     1  O    0.000000
     2  O    2.161254   0.000000
     3  O    2.252850   2.252849   0.000000
     4  C    1.429022   3.466786   2.622384   0.000000
     5  C    3.466749   1.428949   2.622429   4.616060   0.000000
     6  C    2.372370   4.525502   4.112840   1.517718   5.833054
     7  C    4.525436   2.372315   4.112883   5.833043   1.517721
     8  C    1.331104   1.331123   1.199516   2.308471   2.308486
     9  H    2.064019   3.789113   2.570302   1.097733   4.771896
    10  H    2.063996   3.789627   2.570998   1.097742   4.772789
    11  H    3.789716   2.064008   2.571159   4.772911   1.097750
    12  H    3.789194   2.064032   2.570426   4.772001   1.097742
    13  H    3.327496   5.485474   4.731992   2.149944   6.726190
    14  H    2.637550   4.646644   4.547859   2.167845   5.996340
    15  H    2.637541   4.646190   4.547453   2.167843   5.995599
    16  H    5.485425   3.327438   4.732060   6.726195   2.149958
    17  H    4.646067   2.637467   4.547440   5.995533   2.167823
    18  H    4.646553   2.637495   4.547890   5.996316   2.167837
                    6          7          8          9         10
     6  C    0.000000
     7  C    6.871873   0.000000
     8  C    3.596023   3.596029   0.000000
     9  H    2.180228   6.071104   2.570353   0.000000
    10  H    2.180240   6.072161   2.570289   1.776342   0.000000
    11  H    6.072283   2.180205   2.570418   4.999223   4.673910
    12  H    6.071226   2.180191   2.570464   4.672050   4.999195
    13  H    1.094564   7.852870   4.433074   2.519679   2.519699
    14  H    1.096458   6.908937   3.892495   3.091312   2.531661
    15  H    1.096457   6.907969   3.892513   2.531670   3.091322
    16  H    7.852880   1.094562   4.433096   6.889112   6.890322
    17  H    6.907922   1.096464   3.892469   6.167202   6.418255
    18  H    6.908915   1.096451   3.892487   6.418006   6.169001
                   11         12         13         14         15
    11  H    0.000000
    12  H    1.776321   0.000000
    13  H    6.890421   6.889223   0.000000
    14  H    6.169130   6.418137   1.779471   0.000000
    15  H    6.418422   6.167391   1.779491   1.771568   0.000000
    16  H    2.519662   2.519592   8.799578   7.921542   7.920453
    17  H    3.091287   2.531623   7.920402   6.998184   6.769259
    18  H    2.531637   3.091280   7.921508   6.771232   6.998198
                   16         17         18
    16  H    0.000000
    17  H    1.779473   0.000000
    18  H    1.779503   1.771573   0.000000
 Stoichiometry    C5H10O3
 Framework group  C1[X(C5H10O3)]
 Deg. of freedom    48
 Full point group                 C1      NOp   1
 Largest Abelian subgroup         C1      NOp   1
 Largest concise Abelian subgroup C1      NOp   1
                         Standard orientation:                         
 ---------------------------------------------------------------------
 Center     Atomic      Atomic             Coordinates (Angstroms)
 Number     Number       Type             X           Y           Z
 ---------------------------------------------------------------------
      1          8           0        1.080604   -0.439350    0.000655
      2          8           0       -1.080649   -0.439292    0.000664
      3          8           0        0.000030    1.537438   -0.000341
      4          6           0        2.308034    0.292441   -0.000213
      5          6           0       -2.308027    0.292445   -0.000191
      6          6           0        3.435946   -0.723079   -0.000542
      7          6           0       -3.435927   -0.723094   -0.000546
      8          6           0        0.000011    0.337923    0.001080
      9          1           0        2.335972    0.936700   -0.888565
     10          1           0        2.336900    0.937173    0.887776
     11          1           0       -2.337009    0.937180    0.887802
     12          1           0       -2.336078    0.936747   -0.888519
     13          1           0        4.399791   -0.204357   -0.001197
     14          1           0        3.385637   -1.367052    0.885453
     15          1           0        3.384665   -1.367555   -0.886115
     16          1           0       -4.399786   -0.204403   -0.001261
     17          1           0       -3.384593   -1.367537   -0.886148
     18          1           0       -3.385595   -1.367087    0.885425
 ---------------------------------------------------------------------
 Rotational constants (GHZ):           6.5279178           0.8990829           0.8062368
 Standard basis: 6-311++G(d,p) (5D, 7F)
 There are   254 symmetry adapted cartesian basis functions of A   symmetry.
 There are   246 symmetry adapted basis functions of A   symmetry.
   246 basis functions,   378 primitive gaussians,   254 cartesian basis functions
    32 alpha electrons       32 beta electrons
       nuclear repulsion energy       394.6908919512 Hartrees.
 NAtoms=   18 NActive=   18 NUniq=   18 SFac= 1.00D+00 NAtFMM=   60 NAOKFM=F Big=F
 Integral buffers will be    131072 words long.
 Raffenetti 2 integral format.
 Two-electron integral symmetry is turned on.
 R6APFD:  NTU= -4 IXU= 1 FactS= 1.050
 Nuclear repulsion after empirical dispersion term =      394.6811645468 Hartrees.
 One-electron integrals computed using PRISM.
 NBasis=   246 RedAO= T EigKep=  3.79D-05  NBF=   246
 NBsUse=   246 1.00D-06 EigRej= -1.00D+00 NBFU=   246
 Initial guess from the checkpoint file:  "DICA0030.chk"
 B after Tr=     0.000000   -0.000000   -0.000000
         Rot=    1.000000    0.000115   -0.000002   -0.000001 Ang=   0.01 deg.
 ExpMin= 3.60D-02 ExpMax= 8.59D+03 ExpMxC= 1.30D+03 IAcc=3 IRadAn=         5 AccDes= 0.00D+00
 Harris functional with IExCor= 1009 and IRadAn=       5 diagonalized for initial guess.
 HarFok:  IExCor= 1009 AccDes= 0.00D+00 IRadAn=         5 IDoV= 1 UseB2=F ITyADJ=14
 ICtDFT=  3500011 ScaDFX=  1.000000  1.000000  1.000000  1.000000
 FoFCou: FMM=F IPFlag=           0 FMFlag=      100000 FMFlg1=           0
         NFxFlg=           0 DoJE=T BraDBF=F KetDBF=T FulRan=T
         wScrn=  0.000000 ICntrl=       500 IOpCl=  0 I1Cent=   200000004 NGrid=           0
         NMat0=    1 NMatS0=      1 NMatT0=    0 NMatD0=    1 NMtDS0=    0 NMtDT0=    0
 Petite list used in FoFCou.
 Requested convergence on RMS density matrix=1.00D-08 within  32 cycles.
 Requested convergence on MAX density matrix=1.00D-06.
 Requested convergence on             energy=1.00D-06.
 No special actions if energy rises.
 SCF Done:  E(RM08HX) =  -422.230887790     A.U. after   11 cycles
            NFock= 11  Conv=0.62D-08     -V/T= 2.0040
 QCSCF skips out because SCF is already converged.
 R6APFD:  NTU= -4 IXU= 1 FactS= 1.050
 Calling FoFJK, ICntrl=      2127 FMM=F ISym2X=0 I1Cent= 0 IOpClX= 0 NMat=1 NMatS=1 NMatT=0.
 ***** Axes restored to original set *****
 -------------------------------------------------------------------
 Center     Atomic                   Forces (Hartrees/Bohr)
 Number     Number              X              Y              Z
 -------------------------------------------------------------------
      1        8           0.000238445    0.002074687   -0.000105370
      2        8          -0.000274776    0.002059859   -0.000105414
      3        8          -0.000000278    0.005363682   -0.000141977
      4        6          -0.006577035   -0.002780915   -0.000010681
      5        6           0.006617069   -0.002753090   -0.000011076
      6        6           0.001569164   -0.000233071   -0.000005951
      7        6          -0.001573048   -0.000236366    0.000007009
      8        6           0.000014454   -0.009410312    0.000365917
      9        1          -0.000019643    0.000534724   -0.000485817
     10        1          -0.000029680    0.000535279    0.000492356
     11        1           0.000020306    0.000531861    0.000492341
     12        1           0.000010394    0.000530743   -0.000486351
     13        1          -0.001002768   -0.000273350    0.000002914
     14        1           0.000155559    0.001082341   -0.000080111
     15        1           0.000154469    0.001083672    0.000080643
     16        1           0.001003339   -0.000272895   -0.000001898
     17        1          -0.000154139    0.001082794    0.000076534
     18        1          -0.000151830    0.001080356   -0.000083067
 -------------------------------------------------------------------
 Cartesian Forces:  Max     0.009410312 RMS     0.002119775

 GradGradGradGradGradGradGradGradGradGradGradGradGradGradGradGradGradGrad
 Berny optimization.
 Using GEDIIS/GDIIS optimizer.
 FormGI is forming the generalized inverse of G from B-inverse, IUseBI=4.
 Internal  Forces:  Max     0.008283894 RMS     0.001896241
 Search for a local minimum.
 Step number   2 out of a maximum of   84
 All quantities printed in internal units (Hartrees-Bohrs-Radians)
 Mixed Optimization -- RFO/linear search
 Update second derivatives using D2CorX and points    1    2
 DE= -3.88D-03 DEPred=-4.48D-03 R= 8.65D-01
 TightC=F SS=  1.41D+00  RLast= 1.70D-01 DXNew= 5.0454D-01 5.1018D-01
 Trust test= 8.65D-01 RLast= 1.70D-01 DXMaxT set to 5.05D-01
 ITU=  1  0
 Use linear search instead of GDIIS.
     Eigenvalues ---    0.00582   0.00583   0.01275   0.01278   0.02189
     Eigenvalues ---    0.02189   0.02189   0.05446   0.05447   0.05661
     Eigenvalues ---    0.05691   0.05698   0.05755   0.05795   0.05796
     Eigenvalues ---    0.10975   0.11277   0.13588   0.13588   0.15972
     Eigenvalues ---    0.16000   0.16000   0.16000   0.16000   0.16139
     Eigenvalues ---    0.21370   0.21936   0.24835   0.25000   0.25000
     Eigenvalues ---    0.27833   0.30968   0.31205   0.34154   0.34157
     Eigenvalues ---    0.34161   0.34167   0.34235   0.34242   0.34248
     Eigenvalues ---    0.34297   0.34381   0.34398   0.40708   0.40787
     Eigenvalues ---    0.52464   0.56212   0.96826
 RFO step:  Lambda=-5.67626873D-04 EMin= 5.82480032D-03
 Quartic linear search produced a step of -0.11426.
 Iteration  1 RMS(Cart)=  0.02923097 RMS(Int)=  0.00026517
 Iteration  2 RMS(Cart)=  0.00045061 RMS(Int)=  0.00003093
 Iteration  3 RMS(Cart)=  0.00000004 RMS(Int)=  0.00003093
 Variable       Old X    -DE/DX   Delta X   Delta X   Delta X     New X
                                 (Linear)    (Quad)   (Total)
    R1        2.70046   0.00491   0.00054   0.00977   0.01031   2.71077
    R2        2.51542   0.00329   0.00676  -0.00534   0.00142   2.51684
    R3        2.70032   0.00494   0.00051   0.00987   0.01038   2.71071
    R4        2.51546   0.00328   0.00676  -0.00536   0.00140   2.51685
    R5        2.26676   0.00536   0.00520  -0.00317   0.00203   2.26878
    R6        2.86807  -0.00176  -0.00085  -0.00362  -0.00447   2.86360
    R7        2.07442  -0.00008  -0.00045   0.00054   0.00009   2.07450
    R8        2.07443  -0.00008  -0.00043   0.00049   0.00006   2.07450
    R9        2.86808  -0.00176  -0.00083  -0.00364  -0.00447   2.86361
   R10        2.07445  -0.00009  -0.00043   0.00049   0.00006   2.07451
   R11        2.07443  -0.00008  -0.00044   0.00051   0.00007   2.07451
   R12        2.06843   0.00075  -0.00020   0.00227   0.00207   2.07049
   R13        2.07200  -0.00056  -0.00032  -0.00094  -0.00125   2.07075
   R14        2.07200  -0.00056  -0.00032  -0.00094  -0.00125   2.07075
   R15        2.06842   0.00075  -0.00020   0.00227   0.00207   2.07049
   R16        2.07202  -0.00057  -0.00030  -0.00097  -0.00127   2.07075
   R17        2.07199  -0.00056  -0.00033  -0.00090  -0.00123   2.07076
    A1        1.98041   0.00828   0.00419   0.02221   0.02641   2.00682
    A2        1.98049   0.00826   0.00419   0.02214   0.02633   2.00682
    A3        1.87096  -0.00025   0.00360  -0.00622  -0.00265   1.86831
    A4        1.89959   0.00011   0.00125  -0.00138  -0.00016   1.89942
    A5        1.89955   0.00013   0.00125  -0.00125  -0.00004   1.89950
    A6        1.95370   0.00030  -0.00437   0.00967   0.00535   1.95905
    A7        1.95370   0.00030  -0.00438   0.00966   0.00533   1.95904
    A8        1.88521  -0.00058   0.00277  -0.01081  -0.00792   1.87729
    A9        1.87096  -0.00025   0.00361  -0.00621  -0.00264   1.86832
   A10        1.89964   0.00012   0.00124  -0.00130  -0.00010   1.89954
   A11        1.89968   0.00011   0.00125  -0.00143  -0.00023   1.89946
   A12        1.95364   0.00030  -0.00437   0.00970   0.00538   1.95902
   A13        1.95363   0.00031  -0.00436   0.00970   0.00539   1.95902
   A14        1.88516  -0.00058   0.00276  -0.01078  -0.00790   1.87726
   A15        1.91486   0.00125   0.00248   0.00164   0.00413   1.91898
   A16        1.93768  -0.00095  -0.00082  -0.00334  -0.00414   1.93354
   A17        1.93768  -0.00095  -0.00082  -0.00334  -0.00415   1.93353
   A18        1.89571  -0.00022   0.00044  -0.00283  -0.00239   1.89332
   A19        1.89574  -0.00022   0.00045  -0.00288  -0.00242   1.89331
   A20        1.88102   0.00110  -0.00180   0.01084   0.00906   1.89008
   A21        1.91488   0.00125   0.00248   0.00163   0.00411   1.91899
   A22        1.93764  -0.00094  -0.00083  -0.00330  -0.00412   1.93352
   A23        1.93767  -0.00094  -0.00081  -0.00333  -0.00413   1.93354
   A24        1.89570  -0.00022   0.00044  -0.00284  -0.00239   1.89331
   A25        1.89577  -0.00022   0.00044  -0.00288  -0.00243   1.89333
   A26        1.88103   0.00110  -0.00180   0.01083   0.00905   1.89008
   A27        1.89453   0.00263  -0.00108   0.01112   0.01002   1.90455
   A28        2.19434  -0.00131   0.00055  -0.00556  -0.00503   2.18931
   A29        2.19431  -0.00131   0.00054  -0.00554  -0.00502   2.18929
    D1        3.14155  -0.00000  -0.00001  -0.00003  -0.00004   3.14151
    D2       -1.02536   0.00028  -0.00241   0.00714   0.00473  -1.02063
    D3        1.02528  -0.00028   0.00241  -0.00727  -0.00486   1.02042
    D4        3.14063   0.00014   0.00020   0.00494   0.00513  -3.13742
    D5        0.00116  -0.00014  -0.00013  -0.00496  -0.00509  -0.00393
    D6       -3.14157   0.00000   0.00001   0.00003   0.00004  -3.14153
    D7       -1.02533   0.00029  -0.00240   0.00729   0.00488  -1.02044
    D8        1.02536  -0.00028   0.00240  -0.00715  -0.00474   1.02061
    D9       -3.14063  -0.00014  -0.00020  -0.00494  -0.00513   3.13742
   D10       -0.00117   0.00014   0.00013   0.00497   0.00509   0.00392
   D11       -3.14158  -0.00000   0.00000  -0.00008  -0.00008   3.14152
   D12       -1.04607  -0.00007   0.00165  -0.00467  -0.00301  -1.04908
   D13        1.04605   0.00006  -0.00165   0.00456   0.00290   1.04895
   D14        1.05979  -0.00016  -0.00119  -0.00007  -0.00129   1.05849
   D15       -3.12788  -0.00022   0.00046  -0.00465  -0.00423  -3.13211
   D16       -1.03576  -0.00009  -0.00284   0.00457   0.00169  -1.03408
   D17       -1.05981   0.00016   0.00119   0.00004   0.00127  -1.05854
   D18        1.03570   0.00010   0.00284  -0.00454  -0.00166   1.03404
   D19        3.12782   0.00023  -0.00047   0.00468   0.00426   3.13208
   D20       -3.14154   0.00000  -0.00000   0.00004   0.00004  -3.14149
   D21       -1.04604  -0.00006   0.00165  -0.00454  -0.00289  -1.04893
   D22        1.04606   0.00007  -0.00166   0.00470   0.00304   1.04909
   D23        1.05980  -0.00016  -0.00118  -0.00005  -0.00127   1.05853
   D24       -3.12789  -0.00022   0.00047  -0.00464  -0.00420  -3.13210
   D25       -1.03580  -0.00009  -0.00284   0.00460   0.00172  -1.03407
   D26       -1.05964   0.00015   0.00119  -0.00002   0.00121  -1.05843
   D27        1.03585   0.00009   0.00284  -0.00461  -0.00173   1.03413
   D28        3.12795   0.00022  -0.00047   0.00463   0.00420   3.13215
         Item               Value     Threshold  Converged?
 Maximum Force            0.008284     0.000450     NO 
 RMS     Force            0.001896     0.000300     NO 
 Maximum Displacement     0.084253     0.001800     NO 
 RMS     Displacement     0.029142     0.001200     NO 
 Predicted change in Energy=-3.496739D-04
 GradGradGradGradGradGradGradGradGradGradGradGradGradGradGradGradGradGrad

                          Input orientation:                          
 ---------------------------------------------------------------------
 Center     Atomic      Atomic             Coordinates (Angstroms)
 Number     Number       Type             X           Y           Z
 ---------------------------------------------------------------------
      1          8           0       -1.085119   -0.453590    0.003844
      2          8           0        1.085110   -0.453581    0.003852
      3          8           0       -0.000007    1.519240   -0.000048
      4          6           0       -2.332646    0.254500   -0.000142
      5          6           0        2.332597    0.254506   -0.000127
      6          6           0       -3.434118   -0.786196   -0.001519
      7          6           0        3.434097   -0.786168   -0.001465
      8          6           0       -0.000014    0.318663    0.005424
      9          1           0       -2.374762    0.903038    0.884588
     10          1           0       -2.370461    0.900812   -0.886688
     11          1           0        2.370455    0.900818   -0.886677
     12          1           0        2.374730    0.903068    0.884585
     13          1           0       -4.413155   -0.294317   -0.004494
     14          1           0       -3.363918   -1.425498   -0.888723
     15          1           0       -3.368213   -1.423290    0.887600
     16          1           0        4.413123   -0.294271   -0.004402
     17          1           0        3.368170   -1.423252    0.887657
     18          1           0        3.363931   -1.425484   -0.888666
 ---------------------------------------------------------------------
                    Distance matrix (angstroms):
                    1          2          3          4          5
     1  O    0.000000
     2  O    2.170229   0.000000
     3  O    2.251564   2.251558   0.000000
     4  C    1.434479   3.490336   2.653445   0.000000
     5  C    3.490301   1.434443   2.653412   4.665243   0.000000
     6  C    2.372436   4.531455   4.136200   1.515352   5.859870
     7  C    4.531440   2.372421   4.136179   5.859890   1.515356
     8  C    1.331852   1.331862   1.200589   2.333520   2.333500
     9  H    2.068654   3.819270   2.608015   1.097780   4.833482
    10  H    2.068709   3.816859   2.605309   1.097776   4.829333
    11  H    3.816863   2.068707   2.605311   4.829371   1.097781
    12  H    3.819264   2.068648   2.607991   4.833504   1.097781
    13  H    3.331856   5.500578   4.771256   2.151683   6.768043
    14  H    2.633288   4.640599   4.558193   2.162289   6.005190
    15  H    2.633223   4.642567   4.559738   2.162283   6.008519
    16  H    5.500556   3.331835   4.771222   6.768055   2.151688
    17  H    4.642538   2.633200   4.559704   6.008523   2.162278
    18  H    4.640603   2.633289   4.558193   6.005231   2.162294
                    6          7          8          9         10
     6  C    0.000000
     7  C    6.868215   0.000000
     8  C    3.607469   3.607467   0.000000
     9  H    2.181956   6.114028   2.598817   0.000000
    10  H    2.181945   6.109207   2.598803   1.771282   0.000000
    11  H    6.109222   2.181939   2.598821   5.065024   4.740916
    12  H    6.114042   2.181940   2.598819   4.749491   5.065002
    13  H    1.095659   7.862652   4.455520   2.525703   2.525707
    14  H    1.095795   6.885417   3.893257   3.089521   2.529561
    15  H    1.095795   6.889686   3.893251   2.529577   3.089508
    16  H    7.862646   1.095657   4.455510   6.949765   6.944326
    17  H    6.889674   1.095792   3.893234   6.196201   6.440610
    18  H    6.885433   1.095799   3.893273   6.441975   6.188288
                   11         12         13         14         15
    11  H    0.000000
    12  H    1.771269   0.000000
    13  H    6.944348   6.949790   0.000000
    14  H    6.188278   6.441965   1.778294   0.000000
    15  H    6.440641   6.196236   1.778291   1.776330   0.000000
    16  H    2.525696   2.525662   8.826279   7.908481   7.913251
    17  H    3.089498   2.529565   7.913246   6.962510   6.736383
    18  H    2.529561   3.089514   7.908500   6.727849   6.962534
                   16         17         18
    16  H    0.000000
    17  H    1.778284   0.000000
    18  H    1.778306   1.776330   0.000000
 Stoichiometry    C5H10O3
 Framework group  C1[X(C5H10O3)]
 Deg. of freedom    48
 Full point group                 C1      NOp   1
 Largest Abelian subgroup         C1      NOp   1
 Largest concise Abelian subgroup C1      NOp   1
                         Standard orientation:                         
 ---------------------------------------------------------------------
 Center     Atomic      Atomic             Coordinates (Angstroms)
 Number     Number       Type             X           Y           Z
 ---------------------------------------------------------------------
      1          8           0        1.085109   -0.418429   -0.003016
      2          8           0       -1.085120   -0.418428   -0.003010
      3          8           0       -0.000010    1.554396    0.001291
      4          6           0        2.332633    0.289665    0.001108
      5          6           0       -2.332610    0.289653    0.001124
      6          6           0        3.434110   -0.751027    0.002263
      7          6           0       -3.434105   -0.751026    0.002254
      8          6           0        0.000001    0.353820   -0.004429
      9          1           0        2.374741    0.938386   -0.883487
     10          1           0        2.370452    0.935794    0.887787
     11          1           0       -2.370464    0.935782    0.887808
     12          1           0       -2.374751    0.938397   -0.883454
     13          1           0        4.413145   -0.259144    0.005334
     14          1           0        3.363918   -1.390512    0.889336
     15          1           0        3.368201   -1.387938   -0.886987
     16          1           0       -4.413134   -0.259133    0.005299
     17          1           0       -3.368182   -1.387926   -0.887000
     18          1           0       -3.363931   -1.390525    0.889323
 ---------------------------------------------------------------------
 Rotational constants (GHZ):           6.3929023           0.8940699           0.8001259
 Standard basis: 6-311++G(d,p) (5D, 7F)
 There are   254 symmetry adapted cartesian basis functions of A   symmetry.
 There are   246 symmetry adapted basis functions of A   symmetry.
   246 basis functions,   378 primitive gaussians,   254 cartesian basis functions
    32 alpha electrons       32 beta electrons
       nuclear repulsion energy       393.5392928772 Hartrees.
 NAtoms=   18 NActive=   18 NUniq=   18 SFac= 1.00D+00 NAtFMM=   60 NAOKFM=F Big=F
 Integral buffers will be    131072 words long.
 Raffenetti 2 integral format.
 Two-electron integral symmetry is turned on.
 R6APFD:  NTU= -4 IXU= 1 FactS= 1.050
 Nuclear repulsion after empirical dispersion term =      393.5295352319 Hartrees.
 One-electron integrals computed using PRISM.
 NBasis=   246 RedAO= T EigKep=  4.09D-05  NBF=   246
 NBsUse=   246 1.00D-06 EigRej= -1.00D+00 NBFU=   246
 Initial guess from the checkpoint file:  "DICA0030.chk"
 B after Tr=    -0.000000    0.000000    0.000000
         Rot=    1.000000   -0.000249    0.000000   -0.000001 Ang=  -0.03 deg.
 ExpMin= 3.60D-02 ExpMax= 8.59D+03 ExpMxC= 1.30D+03 IAcc=3 IRadAn=         5 AccDes= 0.00D+00
 Harris functional with IExCor= 1009 and IRadAn=       5 diagonalized for initial guess.
 HarFok:  IExCor= 1009 AccDes= 0.00D+00 IRadAn=         5 IDoV= 1 UseB2=F ITyADJ=14
 ICtDFT=  3500011 ScaDFX=  1.000000  1.000000  1.000000  1.000000
 FoFCou: FMM=F IPFlag=           0 FMFlag=      100000 FMFlg1=           0
         NFxFlg=           0 DoJE=T BraDBF=F KetDBF=T FulRan=T
         wScrn=  0.000000 ICntrl=       500 IOpCl=  0 I1Cent=   200000004 NGrid=           0
         NMat0=    1 NMatS0=      1 NMatT0=    0 NMatD0=    1 NMtDS0=    0 NMtDT0=    0
 Petite list used in FoFCou.
 Requested convergence on RMS density matrix=1.00D-08 within  32 cycles.
 Requested convergence on MAX density matrix=1.00D-06.
 Requested convergence on             energy=1.00D-06.
 No special actions if energy rises.
 SCF Done:  E(RM08HX) =  -422.231195918     A.U. after   10 cycles
            NFock= 10  Conv=0.36D-08     -V/T= 2.0041
 QCSCF skips out because SCF is already converged.
 R6APFD:  NTU= -4 IXU= 1 FactS= 1.050
 Calling FoFJK, ICntrl=      2127 FMM=F ISym2X=0 I1Cent= 0 IOpClX= 0 NMat=1 NMatS=1 NMatT=0.
 ***** Axes restored to original set *****
 -------------------------------------------------------------------
 Center     Atomic                   Forces (Hartrees/Bohr)
 Number     Number              X              Y              Z
 -------------------------------------------------------------------
      1        8           0.000555105   -0.000941624    0.000392262
      2        8          -0.000572532   -0.000947253    0.000392085
      3        8          -0.000002517    0.004621671    0.000524024
      4        6          -0.000511674   -0.000180008    0.000045292
      5        6           0.000532999   -0.000169699    0.000043726
      6        6           0.000526956    0.000289663    0.000010487
      7        6          -0.000529820    0.000288347    0.000007953
      8        6           0.000005262   -0.003639501   -0.001394319
      9        1           0.000162634   -0.000007150    0.000012165
     10        1           0.000198220   -0.000015566   -0.000021468
     11        1          -0.000200869   -0.000018073   -0.000020608
     12        1          -0.000165481   -0.000007683    0.000013345
     13        1          -0.000156744   -0.000142877   -0.000001623
     14        1           0.000098607    0.000254285    0.000105432
     15        1           0.000096202    0.000252006   -0.000107426
     16        1           0.000157261   -0.000142689   -0.000002854
     17        1          -0.000096195    0.000250287   -0.000105876
     18        1          -0.000097414    0.000255864    0.000107403
 -------------------------------------------------------------------
 Cartesian Forces:  Max     0.004621671 RMS     0.000876161

 GradGradGradGradGradGradGradGradGradGradGradGradGradGradGradGradGradGrad
 Berny optimization.
 Using GEDIIS/GDIIS optimizer.
 FormGI is forming the generalized inverse of G from B-inverse, IUseBI=4.
 Internal  Forces:  Max     0.004619238 RMS     0.000648766
 Search for a local minimum.
 Step number   3 out of a maximum of   84
 All quantities printed in internal units (Hartrees-Bohrs-Radians)
 Mixed Optimization -- En-DIIS/RFO-DIIS
 Update second derivatives using D2CorX and points    1    2    3
 DE= -3.08D-04 DEPred=-3.50D-04 R= 8.81D-01
 TightC=F SS=  1.41D+00  RLast= 5.18D-02 DXNew= 8.4853D-01 1.5541D-01
 Trust test= 8.81D-01 RLast= 5.18D-02 DXMaxT set to 5.05D-01
 ITU=  1  1  0
 Use linear search instead of GDIIS.
     Eigenvalues ---    0.00582   0.00583   0.01275   0.01278   0.02189
     Eigenvalues ---    0.02189   0.02241   0.05435   0.05436   0.05659
     Eigenvalues ---    0.05667   0.05716   0.05730   0.05799   0.05800
     Eigenvalues ---    0.10282   0.11292   0.13586   0.13586   0.15591
     Eigenvalues ---    0.16000   0.16000   0.16000   0.16000   0.16017
     Eigenvalues ---    0.21202   0.21910   0.24915   0.25000   0.25000
     Eigenvalues ---    0.30375   0.30968   0.32990   0.34140   0.34157
     Eigenvalues ---    0.34160   0.34166   0.34212   0.34236   0.34242
     Eigenvalues ---    0.34249   0.34384   0.34398   0.40678   0.40787
     Eigenvalues ---    0.52464   0.59072   0.97227
 RFO step:  Lambda=-7.97896543D-05 EMin= 5.82480118D-03
 Quartic linear search produced a step of -0.09783.
 Iteration  1 RMS(Cart)=  0.01416413 RMS(Int)=  0.00011437
 Iteration  2 RMS(Cart)=  0.00024661 RMS(Int)=  0.00005330
 Iteration  3 RMS(Cart)=  0.00000001 RMS(Int)=  0.00005330
 Variable       Old X    -DE/DX   Delta X   Delta X   Delta X     New X
                                 (Linear)    (Quad)   (Total)
    R1        2.71077  -0.00014  -0.00101   0.00202   0.00102   2.71179
    R2        2.51684  -0.00051  -0.00014  -0.00062  -0.00076   2.51608
    R3        2.71071  -0.00012  -0.00102   0.00208   0.00106   2.71176
    R4        2.51685  -0.00051  -0.00014  -0.00063  -0.00077   2.51609
    R5        2.26878   0.00462  -0.00020   0.00474   0.00454   2.27333
    R6        2.86360  -0.00086   0.00044  -0.00346  -0.00302   2.86058
    R7        2.07450  -0.00000  -0.00001   0.00002   0.00001   2.07452
    R8        2.07450   0.00000  -0.00001   0.00002   0.00002   2.07451
    R9        2.86361  -0.00086   0.00044  -0.00346  -0.00302   2.86059
   R10        2.07451  -0.00000  -0.00001   0.00002   0.00001   2.07452
   R11        2.07451  -0.00000  -0.00001   0.00002   0.00001   2.07452
   R12        2.07049   0.00008  -0.00020   0.00066   0.00046   2.07096
   R13        2.07075  -0.00023   0.00012  -0.00087  -0.00075   2.07001
   R14        2.07075  -0.00023   0.00012  -0.00087  -0.00075   2.07001
   R15        2.07049   0.00008  -0.00020   0.00067   0.00046   2.07096
   R16        2.07075  -0.00023   0.00012  -0.00087  -0.00074   2.07000
   R17        2.07076  -0.00023   0.00012  -0.00087  -0.00075   2.07001
    A1        2.00682  -0.00159  -0.00258   0.00026  -0.00232   2.00450
    A2        2.00682  -0.00159  -0.00258   0.00025  -0.00232   2.00450
    A3        1.86831  -0.00013   0.00026  -0.00144  -0.00118   1.86713
    A4        1.89942  -0.00005   0.00002  -0.00089  -0.00087   1.89855
    A5        1.89950  -0.00009   0.00000  -0.00126  -0.00125   1.89825
    A6        1.95905   0.00014  -0.00052   0.00234   0.00182   1.96087
    A7        1.95904   0.00017  -0.00052   0.00242   0.00190   1.96094
    A8        1.87729  -0.00005   0.00078  -0.00135  -0.00058   1.87671
    A9        1.86832  -0.00013   0.00026  -0.00144  -0.00118   1.86714
   A10        1.89954  -0.00009   0.00001  -0.00129  -0.00128   1.89826
   A11        1.89946  -0.00005   0.00002  -0.00092  -0.00090   1.89856
   A12        1.95902   0.00017  -0.00053   0.00244   0.00192   1.96093
   A13        1.95902   0.00014  -0.00053   0.00237   0.00184   1.96086
   A14        1.87726  -0.00005   0.00077  -0.00133  -0.00057   1.87670
   A15        1.91898   0.00038  -0.00040   0.00329   0.00288   1.92187
   A16        1.93354  -0.00027   0.00041  -0.00254  -0.00214   1.93140
   A17        1.93353  -0.00026   0.00041  -0.00250  -0.00210   1.93143
   A18        1.89332  -0.00003   0.00023  -0.00044  -0.00021   1.89311
   A19        1.89331  -0.00003   0.00024  -0.00044  -0.00020   1.89311
   A20        1.89008   0.00022  -0.00089   0.00271   0.00182   1.89190
   A21        1.91899   0.00038  -0.00040   0.00328   0.00288   1.92187
   A22        1.93352  -0.00026   0.00040  -0.00249  -0.00209   1.93143
   A23        1.93354  -0.00027   0.00040  -0.00254  -0.00214   1.93140
   A24        1.89331  -0.00003   0.00023  -0.00043  -0.00020   1.89311
   A25        1.89333  -0.00003   0.00024  -0.00046  -0.00022   1.89311
   A26        1.89008   0.00022  -0.00089   0.00270   0.00182   1.89190
   A27        1.90455  -0.00055  -0.00098   0.00040  -0.00084   1.90371
   A28        2.18931   0.00028   0.00049  -0.00006   0.00017   2.18948
   A29        2.18929   0.00028   0.00049  -0.00004   0.00019   2.18948
    D1        3.14151   0.00001   0.00000   0.00020   0.00020  -3.14148
    D2       -1.02063   0.00007  -0.00046   0.00166   0.00120  -1.01943
    D3        1.02042  -0.00006   0.00048  -0.00115  -0.00068   1.01975
    D4       -3.13742  -0.00054  -0.00050  -0.02088  -0.02138   3.12439
    D5       -0.00393   0.00050   0.00050   0.01924   0.01973   0.01581
    D6       -3.14153  -0.00001  -0.00000  -0.00019  -0.00019   3.14146
    D7       -1.02044   0.00007  -0.00048   0.00116   0.00068  -1.01976
    D8        1.02061  -0.00007   0.00046  -0.00166  -0.00120   1.01941
    D9        3.13742   0.00054   0.00050   0.02088   0.02138  -3.12439
   D10        0.00392  -0.00050  -0.00050  -0.01924  -0.01973  -0.01581
   D11        3.14152   0.00001   0.00001   0.00020   0.00021  -3.14145
   D12       -1.04908   0.00005   0.00029   0.00015   0.00045  -1.04863
   D13        1.04895  -0.00003  -0.00028   0.00022  -0.00006   1.04890
   D14        1.05849   0.00008   0.00013   0.00085   0.00098   1.05947
   D15       -3.13211   0.00011   0.00041   0.00080   0.00122  -3.13090
   D16       -1.03408   0.00004  -0.00017   0.00087   0.00071  -1.03337
   D17       -1.05854  -0.00009  -0.00012  -0.00085  -0.00098  -1.05952
   D18        1.03404  -0.00005   0.00016  -0.00090  -0.00074   1.03330
   D19        3.13208  -0.00012  -0.00042  -0.00083  -0.00125   3.13083
   D20       -3.14149  -0.00001  -0.00000  -0.00023  -0.00023   3.14146
   D21       -1.04893   0.00003   0.00028  -0.00023   0.00005  -1.04888
   D22        1.04909  -0.00005  -0.00030  -0.00015  -0.00045   1.04864
   D23        1.05853   0.00009   0.00012   0.00086   0.00099   1.05951
   D24       -3.13210   0.00012   0.00041   0.00086   0.00127  -3.13083
   D25       -1.03407   0.00005  -0.00017   0.00093   0.00077  -1.03330
   D26       -1.05843  -0.00008  -0.00012  -0.00090  -0.00102  -1.05945
   D27        1.03413  -0.00004   0.00017  -0.00090  -0.00074   1.03339
   D28        3.13215  -0.00011  -0.00041  -0.00083  -0.00124   3.13092
         Item               Value     Threshold  Converged?
 Maximum Force            0.004619     0.000450     NO 
 RMS     Force            0.000649     0.000300     NO 
 Maximum Displacement     0.056712     0.001800     NO 
 RMS     Displacement     0.014200     0.001200     NO 
 Predicted change in Energy=-4.337465D-05
 GradGradGradGradGradGradGradGradGradGradGradGradGradGradGradGradGradGrad

                          Input orientation:                          
 ---------------------------------------------------------------------
 Center     Atomic      Atomic             Coordinates (Angstroms)
 Number     Number       Type             X           Y           Z
 ---------------------------------------------------------------------
      1          8           0       -1.084469   -0.456814   -0.016776
      2          8           0        1.084451   -0.456808   -0.016764
      3          8           0       -0.000019    1.518448   -0.004410
      4          6           0       -2.331009    0.253947   -0.001570
      5          6           0        2.330974    0.253956   -0.001546
      6          6           0       -3.432089   -0.784814    0.005539
      7          6           0        3.432074   -0.784790    0.005594
      8          6           0       -0.000016    0.315624   -0.024587
      9          1           0       -2.359478    0.898520    0.886604
     10          1           0       -2.376989    0.905065   -0.884215
     11          1           0        2.376969    0.905069   -0.884196
     12          1           0        2.359432    0.898544    0.886617
     13          1           0       -4.412327   -0.294914    0.017090
     14          1           0       -3.371373   -1.418507   -0.885892
     15          1           0       -3.353731   -1.425096    0.890864
     16          1           0        4.412303   -0.294872    0.017165
     17          1           0        3.353705   -1.425069    0.890919
     18          1           0        3.371392   -1.418491   -0.885836
 ---------------------------------------------------------------------
                    Distance matrix (angstroms):
                    1          2          3          4          5
     1  O    0.000000
     2  O    2.168920   0.000000
     3  O    2.253408   2.253411   0.000000
     4  C    1.435017   3.488663   2.651884   0.000000
     5  C    3.488650   1.435004   2.651882   4.661983   0.000000
     6  C    2.370527   4.528489   4.133307   1.513755   5.855936
     7  C    4.528491   2.370529   4.133312   5.855950   1.513758
     8  C    1.331451   1.331457   1.202993   2.331923   2.331919
[...]
 0000014,0.3178156,-0.03841,-0.0497588,0.0000139,-0.0826613,0.0231257,0
 .0000133,0.0000229,0.0000139,0.0737145,-0.0384114,0.0497585,-0.0000159
 ,0.082661,0.0231282,0.0000159,-0.0000257,0.0000159,0.0737155,2.8484047
 ,0.0000058,0.0000146,0.0000085,1.8374674,-0.0004466,0.0000139,-0.00044
 59,0.4382854,-0.0359319,-0.0318281,-0.030217,0.0543552,-0.0034836,-0.0
 637451,0.0131562,-0.0874461,-0.0566756,-0.0359273,-0.0318126,0.0302378
 ,0.054346,-0.0033928,0.063712,-0.0131867,0.0874101,-0.0567581,-0.03592
 79,0.0318105,-0.0302373,-0.0543476,-0.003393,0.063712,0.0131876,0.0874
 117,-0.0567619,-0.0359318,0.0318289,0.0302173,-0.0543551,-0.0034853,-0
 .0637466,-0.0131552,-0.0874462,-0.0566749,-0.0981551,0.0411352,-0.0000
 13,0.0826058,0.014031,0.0000211,-0.0000246,0.0000206,0.0876296,0.06424
 95,0.0094895,0.034152,-0.0406912,-0.0001918,-0.0677116,0.0022341,-0.09
 33457,-0.0491195,0.0642506,0.0094695,-0.0341559,-0.0406943,-0.0001002,
 0.0676829,-0.0022085,0.0933182,-0.0492103,-0.0981541,-0.0411362,0.0000
 099,-0.0826077,0.0140292,0.0000198,0.0000218,0.0000203,0.0876292,0.064
 2495,-0.0094705,0.0341574,0.0406935,-0.0000993,0.067684,0.0022094,0.09
 33179,-0.0492111,0.0642493,-0.0094871,-0.034149,0.0406932,-0.0001933,-
 0.0677121,-0.0022308,-0.0933471,-0.0491201\Polar=88.0634709,0.0000851,
 68.1576622,0.0001941,-0.0033996,56.9881913\Quadrupole=7.4560514,-6.634
 8286,-0.8212228,0.0000515,0.0000496,0.001834\PG=C01 [X(C5H10O3)]\NImag
 =0\\0.57286471,0.03868481,0.38201953,-0.00001126,-0.00009596,0.0776092
 0,-0.11801160,0.01687793,-0.00000618,0.57286728,-0.01687896,0.02465480
 ,-0.00000364,-0.03867779,0.38201943,0.00000462,-0.00000345,0.01316696,
 0.00001675,-0.00009660,0.07760936,-0.00724341,-0.05732378,0.00001802,-
 0.00724424,0.05732418,-0.00001850,0.13140405,-0.05730433,-0.07697925,0
 .00003394,0.05730490,-0.07697879,0.00003465,-0.00000155,0.87094410,0.0
 0001796,0.00003408,0.03111187,-0.00001847,0.00003476,0.03111191,0.0000
 0061,-0.00026347,0.04110846,-0.15337232,0.04701432,-0.00001453,0.00840
 222,-0.00186178,0.00000063,0.00186894,0.01810299,-0.00000582,0.4607975
 0,0.07653978,-0.13585651,0.00002214,-0.00865495,-0.00334915,0.00000203
 ,-0.00736484,-0.00941208,0.00000172,0.03796927,0.56404068,-0.00002383,
 0.00002217,-0.06628757,0.00000274,0.00000207,0.00324964,0.00000195,0.0
 0000188,-0.00410679,-0.00001401,0.00001220,0.60934367,0.00840200,0.001
 86186,-0.00000056,-0.15337630,-0.04701691,0.00001378,0.00186889,-0.018
 10298,0.00000587,-0.00199118,0.00030791,-0.00000014,0.46080412,0.00865
 509,-0.00334913,0.00000214,-0.07654258,-0.13585898,0.00002134,0.007365
 04,-0.00941230,0.00000179,-0.00030795,0.00151067,0.00000015,-0.0379663
 3,0.56404059,-0.00000267,0.00000210,0.00324965,0.00002304,0.00002167,-
 0.06628745,-0.00000200,0.00000163,-0.00410680,0.00000008,0.00000016,0.
 00197125,0.00001179,0.00001225,0.60934113,-0.04126628,-0.02155114,0.00
 000583,-0.00228924,-0.00113664,0.00000037,0.00095641,-0.00196601,0.000
 00062,-0.13936363,-0.06689456,0.00001826,0.00013645,0.00042722,-0.0000
 0011,0.53525298,0.02224315,0.01600267,-0.00000380,0.00229702,0.0009146
 3,-0.00000031,-0.00121187,0.00234570,-0.00000045,-0.08336450,-0.159439
 23,0.00002009,-0.00019809,-0.00043865,0.00000014,-0.04266666,0.5428123
 6,-0.00000699,-0.00000438,0.00187826,-0.00000066,-0.00000031,-0.000011
 97,0.00000056,-0.00000039,0.00111315,0.00002291,0.00002014,-0.08532376
 ,0.00000005,0.00000015,0.00006384,0.00001147,0.00000901,0.57571988,-0.
 00228923,0.00113662,-0.00000039,-0.04126705,0.02155078,-0.00000665,0.0
 0095640,0.00196601,-0.00000062,0.00013646,-0.00042721,0.00000012,-0.13
 936493,0.06689438,-0.00001970,-0.00012372,0.00012514,-0.00000004,0.535
 25265,-0.00229706,0.00091462,-0.00000033,-0.02224361,0.01600271,-0.000
 00424,0.00121189,0.00234574,-0.00000042,0.00019809,-0.00043865,0.00000
 015,0.08336430,-0.15943749,0.00002209,-0.00012515,0.00012035,-0.000000
 04,0.04266699,0.54281341,0.00000064,-0.00000029,-0.00001197,0.00000643
 ,-0.00000414,0.00187826,-0.00000051,-0.00000035,0.00111315,-0.00000005
 ,0.00000015,0.00006385,-0.00002456,0.00002187,-0.08532369,0.00000004,-
 0.00000004,-0.00001969,-0.00001303,0.00000968,0.57571927,-0.21827059,-
 0.06936395,0.00002172,-0.21826808,0.06936091,-0.00002329,-0.11958085,0
 .00000100,-0.00000011,-0.06720535,-0.00979256,0.00000264,-0.06720581,0
 .00979188,-0.00000348,-0.00207993,0.00122416,-0.00000034,-0.00207983,-
 0.00122415,0.00000035,0.67482941,-0.08837968,-0.18209028,0.00003405,0.
 08837682,-0.18208737,0.00003503,0.00000092,-0.70819542,0.00019396,-0.0
 1080605,0.02611682,-0.00000947,0.01080529,0.02611716,-0.00000921,0.006
 44876,-0.00634319,0.00000203,-0.00644872,-0.00634326,0.00000190,0.0000
 0252,1.04003291,0.00002764,0.00003401,-0.07428104,-0.00002922,0.000034
 78,-0.07428140,-0.00000013,0.00019395,-0.09736595,0.00000308,-0.000009
 14,-0.00222170,-0.00000385,-0.00000899,-0.00222169,-0.00000226,0.00000
 204,-0.00030752,0.00000217,0.00000200,-0.00030750,0.00000246,-0.000252
 14,0.24689485,-0.01854100,0.02264520,0.02622403,-0.00168351,-0.0002864
 1,-0.00071001,-0.00034639,-0.00316590,-0.00038953,-0.04713102,-0.00211
 889,-0.00359865,0.00038331,0.00017773,-0.00029142,0.00196996,-0.014357
 95,-0.02138590,-0.00005829,-0.00006339,-0.00000305,0.00491670,0.008365
 14,0.00248398,0.06107383,0.01178598,-0.01249498,-0.01277423,0.00077733
 ,0.00010657,0.00001366,0.00014707,0.00121593,0.00026942,0.00260103,-0.
 13255339,-0.11767413,-0.00022553,-0.00008224,0.00009088,-0.00067688,-0
 .01131081,-0.01729552,0.00002757,0.00003450,-0.00000872,-0.00337855,-0
 .00211493,-0.00011983,-0.00721868,0.14702370,0.00392974,0.00229620,0.0
 0664057,0.00010925,0.00067583,-0.00039528,-0.00097408,0.00191486,0.000
 14012,0.00394292,-0.12057786,-0.22824659,0.00001169,-0.00002545,-0.000
 07664,-0.00078600,0.00214062,0.00275977,0.00001939,0.00002142,-0.00000
 137,-0.00145205,-0.00403468,0.00070685,-0.00393027,0.13234122,0.236746
 45,-0.01853955,0.02262971,-0.02623749,-0.00168337,-0.00028602,0.000710
 14,-0.00034677,-0.00316572,0.00039147,-0.04713120,-0.00212073,0.003606
 11,0.00038327,0.00017789,0.00029129,0.00196934,-0.01434566,0.02139401,
 -0.00005829,-0.00006339,0.00000308,0.00491660,0.00836360,-0.00248911,0
 .00196462,-0.00144947,-0.00026992,0.06107354,0.01178264,-0.01248888,0.
 01278550,0.00077724,0.00010616,-0.00001392,0.00014729,0.00121458,-0.00
 027029,0.00259537,-0.13241694,0.11761983,-0.00022554,-0.00008228,-0.00
 009087,-0.00067703,-0.01130210,0.01730337,0.00002756,0.00003449,0.0000
 0870,-0.00337769,-0.00211240,0.00012157,-0.00144881,0.01119815,-0.0148
 8625,-0.00721154,0.14687197,-0.00393709,-0.00228458,0.00663355,-0.0001
 0969,-0.00067620,-0.00039481,0.00097410,-0.00191565,0.00014143,-0.0039
 3862,0.12052339,-0.22838377,-0.00001157,0.00002544,-0.00007660,0.00078
 640,-0.00213312,0.00275190,-0.00001941,-0.00002144,-0.00000136,0.00145
 413,0.00403672,0.00070431,0.00027149,0.01486797,-0.02042104,0.00392839
 ,-0.13229016,0.23689903,-0.00168339,0.00028600,-0.00071016,-0.01853989
 ,-0.02262969,0.02623744,-0.00034674,0.00316572,-0.00039147,0.00038328,
 -0.00017789,-0.00029129,-0.04713136,0.00211902,-0.00360375,-0.00005830
 ,0.00006339,-0.00000309,0.00196958,0.01434566,-0.02139429,0.00491665,-
 0.00836356,0.00248917,-0.00002346,0.00003737,0.00003709,-0.00018015,0.
 00006271,-0.00001228,0.06107383,-0.00077726,0.00010616,-0.00001394,-0.
 01178312,-0.01248921,0.01278584,-0.00014734,0.00121462,-0.00027028,0.0
 0022554,-0.00008228,-0.00009087,-0.00259689,-0.13241449,0.11761830,-0.
 00002756,0.00003449,0.00000870,0.00067687,-0.01130191,0.01730337,0.003
 37776,-0.00211246,0.00012161,-0.00003735,0.00000591,-0.00001617,-0.000
 06271,0.00005554,-0.00000060,0.00721352,0.14686967,0.00010971,-0.00067
 619,-0.00039482,0.00393705,-0.00228463,0.00663394,-0.00097408,-0.00191
 563,0.00014143,0.00001156,0.00002545,-0.00007660,0.00394091,0.12052200
 ,-0.22838495,0.00001941,-0.00002144,-0.00000136,-0.00078637,-0.0021327
 3,0.00275133,-0.00145418,0.00403664,0.00070432,0.00003711,0.00001616,-
 0.00000595,0.00001228,-0.00000060,0.00003898,-0.00393078,-0.13228882,0
 .23690052,-0.00168349,0.00028639,0.00070999,-0.01854029,-0.02264564,-0
 .02622423,-0.00034651,0.00316588,0.00038950,0.00038330,-0.00017772,0.0
 0029142,-0.04713119,0.00212105,0.00360203,-0.00005829,0.00006339,0.000
 00304,0.00196939,0.01435827,0.02138590,0.00491674,-0.00836503,-0.00248
 390,-0.00018015,0.00006272,0.00001224,-0.00002346,0.00003735,-0.000037
 11,0.00196460,0.00144898,-0.00027125,0.06107397,-0.00077734,0.00010657
 ,0.00001364,-0.01178597,-0.01249552,-0.01277455,-0.00014700,0.00121598
 ,0.00026947,0.00022554,-0.00008224,0.00009088,-0.00259903,-0.13255550,
 -0.11767456,-0.00002758,0.00003450,-0.00000872,0.00067732,-0.01131089,
 -0.01729522,0.00337865,-0.00211502,-0.00011978,-0.00006272,0.00005554,
 0.00000059,-0.00003737,0.00000591,0.00001616,0.00144917,0.01119812,0.0
 1486769,0.00721638,0.14702644,-0.00010928,0.00067585,-0.00039527,-0.00
 393021,0.00229592,0.00664020,0.00097409,0.00191494,0.00014013,-0.00001
 168,-0.00002545,-0.00007664,-0.00393952,-0.12057825,-0.22824310,-0.000
 01939,0.00002142,-0.00000137,0.00078597,0.00214097,0.00276023,0.001452
 16,-0.00403485,0.00070688,-0.00001224,0.00000059,0.00003898,-0.0000370
 9,-0.00001617,-0.00000596,0.00027037,-0.01488651,-0.02042119,0.0039269
 0,0.13234180,0.23674300,-0.00562521,-0.00525434,0.00000151,-0.00109427
 ,-0.00024149,0.00000008,-0.00013672,-0.00096743,0.00000031,-0.01694942
 ,0.01541009,-0.00000446,0.00027319,0.00022405,-0.00000006,-0.26034048,
 0.10598684,-0.00003133,-0.00005623,-0.00005425,0.00000002,0.00114113,0
 .00228091,-0.00000077,0.00033938,-0.00023718,-0.00066438,0.00033933,-0
 .00023682,0.00066450,-0.00003508,-0.00002528,0.00000664,-0.00003508,-0
 .00002528,-0.00000663,0.28325251,-0.00642861,-0.00350228,0.00000123,-0
 .00078170,-0.00026924,0.00000008,0.00020726,-0.00032398,0.00000006,-0.
 01791552,0.01285026,-0.00000446,0.00002573,0.00013077,-0.00000005,0.10
 901930,-0.10298861,0.00001706,-0.00004145,-0.00004381,0.00000001,-0.00
 056722,0.00170152,-0.00000040,0.00079658,0.00051484,-0.00057300,0.0007
 9656,0.00051509,0.00057269,-0.00001361,-0.00000832,0.00000406,-0.00001
 361,-0.00000832,-0.00000406,-0.11621491,0.10760481,0.00000169,0.000001
 19,0.00089220,0.00000020,0.00000007,-0.00000976,-0.00000007,0.00000002
 ,-0.00016444,0.00000490,-0.00000412,-0.00235613,0.,-0.00000005,-0.0000
 4213,-0.00003209,0.00001699,-0.04529028,0.00000001,0.00000001,-0.00000
 083,0.00000015,-0.00000029,0.00059012,0.00000956,-0.00000041,-0.000075
 66,-0.00001001,0.00000006,-0.00007599,0.00000471,-0.00000156,0.0000019
 2,-0.00000471,0.00000157,0.00000193,0.00003443,-0.00001858,0.04457821,
 0.00297655,0.00108823,0.00012290,0.00020025,0.00017373,0.00003459,-0.0
 0033155,0.00074716,0.00017961,0.00052357,-0.01618746,-0.02298069,-0.00
 007372,-0.00004419,0.00000704,-0.04734052,0.01206160,0.01653206,0.0000
 1557,0.00001215,-0.00000304,-0.00052198,-0.00136659,0.00001359,-0.0035
 7739,-0.00321796,0.00043633,0.00088997,0.00095107,0.00040887,0.0000145
 4,0.00000101,-0.00000806,0.00002401,0.00000994,0.00001112,-0.00052954,
 0.01557990,0.02412645,0.04873980,0.00089998,0.00146123,0.00104436,-0.0
 0028489,0.00015221,-0.00002674,-0.00036369,0.00028240,0.00018413,0.002
 76592,-0.01555300,-0.02108819,0.00009102,0.00003793,-0.00003687,0.0099
 0334,-0.13526451,-0.12452594,-0.00000824,-0.00000502,-0.00000084,0.000
 40282,-0.00053886,0.00007970,-0.00391311,-0.00185376,0.00094395,0.0006
 6624,0.00028492,0.00022601,-0.00000377,-0.00001428,0.00000015,-0.00000
 459,-0.00000721,0.00000865,-0.00033752,-0.00809818,-0.01038203,-0.0081
 9060,0.14727085,-0.00059616,0.00017871,0.00008095,-0.00015242,0.000083
 25,0.00001777,0.00003819,0.00028921,-0.00005345,-0.00003189,0.00086454
 ,0.00125937,0.00001003,0.00000594,-0.00000722,0.01507440,-0.12606242,-
 0.22659126,-0.00000084,-0.00000671,-0.00000332,-0.00002040,-0.00012841
 ,0.00002236,0.00065708,0.00027312,0.00144217,-0.00063433,0.00000782,0.
 00074185,0.00000198,-0.00000115,-0.00000044,0.00000284,0.00000458,0.00
 000414,-0.00018827,0.00207555,0.00097782,-0.01651799,0.13799976,0.2412
 0001,0.00297657,0.00108813,-0.00012345,0.00020025,0.00017372,-0.000034
 71,-0.00033161,0.00074708,-0.00018010,0.00052307,-0.01617460,0.0229897
 8,-0.00007371,-0.00004420,-0.00000702,-0.04733969,0.01205009,-0.016535
 75,0.00001557,0.00001215,0.00000304,-0.00052198,-0.00136665,-0.0000126
 8,0.00088994,0.00095084,-0.00040940,-0.00357736,-0.00321815,-0.0004346
 7,0.00002401,0.00000993,-0.00001113,0.00001454,0.00000102,0.00000806,-
 0.00052916,0.01556644,-0.02413523,-0.00100146,-0.00161614,0.00236732,0
 .04873913,0.00090044,0.00146054,-0.00104513,-0.00028480,0.00015219,0.0
 0002665,-0.00036376,0.00028217,-0.00018434,0.00276547,-0.01554159,0.02
 109776,0.00009101,0.00003795,0.00003684,0.00989266,-0.13512376,0.12447
 485,-0.00000824,-0.00000501,0.00000084,0.00040282,-0.00053892,-0.00007
 935,0.00066658,0.00028478,-0.00022573,-0.00391338,-0.00185440,-0.00094
 222,-0.00000459,-0.00000722,-0.00000864,-0.00000377,-0.00001428,-0.000
 00014,-0.00033761,-0.00809355,0.01038711,-0.00161720,0.01183301,-0.015
 58834,-0.00817888,0.14711582,0.00059566,-0.00017946,0.00008166,0.00015
 258,-0.00008332,0.00001780,-0.00003801,-0.00028940,-0.00005316,0.00003
 046,-0.00085527,0.00124838,-0.00001008,-0.00000597,-0.00000724,-0.0150
 7691,0.12601127,-0.22673212,0.00000085,0.00000671,-0.00000333,0.000020
 16,0.00012870,0.00002232,0.00063396,-0.00000751,0.00074197,-0.00065497
 ,-0.00027129,0.00144282,-0.00000283,-0.00000458,0.00000415,-0.00000197
 ,0.00000116,-0.00000044,0.00018843,-0.00207021,0.00097277,-0.00236610,
 0.01557097,-0.01909376,0.01651925,-0.13794723,0.24135517,-0.00109429,0
 .00024148,-0.00000009,-0.00562535,0.00525433,-0.00000164,-0.00013672,0
 .00096743,-0.00000031,0.00027320,-0.00022405,0.00000007,-0.01694945,-0
 .01541043,0.00000428,-0.00005623,0.00005425,-0.00000002,-0.26033821,-0
 .10598873,0.00002790,0.00114114,-0.00228092,0.00000076,-0.00003508,0.0
 0002528,0.00000663,-0.00003508,0.00002528,-0.00000664,0.00033934,0.000
 23682,-0.00066450,0.00033937,0.00023718,0.00066440,-0.00003260,-0.0000
 1459,0.,0.00000913,-0.00000782,-0.00000131,0.00000913,-0.00000782,0.00
 000131,0.28325007,0.00078169,-0.00026923,0.00000009,0.00642856,-0.0035
 0218,0.00000136,-0.00020726,-0.00032397,0.00000005,-0.00002573,0.00013
 076,-0.00000005,0.01791526,0.01285028,-0.00000421,0.00004145,-0.000043
 81,0.00000001,-0.10902124,-0.10299105,0.00001542,0.00056723,0.00170148
 ,-0.00000038,0.00001361,-0.00000832,-0.00000406,0.00001361,-0.00000832
 ,0.00000406,-0.00079657,0.00051509,0.00057266,-0.00079656,0.00051484,-
 0.00057301,0.00001459,0.00001576,0.,0.00000028,0.00000162,0.00000524,0
 .00000028,0.00000162,-0.00000524,0.11621696,0.10760748,-0.00000023,0.0
 0000008,-0.00000976,-0.00000183,0.00000131,0.00089220,0.00000007,0.000
 00004,-0.00016444,0.,-0.00000005,-0.00004213,-0.00000529,-0.00000452,-
 0.00235611,-0.00000001,0.00000001,-0.00000083,0.00002867,0.00001539,-0
 .04529025,-0.00000015,-0.00000033,0.00059013,0.00000471,0.00000157,0.0
 0000193,-0.00000471,-0.00000156,0.00000192,0.00001002,0.00000006,-0.00
 007601,-0.00000953,-0.00000040,-0.00007564,0.,0.,-0.00000101,0.0000009
 8,0.00000014,0.00000063,-0.00000098,-0.00000014,0.00000063,-0.00003061
 ,-0.00001674,0.04457816,0.00020026,-0.00017372,0.00003471,0.00297663,-
 0.00108812,0.00012351,-0.00033161,-0.00074708,0.00018010,-0.00007371,0
 .00004420,0.00000702,0.00052338,0.01617461,-0.02299010,0.00001557,-0.0
 0001215,-0.00000304,-0.04734012,-0.01205159,0.01653808,-0.00052199,0.0
 0136666,0.00001268,0.00001454,-0.00000102,-0.00000806,0.00002401,-0.00
 000993,0.00001113,-0.00357746,0.00321816,0.00043455,0.00088996,-0.0009
 5084,0.00040942,0.00000913,-0.00000028,0.00000098,-0.00000524,0.000003
 45,-0.00000295,-0.00001201,-0.00000238,0.00000529,-0.00052943,-0.01556
 614,0.02413517,0.04873958,0.00028480,0.00015220,0.00002665,-0.00090042
 ,0.00146053,-0.00104516,0.00036375,0.00028216,-0.00018433,-0.00009101,
 0.00003795,0.00003684,-0.00276571,-0.01554130,0.02109756,0.00000824,-0
 .00000501,0.00000084,-0.00989415,-0.13512257,0.12447433,-0.00040281,-0
 .00053891,-0.00007935,0.00000377,-0.00001428,-0.00000014,0.00000459,-0
 .00000722,-0.00000864,0.00391338,-0.00185435,-0.00094212,-0.00066658,0
 .00028476,-0.00022574,0.00000782,0.00000162,-0.00000014,-0.00000345,0.
 00000221,-0.00000174,0.00000238,0.00000844,-0.00000106,0.00033752,-0.0
 0809364,0.01038740,0.00818050,0.14711439,-0.00015258,-0.00008333,0.000
 01780,-0.00059561,-0.00017950,0.00008167,0.00003800,-0.00028942,-0.000
 05316,0.00001008,-0.00000597,-0.00000724,-0.00003042,-0.00085484,0.001
 24778,-0.00000085,0.00000671,-0.00000333,0.01507922,0.12601066,-0.2267
 3290,-0.00002017,0.00012873,0.00002232,0.00000197,0.00000116,-0.000000
 44,0.00000284,-0.00000458,0.00000415,0.00065484,-0.00027119,0.00144285
 ,-0.00063395,-0.00000753,0.00074196,-0.00000131,-0.00000524,0.00000063
 ,-0.00000294,0.00000173,-0.00000547,-0.00000529,-0.00000106,0.00000784
 ,-0.00018845,-0.00207049,0.00097321,-0.01652167,-0.13794669,0.24135613
 ,0.00020024,-0.00017373,-0.00003459,0.00297656,-0.00108821,-0.00012287
 ,-0.00033156,-0.00074717,-0.00017962,-0.00007371,0.00004419,-0.0000070
 4,0.00052304,0.01618772,0.02298077,0.00001557,-0.00001215,0.00000304,-
 0.04733973,-0.01205818,-0.01652694,-0.00052198,0.00136659,-0.00001360,
 0.00002401,-0.00000994,-0.00001112,0.00001454,-0.00000101,0.00000806,0
 .00088999,-0.00095108,-0.00040886,-0.00357742,0.00321793,-0.00043645,0
 .00000913,-0.00000028,-0.00000098,-0.00001201,-0.00000239,-0.00000529,
 -0.00000524,0.00000345,0.00000294,-0.00052893,-0.01558001,-0.02412628,
 -0.00100148,0.00161738,0.00236627,0.04873898,0.00028490,0.00015222,-0.
 00002674,-0.00089997,0.00146121,0.00104433,0.00036369,0.00028240,0.000
 18414,-0.00009102,0.00003793,-0.00003687,-0.00276536,-0.01555300,-0.02
 108785,0.00000824,-0.00000502,-0.00000084,-0.00990000,-0.13526616,-0.1
 2452665,-0.00040282,-0.00053887,0.00007969,0.00000459,-0.00000721,0.00
 000865,0.00000377,-0.00001428,0.00000015,-0.00066624,0.00028491,0.0002
 2599,0.00391308,-0.00185368,0.00094403,0.00000782,0.00000162,0.0000001
 4,0.00000239,0.00000844,0.00000106,-0.00000345,0.00000221,0.00000173,0
 .00033780,-0.00809841,-0.01038225,0.00161568,0.01183303,0.01557084,0.0
 0818690,0.14727265,0.00015243,0.00008325,0.00001777,0.00059624,0.00017
 868,0.00008095,-0.00003820,0.00028919,-0.00005345,-0.00001003,0.000005
 94,-0.00000722,0.00003187,0.00086497,0.00125997,0.00000084,-0.00000671
 ,-0.00000332,-0.01506934,-0.12606315,-0.22658989,0.00002038,-0.0001283
 8,0.00002236,-0.00000284,0.00000458,0.00000414,-0.00000198,-0.00000115
 ,-0.00000044,0.00063434,0.00000781,0.00074186,-0.00065720,0.00027321,0
 .00144215,0.00000131,0.00000524,0.00000063,0.00000528,0.00000106,0.000
 00784,0.00000295,-0.00000174,-0.00000547,0.00018822,0.00207528,0.00097
 739,-0.00236681,-0.01558852,-0.01909381,0.01651254,0.13800044,0.241198
 56\\-0.00009739,0.00004617,0.00000031,0.00009976,0.00004659,0.00000029
 ,0.00000047,-0.00000443,0.00000001,0.00006206,-0.00011924,-0.00000034,
 -0.00006426,-0.00012039,-0.00000030,0.00001146,-0.00006017,-0.00000017
 ,-0.00001123,-0.00006004,0.00000009,-0.00000123,0.00001887,-0.00000041
 ,-0.00000065,0.00002810,0.00000292,-0.00000064,0.00002808,-0.00000265,
 0.00000086,0.00002828,-0.00000275,0.00000089,0.00002834,0.00000296,-0.
 00001943,0.00000672,0.00000012,0.00000108,0.00003163,0.00000031,0.0000
 0111,0.00003162,-0.00000029,0.00001934,0.00000679,0.00000001,-0.000001
 21,0.00003154,-0.00000037,-0.00000101,0.00003154,0.00000024\\\@


 One man practicing sportsmanship is far better than 50 preaching it.
 -- Knute K. Rockne
 Job cpu time:       0 days  1 hours 12 minutes 57.1 seconds.
 Elapsed time:       0 days  0 hours  4 minutes 36.5 seconds.
 File lengths (MBytes):  RWF=    105 Int=      0 D2E=      0 Chk=      6 Scr=      1
 Normal termination of Gaussian 16 at Wed Oct  1 19:05:39 2025.
