 Entering Gaussian System, Link 0=g16
 Input=DIET0031.gjf
 Output=DIET0031.log
 Initial command:
 /usr/local/g16/l1.exe "/dados_01/scratch/Gau-2398745.inp" -scrdir="/dados_01/scratch/"
 Entering Link 1 = /usr/local/g16/l1.exe PID=   2398746.
  
 Copyright (c) 1988-2017, Gaussian, Inc.  All Rights Reserved.
  
 This is part of the Gaussian(R) 16 program.  It is based on
 the Gaussian(R) 09 system (copyright 2009, Gaussian, Inc.),
 the Gaussian(R) 03 system (copyright 2003, Gaussian, Inc.),
 the Gaussian(R) 98 system (copyright 1998, Gaussian, Inc.),
 the Gaussian(R) 94 system (copyright 1995, Gaussian, Inc.),
 the Gaussian 92(TM) system (copyright 1992, Gaussian, Inc.),
 the Gaussian 90(TM) system (copyright 1990, Gaussian, Inc.),
 the Gaussian 88(TM) system (copyright 1988, Gaussian, Inc.),
 the Gaussian 86(TM) system (copyright 1986, Carnegie Mellon
 University), and the Gaussian 82(TM) system (copyright 1983,
 Carnegie Mellon University). Gaussian is a federally registered
 trademark of Gaussian, Inc.
  
 This software contains proprietary and confidential information,
 including trade secrets, belonging to Gaussian, Inc.
  
 This software is provided under written license and may be
 used, copied, transmitted, or stored only in accord with that
 written license.
  
 The following legend is applicable only to US Government
 contracts under FAR:
  
                    RESTRICTED RIGHTS LEGEND
  
 Use, reproduction and disclosure by the US Government is
 subject to restrictions as set forth in subparagraphs (a)
 and (c) of the Commercial Computer Software - Restricted
 Rights clause in FAR 52.227-19.
  
 Gaussian, Inc.
 340 Quinnipiac St., Bldg. 40, Wallingford CT 06492
  
  
 ---------------------------------------------------------------
 Warning -- This program may not be used in any manner that
 competes with the business of Gaussian, Inc. or will provide
 assistance to any competitor of Gaussian, Inc.  The licensee
 of this program is prohibited from giving any competitor of
 Gaussian, Inc. access to this program.  By using this program,
 the user acknowledges that Gaussian, Inc. is engaged in the
 business of creating and licensing software in the field of
 computational chemistry and represents and warrants to the
 licensee that it is not a competitor of Gaussian, Inc. and that
 it will not use this program in any manner prohibited above.
 ---------------------------------------------------------------
  

 Cite this work as:
 Gaussian 16, Revision B.01,
 M. J. Frisch, G. W. Trucks, H. B. Schlegel, G. E. Scuseria, 
 M. A. Robb, J. R. Cheeseman, G. Scalmani, V. Barone, 
 G. A. Petersson, H. Nakatsuji, X. Li, M. Caricato, A. V. Marenich, 
 J. Bloino, B. G. Janesko, R. Gomperts, B. Mennucci, H. P. Hratchian, 
 J. V. Ortiz, A. F. Izmaylov, J. L. Sonnenberg, D. Williams-Young, 
 F. Ding, F. Lipparini, F. Egidi, J. Goings, B. Peng, A. Petrone, 
 T. Henderson, D. Ranasinghe, V. G. Zakrzewski, J. Gao, N. Rega, 
 G. Zheng, W. Liang, M. Hada, M. Ehara, K. Toyota, R. Fukuda, 
 J. Hasegawa, M. Ishida, T. Nakajima, Y. Honda, O. Kitao, H. Nakai, 
 T. Vreven, K. Throssell, J. A. Montgomery, Jr., J. E. Peralta, 
 F. Ogliaro, M. J. Bearpark, J. J. Heyd, E. N. Brothers, K. N. Kudin, 
 V. N. Staroverov, T. A. Keith, R. Kobayashi, J. Normand, 
 K. Raghavachari, A. P. Rendell, J. C. Burant, S. S. Iyengar, 
 J. Tomasi, M. Cossi, J. M. Millam, M. Klene, C. Adamo, R. Cammi, 
 J. W. Ochterski, R. L. Martin, K. Morokuma, O. Farkas, 
 J. B. Foresman, and D. J. Fox, Gaussian, Inc., Wallingford CT, 2016.
 
 ******************************************
 Gaussian 16:  ES64L-G16RevB.01 20-Dec-2017
                 1-Oct-2025 
 ******************************************
 %nprocs=16
 Will use up to   16 processors via shared memory.
 %mem=40GB
 %chk=DIET0031.chk
 ----------------------------------------------------------------------
 # opt freq=noraman M08HX/6-311++G** scf=xqc Empiricaldispersion=pfd In
 t(Grid=ultraFine)
 ----------------------------------------------------------------------
 1/18=20,19=15,26=4,38=1/1,3;
 2/9=110,12=2,17=6,18=5,40=1/2;
 3/5=4,6=6,7=1111,11=2,25=1,30=1,71=1,74=-74,75=-5,124=11/1,2,3;
 4//1;
 5/5=2,8=3,13=1,38=5/2,8;
 6/7=2,8=2,9=2,10=2,28=1/1;
 7//1,2,3,16;
 1/18=20,19=15,26=4/3(2);
 2/9=110/2;
 99//99;
 2/9=110/2;
 3/5=4,6=6,7=1111,11=2,25=1,30=1,71=1,74=-74,75=-5,124=11/1,2,3;
 4/5=5,16=3,69=1/1;
 5/5=2,8=3,13=1,38=5/2,8;
 7//1,2,3,16;
 1/18=20,19=15,26=4/3(-5);
 2/9=110/2;
 6/7=2,8=2,9=2,10=2,19=2,28=1/1;
 99/9=1/99;
 --------
 DIET0031
 --------
 Symbolic Z-matrix:
 Charge =  0 Multiplicity = 1
 O                     0.0008   -0.2762    0. 
 C                     1.1747    0.5222    0. 
 C                    -1.1754    0.5226    0. 
 C                     2.3873   -0.384     0. 
 C                    -2.3874   -0.3844    0. 
 H                     1.1905    1.159    -0.8916 
 H                     1.1905    1.1588    0.8916 
 H                    -1.1909    1.159     0.8918 
 H                    -1.1908    1.159    -0.8918 
 H                     3.3119    0.2       0. 
 H                     2.3814   -1.0362    0.8796 
 H                     2.3815   -1.0362   -0.8796 
 H                    -3.3125    0.1989    0.0001 
 H                    -2.381    -1.0366   -0.8796 
 H                    -2.3811   -1.0366    0.8796 
 

 GradGradGradGradGradGradGradGradGradGradGradGradGradGradGradGradGradGrad
 Berny optimization.
 Initialization pass.
                           ----------------------------
                           !    Initial Parameters    !
                           ! (Angstroms and Degrees)  !
 --------------------------                            --------------------------
 ! Name  Definition              Value          Derivative Info.                !
 --------------------------------------------------------------------------------
 ! R1    R(1,2)                  1.4197         estimate D2E/DX2                !
 ! R2    R(1,3)                  1.4218         estimate D2E/DX2                !
 ! R3    R(2,4)                  1.5138         estimate D2E/DX2                !
 ! R4    R(2,6)                  1.0958         estimate D2E/DX2                !
 ! R5    R(2,7)                  1.0957         estimate D2E/DX2                !
 ! R6    R(3,5)                  1.5138         estimate D2E/DX2                !
 ! R7    R(3,8)                  1.0957         estimate D2E/DX2                !
 ! R8    R(3,9)                  1.0957         estimate D2E/DX2                !
 ! R9    R(4,10)                 1.0936         estimate D2E/DX2                !
 ! R10   R(4,11)                 1.095          estimate D2E/DX2                !
 ! R11   R(4,12)                 1.095          estimate D2E/DX2                !
 ! R12   R(5,13)                 1.0936         estimate D2E/DX2                !
 ! R13   R(5,14)                 1.095          estimate D2E/DX2                !
 ! R14   R(5,15)                 1.095          estimate D2E/DX2                !
 ! A1    A(2,1,3)              111.5975         estimate D2E/DX2                !
 ! A2    A(1,2,4)              109.0079         estimate D2E/DX2                !
 ! A3    A(1,2,6)              109.8005         estimate D2E/DX2                !
 ! A4    A(1,2,7)              109.7965         estimate D2E/DX2                !
 ! A5    A(4,2,6)              109.6539         estimate D2E/DX2                !
 ! A6    A(4,2,7)              109.6494         estimate D2E/DX2                !
 ! A7    A(6,2,7)              108.9213         estimate D2E/DX2                !
 ! A8    A(1,3,5)              109.0088         estimate D2E/DX2                !
 ! A9    A(1,3,8)              109.7562         estimate D2E/DX2                !
 ! A10   A(1,3,9)              109.7516         estimate D2E/DX2                !
 ! A11   A(5,3,8)              109.6743         estimate D2E/DX2                !
 ! A12   A(5,3,9)              109.6788         estimate D2E/DX2                !
 ! A13   A(8,3,9)              108.9597         estimate D2E/DX2                !
 ! A14   A(2,4,10)             110.951          estimate D2E/DX2                !
 ! A15   A(2,4,11)             110.6234         estimate D2E/DX2                !
 ! A16   A(2,4,12)             110.6279         estimate D2E/DX2                !
 ! A17   A(10,4,11)            108.8213         estimate D2E/DX2                !
 ! A18   A(10,4,12)            108.8166         estimate D2E/DX2                !
 ! A19   A(11,4,12)            106.8859         estimate D2E/DX2                !
 ! A20   A(3,5,13)             110.9581         estimate D2E/DX2                !
 ! A21   A(3,5,14)             110.6204         estimate D2E/DX2                !
 ! A22   A(3,5,15)             110.6249         estimate D2E/DX2                !
 ! A23   A(13,5,14)            108.8253         estimate D2E/DX2                !
 ! A24   A(13,5,15)            108.8117         estimate D2E/DX2                !
 ! A25   A(14,5,15)            106.8855         estimate D2E/DX2                !
 ! D1    D(3,1,2,4)            180.0            estimate D2E/DX2                !
 ! D2    D(3,1,2,6)            -59.8602         estimate D2E/DX2                !
 ! D3    D(3,1,2,7)             59.8681         estimate D2E/DX2                !
 ! D4    D(2,1,3,5)            180.0            estimate D2E/DX2                !
 ! D5    D(2,1,3,8)            -59.8615         estimate D2E/DX2                !
 ! D6    D(2,1,3,9)             59.8588         estimate D2E/DX2                !
 ! D7    D(1,2,4,10)           180.0            estimate D2E/DX2                !
 ! D8    D(1,2,4,11)           -59.1224         estimate D2E/DX2                !
 ! D9    D(1,2,4,12)            59.1253         estimate D2E/DX2                !
 ! D10   D(6,2,4,10)            59.7698         estimate D2E/DX2                !
 ! D11   D(6,2,4,11)          -179.3526         estimate D2E/DX2                !
 ! D12   D(6,2,4,12)           -61.105          estimate D2E/DX2                !
 ! D13   D(7,2,4,10)           -59.7774         estimate D2E/DX2                !
 ! D14   D(7,2,4,11)            61.1002         estimate D2E/DX2                !
 ! D15   D(7,2,4,12)           179.3478         estimate D2E/DX2                !
 ! D16   D(1,3,5,13)           179.9944         estimate D2E/DX2                !
 ! D17   D(1,3,5,14)           -59.1202         estimate D2E/DX2                !
 ! D18   D(1,3,5,15)            59.1231         estimate D2E/DX2                !
 ! D19   D(8,3,5,13)            59.8054         estimate D2E/DX2                !
 ! D20   D(8,3,5,14)          -179.3092         estimate D2E/DX2                !
 ! D21   D(8,3,5,15)           -61.0659         estimate D2E/DX2                !
 ! D22   D(9,3,5,13)           -59.8195         estimate D2E/DX2                !
 ! D23   D(9,3,5,14)            61.0659         estimate D2E/DX2                !
 ! D24   D(9,3,5,15)           179.3092         estimate D2E/DX2                !
 --------------------------------------------------------------------------------
 Trust Radius=3.00D-01 FncErr=1.00D-07 GrdErr=1.00D-06 EigMax=2.50D+02 EigMin=1.00D-04
 Number of steps in this run=     73 maximum allowed number of steps=    100.
 GradGradGradGradGradGradGradGradGradGradGradGradGradGradGradGradGradGrad

                          Input orientation:                          
 ---------------------------------------------------------------------
 Center     Atomic      Atomic             Coordinates (Angstroms)
 Number     Number       Type             X           Y           Z
 ---------------------------------------------------------------------
      1          8           0        0.000800   -0.276200    0.000000
      2          6           0        1.174700    0.522200    0.000000
      3          6           0       -1.175400    0.522600    0.000000
      4          6           0        2.387300   -0.384000    0.000000
      5          6           0       -2.387400   -0.384400    0.000000
      6          1           0        1.190500    1.159000   -0.891600
      7          1           0        1.190500    1.158800    0.891600
      8          1           0       -1.190900    1.159000    0.891800
      9          1           0       -1.190800    1.159000   -0.891800
     10          1           0        3.311900    0.200000    0.000000
     11          1           0        2.381400   -1.036200    0.879600
     12          1           0        2.381500   -1.036200   -0.879600
     13          1           0       -3.312500    0.198900    0.000100
     14          1           0       -2.381000   -1.036600   -0.879600
     15          1           0       -2.381100   -1.036600    0.879600
 ---------------------------------------------------------------------
                    Distance matrix (angstroms):
                    1          2          3          4          5
     1  O    0.000000
     2  C    1.419677   0.000000
     3  C    1.421804   2.350100   0.000000
     4  C    2.388933   1.513802   3.676242   0.000000
     5  C    2.390650   3.675660   1.513801   4.774700   0.000000
     6  H    2.066431   1.095771   2.607190   2.146655   3.997299
     7  H    2.066292   1.095655   2.607141   2.146512   3.997222
     8  H    2.067669   2.607084   1.095697   3.997458   2.146859
     9  H    2.067611   2.606993   1.095696   3.997369   2.146915
    10  H    3.345168   2.161351   4.498881   1.093591   5.729184
    11  H    2.649255   2.158340   3.981756   1.095032   4.892851
    12  H    2.649345   2.158396   3.981845   1.095032   4.892949
    13  H    3.347189   4.498832   2.161476   5.729528   1.093640
    14  H    2.650448   3.980773   2.158303   4.892471   1.095035
    15  H    2.650538   3.980863   2.158359   4.892568   1.095035
                    6          7          8          9         10
     6  H    0.000000
     7  H    1.783200   0.000000
     8  H    2.975161   2.381400   0.000000
     9  H    2.381300   2.975081   1.783600   0.000000
    10  H    2.492984   2.492907   4.689371   4.689275   0.000000
    11  H    3.061747   2.497281   4.192896   4.551634   1.779808
    12  H    2.497504   3.061643   4.551791   4.192896   1.779756
    13  H    4.689769   4.689690   2.493613   2.493770   6.624400
    14  H    4.192424   4.551103   3.061839   2.497476   5.891688
    15  H    4.551278   4.192404   2.497476   3.061916   5.891785
                   11         12         13         14         15
    11  H    0.000000
    12  H    1.759200   0.000000
    13  H    5.892325   5.892451   0.000000
    14  H    5.076932   4.762500   1.779895   0.000000
    15  H    4.762500   5.077120   1.779743   1.759200   0.000000
 Stoichiometry    C4H10O
 Framework group  C1[X(C4H10O)]
 Deg. of freedom    39
 Full point group                 C1      NOp   1
 Largest Abelian subgroup         C1      NOp   1
 Largest concise Abelian subgroup C1      NOp   1
                         Standard orientation:                         
 ---------------------------------------------------------------------
 Center     Atomic      Atomic             Coordinates (Angstroms)
 Number     Number       Type             X           Y           Z
 ---------------------------------------------------------------------
      1          8           0       -0.000767   -0.284245    0.000002
      2          6           0       -1.174685    0.514128    0.000002
      3          6           0        1.175415    0.514581    0.000002
      4          6           0       -2.387265   -0.392099    0.000002
      5          6           0        2.387435   -0.392391    0.000002
      6          1           0       -1.190500    1.150928    0.891602
      7          1           0       -1.190500    1.150728   -0.891598
      8          1           0        1.190900    1.150982   -0.891798
      9          1           0        1.190800    1.150982    0.891802
     10          1           0       -3.311878    0.191880    0.000002
     11          1           0       -2.381350   -1.044299   -0.879598
     12          1           0       -2.381450   -1.044299    0.879602
     13          1           0        3.312522    0.190930   -0.000098
     14          1           0        2.381050   -1.044591    0.879602
     15          1           0        2.381150   -1.044591   -0.879598
 ---------------------------------------------------------------------
 Rotational constants (GHZ):          18.4033076           2.2269679           2.0905162
 Standard basis: 6-311++G(d,p) (5D, 7F)
 There are   185 symmetry adapted cartesian basis functions of A   symmetry.
 There are   180 symmetry adapted basis functions of A   symmetry.
   180 basis functions,   270 primitive gaussians,   185 cartesian basis functions
    21 alpha electrons       21 beta electrons
       nuclear repulsion energy       189.7085249712 Hartrees.
 NAtoms=   15 NActive=   15 NUniq=   15 SFac= 1.00D+00 NAtFMM=   60 NAOKFM=F Big=F
 Integral buffers will be    131072 words long.
 Raffenetti 2 integral format.
 Two-electron integral symmetry is turned on.
 R6APFD:  NTU= -4 IXU= 1 FactS= 1.050
 Nuclear repulsion after empirical dispersion term =      189.7028956387 Hartrees.
 One-electron integrals computed using PRISM.
 NBasis=   180 RedAO= T EigKep=  3.71D-05  NBF=   180
 NBsUse=   180 1.00D-06 EigRej= -1.00D+00 NBFU=   180
 ExpMin= 3.60D-02 ExpMax= 8.59D+03 ExpMxC= 1.30D+03 IAcc=3 IRadAn=         5 AccDes= 0.00D+00
 Harris functional with IExCor= 1009 and IRadAn=       5 diagonalized for initial guess.
 HarFok:  IExCor= 1009 AccDes= 0.00D+00 IRadAn=         5 IDoV= 1 UseB2=F ITyADJ=14
 ICtDFT=  3500011 ScaDFX=  1.000000  1.000000  1.000000  1.000000
 FoFCou: FMM=F IPFlag=           0 FMFlag=      100000 FMFlg1=           0
         NFxFlg=           0 DoJE=T BraDBF=F KetDBF=T FulRan=T
         wScrn=  0.000000 ICntrl=       500 IOpCl=  0 I1Cent=   200000004 NGrid=           0
         NMat0=    1 NMatS0=      1 NMatT0=    0 NMatD0=    1 NMtDS0=    0 NMtDT0=    0
 Petite list used in FoFCou.
 Requested convergence on RMS density matrix=1.00D-08 within  32 cycles.
 Requested convergence on MAX density matrix=1.00D-06.
 Requested convergence on             energy=1.00D-06.
 No special actions if energy rises.
 SCF Done:  E(RM08HX) =  -233.660645119     A.U. after   11 cycles
            NFock= 11  Conv=0.43D-08     -V/T= 2.0050
 QCSCF skips out because SCF is already converged.

 **********************************************************************

            Population analysis using the SCF Density.

 **********************************************************************

 Orbital symmetries:
       Occupied  (A) (A) (A) (A) (A) (A) (A) (A) (A) (A) (A) (A)
                 (A) (A) (A) (A) (A) (A) (A) (A) (A)
       Virtual   (A) (A) (A) (A) (A) (A) (A) (A) (A) (A) (A) (A)
                 (A) (A) (A) (A) (A) (A) (A) (A) (A) (A) (A) (A)
                 (A) (A) (A) (A) (A) (A) (A) (A) (A) (A) (A) (A)
                 (A) (A) (A) (A) (A) (A) (A) (A) (A) (A) (A) (A)
                 (A) (A) (A) (A) (A) (A) (A) (A) (A) (A) (A) (A)
                 (A) (A) (A) (A) (A) (A) (A) (A) (A) (A) (A) (A)
                 (A) (A) (A) (A) (A) (A) (A) (A) (A) (A) (A) (A)
                 (A) (A) (A) (A) (A) (A) (A) (A) (A) (A) (A) (A)
                 (A) (A) (A) (A) (A) (A) (A) (A) (A) (A) (A) (A)
                 (A) (A) (A) (A) (A) (A) (A) (A) (A) (A) (A) (A)
                 (A) (A) (A) (A) (A) (A) (A) (A) (A) (A) (A) (A)
                 (A) (A) (A) (A) (A) (A) (A) (A) (A) (A) (A) (A)
                 (A) (A) (A) (A) (A) (A) (A) (A) (A) (A) (A) (A)
                 (A) (A) (A)
 The electronic state is 1-A.
 Alpha  occ. eigenvalues --  -19.60837 -10.57201 -10.57175 -10.51476 -10.51459
 Alpha  occ. eigenvalues --   -1.15224  -0.88121  -0.82560  -0.70829  -0.69295
 Alpha  occ. eigenvalues --   -0.57082  -0.56974  -0.51382  -0.50657  -0.46469
 Alpha  occ. eigenvalues --   -0.43951  -0.43886  -0.41820  -0.40574  -0.38979
 Alpha  occ. eigenvalues --   -0.33220
 Alpha virt. eigenvalues --   -0.02582  -0.01259  -0.00658  -0.00466   0.01439
 Alpha virt. eigenvalues --    0.01631   0.02128   0.03135   0.04316   0.04718
 Alpha virt. eigenvalues --    0.05707   0.06389   0.07793   0.07813   0.09139
 Alpha virt. eigenvalues --    0.10610   0.11178   0.11441   0.11988   0.12418
 Alpha virt. eigenvalues --    0.12956   0.14248   0.14753   0.16096   0.17021
 Alpha virt. eigenvalues --    0.18508   0.18850   0.19214   0.21822   0.22564
 Alpha virt. eigenvalues --    0.22953   0.22963   0.24127   0.25203   0.27211
 Alpha virt. eigenvalues --    0.28100   0.28902   0.29614   0.32704   0.33627
 Alpha virt. eigenvalues --    0.33738   0.35719   0.38606   0.41283   0.45289
 Alpha virt. eigenvalues --    0.46687   0.46913   0.50627   0.50906   0.54180
 Alpha virt. eigenvalues --    0.54633   0.62174   0.62942   0.65839   0.67650
 Alpha virt. eigenvalues --    0.68037   0.68721   0.68938   0.69713   0.70241
 Alpha virt. eigenvalues --    0.70479   0.71345   0.73305   0.74559   0.75873
 Alpha virt. eigenvalues --    0.80082   0.88909   0.91893   1.00284   1.00422
 Alpha virt. eigenvalues --    1.04553   1.06184   1.09246   1.12534   1.25983
 Alpha virt. eigenvalues --    1.26674   1.30066   1.30479   1.30820   1.43806
 Alpha virt. eigenvalues --    1.49546   1.50015   1.55058   1.55819   1.56206
 Alpha virt. eigenvalues --    1.58850   1.61250   1.61397   1.63337   1.63465
 Alpha virt. eigenvalues --    1.63978   1.67115   1.68794   1.70338   1.71917
 Alpha virt. eigenvalues --    1.75388   1.77293   1.78520   1.80274   1.84573
 Alpha virt. eigenvalues --    1.88070   1.92192   2.01409   2.01661   2.04041
 Alpha virt. eigenvalues --    2.11794   2.15283   2.17669   2.21638   2.24583
 Alpha virt. eigenvalues --    2.29487   2.31231   2.35837   2.40082   2.45654
 Alpha virt. eigenvalues --    2.46985   2.49259   2.50624   2.51871   2.55275
 Alpha virt. eigenvalues --    2.56247   2.57040   2.57903   2.63600   2.63903
 Alpha virt. eigenvalues --    2.64607   2.66166   2.66986   2.67078   2.69865
 Alpha virt. eigenvalues --    2.78795   2.82037   2.87186   2.93913   3.00437
 Alpha virt. eigenvalues --    3.07251   3.18722   3.25062   3.29852   3.38635
 Alpha virt. eigenvalues --    3.38857   3.81858   3.82367   3.85111   3.85539
 Alpha virt. eigenvalues --    3.86178   3.88289   4.05076   4.18154   4.27898
 Alpha virt. eigenvalues --    4.36816   5.22064   5.51876   5.80925  23.91941
 Alpha virt. eigenvalues --   23.92061  24.02865  24.04305  49.95082
          Condensed to atoms (all electrons):
               1          2          3          4          5          6
     1  O    8.224279   0.115368   0.115703  -0.091872  -0.091204  -0.063602
     2  C    0.115368   5.659966  -0.275095  -0.000709   0.005428   0.414606
     3  C    0.115703  -0.275095   5.661734   0.005212  -0.002175  -0.002571
     4  C   -0.091872  -0.000709   0.005212   5.791829  -0.047698  -0.055112
     5  C   -0.091204   0.005428  -0.002175  -0.047698   5.792076   0.002698
     6  H   -0.063602   0.414606  -0.002571  -0.055112   0.002698   0.621528
     7  H   -0.063614   0.414603  -0.002585  -0.055122   0.002699  -0.099919
     8  H   -0.063431  -0.002488   0.414371   0.002708  -0.055025  -0.013267
     9  H   -0.063446  -0.002520   0.414410   0.002703  -0.054999   0.022686
    10  H    0.024436  -0.061746  -0.002967   0.417622   0.000086  -0.005821
    11  H   -0.009337  -0.033268   0.000862   0.392840   0.001219   0.013781
    12  H   -0.009334  -0.033287   0.000862   0.392855   0.001219  -0.018983
    13  H    0.024360  -0.002919  -0.061559   0.000065   0.417441   0.000486
    14  H   -0.009335   0.000815  -0.033303   0.001232   0.392877  -0.001384
    15  H   -0.009342   0.000811  -0.033307   0.001231   0.392899   0.001220
               7          8          9         10         11         12
     1  O   -0.063614  -0.063431  -0.063446   0.024436  -0.009337  -0.009334
     2  C    0.414603  -0.002488  -0.002520  -0.061746  -0.033268  -0.033287
     3  C   -0.002585   0.414371   0.414410  -0.002967   0.000862   0.000862
     4  C   -0.055122   0.002708   0.002703   0.417622   0.392840   0.392855
     5  C    0.002699  -0.055025  -0.054999   0.000086   0.001219   0.001219
     6  H   -0.099919  -0.013267   0.022686  -0.005821   0.013781  -0.018983
     7  H    0.621507   0.022683  -0.013265  -0.005822  -0.018989   0.013783
     8  H    0.022683   0.620588  -0.099438   0.000488  -0.001388   0.001220
     9  H   -0.013265  -0.099438   0.620559   0.000488   0.001219  -0.001388
    10  H   -0.005822   0.000488   0.000488   0.527261  -0.037665  -0.037673
    11  H   -0.018989  -0.001388   0.001219  -0.037665   0.528129  -0.048542
    12  H    0.013783   0.001220  -0.001388  -0.037673  -0.048542   0.528127
    13  H    0.000486  -0.005818  -0.005819   0.000125  -0.000026  -0.000026
    14  H    0.001220   0.013730  -0.018912  -0.000026   0.000005  -0.000323
    15  H   -0.001385  -0.018912   0.013726  -0.000026  -0.000323   0.000005
              13         14         15
     1  O    0.024360  -0.009335  -0.009342
     2  C   -0.002919   0.000815   0.000811
     3  C   -0.061559  -0.033303  -0.033307
     4  C    0.000065   0.001232   0.001231
     5  C    0.417441   0.392877   0.392899
     6  H    0.000486  -0.001384   0.001220
     7  H    0.000486   0.001220  -0.001385
     8  H   -0.005818   0.013730  -0.018912
     9  H   -0.005819  -0.018912   0.013726
    10  H    0.000125  -0.000026  -0.000026
    11  H   -0.000026   0.000005  -0.000323
    12  H   -0.000026  -0.000323   0.000005
    13  H    0.527144  -0.037627  -0.037659
    14  H   -0.037627   0.527935  -0.048495
    15  H   -0.037659  -0.048495   0.527937
 Mulliken charges:
               1
     1  O   -0.029628
     2  C   -0.199566
     3  C   -0.199591
     4  C   -0.757783
     5  C   -0.757542
     6  H    0.183655
     7  H    0.183719
     8  H    0.183980
     9  H    0.183995
    10  H    0.181240
    11  H    0.211481
    12  H    0.211485
    13  H    0.181346
    14  H    0.211592
    15  H    0.211619
 Sum of Mulliken charges =  -0.00000
 Mulliken charges with hydrogens summed into heavy atoms:
               1
     1  O   -0.029628
     2  C    0.167807
     3  C    0.168383
     4  C   -0.153577
     5  C   -0.152985
 Electronic spatial extent (au):  <R**2>=            633.7183
 Charge=             -0.0000 electrons
 Dipole moment (field-independent basis, Debye):
    X=              0.0082    Y=              1.2924    Z=             -0.0001  Tot=              1.2924
 Quadrupole moment (field-independent basis, Debye-Ang):
   XX=            -30.7812   YY=            -34.3462   ZZ=            -33.4618
   XY=              0.0027   XZ=             -0.0005   YZ=             -0.0000
 Traceless Quadrupole moment (field-independent basis, Debye-Ang):
   XX=              2.0819   YY=             -1.4831   ZZ=             -0.5988
   XY=              0.0027   XZ=             -0.0005   YZ=             -0.0000
 Octapole moment (field-independent basis, Debye-Ang**2):
  XXX=              0.0478  YYY=             -1.4083  ZZZ=             -0.0004  XYY=              0.0103
  XXY=              1.0893  XXZ=             -0.0015  XZZ=              0.0081  YZZ=             -0.5075
  YYZ=              0.0001  XYZ=             -0.0001
 Hexadecapole moment (field-independent basis, Debye-Ang**3):
 XXXX=           -705.7228 YYYY=           -116.6898 ZZZZ=            -64.7500 XXXY=             -0.0019
 XXXZ=             -0.0071 YYYX=              0.0056 YYYZ=             -0.0005 ZZZX=              0.0015
 ZZZY=             -0.0008 XXYY=           -136.4508 XXZZ=           -131.0445 YYZZ=            -27.0623
 XXYZ=             -0.0007 YYXZ=              0.0002 ZZXY=              0.0070
 N-N= 1.897028956387D+02 E-N=-9.233649232778D+02  KE= 2.325056356739D+02
 R6APFD:  NTU= -4 IXU= 1 FactS= 1.050
 Calling FoFJK, ICntrl=      2127 FMM=F ISym2X=0 I1Cent= 0 IOpClX= 0 NMat=1 NMatS=1 NMatT=0.
 ***** Axes restored to original set *****
 -------------------------------------------------------------------
 Center     Atomic                   Forces (Hartrees/Bohr)
 Number     Number              X              Y              Z
 -------------------------------------------------------------------
      1        8          -0.000933268    0.008130202   -0.000002031
      2        6          -0.002723011   -0.010382375   -0.000047505
      3        6           0.003580738   -0.010961880    0.000004375
      4        6          -0.000613919   -0.005972688   -0.000005711
      5        6           0.000605804   -0.005990799    0.000003208
      6        1          -0.001851545    0.005160142   -0.003165342
      7        1          -0.001849504    0.005209558    0.003220769
      8        1           0.001883250    0.005149400    0.003139212
      9        1           0.001871651    0.005148800   -0.003138665
     10        1           0.001228266    0.000802813    0.000004340
     11        1           0.000275141    0.000723916    0.001615166
     12        1           0.000267518    0.000723627   -0.001615884
     13        1          -0.001183898    0.000802780   -0.000012476
     14        1          -0.000288012    0.000730075   -0.001609355
     15        1          -0.000269211    0.000726429    0.001609898
 -------------------------------------------------------------------
 Cartesian Forces:  Max     0.010961880 RMS     0.003544245

 GradGradGradGradGradGradGradGradGradGradGradGradGradGradGradGradGradGrad
 Berny optimization.
 FormGI is forming the generalized inverse of G from B-inverse, IUseBI=4.
 Internal  Forces:  Max     0.007598492 RMS     0.002299112
 Search for a local minimum.
 Step number   1 out of a maximum of   73
 All quantities printed in internal units (Hartrees-Bohrs-Radians)
 Mixed Optimization -- RFO/linear search
 Second derivative matrix not updated -- first step.
 ITU=  0
     Eigenvalues ---    0.00583   0.00583   0.01403   0.01431   0.05370
     Eigenvalues ---    0.05373   0.05650   0.05650   0.05781   0.05782
     Eigenvalues ---    0.06025   0.06031   0.11237   0.11242   0.13702
     Eigenvalues ---    0.13706   0.16000   0.16000   0.16000   0.16000
     Eigenvalues ---    0.16000   0.16000   0.22041   0.22042   0.25000
     Eigenvalues ---    0.30971   0.30972   0.34154   0.34162   0.34163
     Eigenvalues ---    0.34167   0.34237   0.34237   0.34238   0.34238
     Eigenvalues ---    0.34395   0.34401   0.42190   0.42509
 RFO step:  Lambda=-1.33399977D-03 EMin= 5.83370447D-03
 Linear search not attempted -- first point.
 Iteration  1 RMS(Cart)=  0.01794387 RMS(Int)=  0.00014029
 Iteration  2 RMS(Cart)=  0.00012555 RMS(Int)=  0.00007040
 Iteration  3 RMS(Cart)=  0.00000001 RMS(Int)=  0.00007040
 Variable       Old X    -DE/DX   Delta X   Delta X   Delta X     New X
                                 (Linear)    (Quad)   (Total)
    R1        2.68280  -0.00646   0.00000  -0.01514  -0.01514   2.66766
    R2        2.68682  -0.00760   0.00000  -0.01795  -0.01795   2.66887
    R3        2.86067   0.00316   0.00000   0.01014   0.01014   2.87082
    R4        2.07071   0.00555   0.00000   0.01618   0.01618   2.08689
    R5        2.07049   0.00562   0.00000   0.01639   0.01639   2.08688
    R6        2.86067   0.00314   0.00000   0.01011   0.01011   2.87078
    R7        2.07057   0.00552   0.00000   0.01609   0.01609   2.08666
    R8        2.07057   0.00552   0.00000   0.01609   0.01609   2.08666
    R9        2.06659   0.00147   0.00000   0.00425   0.00425   2.07084
   R10        2.06931   0.00086   0.00000   0.00252   0.00252   2.07183
   R11        2.06931   0.00087   0.00000   0.00252   0.00252   2.07183
   R12        2.06668   0.00143   0.00000   0.00414   0.00414   2.07082
   R13        2.06932   0.00086   0.00000   0.00249   0.00249   2.07181
   R14        2.06932   0.00086   0.00000   0.00250   0.00250   2.07181
    A1        1.94774   0.00143   0.00000   0.00567   0.00567   1.95342
    A2        1.90255  -0.00253   0.00000  -0.00921  -0.00914   1.89340
    A3        1.91638  -0.00035   0.00000  -0.00662  -0.00659   1.90979
    A4        1.91631  -0.00034   0.00000  -0.00652  -0.00649   1.90982
    A5        1.91382   0.00289   0.00000   0.02167   0.02158   1.93540
    A6        1.91374   0.00289   0.00000   0.02175   0.02167   1.93541
    A7        1.90104  -0.00253   0.00000  -0.02085  -0.02115   1.87989
    A8        1.90256  -0.00250   0.00000  -0.00906  -0.00899   1.89357
    A9        1.91561  -0.00037   0.00000  -0.00682  -0.00679   1.90881
   A10        1.91553  -0.00036   0.00000  -0.00674  -0.00671   1.90882
   A11        1.91418   0.00291   0.00000   0.02191   0.02182   1.93600
   A12        1.91426   0.00289   0.00000   0.02182   0.02173   1.93599
   A13        1.90171  -0.00254   0.00000  -0.02093  -0.02123   1.88047
   A14        1.93646  -0.00015   0.00000  -0.00475  -0.00477   1.93169
   A15        1.93074  -0.00049   0.00000  -0.00115  -0.00117   1.92958
   A16        1.93082  -0.00050   0.00000  -0.00120  -0.00122   1.92960
   A17        1.89929  -0.00010   0.00000  -0.00424  -0.00426   1.89503
   A18        1.89921  -0.00009   0.00000  -0.00418  -0.00420   1.89501
   A19        1.86551   0.00139   0.00000   0.01615   0.01614   1.88165
   A20        1.93658  -0.00019   0.00000  -0.00505  -0.00507   1.93152
   A21        1.93069  -0.00047   0.00000  -0.00102  -0.00104   1.92965
   A22        1.93077  -0.00049   0.00000  -0.00112  -0.00113   1.92964
   A23        1.89936  -0.00009   0.00000  -0.00428  -0.00430   1.89505
   A24        1.89912  -0.00007   0.00000  -0.00410  -0.00413   1.89500
   A25        1.86550   0.00138   0.00000   0.01621   0.01620   1.88170
    D1        3.14159   0.00000   0.00000   0.00004   0.00004  -3.14156
    D2       -1.04476   0.00177   0.00000   0.01686   0.01680  -1.02796
    D3        1.04490  -0.00177   0.00000  -0.01695  -0.01689   1.02801
    D4        3.14159  -0.00000   0.00000  -0.00001  -0.00001   3.14158
    D5       -1.04478   0.00179   0.00000   0.01708   0.01701  -1.02777
    D6        1.04473  -0.00179   0.00000  -0.01704  -0.01698   1.02776
    D7        3.14159  -0.00000   0.00000  -0.00003  -0.00003   3.14156
    D8       -1.03188  -0.00055   0.00000  -0.00932  -0.00932  -1.04120
    D9        1.03193   0.00055   0.00000   0.00923   0.00922   1.04115
   D10        1.04318   0.00022   0.00000   0.00058   0.00066   1.04384
   D11       -3.13029  -0.00033   0.00000  -0.00871  -0.00863  -3.13893
   D12       -1.06648   0.00077   0.00000   0.00983   0.00991  -1.05658
   D13       -1.04331  -0.00022   0.00000  -0.00047  -0.00054  -1.04386
   D14        1.06640  -0.00077   0.00000  -0.00976  -0.00984   1.05656
   D15        3.13021   0.00033   0.00000   0.00879   0.00871   3.13892
   D16        3.14149   0.00000   0.00000   0.00006   0.00006   3.14155
   D17       -1.03184  -0.00056   0.00000  -0.00940  -0.00940  -1.04124
   D18        1.03189   0.00055   0.00000   0.00935   0.00935   1.04124
   D19        1.04380   0.00023   0.00000   0.00068   0.00075   1.04456
   D20       -3.12954  -0.00033   0.00000  -0.00878  -0.00870  -3.13824
   D21       -1.06580   0.00078   0.00000   0.00997   0.01005  -1.05575
   D22       -1.04405  -0.00022   0.00000  -0.00052  -0.00060  -1.04464
   D23        1.06580  -0.00078   0.00000  -0.00998  -0.01005   1.05575
   D24        3.12954   0.00033   0.00000   0.00878   0.00870   3.13823
         Item               Value     Threshold  Converged?
 Maximum Force            0.007598     0.000450     NO 
 RMS     Force            0.002299     0.000300     NO 
 Maximum Displacement     0.036185     0.001800     NO 
 RMS     Displacement     0.017916     0.001200     NO 
 Predicted change in Energy=-6.717704D-04
 GradGradGradGradGradGradGradGradGradGradGradGradGradGradGradGradGradGrad

                          Input orientation:                          
 ---------------------------------------------------------------------
 Center     Atomic      Atomic             Coordinates (Angstroms)
 Number     Number       Type             X           Y           Z
 ---------------------------------------------------------------------
      1          8           0        0.000202   -0.264018    0.000024
      2          6           0        1.169793    0.526461    0.000032
      3          6           0       -1.170314    0.526231    0.000011
      4          6           0        2.375630   -0.397571   -0.000005
      5          6           0       -2.375828   -0.398191   -0.000013
      6          1           0        1.172804    1.177835   -0.891738
      7          1           0        1.172836    1.177813    0.891811
      8          1           0       -1.172607    1.177267    0.891882
      9          1           0       -1.172589    1.177268   -0.891857
     10          1           0        3.306377    0.180852   -0.000030
     11          1           0        2.365770   -1.043387    0.885905
     12          1           0        2.365747   -1.043386   -0.885918
     13          1           0       -3.306660    0.180082    0.000020
     14          1           0       -2.365826   -1.043976   -0.885931
     15          1           0       -2.365836   -1.043979    0.885908
 ---------------------------------------------------------------------
                    Distance matrix (angstroms):
                    1          2          3          4          5
     1  O    0.000000
     2  C    1.411666   0.000000
     3  C    1.412304   2.340108   0.000000
     4  C    2.379179   1.519170   3.664305   0.000000
     5  C    2.379815   3.664207   1.519151   4.751458   0.000000
     6  H    2.061352   1.104333   2.590368   2.173450   3.983945
     7  H    2.061366   1.104327   2.590410   2.173450   3.983987
     8  H    2.061115   2.589553   1.104213   3.983160   2.173771
     9  H    2.061115   2.589550   1.104211   3.983136   2.173762
    10  H    3.335971   2.164356   4.489995   1.095839   5.711632
    11  H    2.643505   2.163228   3.968930   1.096364   4.866609
    12  H    2.643504   2.163246   3.968917   1.096364   4.866584
    13  H    3.336549   4.489834   2.164207   5.711575   1.095831
    14  H    2.644114   3.968854   2.163259   4.866631   1.096353
    15  H    2.644100   3.968845   2.163249   4.866640   1.096357
                    6          7          8          9         10
     6  H    0.000000
     7  H    1.783549   0.000000
     8  H    2.946567   2.345444   0.000000
     9  H    2.345393   2.946607   1.783740   0.000000
    10  H    2.518184   2.518195   4.674361   4.674327   0.000000
    11  H    3.084966   2.521281   4.177494   4.540015   1.779996
    12  H    2.521304   3.084977   4.540025   4.177459   1.779983
    13  H    4.675076   4.675109   2.518725   2.518746   6.613036
    14  H    4.178322   4.540798   3.085176   2.521463   5.870171
    15  H    4.540755   4.178349   2.521461   3.085163   5.870187
                   11         12         13         14         15
    11  H    0.000000
    12  H    1.771823   0.000000
    13  H    5.870105   5.870090   0.000000
    14  H    5.052465   4.731573   1.779998   0.000000
    15  H    4.731606   5.052450   1.779964   1.771840   0.000000
 Stoichiometry    C4H10O
 Framework group  C1[X(C4H10O)]
 Deg. of freedom    39
 Full point group                 C1      NOp   1
 Largest Abelian subgroup         C1      NOp   1
 Largest concise Abelian subgroup C1      NOp   1
                         Standard orientation:                         
 ---------------------------------------------------------------------
 Center     Atomic      Atomic             Coordinates (Angstroms)
 Number     Number       Type             X           Y           Z
 ---------------------------------------------------------------------
      1          8           0       -0.000229   -0.271776   -0.000015
      2          6           0       -1.169928    0.518543   -0.000023
      3          6           0        1.170180    0.518633   -0.000001
      4          6           0       -2.375638   -0.405653    0.000015
      5          6           0        2.375820   -0.405624    0.000022
      6          1           0       -1.173027    1.169917    0.891748
      7          1           0       -1.173060    1.169895   -0.891802
      8          1           0        1.172384    1.169669   -0.891873
      9          1           0        1.172365    1.169670    0.891867
     10          1           0       -3.306464    0.172643    0.000040
     11          1           0       -2.365691   -1.051468   -0.885896
     12          1           0       -2.365668   -1.051467    0.885927
     13          1           0        3.306572    0.172775   -0.000010
     14          1           0        2.365905   -1.051411    0.885941
     15          1           0        2.365915   -1.051414   -0.885899
 ---------------------------------------------------------------------
 Rotational constants (GHZ):          18.0624821           2.2478337           2.1051461
 Standard basis: 6-311++G(d,p) (5D, 7F)
 There are   185 symmetry adapted cartesian basis functions of A   symmetry.
 There are   180 symmetry adapted basis functions of A   symmetry.
   180 basis functions,   270 primitive gaussians,   185 cartesian basis functions
    21 alpha electrons       21 beta electrons
       nuclear repulsion energy       189.9254027626 Hartrees.
 NAtoms=   15 NActive=   15 NUniq=   15 SFac= 1.00D+00 NAtFMM=   60 NAOKFM=F Big=F
 Integral buffers will be    131072 words long.
 Raffenetti 2 integral format.
 Two-electron integral symmetry is turned on.
 R6APFD:  NTU= -4 IXU= 1 FactS= 1.050
 Nuclear repulsion after empirical dispersion term =      189.9196887033 Hartrees.
 One-electron integrals computed using PRISM.
 NBasis=   180 RedAO= T EigKep=  3.83D-05  NBF=   180
 NBsUse=   180 1.00D-06 EigRej= -1.00D+00 NBFU=   180
 Initial guess from the checkpoint file:  "DIET0031.chk"
 B after Tr=    -0.000000    0.000000    0.000000
         Rot=    1.000000    0.000002    0.000001   -0.000042 Ang=   0.00 deg.
 ExpMin= 3.60D-02 ExpMax= 8.59D+03 ExpMxC= 1.30D+03 IAcc=3 IRadAn=         5 AccDes= 0.00D+00
 Harris functional with IExCor= 1009 and IRadAn=       5 diagonalized for initial guess.
 HarFok:  IExCor= 1009 AccDes= 0.00D+00 IRadAn=         5 IDoV= 1 UseB2=F ITyADJ=14
 ICtDFT=  3500011 ScaDFX=  1.000000  1.000000  1.000000  1.000000
 FoFCou: FMM=F IPFlag=           0 FMFlag=      100000 FMFlg1=           0
         NFxFlg=           0 DoJE=T BraDBF=F KetDBF=T FulRan=T
         wScrn=  0.000000 ICntrl=       500 IOpCl=  0 I1Cent=   200000004 NGrid=           0
         NMat0=    1 NMatS0=      1 NMatT0=    0 NMatD0=    1 NMtDS0=    0 NMtDT0=    0
 Petite list used in FoFCou.
 Requested convergence on RMS density matrix=1.00D-08 within  32 cycles.
 Requested convergence on MAX density matrix=1.00D-06.
 Requested convergence on             energy=1.00D-06.
 No special actions if energy rises.
 SCF Done:  E(RM08HX) =  -233.661366682     A.U. after    9 cycles
            NFock=  9  Conv=0.58D-08     -V/T= 2.0052
 QCSCF skips out because SCF is already converged.
 R6APFD:  NTU= -4 IXU= 1 FactS= 1.050
 Calling FoFJK, ICntrl=      2127 FMM=F ISym2X=0 I1Cent= 0 IOpClX= 0 NMat=1 NMatS=1 NMatT=0.
 ***** Axes restored to original set *****
 -------------------------------------------------------------------
 Center     Atomic                   Forces (Hartrees/Bohr)
 Number     Number              X              Y              Z
 -------------------------------------------------------------------
      1        8          -0.000258212    0.002244933    0.000001226
      2        6          -0.000953746   -0.004279301   -0.000007353
      3        6           0.001368017   -0.004507536    0.000000020
      4        6          -0.000485725   -0.000205173    0.000000714
      5        6           0.000502745   -0.000171232    0.000006798
      6        1           0.000463753    0.001033194   -0.000130939
      7        1           0.000462232    0.001033761    0.000134395
      8        1          -0.000549434    0.001086940    0.000143818
      9        1          -0.000548254    0.001088133   -0.000144817
     10        1           0.000325686   -0.000062834    0.000001214
     11        1          -0.000259547    0.000700321    0.000041670
     12        1          -0.000262355    0.000701235   -0.000041516
     13        1          -0.000334017   -0.000066423   -0.000003043
     14        1           0.000263449    0.000702596   -0.000044565
     15        1           0.000265408    0.000701385    0.000042377
 -------------------------------------------------------------------
 Cartesian Forces:  Max     0.004507536 RMS     0.001107196

 GradGradGradGradGradGradGradGradGradGradGradGradGradGradGradGradGradGrad
 Berny optimization.
 Using GEDIIS/GDIIS optimizer.
 FormGI is forming the generalized inverse of G from B-inverse, IUseBI=4.
 Internal  Forces:  Max     0.002190003 RMS     0.000580690
 Search for a local minimum.
 Step number   2 out of a maximum of   73
 All quantities printed in internal units (Hartrees-Bohrs-Radians)
 Mixed Optimization -- En-DIIS/RFO-DIIS
 Update second derivatives using D2CorX and points    1    2
 DE= -7.22D-04 DEPred=-6.72D-04 R= 1.07D+00
 TightC=F SS=  1.41D+00  RLast= 8.87D-02 DXNew= 5.0454D-01 2.6599D-01
 Trust test= 1.07D+00 RLast= 8.87D-02 DXMaxT set to 3.00D-01
 ITU=  1  0
 Use linear search instead of GDIIS.
     Eigenvalues ---    0.00583   0.00583   0.01403   0.01431   0.05342
     Eigenvalues ---    0.05347   0.05417   0.05716   0.05717   0.05767
     Eigenvalues ---    0.05863   0.05986   0.11320   0.11781   0.13696
     Eigenvalues ---    0.13699   0.15660   0.16000   0.16000   0.16000
     Eigenvalues ---    0.16000   0.16029   0.21236   0.21967   0.24648
     Eigenvalues ---    0.30971   0.31263   0.33473   0.34157   0.34163
     Eigenvalues ---    0.34166   0.34237   0.34237   0.34238   0.34389
     Eigenvalues ---    0.34399   0.35459   0.40903   0.42396
 RFO step:  Lambda=-1.22283047D-04 EMin= 5.83370441D-03
 Quartic linear search produced a step of  0.09291.
 Iteration  1 RMS(Cart)=  0.00982494 RMS(Int)=  0.00004083
 Iteration  2 RMS(Cart)=  0.00004780 RMS(Int)=  0.00000846
 Iteration  3 RMS(Cart)=  0.00000000 RMS(Int)=  0.00000846
 Variable       Old X    -DE/DX   Delta X   Delta X   Delta X     New X
                                 (Linear)    (Quad)   (Total)
    R1        2.66766  -0.00119  -0.00141  -0.00305  -0.00446   2.66320
    R2        2.66887  -0.00145  -0.00167  -0.00376  -0.00542   2.66344
    R3        2.87082  -0.00123   0.00094  -0.00434  -0.00340   2.86741
    R4        2.08689   0.00072   0.00150   0.00228   0.00379   2.09067
    R5        2.08688   0.00072   0.00152   0.00229   0.00381   2.09069
    R6        2.87078  -0.00126   0.00094  -0.00446  -0.00352   2.86726
    R7        2.08666   0.00076   0.00150   0.00241   0.00391   2.09057
    R8        2.08666   0.00076   0.00150   0.00242   0.00391   2.09057
    R9        2.07084   0.00024   0.00039   0.00077   0.00117   2.07200
   R10        2.07183  -0.00038   0.00023  -0.00120  -0.00097   2.07086
   R11        2.07183  -0.00038   0.00023  -0.00120  -0.00097   2.07086
   R12        2.07082   0.00025   0.00038   0.00079   0.00117   2.07199
   R13        2.07181  -0.00038   0.00023  -0.00120  -0.00097   2.07084
   R14        2.07181  -0.00038   0.00023  -0.00120  -0.00097   2.07084
    A1        1.95342   0.00219   0.00053   0.00956   0.01009   1.96350
    A2        1.89340  -0.00039  -0.00085  -0.00006  -0.00090   1.89250
    A3        1.90979   0.00047  -0.00061   0.00569   0.00508   1.91487
    A4        1.90982   0.00047  -0.00060   0.00565   0.00505   1.91487
    A5        1.93540  -0.00002   0.00201  -0.00147   0.00052   1.93592
    A6        1.93541  -0.00002   0.00201  -0.00148   0.00052   1.93593
    A7        1.87989  -0.00048  -0.00196  -0.00809  -0.01009   1.86980
    A8        1.89357  -0.00047  -0.00084  -0.00032  -0.00115   1.89242
    A9        1.90881   0.00056  -0.00063   0.00652   0.00590   1.91471
   A10        1.90882   0.00055  -0.00062   0.00652   0.00590   1.91471
   A11        1.93600  -0.00006   0.00203  -0.00200   0.00002   1.93601
   A12        1.93599  -0.00006   0.00202  -0.00198   0.00002   1.93601
   A13        1.88047  -0.00049  -0.00197  -0.00845  -0.01046   1.87001
   A14        1.93169   0.00052  -0.00044   0.00322   0.00278   1.93447
   A15        1.92958  -0.00068  -0.00011  -0.00449  -0.00460   1.92498
   A16        1.92960  -0.00069  -0.00011  -0.00452  -0.00463   1.92497
   A17        1.89503   0.00005  -0.00040   0.00003  -0.00037   1.89466
   A18        1.89501   0.00005  -0.00039   0.00005  -0.00034   1.89466
   A19        1.88165   0.00077   0.00150   0.00592   0.00741   1.88906
   A20        1.93152   0.00053  -0.00047   0.00332   0.00285   1.93437
   A21        1.92965  -0.00069  -0.00010  -0.00457  -0.00467   1.92499
   A22        1.92964  -0.00069  -0.00011  -0.00455  -0.00466   1.92498
   A23        1.89505   0.00005  -0.00040   0.00002  -0.00038   1.89467
   A24        1.89500   0.00005  -0.00038   0.00006  -0.00032   1.89468
   A25        1.88170   0.00078   0.00150   0.00592   0.00742   1.88912
    D1       -3.14156  -0.00000   0.00000  -0.00003  -0.00003  -3.14158
    D2       -1.02796   0.00002   0.00156   0.00157   0.00313  -1.02483
    D3        1.02801  -0.00002  -0.00157  -0.00159  -0.00316   1.02485
    D4        3.14158   0.00000  -0.00000   0.00001   0.00001   3.14159
    D5       -1.02777  -0.00003   0.00158   0.00131   0.00289  -1.02488
    D6        1.02776   0.00003  -0.00158  -0.00131  -0.00288   1.02488
    D7        3.14156   0.00000  -0.00000   0.00003   0.00003   3.14159
    D8       -1.04120  -0.00004  -0.00087  -0.00077  -0.00164  -1.04284
    D9        1.04115   0.00004   0.00086   0.00083   0.00169   1.04284
   D10        1.04384  -0.00032   0.00006  -0.00604  -0.00597   1.03786
   D11       -3.13893  -0.00036  -0.00080  -0.00684  -0.00764   3.13662
   D12       -1.05658  -0.00028   0.00092  -0.00525  -0.00431  -1.06089
   D13       -1.04386   0.00032  -0.00005   0.00605   0.00599  -1.03787
   D14        1.05656   0.00027  -0.00091   0.00525   0.00433   1.06089
   D15        3.13892   0.00036   0.00081   0.00685   0.00765  -3.13662
   D16        3.14155   0.00000   0.00001   0.00003   0.00003   3.14158
   D17       -1.04124  -0.00004  -0.00087  -0.00077  -0.00165  -1.04289
   D18        1.04124   0.00004   0.00087   0.00076   0.00163   1.04287
   D19        1.04456  -0.00035   0.00007  -0.00659  -0.00651   1.03804
   D20       -3.13824  -0.00039  -0.00081  -0.00739  -0.00819   3.13675
   D21       -1.05575  -0.00031   0.00093  -0.00586  -0.00492  -1.06067
   D22       -1.04464   0.00035  -0.00006   0.00665   0.00658  -1.03806
   D23        1.05575   0.00031  -0.00093   0.00585   0.00490   1.06065
   D24        3.13823   0.00039   0.00081   0.00738   0.00818  -3.13677
         Item               Value     Threshold  Converged?
 Maximum Force            0.002190     0.000450     NO 
 RMS     Force            0.000581     0.000300     NO 
 Maximum Displacement     0.024268     0.001800     NO 
 RMS     Displacement     0.009827     0.001200     NO 
 Predicted change in Energy=-6.620969D-05
 GradGradGradGradGradGradGradGradGradGradGradGradGradGradGradGradGradGrad

                          Input orientation:                          
 ---------------------------------------------------------------------
 Center     Atomic      Atomic             Coordinates (Angstroms)
 Number     Number       Type             X           Y           Z
 ---------------------------------------------------------------------
      1          8           0       -0.000005   -0.255311    0.000010
      2          6           0        1.171704    0.527785    0.000014
      3          6           0       -1.171997    0.527593    0.000011
      4          6           0        2.370473   -0.402464   -0.000000
      5          6           0       -2.370424   -0.402965    0.000002
      6          1           0        1.181489    1.184773   -0.890071
      7          1           0        1.181493    1.184758    0.890121
      8          1           0       -1.181795    1.184439    0.890133
      9          1           0       -1.181795    1.184450   -0.890104
     10          1           0        3.306836    0.168010    0.000002
     11          1           0        2.353299   -1.044551    0.887874
     12          1           0        2.353284   -1.044526   -0.887892
     13          1           0       -3.306897    0.167318    0.000014
     14          1           0       -2.353090   -1.044993   -0.887900
     15          1           0       -2.353075   -1.045016    0.887889
 ---------------------------------------------------------------------
                    Distance matrix (angstroms):
                    1          2          3          4          5
     1  O    0.000000
     2  C    1.409305   0.000000
     3  C    1.409434   2.343701   0.000000
     4  C    2.375041   1.517370   3.662527   0.000000
     5  C    2.375013   3.662371   1.517289   4.740897   0.000000
     6  H    2.064464   1.106336   2.600582   2.173760   3.991143
     7  H    2.064470   1.106345   2.600592   2.173768   3.991152
     8  H    2.064419   2.600474   1.106282   3.991141   2.173712
     9  H    2.064423   2.600476   1.106283   3.991140   2.173709
    10  H    3.333826   2.165231   4.493244   1.096456   5.705899
    11  H    2.636142   2.157940   3.960764   1.095851   4.849073
    12  H    2.636134   2.157932   3.960750   1.095851   4.849059
    13  H    3.333789   4.493084   2.165086   5.705891   1.096451
    14  H    2.636094   3.960580   2.157868   4.849047   1.095842
    15  H    2.636077   3.960567   2.157863   4.849033   1.095844
                    6          7          8          9         10
     6  H    0.000000
     7  H    1.780192   0.000000
     8  H    2.958756   2.363288   0.000000
     9  H    2.363284   2.958772   1.780238   0.000000
    10  H    2.518558   2.518565   4.687565   4.687563   0.000000
    11  H    3.082874   2.518522   4.179150   4.541646   1.779846
    12  H    2.518508   3.082877   4.541634   4.179130   1.779848
    13  H    4.687545   4.687550   2.518513   2.518516   6.613733
    14  H    4.179128   4.541632   3.082807   2.518402   5.856151
    15  H    4.541612   4.179123   2.518407   3.082803   5.856138
                   11         12         13         14         15
    11  H    0.000000
    12  H    1.775766   0.000000
    13  H    5.856172   5.856159   0.000000
    14  H    5.030256   4.706375   1.779842   0.000000
    15  H    4.706374   5.030230   1.779847   1.775788   0.000000
 Stoichiometry    C4H10O
 Framework group  C1[X(C4H10O)]
 Deg. of freedom    39
 Full point group                 C1      NOp   1
 Largest Abelian subgroup         C1      NOp   1
 Largest concise Abelian subgroup C1      NOp   1
                         Standard orientation:                         
 ---------------------------------------------------------------------
 Center     Atomic      Atomic             Coordinates (Angstroms)
 Number     Number       Type             X           Y           Z
 ---------------------------------------------------------------------
      1          8           0       -0.000011   -0.263689   -0.000003
      2          6           0       -1.171796    0.519293   -0.000007
      3          6           0        1.171904    0.519330   -0.000004
      4          6           0       -2.370475   -0.411074    0.000007
      5          6           0        2.370422   -0.411111    0.000005
      6          1           0       -1.181646    1.176279    0.890078
      7          1           0       -1.181650    1.176265   -0.890113
      8          1           0        1.181638    1.176177   -0.890126
      9          1           0        1.181639    1.176188    0.890111
     10          1           0       -3.306893    0.159308    0.000005
     11          1           0       -2.353238   -1.053159   -0.887867
     12          1           0       -2.353223   -1.053134    0.887899
     13          1           0        3.306840    0.159264   -0.000007
     14          1           0        2.353152   -1.053140    0.887907
     15          1           0        2.353136   -1.053164   -0.887882
 ---------------------------------------------------------------------
 Rotational constants (GHZ):          17.9827656           2.2543425           2.1097923
 Standard basis: 6-311++G(d,p) (5D, 7F)
 There are   185 symmetry adapted cartesian basis functions of A   symmetry.
 There are   180 symmetry adapted basis functions of A   symmetry.
   180 basis functions,   270 primitive gaussians,   185 cartesian basis functions
    21 alpha electrons       21 beta electrons
       nuclear repulsion energy       190.0540664208 Hartrees.
 NAtoms=   15 NActive=   15 NUniq=   15 SFac= 1.00D+00 NAtFMM=   60 NAOKFM=F Big=F
 Integral buffers will be    131072 words long.
 Raffenetti 2 integral format.
 Two-electron integral symmetry is turned on.
 R6APFD:  NTU= -4 IXU= 1 FactS= 1.050
 Nuclear repulsion after empirical dispersion term =      190.0483544450 Hartrees.
 One-electron integrals computed using PRISM.
 NBasis=   180 RedAO= T EigKep=  3.82D-05  NBF=   180
 NBsUse=   180 1.00D-06 EigRej= -1.00D+00 NBFU=   180
 Initial guess from the checkpoint file:  "DIET0031.chk"
 B after Tr=     0.000000   -0.000000    0.000000
         Rot=    1.000000   -0.000001   -0.000001    0.000012 Ang=  -0.00 deg.
 ExpMin= 3.60D-02 ExpMax= 8.59D+03 ExpMxC= 1.30D+03 IAcc=3 IRadAn=         5 AccDes= 0.00D+00
 Harris functional with IExCor= 1009 and IRadAn=       5 diagonalized for initial guess.
 HarFok:  IExCor= 1009 AccDes= 0.00D+00 IRadAn=         5 IDoV= 1 UseB2=F ITyADJ=14
 ICtDFT=  3500011 ScaDFX=  1.000000  1.000000  1.000000  1.000000
 FoFCou: FMM=F IPFlag=           0 FMFlag=      100000 FMFlg1=           0
         NFxFlg=           0 DoJE=T BraDBF=F KetDBF=T FulRan=T
         wScrn=  0.000000 ICntrl=       500 IOpCl=  0 I1Cent=   200000004 NGrid=           0
         NMat0=    1 NMatS0=      1 NMatT0=    0 NMatD0=    1 NMtDS0=    0 NMtDT0=    0
 Petite list used in FoFCou.
 Requested convergence on RMS density matrix=1.00D-08 within  32 cycles.
 Requested convergence on MAX density matrix=1.00D-06.
 Requested convergence on             energy=1.00D-06.
 No special actions if energy rises.
 SCF Done:  E(RM08HX) =  -233.661434721     A.U. after    8 cycles
            NFock=  8  Conv=0.67D-08     -V/T= 2.0051
 QCSCF skips out because SCF is already converged.
 R6APFD:  NTU= -4 IXU= 1 FactS= 1.050
 Calling FoFJK, ICntrl=      2127 FMM=F ISym2X=0 I1Cent= 0 IOpClX= 0 NMat=1 NMatS=1 NMatT=0.
 ***** Axes restored to original set *****
 -------------------------------------------------------------------
 Center     Atomic                   Forces (Hartrees/Bohr)
 Number     Number              X              Y              Z
 -------------------------------------------------------------------
      1        8          -0.000044195    0.000781584   -0.000000516
      2        6          -0.000572734   -0.000156121    0.000004661
      3        6           0.000679084   -0.000224694   -0.000000390
      4        6           0.000057110    0.000229043   -0.000000152
      5        6          -0.000088037    0.000228925    0.000001533
      6        1           0.000024493   -0.000147763    0.000227206
      7        1           0.000024552   -0.000150729   -0.000231349
      8        1          -0.000034647   -0.000121728   -0.000215251
      9        1          -0.000033949   -0.000121775    0.000215388
     10        1          -0.000144232   -0.000117580   -0.000000171
     11        1           0.000006051   -0.000016336   -0.000109287
     12        1           0.000006805   -0.000016763    0.000109222
     13        1           0.000134801   -0.000123210    0.000000286
     14        1          -0.000007106   -0.000021787    0.000107169
     15        1          -0.000007996   -0.000021067   -0.000108347
 -------------------------------------------------------------------
 Cartesian Forces:  Max     0.000781584 RMS     0.000210034

 GradGradGradGradGradGradGradGradGradGradGradGradGradGradGradGradGradGrad
 Berny optimization.
 Using GEDIIS/GDIIS optimizer.
 FormGI is forming the generalized inverse of G from B-inverse, IUseBI=4.
 Internal  Forces:  Max     0.000759115 RMS     0.000153863
 Search for a local minimum.
 Step number   3 out of a maximum of   73
 All quantities printed in internal units (Hartrees-Bohrs-Radians)
 Mixed Optimization -- En-DIIS/RFO-DIIS
 Swapping is turned off.
 Update second derivatives using D2CorX and points    1    2    3
 DE= -6.80D-05 DEPred=-6.62D-05 R= 1.03D+00
 TightC=F SS=  1.41D+00  RLast= 3.65D-02 DXNew= 5.0454D-01 1.0937D-01
 Trust test= 1.03D+00 RLast= 3.65D-02 DXMaxT set to 3.00D-01
 ITU=  1  1  0
     Eigenvalues ---    0.00583   0.00583   0.01403   0.01431   0.05324
     Eigenvalues ---    0.05327   0.05427   0.05726   0.05726   0.05802
     Eigenvalues ---    0.05876   0.05925   0.11304   0.11846   0.13699
     Eigenvalues ---    0.13703   0.15842   0.16000   0.16000   0.16000
     Eigenvalues ---    0.16000   0.16052   0.20928   0.21943   0.24583
     Eigenvalues ---    0.30965   0.31194   0.33568   0.34157   0.34163
     Eigenvalues ---    0.34167   0.34237   0.34237   0.34238   0.34398
     Eigenvalues ---    0.34457   0.35666   0.40265   0.42399
 En-DIIS/RFO-DIIS/Sim-DIIS IScMMF=       -3 using points:     3    2
 RFO step:  Lambda=-4.22292601D-06.
 DidBck=F Rises=F RFO-DIIS coefs:    1.04250   -0.04250
 Iteration  1 RMS(Cart)=  0.00101487 RMS(Int)=  0.00000022
 Iteration  2 RMS(Cart)=  0.00000028 RMS(Int)=  0.00000013
 Variable       Old X    -DE/DX   Delta X   Delta X   Delta X     New X
                                 (Linear)    (Quad)   (Total)
    R1        2.66320  -0.00071  -0.00019  -0.00171  -0.00190   2.66130
    R2        2.66344  -0.00076  -0.00023  -0.00185  -0.00208   2.66136
    R3        2.86741  -0.00011  -0.00014  -0.00024  -0.00038   2.86703
    R4        2.09067  -0.00027   0.00016  -0.00078  -0.00062   2.09006
    R5        2.09069  -0.00028   0.00016  -0.00079  -0.00063   2.09006
    R6        2.86726  -0.00006  -0.00015  -0.00009  -0.00024   2.86702
    R7        2.09057  -0.00025   0.00017  -0.00070  -0.00054   2.09003
    R8        2.09057  -0.00025   0.00017  -0.00070  -0.00054   2.09003
    R9        2.07200  -0.00018   0.00005  -0.00054  -0.00049   2.07151
   R10        2.07086  -0.00008  -0.00004  -0.00021  -0.00025   2.07061
   R11        2.07086  -0.00008  -0.00004  -0.00020  -0.00025   2.07061
   R12        2.07199  -0.00018   0.00005  -0.00053  -0.00048   2.07152
   R13        2.07084  -0.00007  -0.00004  -0.00019  -0.00023   2.07061
   R14        2.07084  -0.00008  -0.00004  -0.00019  -0.00024   2.07061
    A1        1.96350   0.00000   0.00043  -0.00012   0.00031   1.96381
    A2        1.89250  -0.00002  -0.00004  -0.00009  -0.00013   1.89236
    A3        1.91487   0.00003   0.00022   0.00013   0.00035   1.91522
    A4        1.91487   0.00003   0.00021   0.00013   0.00035   1.91522
    A5        1.93592  -0.00001   0.00002  -0.00002  -0.00000   1.93592
    A6        1.93593  -0.00001   0.00002  -0.00002  -0.00000   1.93592
    A7        1.86980  -0.00001  -0.00043  -0.00011  -0.00054   1.86926
    A8        1.89242  -0.00002  -0.00005  -0.00003  -0.00008   1.89234
    A9        1.91471   0.00003   0.00025   0.00021   0.00046   1.91517
   A10        1.91471   0.00003   0.00025   0.00021   0.00046   1.91517
   A11        1.93601  -0.00002   0.00000  -0.00006  -0.00006   1.93595
   A12        1.93601  -0.00001   0.00000  -0.00006  -0.00006   1.93595
   A13        1.87001  -0.00001  -0.00044  -0.00026  -0.00070   1.86931
   A14        1.93447   0.00003   0.00012   0.00031   0.00043   1.93489
   A15        1.92498   0.00004  -0.00020   0.00025   0.00005   1.92503
   A16        1.92497   0.00004  -0.00020   0.00026   0.00006   1.92503
   A17        1.89466  -0.00002  -0.00002   0.00003   0.00001   1.89467
   A18        1.89466  -0.00002  -0.00001   0.00002   0.00001   1.89467
   A19        1.88906  -0.00008   0.00031  -0.00089  -0.00058   1.88848
   A20        1.93437   0.00005   0.00012   0.00041   0.00053   1.93490
   A21        1.92499   0.00004  -0.00020   0.00024   0.00005   1.92503
   A22        1.92498   0.00004  -0.00020   0.00025   0.00005   1.92503
   A23        1.89467  -0.00003  -0.00002   0.00000  -0.00001   1.89466
   A24        1.89468  -0.00003  -0.00001  -0.00000  -0.00002   1.89466
   A25        1.88912  -0.00009   0.00032  -0.00094  -0.00063   1.88849
    D1       -3.14158  -0.00000  -0.00000  -0.00000  -0.00000  -3.14159
    D2       -1.02483  -0.00001   0.00013  -0.00001   0.00012  -1.02471
    D3        1.02485   0.00001  -0.00013   0.00001  -0.00013   1.02472
    D4        3.14159   0.00000   0.00000   0.00000   0.00000   3.14159
    D5       -1.02488  -0.00001   0.00012   0.00003   0.00016  -1.02472
    D6        1.02488   0.00001  -0.00012  -0.00003  -0.00015   1.02472
    D7        3.14159   0.00000   0.00000  -0.00000  -0.00000   3.14159
    D8       -1.04284   0.00002  -0.00007   0.00039   0.00032  -1.04252
    D9        1.04284  -0.00002   0.00007  -0.00040  -0.00033   1.04251
   D10        1.03786  -0.00001  -0.00025  -0.00009  -0.00034   1.03752
   D11        3.13662   0.00001  -0.00032   0.00031  -0.00002   3.13660
   D12       -1.06089  -0.00004  -0.00018  -0.00048  -0.00067  -1.06156
   D13       -1.03787   0.00001   0.00025   0.00009   0.00034  -1.03752
   D14        1.06089   0.00004   0.00018   0.00048   0.00066   1.06155
   D15       -3.13662  -0.00001   0.00033  -0.00031   0.00001  -3.13660
   D16        3.14158   0.00000   0.00000   0.00000   0.00001   3.14159
   D17       -1.04289   0.00003  -0.00007   0.00043   0.00036  -1.04253
   D18        1.04287  -0.00003   0.00007  -0.00042  -0.00035   1.04251
   D19        1.03804  -0.00002  -0.00028  -0.00020  -0.00047   1.03757
   D20        3.13675   0.00001  -0.00035   0.00023  -0.00012   3.13664
   D21       -1.06067  -0.00004  -0.00021  -0.00063  -0.00083  -1.06150
   D22       -1.03806   0.00002   0.00028   0.00020   0.00048  -1.03758
   D23        1.06065   0.00004   0.00021   0.00063   0.00084   1.06149
   D24       -3.13677  -0.00001   0.00035  -0.00023   0.00012  -3.13665
         Item               Value     Threshold  Converged?
 Maximum Force            0.000759     0.000450     NO 
 RMS     Force            0.000154     0.000300     YES
 Maximum Displacement     0.002753     0.001800     NO 
 RMS     Displacement     0.001015     0.001200     YES
 Predicted change in Energy=-2.111502D-06
 GradGradGradGradGradGradGradGradGradGradGradGradGradGradGradGradGradGrad

                          Input orientation:                          
 ---------------------------------------------------------------------
 Center     Atomic      Atomic             Coordinates (Angstroms)
 Number     Number       Type             X           Y           Z
 ---------------------------------------------------------------------
      1          8           0        0.000000   -0.254345    0.000006
      2          6           0        1.170999    0.528003    0.000012
      3          6           0       -1.171191    0.527773    0.000012
      4          6           0        2.369335   -0.402477   -0.000001
      5          6           0       -2.369303   -0.402981    0.000004
      6          1           0        1.181164    1.185032   -0.889633
      7          1           0        1.181167    1.185013    0.889674
      8          1           0       -1.181455    1.184752    0.889677
      9          1           0       -1.181453    1.184768   -0.889642
     10          1           0        3.305885    0.167187    0.000003
     11          1           0        2.351843   -1.044733    0.887584
     12          1           0        2.351836   -1.044713   -0.887599
     13          1           0       -3.305993    0.166460    0.000014
     14          1           0       -2.351671   -1.045207   -0.887597
     15          1           0       -2.351663   -1.045232    0.887586
 ---------------------------------------------------------------------
                    Distance matrix (angstroms):
                    1          2          3          4          5
     1  O    0.000000
     2  C    1.408299   0.000000
     3  C    1.408331   2.342190   0.000000
     4  C    2.373961   1.517169   3.660695   0.000000
     5  C    2.373961   3.660665   1.517161   4.738638   0.000000
     6  H    2.063592   1.106010   2.599429   2.173333   3.989869
     7  H    2.063593   1.106012   2.599433   2.173335   3.989872
     8  H    2.063578   2.599397   1.105998   3.989854   2.173338
     9  H    2.063578   2.599396   1.105998   3.989850   2.173339
    10  H    3.332651   2.165162   4.491573   1.096195   5.703758
    11  H    2.635084   2.157701   3.958828   1.095721   4.846531
    12  H    2.635082   2.157699   3.958823   1.095721   4.846525
    13  H    3.332667   4.491567   2.165162   5.703773   1.096199
    14  H    2.635083   3.958794   2.157696   4.846527   1.095719
    15  H    2.635075   3.958788   2.157695   4.846521   1.095719
                    6          7          8          9         10
     6  H    0.000000
     7  H    1.779306   0.000000
     8  H    2.957687   2.362622   0.000000
     9  H    2.362618   2.957692   1.779319   0.000000
    10  H    2.518313   2.518315   4.686490   4.686486   0.000000
    11  H    3.082343   2.518383   4.177895   4.540197   1.779535
    12  H    2.518380   3.082344   4.540195   4.177885   1.779536
    13  H    4.686527   4.686528   2.518349   2.518354   6.611878
    14  H    4.177906   4.540212   3.082341   2.518373   5.853690
    15  H    4.540204   4.177904   2.518377   3.082341   5.853684
                   11         12         13         14         15
    11  H    0.000000
    12  H    1.775183   0.000000
    13  H    5.853706   5.853702   0.000000
    14  H    5.027356   4.703507   1.779528   0.000000
    15  H    4.703506   5.027344   1.779530   1.775183   0.000000
 Stoichiometry    C4H10O
 Framework group  C1[X(C4H10O)]
 Deg. of freedom    39
 Full point group                 C1      NOp   1
 Largest Abelian subgroup         C1      NOp   1
 Largest concise Abelian subgroup C1      NOp   1
                         Standard orientation:                         
 ---------------------------------------------------------------------
 Center     Atomic      Atomic             Coordinates (Angstroms)
 Number     Number       Type             X           Y           Z
 ---------------------------------------------------------------------
      1          8           0       -0.000003   -0.262928    0.000000
      2          6           0       -1.171085    0.519296   -0.000006
      3          6           0        1.171105    0.519314   -0.000005
      4          6           0       -2.369322   -0.411310    0.000007
      5          6           0        2.369315   -0.411314    0.000003
      6          1           0       -1.181319    1.176324    0.889639
      7          1           0       -1.181322    1.176306   -0.889667
      8          1           0        1.181300    1.176294   -0.889670
      9          1           0        1.181299    1.176310    0.889649
     10          1           0       -3.305933    0.158255    0.000004
     11          1           0       -2.351762   -1.053564   -0.887577
     12          1           0       -2.351755   -1.053544    0.887606
     13          1           0        3.305945    0.158226   -0.000007
     14          1           0        2.351752   -1.053541    0.887604
     15          1           0        2.351743   -1.053566   -0.887579
 ---------------------------------------------------------------------
 Rotational constants (GHZ):          17.9853205           2.2565477           2.1116642
 Standard basis: 6-311++G(d,p) (5D, 7F)
 There are   185 symmetry adapted cartesian basis functions of A   symmetry.
 There are   180 symmetry adapted basis functions of A   symmetry.
   180 basis functions,   270 primitive gaussians,   185 cartesian basis functions
    21 alpha electrons       21 beta electrons
       nuclear repulsion energy       190.1288088808 Hartrees.
 NAtoms=   15 NActive=   15 NUniq=   15 SFac= 1.00D+00 NAtFMM=   60 NAOKFM=F Big=F
 Integral buffers will be    131072 words long.
 Raffenetti 2 integral format.
 Two-electron integral symmetry is turned on.
 R6APFD:  NTU= -4 IXU= 1 FactS= 1.050
 Nuclear repulsion after empirical dispersion term =      190.1230953159 Hartrees.
 One-electron integrals computed using PRISM.
 NBasis=   180 RedAO= T EigKep=  3.82D-05  NBF=   180
 NBsUse=   180 1.00D-06 EigRej= -1.00D+00 NBFU=   180
 Initial guess from the checkpoint file:  "DIET0031.chk"
 B after Tr=    -0.000000    0.000000    0.000000
         Rot=    1.000000    0.000000   -0.000000   -0.000004 Ang=   0.00 deg.
 Requested convergence on RMS density matrix=1.00D-08 within  32 cycles.
 Requested convergence on MAX density matrix=1.00D-06.
 Requested convergence on             energy=1.00D-06.
 No special actions if energy rises.
 SCF Done:  E(RM08HX) =  -233.661437053     A.U. after    7 cycles
            NFock=  7  Conv=0.75D-08     -V/T= 2.0051
 QCSCF skips out because SCF is already converged.
 R6APFD:  NTU= -4 IXU= 1 FactS= 1.050
 Calling FoFJK, ICntrl=      2127 FMM=F ISym2X=0 I1Cent= 0 IOpClX= 0 NMat=1 NMatS=1 NMatT=0.
 ***** Axes restored to original set *****
 -------------------------------------------------------------------
 Center     Atomic                   Forces (Hartrees/Bohr)
 Number     Number              X              Y              Z
 -------------------------------------------------------------------
      1        8          -0.000011240    0.000151290   -0.000000097
      2        6          -0.000112096   -0.000028072    0.000001045
      3        6           0.000134236   -0.000047304   -0.000000042
      4        6           0.000058753    0.000129663   -0.000000047
      5        6          -0.000066115    0.000132447   -0.000000174
      6        1           0.000029118   -0.000032364    0.000020005
      7        1           0.000029192   -0.000033045   -0.000020963
      8        1          -0.000032840   -0.000026572   -0.000017576
      9        1          -0.000032924   -0.000026619    0.000017677
     10        1          -0.000011924   -0.000022985   -0.000000084
     11        1           0.000002364   -0.000042831   -0.000009911
     12        1           0.000002567   -0.000042784    0.000010007
     13        1           0.000013837   -0.000023208    0.000000151
     14        1          -0.000001351   -0.000043883    0.000009226
     15        1          -0.000001578   -0.000043733   -0.000009219
 -------------------------------------------------------------------
 Cartesian Forces:  Max     0.000151290 RMS     0.000050984

 GradGradGradGradGradGradGradGradGradGradGradGradGradGradGradGradGradGrad
 Berny optimization.
 Using GEDIIS/GDIIS optimizer.
 FormGI is forming the generalized inverse of G from B-inverse, IUseBI=4.
 Internal  Forces:  Max     0.000111259 RMS     0.000028490
 Search for a local minimum.
 Step number   4 out of a maximum of   73
 All quantities printed in internal units (Hartrees-Bohrs-Radians)
 Mixed Optimization -- En-DIIS/RFO-DIIS
 Swapping is turned off.
 Update second derivatives using D2CorX and points    1    2    3    4
 DE= -2.33D-06 DEPred=-2.11D-06 R= 1.10D+00
 TightC=F SS=  1.41D+00  RLast= 4.07D-03 DXNew= 5.0454D-01 1.2204D-02
 Trust test= 1.10D+00 RLast= 4.07D-03 DXMaxT set to 3.00D-01
 ITU=  1  1  1  0
     Eigenvalues ---    0.00583   0.00583   0.01403   0.01431   0.05323
     Eigenvalues ---    0.05326   0.05370   0.05641   0.05722   0.05722
     Eigenvalues ---    0.05802   0.05878   0.11303   0.11740   0.13699
     Eigenvalues ---    0.13703   0.15751   0.16000   0.16000   0.16000
     Eigenvalues ---    0.16001   0.16055   0.21356   0.21942   0.23129
     Eigenvalues ---    0.30975   0.31666   0.33405   0.34152   0.34162
     Eigenvalues ---    0.34163   0.34237   0.34237   0.34238   0.34395
     Eigenvalues ---    0.34411   0.35991   0.40238   0.42464
 En-DIIS/RFO-DIIS/Sim-DIIS IScMMF=       -3 using points:     4    3    2
 RFO step:  Lambda=-3.32265064D-07.
 DidBck=F Rises=F RFO-DIIS coefs:    1.28881   -0.29500    0.00619
 Iteration  1 RMS(Cart)=  0.00029624 RMS(Int)=  0.00000006
 Iteration  2 RMS(Cart)=  0.00000007 RMS(Int)=  0.00000004
 Variable       Old X    -DE/DX   Delta X   Delta X   Delta X     New X
                                 (Linear)    (Quad)   (Total)
    R1        2.66130  -0.00004  -0.00052   0.00029  -0.00023   2.66107
    R2        2.66136  -0.00005  -0.00057   0.00029  -0.00028   2.66108
    R3        2.86703   0.00003  -0.00009   0.00019   0.00010   2.86714
    R4        2.09006  -0.00004  -0.00020   0.00007  -0.00013   2.08992
    R5        2.09006  -0.00004  -0.00021   0.00007  -0.00014   2.08992
    R6        2.86702   0.00003  -0.00005   0.00017   0.00012   2.86714
    R7        2.09003  -0.00003  -0.00018   0.00007  -0.00011   2.08992
    R8        2.09003  -0.00003  -0.00018   0.00007  -0.00011   2.08992
    R9        2.07151  -0.00002  -0.00015   0.00005  -0.00010   2.07141
   R10        2.07061   0.00002  -0.00007   0.00011   0.00005   2.07066
   R11        2.07061   0.00002  -0.00006   0.00011   0.00005   2.07066
   R12        2.07152  -0.00002  -0.00015   0.00004  -0.00010   2.07141
   R13        2.07061   0.00002  -0.00006   0.00011   0.00005   2.07066
   R14        2.07061   0.00002  -0.00006   0.00011   0.00005   2.07066
    A1        1.96381   0.00011   0.00003   0.00047   0.00050   1.96431
    A2        1.89236   0.00006  -0.00003   0.00031   0.00028   1.89265
    A3        1.91522   0.00000   0.00007   0.00007   0.00014   1.91535
    A4        1.91522   0.00000   0.00007   0.00007   0.00014   1.91535
    A5        1.93592  -0.00004  -0.00000  -0.00030  -0.00031   1.93562
    A6        1.93592  -0.00004  -0.00000  -0.00030  -0.00031   1.93562
    A7        1.86926   0.00002  -0.00009   0.00015   0.00006   1.86932
    A8        1.89234   0.00006  -0.00002   0.00032   0.00030   1.89264
    A9        1.91517   0.00000   0.00010   0.00008   0.00018   1.91535
   A10        1.91517   0.00000   0.00010   0.00008   0.00018   1.91535
   A11        1.93595  -0.00004  -0.00002  -0.00031  -0.00033   1.93562
   A12        1.93595  -0.00004  -0.00002  -0.00031  -0.00033   1.93562
   A13        1.86931   0.00002  -0.00014   0.00015   0.00001   1.86932
   A14        1.93489   0.00002   0.00011   0.00012   0.00023   1.93512
   A15        1.92503   0.00002   0.00004   0.00007   0.00012   1.92514
   A16        1.92503   0.00002   0.00005   0.00007   0.00012   1.92514
   A17        1.89467  -0.00001   0.00001   0.00001   0.00002   1.89469
   A18        1.89467  -0.00001   0.00000   0.00001   0.00002   1.89469
   A19        1.88848  -0.00004  -0.00021  -0.00031  -0.00052   1.88796
   A20        1.93490   0.00002   0.00014   0.00010   0.00023   1.93513
   A21        1.92503   0.00002   0.00004   0.00007   0.00011   1.92514
   A22        1.92503   0.00002   0.00004   0.00007   0.00011   1.92514
   A23        1.89466  -0.00001  -0.00000   0.00003   0.00003   1.89469
   A24        1.89466  -0.00001  -0.00000   0.00003   0.00002   1.89469
   A25        1.88849  -0.00004  -0.00023  -0.00030  -0.00053   1.88796
    D1       -3.14159  -0.00000  -0.00000  -0.00000  -0.00000  -3.14159
    D2       -1.02471  -0.00002   0.00002  -0.00013  -0.00012  -1.02483
    D3        1.02472   0.00002  -0.00002   0.00013   0.00011   1.02483
[...]
 ! D19   D(8,3,5,13)            59.4483         -DE/DX =    0.0                 !
 ! D20   D(8,3,5,14)           179.7161         -DE/DX =    0.0                 !
 ! D21   D(8,3,5,15)           -60.8197         -DE/DX =    0.0                 !
 ! D22   D(9,3,5,13)           -59.449          -DE/DX =    0.0                 !
 ! D23   D(9,3,5,14)            60.8188         -DE/DX =    0.0                 !
 ! D24   D(9,3,5,15)          -179.717          -DE/DX =    0.0                 !
 --------------------------------------------------------------------------------
 GradGradGradGradGradGradGradGradGradGradGradGradGradGradGradGradGradGrad


 ----------------------------------------------------------------------

 Electric dipole moment (input orientation):
 (Debye = 10**-18 statcoulomb cm , SI units = C m)
                  (au)            (Debye)         (10**-30 SI)
   Tot        0.478922D+00      0.121730D+01      0.406047D+01
   x         -0.107131D-03     -0.272300D-03     -0.908294D-03
   y          0.478922D+00      0.121730D+01      0.406047D+01
   z          0.000000D+00      0.000000D+00      0.000000D+00

 Dipole polarizability, Alpha (input orientation).
 (esu units = cm**3 , SI units = C**2 m**2 J**-1)
 Alpha(0;0):
               (au)            (10**-24 esu)      (10**-40 SI)
   iso        0.554497D+02      0.821680D+01      0.914242D+01
   aniso      0.128780D+02      0.190833D+01      0.212330D+01
   xx         0.638563D+02      0.946253D+01      0.105285D+02
   yx         0.119454D-02      0.177012D-03      0.196953D-03
   yy         0.527557D+02      0.781758D+01      0.869823D+01
   zx         0.000000D+00      0.000000D+00      0.000000D+00
   zy         0.536795D-04      0.795448D-05      0.885055D-05
   zz         0.497371D+02      0.737028D+01      0.820055D+01

 ----------------------------------------------------------------------

 Dipole orientation:
     8         -0.00010700         -0.00001439         -0.48064237
     6          2.21309078          0.00047732          0.99728556
     6         -2.21300627         -0.00051215          0.99784156
     6          4.47722330          0.00099853         -0.76157272
     6         -4.47750378         -0.00101262         -0.76052214
     1          2.23220198          1.68167382          2.23887662
     1          2.23295955         -1.68072718          2.23886029
     1         -2.23174969         -1.68173265          2.23936654
     1         -2.23249866          1.68069276          2.23937665
     1          6.24728836          0.00139349          0.31453929
     1          4.44427179         -1.67630686         -1.97524392
     1          4.44350829          1.67830224         -1.97522589
     1         -6.24735031         -0.00142229          0.31596190
     1         -4.44483185          1.67631038         -1.97416962
     1         -4.44406539         -1.67830001         -1.97419815

 Electric dipole moment (dipole orientation):
 (Debye = 10**-18 statcoulomb cm , SI units = C m)
                  (au)            (Debye)         (10**-30 SI)
   Tot        0.478922D+00      0.121730D+01      0.406047D+01
   x          0.000000D+00      0.000000D+00      0.000000D+00
   y          0.000000D+00      0.000000D+00      0.000000D+00
   z          0.478922D+00      0.121730D+01      0.406047D+01

 Dipole polarizability, Alpha (dipole orientation).
 (esu units = cm**3 , SI units = C**2 m**2 J**-1)
 Alpha(0;0):
               (au)            (10**-24 esu)      (10**-40 SI)
   iso        0.554497D+02      0.821680D+01      0.914242D+01
   aniso      0.128780D+02      0.190833D+01      0.212330D+01
   xx         0.638563D+02      0.946253D+01      0.105285D+02
   yx         0.315010D-02      0.466796D-03      0.519381D-03
   yy         0.497371D+02      0.737028D+01      0.820055D+01
   zx        -0.128858D-02     -0.190948D-03     -0.212458D-03
   zy        -0.369423D-04     -0.547429D-05     -0.609097D-05
   zz         0.527557D+02      0.781758D+01      0.869823D+01

 ----------------------------------------------------------------------
 1\1\GINC-PITOMBA\Freq\RM08HX\6-311++G(d,p)\C4H10O1\VALTER\01-Oct-2025\
 0\\#N Geom=AllCheck Guess=TCheck SCRF=Check GenChk RM08HX/6-311++G(d,p
 ) Freq\\DIET0031\\0,1\O,0.0000002699,-0.2543449941,0.0000061703\C,1.17
 09991541,0.5280027463,0.000012357\C,-1.1711906057,0.5277730392,0.00001
 20368\C,2.3693346873,-0.4024769368,-0.000000693\C,-2.3693029364,-0.402
 9809866,0.0000035717\H,1.1811644019,1.1850317499,-0.8896325251\H,1.181
 1672771,1.1850130746,0.8896735033\H,-1.1814551691,1.1847524698,0.88967
 7077\H,-1.1814534869,1.1847678551,-0.8896418661\H,3.3058853962,0.16718
 65272,0.0000030448\H,2.3518426177,-1.044733011,0.8875835538\H,2.351835
 6812,-1.0447134592,-0.8875991835\H,-3.3059928153,0.1664603179,0.000014
 0706\H,-2.3516714889,-1.0452066409,-0.8875972664\H,-2.351662983,-1.045
 2317515,0.8875861488\\Version=ES64L-G16RevB.01\State=1-A\HF=-233.66143
 71\RMSD=1.951e-09\RMSF=5.098e-05\ZeroPoint=0.1363582\Thermal=0.1431723
 \Dipole=-0.0001071,0.4789223,0.0000027\DipoleDeriv=-1.4434478,-0.00011
 12,-0.0000003,-0.0001167,-0.6436873,-0.0000021,0.0000002,-0.0000017,-0
 .4410695,0.8443507,0.1424549,0.0000017,0.2794892,0.4359815,0.000002,0.
 0000023,0.0000017,0.4205701,0.8444168,-0.1423285,-0.0000014,-0.2793462
 ,0.4358581,0.,-0.000002,0.0000002,0.4205449,-0.0550962,0.0496737,0.000
 0008,0.0888467,0.0355923,-0.0000008,0.0000011,-0.0000008,0.0705705,-0.
 0550511,-0.0496926,-0.0000004,-0.0888702,0.0355522,0.0000003,-0.000000
 4,0.0000003,0.0705643,-0.038582,0.0394077,-0.040301,-0.0501551,-0.0686
 257,0.0930601,0.016916,0.139056,-0.1214028,-0.0385818,0.0394065,0.0403
 015,-0.0501556,-0.0686217,-0.0930602,-0.0169177,-0.1390562,-0.1214088,
 -0.0385743,-0.039409,-0.0402915,0.0501542,-0.0686027,-0.0930516,0.0169
 416,-0.1390404,-0.1213871,-0.0385744,-0.0394102,0.0402909,0.050154,-0.
 0686066,0.0930523,-0.0169406,0.1390413,-0.1213826,-0.1047741,-0.054365
 4,-0.0000002,-0.1019273,-0.0036216,-0.0000004,-0.0000006,-0.0000009,0.
 0831127,0.0571769,-0.0050503,0.0285517,0.0450357,-0.0044084,0.0735771,
 -0.0097345,0.0984362,-0.0554569,0.0571775,-0.0050504,-0.0285525,0.0450
 347,-0.0044049,-0.0735764,0.0097349,-0.0984349,-0.0554608,-0.1048159,0
 .054347,0.0000015,0.1019011,-0.0035824,-0.0000016,0.0000018,-0.0000014
 ,0.0831156,0.0571878,0.0050628,0.0285682,-0.0450224,-0.0044095,-0.0735
 674,-0.0097113,-0.0984337,-0.0554577,0.0571878,0.0050648,-0.0285691,-0
 .0450222,-0.0044133,0.0735686,0.0097092,0.0984344,-0.0554518\Polar=63.
 8563092,0.0011945,52.7556525,0.0000082,0.0000537,49.7371474\Quadrupole
 =1.4809155,-1.0479897,-0.4329258,0.000279,0.0000023,-0.0000077\PG=C01 
 [X(C4H10O1)]\NImag=0\\0.49436749,0.00003847,0.35020226,0.00000002,0.00
 000194,0.10060280,-0.18103745,-0.05456909,-0.00000058,0.49293748,-0.09
 399760,-0.15363142,-0.00000074,-0.02881211,0.55120891,-0.00000070,-0.0
 0000062,-0.06589646,-0.00000028,-0.00000231,0.57607735,-0.18102802,0.0
 5453773,0.00000042,-0.05063673,0.01487775,0.00000011,0.49288113,0.0939
 6729,-0.15358485,-0.00000068,-0.01489202,0.01338736,0.00000015,0.02884
 200,0.55121902,0.00000074,-0.00000068,-0.06589849,-0.00000013,0.000000
 14,-0.00362311,0.00000013,-0.00000010,0.57612493,-0.03454087,0.0181678
 1,0.00000024,-0.15202881,0.06439403,0.00000086,-0.00252385,-0.00419576
 ,-0.00000001,0.52255070,-0.02363402,0.01636725,0.00000017,0.07982113,-
 0.14458178,-0.00000079,-0.00219673,-0.00347585,0.,0.04359987,0.5444981
 4,-0.00000020,0.00000011,0.00188716,0.00000113,-0.00000082,-0.08197165
 ,-0.00000003,-0.00000003,-0.00065501,0.00000097,-0.00000059,0.57162523
 ,-0.03454157,-0.01817903,-0.00000014,-0.00252625,0.00419608,0.00000004
 ,-0.15200179,-0.06440218,-0.00000067,-0.00108537,-0.00131278,-0.000000
 01,0.52257218,0.02362276,0.01636806,0.00000014,0.00219683,-0.00347501,
 0.,-0.07982945,-0.14461831,-0.00000056,0.00131230,0.00113451,0.,-0.043
 59103,0.54447914,0.00000027,0.00000013,0.00188708,0.00000002,-0.000000
 02,-0.00065518,-0.00000080,-0.00000064,-0.08197348,0.00000002,0.,0.000
 80728,0.00000005,-0.00000028,0.57163402,-0.01556767,-0.02562361,0.0247
 1409,-0.04885530,0.00616424,-0.00652254,0.00464228,-0.00494301,0.00321
 660,0.00034335,0.01574795,-0.02279437,-0.00024589,0.00014441,-0.000193
 51,0.06096924,-0.01444418,-0.01896662,0.01750007,0.00453505,-0.1236757
 1,0.10535170,0.00303129,-0.00060419,-0.00075424,0.00157651,-0.01072802
 ,0.01646593,-0.00015400,0.00034966,-0.00034057,0.00369531,0.14257056,0
 .00637939,0.00285610,0.00642774,-0.00459283,0.10828458,-0.21301436,-0.
 00165942,0.00011907,0.00090176,-0.00024811,-0.00160994,0.00152829,0.00
 024727,-0.00047182,0.00042608,0.00087580,-0.12326969,0.22417065,-0.015
 56766,-0.02562298,-0.02471450,-0.04885554,0.00616377,0.00652219,0.0046
 4228,-0.00494294,-0.00321667,0.00034350,0.01574736,0.02279466,-0.00024
 589,0.00014441,0.00019352,0.00188482,0.00062914,-0.00134974,0.06096929
 ,-0.01444410,-0.01896606,-0.01750048,0.00453470,-0.12366992,-0.1053478
 3,0.00303124,-0.00060423,0.00075421,0.00157641,-0.01072766,-0.01646619
 ,-0.00015400,0.00034965,0.00034056,0.00062917,0.01095847,0.01444753,0.
 00369571,0.14256393,-0.00637967,-0.00285657,0.00642745,0.00459252,-0.1
 0828057,-0.21301723,0.00165948,-0.00011910,0.00090176,0.00024816,0.001
 60957,0.00152784,-0.00024728,0.00047181,0.00042609,0.00134967,-0.01444
 688,-0.02178782,-0.00087531,0.12326596,0.22417423,-0.01557797,0.025625
 22,0.02471874,0.00464197,0.00494447,0.00321684,-0.04885018,-0.00615358
 ,-0.00650532,-0.00024591,-0.00014457,-0.00019366,0.00034740,-0.0157448
 3,-0.02279146,-0.00040278,-0.00047426,-0.00010975,-0.00001366,-0.00110
 171,-0.00144904,0.06096954,0.01444582,-0.01895932,-0.01749642,-0.00302
 999,-0.00060380,0.00075463,-0.00452399,-0.12367687,-0.10536189,0.00015
 387,0.00034961,0.00034051,-0.00157364,-0.01073081,-0.01647070,0.000474
 13,0.00019993,-0.00000645,0.00110137,0.00088319,0.00028609,-0.00370952
 ,0.14256766,0.00637968,-0.00285597,0.00642617,-0.00165918,-0.00011930,
 0.00090169,-0.00457410,-0.10829434,-0.21303994,0.00024717,0.00047184,0
 .00042607,-0.00024849,0.00160998,0.00152869,-0.00010971,0.00000642,-0.
 00060555,0.00144888,0.00028638,-0.00010416,0.00085398,0.12327952,0.224
 19505,-0.01557798,0.02562563,-0.02471832,0.00464196,0.00494455,-0.0032
 1676,-0.04885033,-0.00615393,0.00650550,-0.00024591,-0.00014457,0.0001
 9365,0.00034747,-0.01574527,0.02279113,-0.00001367,-0.00110174,0.00144
 901,-0.00040278,-0.00047427,0.00010974,0.00188478,-0.00063085,-0.00134
 671,0.06096966,0.01444590,-0.01895973,0.01749601,-0.00303003,-0.000603
 78,-0.00075466,-0.00452425,-0.12368040,0.10536327,0.00015387,0.0003496
 2,-0.00034051,-0.00157366,-0.01073108,0.01647043,0.00110138,0.00088321
 ,-0.00028607,0.00047413,0.00019993,0.00000646,-0.00063084,0.01095883,-
 0.01444765,-0.00370925,0.14257184,-0.00637947,0.00285557,0.00642645,0.
 00165914,0.00011928,0.00090167,0.00457427,0.10829575,-0.21303596,-0.00
 024717,-0.00047185,0.00042606,0.00024845,-0.00161024,0.00152899,-0.001
 44886,-0.00028637,-0.00010416,0.00010972,-0.00000641,-0.00060554,0.001
 34673,0.01444821,-0.02178538,-0.00085427,-0.12328077,0.22419053,-0.005
 89797,0.00550680,0.00000006,-0.01656473,-0.01887306,-0.00000016,0.0002
 1485,-0.00163497,0.,-0.24054178,-0.11726860,-0.00000074,-0.00042594,0.
 00042256,0.,0.00034524,0.00031874,-0.00077637,0.00034526,0.00031871,0.
 00077638,-0.00011735,0.00014055,0.00012982,-0.00011735,0.00014055,-0.0
 0012982,0.26199535,0.00482421,-0.00279793,-0.00000004,0.01622215,0.013
 47294,0.00000011,0.00093113,0.00103556,0.,-0.12015385,-0.12098436,-0.0
 0000050,0.00033322,-0.00034656,0.,-0.00080215,0.00045481,0.00045071,-0
 .00080217,0.00045484,-0.00045070,-0.00001662,-0.00000068,-0.00005928,-
 0.00001662,-0.00000068,0.00005928,0.12899183,0.12732098,0.00000006,-0.
 00000005,0.00069092,0.00000022,0.00000023,-0.00235788,0.00000001,0.,0.
 00071236,-0.00000077,-0.00000052,-0.04490320,0.,0.,-0.00003366,-0.0000
 1740,-0.00003468,-0.00013919,0.00001738,0.00003469,-0.00013921,-0.0001
 0024,0.00005169,-0.00004083,0.00010024,-0.00005169,-0.00004083,0.00000
 080,0.00000052,0.04413068,0.00271651,-0.00094437,0.00045655,-0.0005458
 2,0.01749552,-0.02412785,-0.00041993,0.00031363,-0.00005994,-0.0459039
 6,-0.00499689,0.00633662,0.00010433,-0.00010108,0.00009631,-0.00409027
 ,0.00312244,0.00026051,0.00098115,-0.00087307,0.00030579,0.00005718,-0
 .00002211,-0.00005007,0.00006977,-0.00025719,0.00024973,0.00042847,-0.
 01480652,0.02314546,0.04788638,-0.00084789,0.00143195,-0.00106151,-0.0
 0112568,-0.01457992,0.01894289,-0.00010311,0.00014794,-0.00005240,-0.0
 0311613,-0.13595137,0.12515342,0.00000933,0.00002125,-0.00007558,0.003
 80775,-0.00156803,-0.00067163,-0.00060832,0.00012139,-0.00021050,0.000
 00847,-0.00006709,-0.00000357,-0.00020462,0.00007225,-0.00011570,0.001
 03966,-0.00934918,0.01226559,0.00039933,0.14776924,-0.00068946,-0.0003
 3979,0.00008205,0.00025206,-0.00072752,0.00084164,-0.00005559,-0.00026
 357,0.00013002,0.00498604,0.12630594,-0.22528864,-0.00003887,0.0000505
 3,-0.00004086,0.00051105,-0.00014285,0.00146237,-0.00062272,-0.0000363
 6,0.00080421,0.00002839,-0.00002174,-0.00001553,0.00013169,-0.00005520
 ,-0.00001365,0.00000268,-0.00212754,0.00104881,-0.00554508,-0.13840076
 ,0.24016528,0.00271655,-0.00094439,-0.00045657,-0.00054574,0.01749504,
 0.02412823,-0.00041993,0.00031365,0.00005994,-0.04590393,-0.00499778,-
 0.00633804,0.00010433,-0.00010108,-0.00009631,0.00098116,-0.00087307,-
 0.00030580,-0.00409029,0.00312247,-0.00026041,0.00006977,-0.00025719,-
 0.00024973,0.00005717,-0.00002211,0.00005007,0.00042839,-0.01480598,-0
 .02314576,-0.00122041,0.00069548,0.00108580,0.04788633,-0.00084793,0.0
 0143195,0.00106155,-0.00112573,-0.01457957,-0.01894327,-0.00010311,0.0
 0014792,0.00005240,-0.00311702,-0.13594589,-0.12515133,0.00000933,0.00
 002125,0.00007558,-0.00060833,0.00012139,0.00021049,0.00380778,-0.0015
 6807,0.00067156,-0.00020462,0.00007225,0.00011570,0.00000847,-0.000067
 09,0.00000357,0.00103959,-0.00934892,-0.01226578,0.00069560,0.01191001
 ,0.01577529,0.00040025,0.14776320,0.00068943,0.00033983,0.00008209,-0.
 00025210,0.00072703,0.00084105,0.00005559,0.00026357,0.00013003,-0.004
 98738,-0.12630383,-0.22529407,0.00003887,-0.00005053,-0.00004086,0.000
 62271,0.00003636,0.00080422,-0.00051093,0.00014276,0.00146239,-0.00013
 169,0.00005520,-0.00001365,-0.00002839,0.00002174,-0.00001553,-0.00000
 265,0.00212743,0.00104876,-0.00108589,-0.01577461,-0.01920081,0.005546
 45,0.13839861,0.24017128,-0.00589553,-0.00550745,-0.00000004,0.0002147
 0,0.00163498,0.00000001,-0.01656545,0.01886592,0.00000031,-0.00042577,
 -0.00042258,0.,-0.24059313,0.11723600,0.00000225,-0.00011732,-0.000140
 59,0.00012982,-0.00011732,-0.00014059,-0.00012983,0.00034519,-0.000318
 70,-0.00077622,0.00034515,-0.00031875,0.00077620,-0.00016450,0.0001137
 1,0.,0.00003603,0.00001429,-0.00001806,0.00003603,0.00001429,0.0000180
 6,0.26205176,-0.00482513,-0.00280015,-0.00000002,-0.00093129,0.0010359
 1,0.,-0.01622872,0.01347354,0.00000025,-0.00033326,-0.00034674,0.,0.12
 012092,-0.12092630,-0.00000136,0.00001659,-0.00000072,0.00005932,0.000
 01659,-0.00000072,-0.00005932,0.00080222,0.00045496,-0.00045089,0.0008
 0221,0.00045490,0.00045091,-0.00011377,0.00010262,0.,0.00000618,-0.000
 00671,-0.00002462,0.00000618,-0.00000672,0.00002462,-0.12895632,0.1272
 5818,-0.00000007,-0.00000003,0.00069090,-0.00000001,0.,0.00071236,-0.0
 0000018,0.00000013,-0.00235794,0.,0.,-0.00003366,0.00000231,-0.0000013
 8,-0.04490382,-0.00010023,-0.00005170,-0.00004083,0.00010023,0.0000517
 0,-0.00004083,-0.00001734,0.00003471,-0.00013916,0.00001735,-0.0000347
 0,-0.00013917,0.,0.,0.00000888,0.00000543,0.00000519,0.00000719,-0.000
 00543,-0.00000519,0.00000719,-0.00000249,0.00000162,0.04413157,0.00271
 607,0.00094463,0.00045630,-0.00041986,-0.00031383,-0.00005999,-0.00054
 223,-0.01749171,-0.02412428,0.00010431,0.00010110,0.00009629,-0.045904
 81,0.00501607,0.00636441,0.00005717,0.00002214,-0.00005007,0.00006965,
 0.00025720,0.00024972,-0.00408880,-0.00312293,0.00026047,0.00098084,0.
 00087317,0.00030580,0.00003603,-0.00000617,0.00000543,-0.00001723,-0.0
 0000723,-0.00000775,-0.00008221,0.00003867,0.00002019,0.00042516,0.014
 80852,0.02314883,0.04788606,0.00084819,0.00143229,0.00106160,0.0001030
 5,0.00014789,0.00005239,0.00112906,-0.01458310,-0.01894895,-0.00000932
 ,0.00002127,0.00007560,0.00313508,-0.13594427,-0.12515185,-0.00000845,
 -0.00006710,0.00000357,0.00020460,0.00007235,0.00011576,-0.00380829,-0
 .00156957,0.00067173,0.00060848,0.00012172,0.00021056,-0.00001428,-0.0
 0000672,-0.00000519,0.00000722,0.00000493,0.00000450,-0.00003869,0.000
 04334,-0.00000367,-0.00103711,-0.00934590,-0.01226066,-0.00042107,0.14
 776303,-0.00068940,0.00033964,0.00008209,-0.00005564,0.00026357,0.0001
 3005,0.00025181,0.00072741,0.00084140,-0.00003885,-0.00005054,-0.00004
 086,0.00501377,-0.12630477,-0.22529890,0.00002839,0.00002175,-0.000015
 53,0.00013168,0.00005523,-0.00001365,0.00051108,0.00014287,0.00146238,
 -0.00062273,0.00003624,0.00080417,-0.00001806,0.00002462,0.00000719,-0
 .00000775,-0.00000451,-0.00001809,-0.00002019,-0.00000368,0.00003601,0
 .00000221,0.00212706,0.00104840,-0.00557576,0.13839942,0.24017586,0.00
 271607,0.00094462,-0.00045627,-0.00041987,-0.00031383,0.00006000,-0.00
 054210,-0.01749239,0.02412382,0.00010431,0.00010111,-0.00009629,-0.045
 90505,0.00501742,-0.00636589,0.00006965,0.00025721,-0.00024972,0.00005
 717,0.00002214,0.00005007,0.00098083,0.00087317,-0.00030579,-0.0040888
 0,-0.00312291,-0.00026052,0.00003603,-0.00000617,-0.00000543,-0.000082
 21,0.00003867,-0.00002019,-0.00001723,-0.00000723,0.00000775,0.0004250
 2,0.01480907,-0.02314839,-0.00122016,-0.00069848,0.00108943,0.04788633
 ,0.00084820,0.00143232,-0.00106158,0.00010304,0.00014790,-0.00005239,0
 .00112917,-0.01458355,0.01894857,-0.00000932,0.00002127,-0.00007560,0.
 00313635,-0.13595118,0.12515429,0.00020460,0.00007235,-0.00011576,-0.0
 0000845,-0.00006710,-0.00000357,0.00060845,0.00012172,-0.00021058,-0.0
 0380823,-0.00156953,-0.00067180,-0.00001428,-0.00000672,0.00000519,-0.
 00003869,0.00004334,0.00000367,0.00000722,0.00000493,-0.00000450,-0.00
 103710,-0.00934614,0.01226030,-0.00069857,0.01190984,-0.01577432,-0.00
 042240,0.14777055,0.00068938,-0.00033962,0.00008205,0.00005564,-0.0002
 6358,0.00013004,-0.00025170,-0.00072762,0.00084166,0.00003885,0.000050
 54,-0.00004086,-0.00501531,0.12630712,-0.22529148,-0.00013168,-0.00005
 523,-0.00001365,-0.00002839,-0.00002175,-0.00001554,0.00062274,-0.0000
 3626,0.00080414,-0.00051113,-0.00014290,0.00146235,0.00001806,-0.00002
 462,0.00000719,0.00002019,0.00000368,0.00003601,0.00000775,0.00000451,
 -0.00001809,-0.00000222,-0.00212756,0.00104891,-0.00108959,0.01577520,
 -0.01920052,0.00557742,-0.13840193,0.24016777\\0.00001124,-0.00015130,
 0.00000010,0.00011209,0.00002808,-0.00000105,-0.00013420,0.00004732,0.
 00000004,-0.00005878,-0.00012967,0.00000005,0.00006613,-0.00013246,0.0
 0000017,-0.00002912,0.00003236,-0.00002001,-0.00002919,0.00003304,0.00
 002096,0.00003283,0.00002657,0.00001758,0.00003292,0.00002662,-0.00001
 768,0.00001194,0.00002299,0.00000008,-0.00000236,0.00004283,0.00000991
 ,-0.00000257,0.00004278,-0.00001001,-0.00001385,0.00002322,-0.00000015
 ,0.00000135,0.00004388,-0.00000923,0.00000158,0.00004373,0.00000922\\\
 @


 IF YOU WISH TO UNDERSTAND THE FRAGRANCE OF THE ROSE, 
 OR THE TENACITY OF THE OAK; 
 IF YOU ARE NOT SATISFIED UNTIL YOU KNOW THE SECRET PATHS 
 BY WHICH THE SUNSHINE AND THE AIR ACHIEVE THESE WONDERS; 
 IF YOU WISH TO SEE THE PATTERN WHICH UNDERLIES ONE LARGE FIELD OF 
 HUMAN EXPERIENCE AND HUMAN MEASUREMENT, THEN TAKE UP CHEMISTRY.

                                         -- C. A. COULSON, 1973.
 Job cpu time:       0 days  0 hours 43 minutes 36.7 seconds.
 Elapsed time:       0 days  0 hours  2 minutes 44.8 seconds.
 File lengths (MBytes):  RWF=     48 Int=      0 D2E=      0 Chk=      4 Scr=      1
 Normal termination of Gaussian 16 at Wed Oct  1 19:12:58 2025.
