 Entering Gaussian System, Link 0=g16
 Input=DIHE0035.gjf
 Output=DIHE0035.log
 Initial command:
 /usr/local/g16/l1.exe "/dados_01/scratch/Gau-2399907.inp" -scrdir="/dados_01/scratch/"
 Entering Link 1 = /usr/local/g16/l1.exe PID=   2399908.
  
 Copyright (c) 1988-2017, Gaussian, Inc.  All Rights Reserved.
  
 This is part of the Gaussian(R) 16 program.  It is based on
 the Gaussian(R) 09 system (copyright 2009, Gaussian, Inc.),
 the Gaussian(R) 03 system (copyright 2003, Gaussian, Inc.),
 the Gaussian(R) 98 system (copyright 1998, Gaussian, Inc.),
 the Gaussian(R) 94 system (copyright 1995, Gaussian, Inc.),
 the Gaussian 92(TM) system (copyright 1992, Gaussian, Inc.),
 the Gaussian 90(TM) system (copyright 1990, Gaussian, Inc.),
 the Gaussian 88(TM) system (copyright 1988, Gaussian, Inc.),
 the Gaussian 86(TM) system (copyright 1986, Carnegie Mellon
 University), and the Gaussian 82(TM) system (copyright 1983,
 Carnegie Mellon University). Gaussian is a federally registered
 trademark of Gaussian, Inc.
  
 This software contains proprietary and confidential information,
 including trade secrets, belonging to Gaussian, Inc.
  
 This software is provided under written license and may be
 used, copied, transmitted, or stored only in accord with that
 written license.
  
 The following legend is applicable only to US Government
 contracts under FAR:
  
                    RESTRICTED RIGHTS LEGEND
  
 Use, reproduction and disclosure by the US Government is
 subject to restrictions as set forth in subparagraphs (a)
 and (c) of the Commercial Computer Software - Restricted
 Rights clause in FAR 52.227-19.
  
 Gaussian, Inc.
 340 Quinnipiac St., Bldg. 40, Wallingford CT 06492
  
  
 ---------------------------------------------------------------
 Warning -- This program may not be used in any manner that
 competes with the business of Gaussian, Inc. or will provide
 assistance to any competitor of Gaussian, Inc.  The licensee
 of this program is prohibited from giving any competitor of
 Gaussian, Inc. access to this program.  By using this program,
 the user acknowledges that Gaussian, Inc. is engaged in the
 business of creating and licensing software in the field of
 computational chemistry and represents and warrants to the
 licensee that it is not a competitor of Gaussian, Inc. and that
 it will not use this program in any manner prohibited above.
 ---------------------------------------------------------------
  

 Cite this work as:
 Gaussian 16, Revision B.01,
 M. J. Frisch, G. W. Trucks, H. B. Schlegel, G. E. Scuseria, 
 M. A. Robb, J. R. Cheeseman, G. Scalmani, V. Barone, 
 G. A. Petersson, H. Nakatsuji, X. Li, M. Caricato, A. V. Marenich, 
 J. Bloino, B. G. Janesko, R. Gomperts, B. Mennucci, H. P. Hratchian, 
 J. V. Ortiz, A. F. Izmaylov, J. L. Sonnenberg, D. Williams-Young, 
 F. Ding, F. Lipparini, F. Egidi, J. Goings, B. Peng, A. Petrone, 
 T. Henderson, D. Ranasinghe, V. G. Zakrzewski, J. Gao, N. Rega, 
 G. Zheng, W. Liang, M. Hada, M. Ehara, K. Toyota, R. Fukuda, 
 J. Hasegawa, M. Ishida, T. Nakajima, Y. Honda, O. Kitao, H. Nakai, 
 T. Vreven, K. Throssell, J. A. Montgomery, Jr., J. E. Peralta, 
 F. Ogliaro, M. J. Bearpark, J. J. Heyd, E. N. Brothers, K. N. Kudin, 
 V. N. Staroverov, T. A. Keith, R. Kobayashi, J. Normand, 
 K. Raghavachari, A. P. Rendell, J. C. Burant, S. S. Iyengar, 
 J. Tomasi, M. Cossi, J. M. Millam, M. Klene, C. Adamo, R. Cammi, 
 J. W. Ochterski, R. L. Martin, K. Morokuma, O. Farkas, 
 J. B. Foresman, and D. J. Fox, Gaussian, Inc., Wallingford CT, 2016.
 
 ******************************************
 Gaussian 16:  ES64L-G16RevB.01 20-Dec-2017
                 1-Oct-2025 
 ******************************************
 %nprocs=16
 Will use up to   16 processors via shared memory.
 %mem=40GB
 %chk=DIHE0035.chk
 ----------------------------------------------------------------------
 # opt freq=noraman M08HX/6-311++G** scf=xqc Empiricaldispersion=pfd In
 t(Grid=ultraFine)
 ----------------------------------------------------------------------
 1/18=20,19=15,26=4,38=1/1,3;
 2/9=110,12=2,17=6,18=5,40=1/2;
 3/5=4,6=6,7=1111,11=2,25=1,30=1,71=1,74=-74,75=-5,124=11/1,2,3;
 4//1;
 5/5=2,8=3,13=1,38=5/2,8;
 6/7=2,8=2,9=2,10=2,28=1/1;
 7//1,2,3,16;
 1/18=20,19=15,26=4/3(2);
 2/9=110/2;
 99//99;
 2/9=110/2;
 3/5=4,6=6,7=1111,11=2,25=1,30=1,71=1,74=-74,75=-5,124=11/1,2,3;
 4/5=5,16=3,69=1/1;
 5/5=2,8=3,13=1,38=5/2,8;
 7//1,2,3,16;
 1/18=20,19=15,26=4/3(-5);
 2/9=110/2;
 6/7=2,8=2,9=2,10=2,19=2,28=1/1;
 99/9=1/99;
 --------
 DIHE0035
 --------
 Symbolic Z-matrix:
 Charge =  0 Multiplicity = 1
 O                    -4.8778   -0.6709   -0.007 
 O                     4.8772   -0.6683   -0.0079 
 O                    -3.8318    1.3848    0.0029 
 O                     3.818     1.3814   -0.0113 
 C                     0.0096   -0.6938   -0.0136 
 C                    -1.2564    0.1669    0.0409 
 C                     1.27      0.1722    0.0207 
 C                    -2.5339   -0.6726    0.0365 
 C                     2.5347   -0.6845   -0.005 
 C                    -3.7955    0.1621    0.0188 
 C                     3.7894    0.1584   -0.0095 
 C                    -6.153    -0.0229   -0.0567 
 C                     6.1496   -0.0128   -0.0086 
 H                     0.0024   -1.3004   -0.9272 
 H                     0.0162   -1.3871    0.8361 
 H                    -1.2386    0.7938    0.9413 
 H                    -1.2666    0.8528   -0.8157 
 H                     1.2675    0.7964    0.923 
 H                     1.2687    0.8572   -0.8363 
 H                    -2.5437   -1.3141   -0.8522 
 H                    -2.5574   -1.3063    0.9302 
 H                     2.541    -1.3082   -0.9059 
 H                     2.5593   -1.3322    0.8786 
 H                    -6.9265   -0.7953   -0.0729 
 H                    -6.2373    0.5776   -0.9675 
 H                    -6.2965    0.5992    0.8318 
 H                     6.2604    0.5979   -0.9097 
 H                     6.9276   -0.7807   -0.0073 
 H                     6.2599    0.6006    0.8907 
 

 GradGradGradGradGradGradGradGradGradGradGradGradGradGradGradGradGradGrad
 Berny optimization.
 Initialization pass.
                           ----------------------------
                           !    Initial Parameters    !
                           ! (Angstroms and Degrees)  !
 --------------------------                            --------------------------
 ! Name  Definition              Value          Derivative Info.                !
 --------------------------------------------------------------------------------
 ! R1    R(1,10)                 1.366          estimate D2E/DX2                !
 ! R2    R(1,12)                 1.4313         estimate D2E/DX2                !
 ! R3    R(2,11)                 1.3663         estimate D2E/DX2                !
 ! R4    R(2,13)                 1.4313         estimate D2E/DX2                !
 ! R5    R(3,10)                 1.2233         estimate D2E/DX2                !
 ! R6    R(4,11)                 1.2233         estimate D2E/DX2                !
 ! R7    R(5,6)                  1.5318         estimate D2E/DX2                !
 ! R8    R(5,7)                  1.5296         estimate D2E/DX2                !
 ! R9    R(5,14)                 1.0967         estimate D2E/DX2                !
 ! R10   R(5,15)                 1.0967         estimate D2E/DX2                !
 ! R11   R(6,8)                  1.5287         estimate D2E/DX2                !
 ! R12   R(6,16)                 1.0973         estimate D2E/DX2                !
 ! R13   R(6,17)                 1.0974         estimate D2E/DX2                !
 ! R14   R(7,9)                  1.5278         estimate D2E/DX2                !
 ! R15   R(7,18)                 1.0972         estimate D2E/DX2                !
 ! R16   R(7,19)                 1.0971         estimate D2E/DX2                !
 ! R17   R(8,10)                 1.5128         estimate D2E/DX2                !
 ! R18   R(8,20)                 1.0961         estimate D2E/DX2                !
 ! R19   R(8,21)                 1.0958         estimate D2E/DX2                !
 ! R20   R(9,11)                 1.5115         estimate D2E/DX2                !
 ! R21   R(9,22)                 1.0957         estimate D2E/DX2                !
 ! R22   R(9,23)                 1.0958         estimate D2E/DX2                !
 ! R23   R(12,24)                1.0932         estimate D2E/DX2                !
 ! R24   R(12,25)                1.0942         estimate D2E/DX2                !
 ! R25   R(12,26)                1.0941         estimate D2E/DX2                !
 ! R26   R(13,27)                1.0942         estimate D2E/DX2                !
 ! R27   R(13,28)                1.0931         estimate D2E/DX2                !
 ! R28   R(13,29)                1.0942         estimate D2E/DX2                !
 ! A1    A(10,1,12)            115.4987         estimate D2E/DX2                !
 ! A2    A(11,2,13)            115.51           estimate D2E/DX2                !
 ! A3    A(6,5,7)              111.2288         estimate D2E/DX2                !
 ! A4    A(6,5,14)             109.5727         estimate D2E/DX2                !
 ! A5    A(6,5,15)             109.4276         estimate D2E/DX2                !
 ! A6    A(7,5,14)             109.7092         estimate D2E/DX2                !
 ! A7    A(7,5,15)             109.6078         estimate D2E/DX2                !
 ! A8    A(14,5,15)            107.2066         estimate D2E/DX2                !
 ! A9    A(5,6,8)              112.4578         estimate D2E/DX2                !
 ! A10   A(5,6,16)             109.6818         estimate D2E/DX2                !
 ! A11   A(5,6,17)             109.3349         estimate D2E/DX2                !
 ! A12   A(8,6,16)             109.2489         estimate D2E/DX2                !
 ! A13   A(8,6,17)             109.4648         estimate D2E/DX2                !
 ! A14   A(16,6,17)            106.4735         estimate D2E/DX2                !
 ! A15   A(5,7,9)              111.3622         estimate D2E/DX2                !
 ! A16   A(5,7,18)             109.7952         estimate D2E/DX2                !
 ! A17   A(5,7,19)             109.572          estimate D2E/DX2                !
 ! A18   A(9,7,18)             109.557          estimate D2E/DX2                !
 ! A19   A(9,7,19)             109.7523         estimate D2E/DX2                !
 ! A20   A(18,7,19)            106.6894         estimate D2E/DX2                !
 ! A21   A(6,8,10)             113.2003         estimate D2E/DX2                !
 ! A22   A(6,8,20)             109.3427         estimate D2E/DX2                !
 ! A23   A(6,8,21)             109.4604         estimate D2E/DX2                !
 ! A24   A(10,8,20)            107.8168         estimate D2E/DX2                !
 ! A25   A(10,8,21)            108.1029         estimate D2E/DX2                !
 ! A26   A(20,8,21)            108.8203         estimate D2E/DX2                !
 ! A27   A(7,9,11)             111.9933         estimate D2E/DX2                !
 ! A28   A(7,9,22)             109.7412         estimate D2E/DX2                !
 ! A29   A(7,9,23)             109.661          estimate D2E/DX2                !
 ! A30   A(11,9,22)            108.0706         estimate D2E/DX2                !
 ! A31   A(11,9,23)            108.2619         estimate D2E/DX2                !
 ! A32   A(22,9,23)            109.0494         estimate D2E/DX2                !
 ! A33   A(1,10,3)             125.8552         estimate D2E/DX2                !
 ! A34   A(1,10,8)             108.9352         estimate D2E/DX2                !
 ! A35   A(3,10,8)             125.1944         estimate D2E/DX2                !
 ! A36   A(2,11,4)             125.8943         estimate D2E/DX2                !
 ! A37   A(2,11,9)             108.8728         estimate D2E/DX2                !
 ! A38   A(4,11,9)             125.2327         estimate D2E/DX2                !
 ! A39   A(1,12,24)            108.1208         estimate D2E/DX2                !
 ! A40   A(1,12,25)            110.2439         estimate D2E/DX2                !
 ! A41   A(1,12,26)            110.2484         estimate D2E/DX2                !
 ! A42   A(24,12,25)           108.7174         estimate D2E/DX2                !
 ! A43   A(24,12,26)           108.7213         estimate D2E/DX2                !
 ! A44   A(25,12,26)           110.7213         estimate D2E/DX2                !
 ! A45   A(2,13,27)            110.2449         estimate D2E/DX2                !
 ! A46   A(2,13,28)            108.1182         estimate D2E/DX2                !
 ! A47   A(2,13,29)            110.2403         estimate D2E/DX2                !
 ! A48   A(27,13,28)           108.7225         estimate D2E/DX2                !
 ! A49   A(27,13,29)           110.7183         estimate D2E/DX2                !
 ! A50   A(28,13,29)           108.7291         estimate D2E/DX2                !
 ! D1    D(12,1,10,3)           -0.0127         estimate D2E/DX2                !
 ! D2    D(12,1,10,8)         -178.6488         estimate D2E/DX2                !
 ! D3    D(10,1,12,24)        -179.9922         estimate D2E/DX2                !
 ! D4    D(10,1,12,25)          61.2854         estimate D2E/DX2                !
 ! D5    D(10,1,12,26)         -61.2624         estimate D2E/DX2                !
 ! D6    D(13,2,11,4)           -0.0076         estimate D2E/DX2                !
 ! D7    D(13,2,11,9)         -179.8599         estimate D2E/DX2                !
 ! D8    D(11,2,13,27)         -61.2655         estimate D2E/DX2                !
 ! D9    D(11,2,13,28)        -179.9931         estimate D2E/DX2                !
 ! D10   D(11,2,13,29)          61.2739         estimate D2E/DX2                !
 ! D11   D(7,5,6,8)           -178.8497         estimate D2E/DX2                !
 ! D12   D(7,5,6,16)           -57.0661         estimate D2E/DX2                !
 ! D13   D(7,5,6,17)            59.3365         estimate D2E/DX2                !
 ! D14   D(14,5,6,8)            59.6772         estimate D2E/DX2                !
 ! D15   D(14,5,6,16)         -178.5392         estimate D2E/DX2                !
 ! D16   D(14,5,6,17)          -62.1366         estimate D2E/DX2                !
 ! D17   D(15,5,6,8)           -57.6012         estimate D2E/DX2                !
 ! D18   D(15,5,6,16)           64.1824         estimate D2E/DX2                !
 ! D19   D(15,5,6,17)         -179.415          estimate D2E/DX2                !
 ! D20   D(6,5,7,9)            178.8504         estimate D2E/DX2                !
 ! D21   D(6,5,7,18)            57.3306         estimate D2E/DX2                !
 ! D22   D(6,5,7,19)           -59.5352         estimate D2E/DX2                !
 ! D23   D(14,5,7,9)           -59.7562         estimate D2E/DX2                !
 ! D24   D(14,5,7,18)          178.724          estimate D2E/DX2                !
 ! D25   D(14,5,7,19)           61.8582         estimate D2E/DX2                !
 ! D26   D(15,5,7,9)            57.7075         estimate D2E/DX2                !
 ! D27   D(15,5,7,18)          -63.8123         estimate D2E/DX2                !
 ! D28   D(15,5,7,19)          179.3219         estimate D2E/DX2                !
 ! D29   D(5,6,8,10)          -177.0668         estimate D2E/DX2                !
 ! D30   D(5,6,8,20)           -56.8506         estimate D2E/DX2                !
 ! D31   D(5,6,8,21)            62.27           estimate D2E/DX2                !
 ! D32   D(16,6,8,10)           60.9038         estimate D2E/DX2                !
 ! D33   D(16,6,8,20)         -178.88           estimate D2E/DX2                !
 ! D34   D(16,6,8,21)          -59.7593         estimate D2E/DX2                !
 ! D35   D(17,6,8,10)          -55.3268         estimate D2E/DX2                !
 ! D36   D(17,6,8,20)           64.8893         estimate D2E/DX2                !
 ! D37   D(17,6,8,21)         -175.99           estimate D2E/DX2                !
 ! D38   D(5,7,9,11)           178.4483         estimate D2E/DX2                !
 ! D39   D(5,7,9,22)            58.4242         estimate D2E/DX2                !
 ! D40   D(5,7,9,23)           -61.341          estimate D2E/DX2                !
 ! D41   D(18,7,9,11)          -59.8934         estimate D2E/DX2                !
 ! D42   D(18,7,9,22)         -179.9175         estimate D2E/DX2                !
 ! D43   D(18,7,9,23)           60.3172         estimate D2E/DX2                !
 ! D44   D(19,7,9,11)           56.9387         estimate D2E/DX2                !
 ! D45   D(19,7,9,22)          -63.0854         estimate D2E/DX2                !
 ! D46   D(19,7,9,23)          177.1494         estimate D2E/DX2                !
 ! D47   D(6,8,10,1)           178.9779         estimate D2E/DX2                !
 ! D48   D(6,8,10,3)             0.3306         estimate D2E/DX2                !
 ! D49   D(20,8,10,1)           57.8961         estimate D2E/DX2                !
 ! D50   D(20,8,10,3)         -120.7512         estimate D2E/DX2                !
 ! D51   D(21,8,10,1)          -59.592          estimate D2E/DX2                !
 ! D52   D(21,8,10,3)          121.7607         estimate D2E/DX2                !
 ! D53   D(7,9,11,2)           178.9002         estimate D2E/DX2                !
 ! D54   D(7,9,11,4)            -0.9534         estimate D2E/DX2                !
 ! D55   D(22,9,11,2)          -60.1048         estimate D2E/DX2                !
 ! D56   D(22,9,11,4)          120.0417         estimate D2E/DX2                !
 ! D57   D(23,9,11,2)           57.8772         estimate D2E/DX2                !
 ! D58   D(23,9,11,4)         -121.9763         estimate D2E/DX2                !
 --------------------------------------------------------------------------------
 Trust Radius=3.00D-01 FncErr=1.00D-07 GrdErr=1.00D-06 EigMax=2.50D+02 EigMin=1.00D-04
 Number of steps in this run=    146 maximum allowed number of steps=    174.
 GradGradGradGradGradGradGradGradGradGradGradGradGradGradGradGradGradGrad

                          Input orientation:                          
 ---------------------------------------------------------------------
 Center     Atomic      Atomic             Coordinates (Angstroms)
 Number     Number       Type             X           Y           Z
 ---------------------------------------------------------------------
      1          8           0       -4.877800   -0.670900   -0.007000
      2          8           0        4.877200   -0.668300   -0.007900
      3          8           0       -3.831800    1.384800    0.002900
      4          8           0        3.818000    1.381400   -0.011300
      5          6           0        0.009600   -0.693800   -0.013600
      6          6           0       -1.256400    0.166900    0.040900
      7          6           0        1.270000    0.172200    0.020700
      8          6           0       -2.533900   -0.672600    0.036500
      9          6           0        2.534700   -0.684500   -0.005000
     10          6           0       -3.795500    0.162100    0.018800
     11          6           0        3.789400    0.158400   -0.009500
     12          6           0       -6.153000   -0.022900   -0.056700
     13          6           0        6.149600   -0.012800   -0.008600
     14          1           0        0.002400   -1.300400   -0.927200
     15          1           0        0.016200   -1.387100    0.836100
     16          1           0       -1.238600    0.793800    0.941300
     17          1           0       -1.266600    0.852800   -0.815700
     18          1           0        1.267500    0.796400    0.923000
     19          1           0        1.268700    0.857200   -0.836300
     20          1           0       -2.543700   -1.314100   -0.852200
     21          1           0       -2.557400   -1.306300    0.930200
     22          1           0        2.541000   -1.308200   -0.905900
     23          1           0        2.559300   -1.332200    0.878600
     24          1           0       -6.926500   -0.795300   -0.072900
     25          1           0       -6.237300    0.577600   -0.967500
     26          1           0       -6.296500    0.599200    0.831800
     27          1           0        6.260400    0.597900   -0.909700
     28          1           0        6.927600   -0.780700   -0.007300
     29          1           0        6.259900    0.600600    0.890700
 ---------------------------------------------------------------------
                    Distance matrix (angstroms):
                    1          2          3          4          5
     1  O    0.000000
     2  O    9.755000   0.000000
     3  O    2.306538   8.947738   0.000000
     4  O    8.934702   2.307203   7.649814   0.000000
     5  C    4.887458   4.867670   4.367746   4.337092   0.000000
     6  C    3.717357   6.190395   2.849107   5.217976   1.531839
     7  C    6.205403   3.703937   5.243956   2.820548   1.529621
     8  C    2.344304   7.411234   2.432811   6.675915   2.544082
     9  C    7.412513   2.342558   6.694355   2.432045   2.525132
    10  C    1.365990   8.712405   1.223342   7.710576   3.900308
    11  C    8.706785   1.366289   7.719255   1.223336   3.874681
    12  C    1.431261  11.049173   2.715353  10.069506   6.199161
    13  C   11.047020   1.431322  10.078778   2.716645   6.177652
    14  H    5.005936   5.000834   4.772471   4.752865   1.096668
    15  H    5.017469   4.985813   4.815055   4.778741   1.096676
    16  H    4.035888   6.359381   2.820383   5.178989   2.163976
    17  H    4.002052   6.380640   2.744701   5.174904   2.159635
    18  H    6.386124   4.005228   5.214946   2.778523   2.163383
    19  H    6.387667   4.004331   5.195933   2.730264   2.160502
    20  H    2.564389   7.496643   3.110379   6.960177   2.758145
    21  H    2.581924   7.520662   3.118654   6.982541   2.802749
    22  H    7.500184   2.583352   6.977875   3.108856   2.753484
    23  H    7.518781   2.568911   6.999650   3.120877   2.775706
    24  H    2.053531  11.804562   3.786258  10.962942   6.937096
    25  H    2.080758  11.225204   2.716556  10.132594   6.445940
    26  H    2.080733  11.276667   2.716429  10.179674   6.492569
    27  H   11.246520   2.080805  10.163885   2.717777   6.445462
    28  H   11.805911   2.053479  10.975162   3.787388   6.918549
    29  H   11.245930   2.080733  10.160983   2.717743   6.446664
                    6          7          8          9         10
     6  C    0.000000
     7  C    2.526486   0.000000
     8  C    1.528655   3.896613   0.000000
     9  C    3.885798   1.527764   5.068784   0.000000
    10  C    2.539201   5.065510   1.512836   6.386606   0.000000
    11  C    5.046059   2.519619   6.377837   1.511546   7.584954
    12  C    4.901249   7.425967   3.678136   8.713009   2.365953
    13  C    7.408345   4.883194   8.708648   3.676778   9.946676
    14  H    2.162120   2.161915   2.784900   2.764476   4.178261
    15  H    2.160271   2.160627   2.766384   2.746623   4.194885
    16  H    1.097288   2.743531   2.155642   4.161568   2.790661
    17  H    1.097418   2.756288   2.158504   4.179762   2.751144
    18  H    2.746715   1.097168   4.170670   2.158714   5.182073
    19  H    2.760819   1.097122   4.190684   2.161170   5.182710
    20  H    2.155952   4.185134   1.096087   5.186935   2.122454
    21  H    2.157261   4.202635   1.095823   5.214472   2.125968
    22  H    4.182415   2.160003   5.200646   1.095747   6.570242
    23  H    4.184329   2.159052   5.204315   1.095842   6.584502
    24  H    5.752288   8.253934   4.395675   9.462092   3.275391
    25  H    5.098520   7.582905   4.035615   8.914443   2.666049
    26  H    5.120060   7.621820   4.050572   8.963159   2.665901
    27  H    7.588918   5.094208   8.935837   4.042756  10.108074
    28  H    8.238818   5.737355   9.462219   4.393954  10.764498
    29  H    7.576610   5.083260   8.926456   4.041148  10.102651
                   11         12         13         14         15
    11  C    0.000000
    12  C    9.944165   0.000000
    13  C    2.366401  12.302698   0.000000
    14  H    4.160726   6.346552   6.347425   0.000000
    15  H    4.164210   6.381000   6.341988   1.765484   0.000000
    16  H    5.156407   5.080780   7.492557   3.068721   2.518316
    17  H    5.166748   5.021936   7.510040   2.501812   3.064502
    18  H    2.763436   7.529601   5.035631   3.069249   2.518129
    19  H    2.743328   7.514252   5.026447   2.503401   3.066359
    20  H    6.556413   3.914979   8.830544   2.547241   3.067372
    21  H    6.581053   3.943276   8.852476   3.162680   2.576587
    22  H    2.124371   8.829427   3.937665   2.538701   3.068453
    23  H    2.126912   8.859640   3.926601   3.130441   2.544048
    24  H   10.758442   1.093237  13.099650   6.999615   7.026919
    25  H   10.081082   1.094195  12.437980   6.516315   6.798476
    26  H   10.130522   1.094090  12.489444   6.810191   6.617823
    27  H    2.666339  12.458150   1.094172   6.539603   6.780714
    28  H    3.275700  13.102626   1.093140   7.005334   6.989027
    29  H    2.666322  12.464606   1.094151   6.787847   6.552688
                   16         17         18         19         20
    16  H    0.000000
    17  H    1.758213   0.000000
    18  H    2.506168   3.073747   0.000000
    19  H    3.074156   2.535388   1.760351   0.000000
    20  H    3.059930   2.515506   4.704337   4.387390   0.000000
    21  H    2.479874   3.062033   4.364775   4.737119   1.782470
    22  H    4.702757   4.379027   3.065293   2.512479   5.084987
    23  H    4.352913   4.720422   2.490313   3.065942   5.388562
    24  H    5.992165   5.941587   8.406364   8.394929   4.481674
    25  H    5.355115   4.980626   7.742344   7.512352   4.151446
    26  H    5.062826   5.298912   7.567120   7.751217   4.536527
    27  H    7.726550   7.531901   5.322334   4.998969   9.009508
    28  H    8.370527   8.394447   5.948902   5.949211   9.523859
    29  H    7.501159   7.721632   4.996343   5.287764   9.176445
                   21         22         23         24         25
    21  H    0.000000
    22  H    5.418944   0.000000
    23  H    5.117026   1.784755   0.000000
    24  H    4.511803   9.517905   9.548509   0.000000
    25  H    4.548847   8.978785   9.188884   1.777684   0.000000
    26  H    4.197795   9.206475   9.064088   1.777642   1.800403
    27  H    9.206780   4.179374   4.541084  13.286669  12.497850
    28  H    9.545700   4.508658   4.491215  13.854263  13.269573
    29  H    9.021231   4.549891   4.174961  13.295044  12.634613
                   26         27         28         29
    26  H    0.000000
    27  H   12.677088   0.000000
    28  H   13.322351   1.777644   0.000000
    29  H   12.556538   1.800402   1.777700   0.000000
 Stoichiometry    C9H16O4
 Framework group  C1[X(C9H16O4)]
 Deg. of freedom    81
 Full point group                 C1      NOp   1
 Largest Abelian subgroup         C1      NOp   1
 Largest concise Abelian subgroup C1      NOp   1
                         Standard orientation:                         
 ---------------------------------------------------------------------
 Center     Atomic      Atomic             Coordinates (Angstroms)
 Number     Number       Type             X           Y           Z
 ---------------------------------------------------------------------
      1          8           0       -4.877945   -0.660692   -0.003388
      2          8           0        4.877054   -0.659009   -0.008740
      3          8           0       -3.831747    1.394915    0.005028
      4          8           0        3.818045    1.390789   -0.012661
      5          6           0        0.009450   -0.684054   -0.012207
      6          6           0       -1.256445    0.176792    0.042450
      7          6           0        1.269946    0.181844    0.021094
      8          6           0       -2.534025   -0.662590    0.039044
      9          6           0        2.534554   -0.674987   -0.004763
     10          6           0       -3.795555    0.172219    0.021511
     11          6           0        3.789331    0.167793   -0.010249
     12          6           0       -6.153106   -0.012596   -0.052823
     13          6           0        6.149515   -0.003629   -0.010342
     14          1           0        0.001776   -1.291101   -0.925506
     15          1           0        0.016373   -1.376938    0.837830
     16          1           0       -1.238175    0.804131    0.942534
     17          1           0       -1.266971    0.862273   -0.814482
     18          1           0        1.267917    0.806486    0.923089
     19          1           0        1.268320    0.866425   -0.836241
     20          1           0       -2.544291   -1.304525   -0.849337
     21          1           0       -2.557177   -1.295851    0.933065
     22          1           0        2.540385   -1.299129   -0.905361
     23          1           0        2.559497   -1.322257    0.879142
     24          1           0       -6.926686   -0.784931   -0.068292
     25          1           0       -6.237766    0.587466   -0.963878
     26          1           0       -6.296143    0.609952    0.835438
     27          1           0        6.259961    0.606620   -0.911791
     28          1           0        6.927444   -0.771601   -0.009021
     29          1           0        6.260283    0.610201    0.888607
 ---------------------------------------------------------------------
 Rotational constants (GHZ):           4.1773593           0.1699565           0.1645114
 Standard basis: 6-311++G(d,p) (5D, 7F)
 There are   411 symmetry adapted cartesian basis functions of A   symmetry.
 There are   398 symmetry adapted basis functions of A   symmetry.
   398 basis functions,   612 primitive gaussians,   411 cartesian basis functions
    51 alpha electrons       51 beta electrons
       nuclear repulsion energy       763.1179458859 Hartrees.
 NAtoms=   29 NActive=   29 NUniq=   29 SFac= 1.00D+00 NAtFMM=   60 NAOKFM=F Big=F
 Integral buffers will be    131072 words long.
 Raffenetti 2 integral format.
 Two-electron integral symmetry is turned on.
 R6APFD:  NTU= -4 IXU= 1 FactS= 1.050
 Nuclear repulsion after empirical dispersion term =      763.0978214489 Hartrees.
 One-electron integrals computed using PRISM.
 NBasis=   398 RedAO= T EigKep=  4.16D-06  NBF=   398
 NBsUse=   398 1.00D-06 EigRej= -1.00D+00 NBFU=   398
 ExpMin= 3.60D-02 ExpMax= 8.59D+03 ExpMxC= 1.30D+03 IAcc=3 IRadAn=         5 AccDes= 0.00D+00
 Harris functional with IExCor= 1009 and IRadAn=       5 diagonalized for initial guess.
 HarFok:  IExCor= 1009 AccDes= 0.00D+00 IRadAn=         5 IDoV= 1 UseB2=F ITyADJ=14
 ICtDFT=  3500011 ScaDFX=  1.000000  1.000000  1.000000  1.000000
 FoFCou: FMM=F IPFlag=           0 FMFlag=      100000 FMFlg1=           0
         NFxFlg=           0 DoJE=T BraDBF=F KetDBF=T FulRan=T
         wScrn=  0.000000 ICntrl=       500 IOpCl=  0 I1Cent=   200000004 NGrid=           0
         NMat0=    1 NMatS0=      1 NMatT0=    0 NMatD0=    1 NMtDS0=    0 NMtDT0=    0
 Petite list used in FoFCou.
 Requested convergence on RMS density matrix=1.00D-08 within  32 cycles.
 Requested convergence on MAX density matrix=1.00D-06.
 Requested convergence on             energy=1.00D-06.
 No special actions if energy rises.
 SCF Done:  E(RM08HX) =  -653.502790928     A.U. after   13 cycles
            NFock= 13  Conv=0.94D-08     -V/T= 2.0048
 QCSCF skips out because SCF is already converged.

 **********************************************************************

            Population analysis using the SCF Density.

 **********************************************************************

 Orbital symmetries:
       Occupied  (A) (A) (A) (A) (A) (A) (A) (A) (A) (A) (A) (A)
                 (A) (A) (A) (A) (A) (A) (A) (A) (A) (A) (A) (A)
                 (A) (A) (A) (A) (A) (A) (A) (A) (A) (A) (A) (A)
                 (A) (A) (A) (A) (A) (A) (A) (A) (A) (A) (A) (A)
                 (A) (A) (A)
       Virtual   (A) (A) (A) (A) (A) (A) (A) (A) (A) (A) (A) (A)
                 (A) (A) (A) (A) (A) (A) (A) (A) (A) (A) (A) (A)
                 (A) (A) (A) (A) (A) (A) (A) (A) (A) (A) (A) (A)
                 (A) (A) (A) (A) (A) (A) (A) (A) (A) (A) (A) (A)
                 (A) (A) (A) (A) (A) (A) (A) (A) (A) (A) (A) (A)
                 (A) (A) (A) (A) (A) (A) (A) (A) (A) (A) (A) (A)
                 (A) (A) (A) (A) (A) (A) (A) (A) (A) (A) (A) (A)
                 (A) (A) (A) (A) (A) (A) (A) (A) (A) (A) (A) (A)
                 (A) (A) (A) (A) (A) (A) (A) (A) (A) (A) (A) (A)
                 (A) (A) (A) (A) (A) (A) (A) (A) (A) (A) (A) (A)
                 (A) (A) (A) (A) (A) (A) (A) (A) (A) (A) (A) (A)
                 (A) (A) (A) (A) (A) (A) (A) (A) (A) (A) (A) (A)
                 (A) (A) (A) (A) (A) (A) (A) (A) (A) (A) (A) (A)
                 (A) (A) (A) (A) (A) (A) (A) (A) (A) (A) (A) (A)
                 (A) (A) (A) (A) (A) (A) (A) (A) (A) (A) (A) (A)
                 (A) (A) (A) (A) (A) (A) (A) (A) (A) (A) (A) (A)
                 (A) (A) (A) (A) (A) (A) (A) (A) (A) (A) (A) (A)
                 (A) (A) (A) (A) (A) (A) (A) (A) (A) (A) (A) (A)
                 (A) (A) (A) (A) (A) (A) (A) (A) (A) (A) (A) (A)
                 (A) (A) (A) (A) (A) (A) (A) (A) (A) (A) (A) (A)
                 (A) (A) (A) (A) (A) (A) (A) (A) (A) (A) (A) (A)
                 (A) (A) (A) (A) (A) (A) (A) (A) (A) (A) (A) (A)
                 (A) (A) (A) (A) (A) (A) (A) (A) (A) (A) (A) (A)
                 (A) (A) (A) (A) (A) (A) (A) (A) (A) (A) (A) (A)
                 (A) (A) (A) (A) (A) (A) (A) (A) (A) (A) (A) (A)
                 (A) (A) (A) (A) (A) (A) (A) (A) (A) (A) (A) (A)
                 (A) (A) (A) (A) (A) (A) (A) (A) (A) (A) (A) (A)
                 (A) (A) (A) (A) (A) (A) (A) (A) (A) (A) (A) (A)
                 (A) (A) (A) (A) (A) (A) (A) (A) (A) (A) (A)
 The electronic state is 1-A.
 Alpha  occ. eigenvalues --  -19.66265 -19.66252 -19.60873 -19.60849 -10.67303
 Alpha  occ. eigenvalues --  -10.67282 -10.58558 -10.58549 -10.54589 -10.54586
 Alpha  occ. eigenvalues --  -10.53151 -10.52981 -10.52973  -1.23023  -1.23014
 Alpha  occ. eigenvalues --   -1.14051  -1.14028  -0.93108  -0.89943  -0.85715
 Alpha  occ. eigenvalues --   -0.82680  -0.78929  -0.72265  -0.67809  -0.65251
 Alpha  occ. eigenvalues --   -0.64637  -0.59233  -0.58566  -0.58157  -0.57925
 Alpha  occ. eigenvalues --   -0.56845  -0.56515  -0.55640  -0.52953  -0.50716
 Alpha  occ. eigenvalues --   -0.49663  -0.49294  -0.47916  -0.46071  -0.44527
 Alpha  occ. eigenvalues --   -0.44083  -0.43661  -0.43482  -0.41199  -0.40460
 Alpha  occ. eigenvalues --   -0.39995  -0.39707  -0.38117  -0.38049  -0.36233
 Alpha  occ. eigenvalues --   -0.35961
 Alpha virt. eigenvalues --   -0.03239  -0.02495  -0.01609  -0.01539  -0.00793
 Alpha virt. eigenvalues --   -0.00290   0.00223   0.00788   0.01355   0.01431
 Alpha virt. eigenvalues --    0.02175   0.02338   0.02530   0.03580   0.03696
 Alpha virt. eigenvalues --    0.03885   0.04164   0.04805   0.05660   0.05891
 Alpha virt. eigenvalues --    0.06139   0.06870   0.07933   0.08188   0.08561
 Alpha virt. eigenvalues --    0.08813   0.09193   0.10080   0.10732   0.10985
 Alpha virt. eigenvalues --    0.11014   0.11106   0.11807   0.12288   0.12384
 Alpha virt. eigenvalues --    0.12639   0.12676   0.13055   0.14017   0.14205
 Alpha virt. eigenvalues --    0.14369   0.14659   0.15092   0.15746   0.16963
 Alpha virt. eigenvalues --    0.17666   0.17791   0.18137   0.18330   0.18425
 Alpha virt. eigenvalues --    0.18749   0.19404   0.20006   0.20582   0.20729
 Alpha virt. eigenvalues --    0.21486   0.21570   0.22354   0.22980   0.23318
 Alpha virt. eigenvalues --    0.24035   0.24497   0.25917   0.26613   0.27193
 Alpha virt. eigenvalues --    0.27387   0.27752   0.28530   0.28876   0.29175
 Alpha virt. eigenvalues --    0.29757   0.29909   0.30269   0.30306   0.30501
 Alpha virt. eigenvalues --    0.31463   0.31990   0.32258   0.32575   0.33390
 Alpha virt. eigenvalues --    0.33428   0.33755   0.34903   0.35355   0.35740
 Alpha virt. eigenvalues --    0.36140   0.36547   0.36978   0.37669   0.39645
 Alpha virt. eigenvalues --    0.40137   0.42016   0.42584   0.43419   0.44374
 Alpha virt. eigenvalues --    0.44972   0.45433   0.45560   0.46135   0.48326
 Alpha virt. eigenvalues --    0.50015   0.52929   0.53406   0.53647   0.54875
 Alpha virt. eigenvalues --    0.56414   0.56933   0.59767   0.61420   0.62785
 Alpha virt. eigenvalues --    0.63166   0.63197   0.63990   0.64015   0.64853
 Alpha virt. eigenvalues --    0.65339   0.65643   0.66017   0.66940   0.67933
 Alpha virt. eigenvalues --    0.69530   0.69877   0.70338   0.71290   0.71551
 Alpha virt. eigenvalues --    0.72980   0.73692   0.73887   0.74228   0.75122
 Alpha virt. eigenvalues --    0.75917   0.76461   0.76784   0.77536   0.78179
 Alpha virt. eigenvalues --    0.78526   0.80457   0.81598   0.81943   0.85607
 Alpha virt. eigenvalues --    0.91283   0.93811   0.94679   0.95519   1.00408
 Alpha virt. eigenvalues --    1.01803   1.03448   1.03564   1.05207   1.05299
 Alpha virt. eigenvalues --    1.06923   1.08038   1.08096   1.14076   1.16187
 Alpha virt. eigenvalues --    1.16488   1.16593   1.20431   1.21207   1.21523
 Alpha virt. eigenvalues --    1.21948   1.23894   1.26132   1.27526   1.28795
 Alpha virt. eigenvalues --    1.29420   1.29798   1.29998   1.30631   1.33035
 Alpha virt. eigenvalues --    1.34220   1.38684   1.38987   1.39169   1.41417
 Alpha virt. eigenvalues --    1.46467   1.46503   1.47066   1.49747   1.50191
 Alpha virt. eigenvalues --    1.50335   1.52099   1.53996   1.54604   1.55123
 Alpha virt. eigenvalues --    1.55683   1.58744   1.60042   1.61314   1.61819
 Alpha virt. eigenvalues --    1.62399   1.62851   1.64475   1.64900   1.65715
 Alpha virt. eigenvalues --    1.67209   1.68960   1.69646   1.69799   1.70727
 Alpha virt. eigenvalues --    1.72740   1.72818   1.73008   1.73710   1.73809
 Alpha virt. eigenvalues --    1.74196   1.75668   1.76363   1.79608   1.80562
 Alpha virt. eigenvalues --    1.81845   1.83655   1.86298   1.86365   1.91478
 Alpha virt. eigenvalues --    1.93371   1.94822   1.96735   1.99058   2.01797
 Alpha virt. eigenvalues --    2.03045   2.05165   2.06235   2.10456   2.11878
 Alpha virt. eigenvalues --    2.14140   2.14151   2.15787   2.17407   2.19190
 Alpha virt. eigenvalues --    2.19916   2.20061   2.22430   2.25001   2.25320
 Alpha virt. eigenvalues --    2.28981   2.31822   2.33341   2.37975   2.39834
 Alpha virt. eigenvalues --    2.42575   2.43504   2.44579   2.44895   2.45530
 Alpha virt. eigenvalues --    2.46447   2.46817   2.51371   2.53112   2.54600
 Alpha virt. eigenvalues --    2.55219   2.55310   2.55523   2.56216   2.58027
 Alpha virt. eigenvalues --    2.58697   2.61888   2.62271   2.62523   2.63497
 Alpha virt. eigenvalues --    2.64749   2.66048   2.68414   2.71553   2.73790
 Alpha virt. eigenvalues --    2.75512   2.78701   2.80787   2.81716   2.82123
 Alpha virt. eigenvalues --    2.82960   2.83056   2.84728   2.87695   2.90699
 Alpha virt. eigenvalues --    2.91269   2.92702   2.96417   2.97653   2.98596
 Alpha virt. eigenvalues --    2.99256   3.04935   3.06115   3.08251   3.08308
 Alpha virt. eigenvalues --    3.10525   3.10875   3.15103   3.15913   3.22265
 Alpha virt. eigenvalues --    3.26723   3.27016   3.27052   3.27603   3.31556
 Alpha virt. eigenvalues --    3.43203   3.43312   3.44951   3.53619   3.60826
 Alpha virt. eigenvalues --    3.61388   3.69728   3.70027   3.81139   3.81480
 Alpha virt. eigenvalues --    3.81749   3.81969   3.84883   3.85068   3.85276
 Alpha virt. eigenvalues --    3.87938   3.93723   4.07844   4.08675   4.11477
 Alpha virt. eigenvalues --    4.14060   4.18134   4.18535   4.20109   4.31220
 Alpha virt. eigenvalues --    4.42835   4.46087   5.12662   5.13612   5.16233
 Alpha virt. eigenvalues --    5.16937   5.36029   5.36364   5.48613   5.49034
 Alpha virt. eigenvalues --    5.72330   5.72936   5.93401   5.94844  23.85306
 Alpha virt. eigenvalues --   23.85609  23.94530  23.94819  23.94955  23.96646
 Alpha virt. eigenvalues --   23.97580  23.97979  23.98259  49.90383  49.90625
 Alpha virt. eigenvalues --   49.99868  50.00035
          Condensed to atoms (all electrons):
               1          2          3          4          5          6
     1  O    8.346876   0.000000  -0.145677   0.000000   0.058340  -0.065989
     2  O    0.000000   8.347620   0.000000  -0.145355   0.061873  -0.011479
     3  O   -0.145677   0.000000   7.946155   0.000001   0.133792  -0.021890
     4  O    0.000000  -0.145355   0.000001   7.947553   0.140116   0.025570
     5  C    0.058340   0.061873   0.133792   0.140116  11.472032  -2.579761
     6  C   -0.065989  -0.011479  -0.021890   0.025570  -2.579761  10.234438
     7  C   -0.010803  -0.069871   0.021846  -0.025391  -2.505140  -0.371413
     8  C   -0.340006   0.000497   0.416474   0.001267  -0.043404  -1.271470
     9  C    0.000474  -0.341183   0.001338   0.424939  -0.162467   0.038062
    10  C    0.059414   0.000035  -0.062184   0.000233  -0.452100   0.853128
    11  C    0.000051   0.060193   0.000169  -0.078540  -0.398340  -1.168553
    12  C    0.201062   0.000000  -0.040499   0.000000  -0.002212  -0.106194
    13  C    0.000000   0.201618  -0.000000  -0.041382   0.000703  -0.028113
    14  H   -0.000244  -0.000182   0.001274   0.001232   0.455168  -0.029754
    15  H   -0.000982  -0.001087   0.000571   0.000764   0.499708  -0.081680
    16  H   -0.011690   0.000771  -0.019114   0.001175  -0.120176   0.510800
    17  H   -0.007913   0.000755  -0.008366   0.000267  -0.077754   0.497498
    18  H    0.000853  -0.010283   0.001335  -0.018304  -0.117108   0.044680
    19  H    0.000656  -0.009610   0.000052  -0.011195  -0.080130  -0.002988
    20  H    0.007021  -0.000007  -0.004292  -0.000010   0.056579  -0.126225
    21  H    0.016585   0.000010   0.000418  -0.000058   0.030009  -0.102764
    22  H   -0.000003   0.011055  -0.000000  -0.003505   0.054450   0.003843
    23  H    0.000006   0.013044  -0.000060  -0.000275   0.030687  -0.017887
    24  H   -0.067570   0.000000   0.001785  -0.000000  -0.002921   0.003364
    25  H   -0.023559  -0.000000  -0.014573   0.000000   0.001333  -0.004836
    26  H   -0.021752  -0.000000  -0.015420   0.000000   0.002884  -0.008444
    27  H   -0.000000  -0.022752   0.000000  -0.015202   0.001601  -0.000693
    28  H    0.000000  -0.067558  -0.000000   0.001696  -0.002977  -0.000779
    29  H   -0.000000  -0.022361   0.000000  -0.014597   0.003195  -0.000225
               7          8          9         10         11         12
     1  O   -0.010803  -0.340006   0.000474   0.059414   0.000051   0.201062
     2  O   -0.069871   0.000497  -0.341183   0.000035   0.060193   0.000000
     3  O    0.021846   0.416474   0.001338  -0.062184   0.000169  -0.040499
     4  O   -0.025391   0.001267   0.424939   0.000233  -0.078540   0.000000
     5  C   -2.505140  -0.043404  -0.162467  -0.452100  -0.398340  -0.002212
     6  C   -0.371413  -1.271470   0.038062   0.853128  -1.168553  -0.106194
     7  C   10.064034  -0.007025  -1.114213  -1.088706   0.780313  -0.026726
     8  C   -0.007025  12.635274  -0.390804  -4.594363   0.000706  -0.265121
     9  C   -1.114213  -0.390804  12.530621  -0.005194  -4.570865   0.000754
    10  C   -1.088706  -4.594363  -0.005194  11.336247  -0.044472   0.045430
    11  C    0.780313   0.000706  -4.570865  -0.044472  11.403590  -0.000500
    12  C   -0.026726  -0.265121   0.000754   0.045430  -0.000500   5.404253
    13  C   -0.114657   0.000786  -0.272360  -0.000462   0.055274  -0.000002
    14  H   -0.040521  -0.002497   0.005186  -0.008674  -0.017635  -0.000274
    15  H   -0.072773   0.032391   0.026001  -0.026359  -0.018865  -0.000804
    16  H    0.036930  -0.005405  -0.019486  -0.033690   0.002482  -0.001587
    17  H    0.004872  -0.037944  -0.011267  -0.027058   0.011400  -0.001731
    18  H    0.511519  -0.021697  -0.018371   0.005208  -0.034125   0.000006
    19  H    0.493320  -0.009763  -0.025314   0.010031  -0.020174  -0.000031
    20  H    0.005976   0.411797   0.001982  -0.045487   0.002733   0.005560
    21  H   -0.015712   0.361255   0.000881   0.015131   0.003598   0.007413
    22  H   -0.118525   0.002686   0.390975   0.002307  -0.033551   0.000049
    23  H   -0.102954   0.000862   0.378957   0.003229   0.005737   0.000036
    24  H   -0.000736   0.008049  -0.000068   0.060793  -0.000015   0.356462
    25  H   -0.000098  -0.038571   0.000097  -0.009260   0.000003   0.422768
    26  H   -0.000767  -0.044918   0.000144  -0.004517   0.000003   0.425280
    27  H   -0.008204   0.000085  -0.040811  -0.000005  -0.006196   0.000000
    28  H    0.003371  -0.000065   0.006870  -0.000013   0.062449  -0.000000
    29  H   -0.006185   0.000168  -0.041868   0.000009  -0.009255   0.000000
              13         14         15         16         17         18
     1  O    0.000000  -0.000244  -0.000982  -0.011690  -0.007913   0.000853
     2  O    0.201618  -0.000182  -0.001087   0.000771   0.000755  -0.010283
     3  O   -0.000000   0.001274   0.000571  -0.019114  -0.008366   0.001335
     4  O   -0.041382   0.001232   0.000764   0.001175   0.000267  -0.018304
     5  C    0.000703   0.455168   0.499708  -0.120176  -0.077754  -0.117108
     6  C   -0.028113  -0.029754  -0.081680   0.510800   0.497498   0.044680
     7  C   -0.114657  -0.040521  -0.072773   0.036930   0.004872   0.511519
     8  C    0.000786  -0.002497   0.032391  -0.005405  -0.037944  -0.021697
     9  C   -0.272360   0.005186   0.026001  -0.019486  -0.011267  -0.018371
    10  C   -0.000462  -0.008674  -0.026359  -0.033690  -0.027058   0.005208
    11  C    0.055274  -0.017635  -0.018865   0.002482   0.011400  -0.034125
    12  C   -0.000002  -0.000274  -0.000804  -0.001587  -0.001731   0.000006
    13  C    5.407260  -0.000559  -0.000574  -0.000095   0.000026  -0.001632
    14  H   -0.000559   0.609570  -0.124600   0.013800  -0.026900   0.014615
    15  H   -0.000574  -0.124600   0.616832  -0.023485   0.015128  -0.024452
    16  H   -0.000095   0.013800  -0.023485   0.526768  -0.058985  -0.013945
    17  H    0.000026  -0.026900   0.015128  -0.058985   0.523268  -0.000986
    18  H   -0.001632   0.014615  -0.024452  -0.013945  -0.000986   0.523166
    19  H   -0.001512  -0.025953   0.014352  -0.000618  -0.012882  -0.057555
    20  H    0.000043  -0.014058   0.006642   0.001967  -0.015737  -0.001121
    21  H    0.000050   0.007875  -0.015747  -0.021413   0.001931   0.006181
    22  H    0.005435  -0.014365   0.007307  -0.001038   0.005858   0.000908
    23  H    0.007814   0.007492  -0.015749   0.006094  -0.001014  -0.019260
    24  H   -0.000000   0.000017   0.000066   0.000671   0.000490  -0.000056
    25  H    0.000000   0.000343  -0.000359  -0.000452  -0.000835   0.000099
    26  H    0.000000  -0.000289   0.000215  -0.001069  -0.000426   0.000045
    27  H    0.424984   0.000307  -0.000360   0.000094   0.000029  -0.000397
    28  H    0.356139   0.000020   0.000064  -0.000058  -0.000042   0.000637
    29  H    0.423942  -0.000317   0.000278   0.000040   0.000093  -0.001053
              19         20         21         22         23         24
     1  O    0.000656   0.007021   0.016585  -0.000003   0.000006  -0.067570
     2  O   -0.009610  -0.000007   0.000010   0.011055   0.013044   0.000000
     3  O    0.000052  -0.004292   0.000418  -0.000000  -0.000060   0.001785
     4  O   -0.011195  -0.000010  -0.000058  -0.003505  -0.000275  -0.000000
     5  C   -0.080130   0.056579   0.030009   0.054450   0.030687  -0.002921
     6  C   -0.002988  -0.126225  -0.102764   0.003843  -0.017887   0.003364
     7  C    0.493320   0.005976  -0.015712  -0.118525  -0.102954  -0.000736
     8  C   -0.009763   0.411797   0.361255   0.002686   0.000862   0.008049
     9  C   -0.025314   0.001982   0.000881   0.390975   0.378957  -0.000068
    10  C    0.010031  -0.045487   0.015131   0.002307   0.003229   0.060793
    11  C   -0.020174   0.002733   0.003598  -0.033551   0.005737  -0.000015
    12  C   -0.000031   0.005560   0.007413   0.000049   0.000036   0.356462
    13  C   -0.001512   0.000043   0.000050   0.005435   0.007814  -0.000000
    14  H   -0.025953  -0.014058   0.007875  -0.014365   0.007492   0.000017
    15  H    0.014352   0.006642  -0.015747   0.007307  -0.015749   0.000066
    16  H   -0.000618   0.001967  -0.021413  -0.001038   0.006094   0.000671
    17  H   -0.012882  -0.015737   0.001931   0.005858  -0.001014   0.000490
    18  H   -0.057555  -0.001121   0.006181   0.000908  -0.019260  -0.000056
    19  H    0.517449   0.005697  -0.000905  -0.015494   0.001319  -0.000041
    20  H    0.005697   0.488517  -0.046839  -0.000258   0.000778  -0.001270
    21  H   -0.000905  -0.046839   0.490929   0.000587  -0.000187  -0.001730
    22  H   -0.015494  -0.000258   0.000587   0.483777  -0.044786   0.000003
    23  H    0.001319   0.000778  -0.000187  -0.044786   0.485972   0.000003
    24  H   -0.000041  -0.001270  -0.001730   0.000003   0.000003   0.491880
    25  H    0.000017  -0.001048   0.003083  -0.000008   0.000003  -0.031785
    26  H    0.000086   0.002857  -0.000485   0.000003  -0.000005  -0.031505
    27  H   -0.000983  -0.000007   0.000003  -0.000738   0.002960   0.000000
    28  H    0.000552   0.000003   0.000004  -0.001462  -0.001512  -0.000000
    29  H   -0.000436   0.000003  -0.000007   0.002979  -0.000756   0.000000
              25         26         27         28         29
     1  O   -0.023559  -0.021752  -0.000000   0.000000  -0.000000
     2  O   -0.000000  -0.000000  -0.022752  -0.067558  -0.022361
     3  O   -0.014573  -0.015420   0.000000  -0.000000   0.000000
     4  O    0.000000   0.000000  -0.015202   0.001696  -0.014597
     5  C    0.001333   0.002884   0.001601  -0.002977   0.003195
     6  C   -0.004836  -0.008444  -0.000693  -0.000779  -0.000225
     7  C   -0.000098  -0.000767  -0.008204   0.003371  -0.006185
     8  C   -0.038571  -0.044918   0.000085  -0.000065   0.000168
     9  C    0.000097   0.000144  -0.040811   0.006870  -0.041868
    10  C   -0.009260  -0.004517  -0.000005  -0.000013   0.000009
    11  C    0.000003   0.000003  -0.006196   0.062449  -0.009255
    12  C    0.422768   0.425280   0.000000  -0.000000   0.000000
    13  C    0.000000   0.000000   0.424984   0.356139   0.423942
    14  H    0.000343  -0.000289   0.000307   0.000020  -0.000317
    15  H   -0.000359   0.000215  -0.000360   0.000064   0.000278
    16  H   -0.000452  -0.001069   0.000094  -0.000058   0.000040
    17  H   -0.000835  -0.000426   0.000029  -0.000042   0.000093
    18  H    0.000099   0.000045  -0.000397   0.000637  -0.001053
    19  H    0.000017   0.000086  -0.000983   0.000552  -0.000436
    20  H   -0.001048   0.002857  -0.000007   0.000003   0.000003
    21  H    0.003083  -0.000485   0.000003   0.000004  -0.000007
    22  H   -0.000008   0.000003  -0.000738  -0.001462   0.002979
    23  H    0.000003  -0.000005   0.002960  -0.001512  -0.000756
    24  H   -0.031785  -0.031505   0.000000  -0.000000   0.000000
    25  H    0.521060  -0.051219  -0.000000   0.000000  -0.000000
    26  H   -0.051219   0.520603  -0.000000   0.000000  -0.000000
    27  H   -0.000000  -0.000000   0.521136  -0.031709  -0.051221
    28  H    0.000000   0.000000  -0.031709   0.492103  -0.031672
    29  H   -0.000000  -0.000000  -0.051221  -0.031672   0.520829
 Mulliken charges:
               1
     1  O    0.004853
     2  O    0.004256
     3  O   -0.193136
     4  O   -0.190999
     5  C   -0.457984
     6  C   -0.210247
     7  C   -0.221763
     8  C   -0.799243
     9  C   -0.793010
    10  C    0.011348
    11  C    0.012383
    12  C   -0.423394
    13  C   -0.422728
    14  H    0.189921
    15  H    0.187557
    16  H    0.230715
    17  H    0.228224
    18  H    0.231092
    19  H    0.232052
    20  H    0.258205
    21  H    0.259904
    22  H    0.261510
    23  H    0.259451
    24  H    0.214111
    25  H    0.227796
    26  H    0.228695
    27  H    0.228076
    28  H    0.213938
    29  H    0.228417
 Sum of Mulliken charges =  -0.00000
 Mulliken charges with hydrogens summed into heavy atoms:
               1
     1  O    0.004853
     2  O    0.004256
     3  O   -0.193136
     4  O   -0.190999
     5  C   -0.080506
     6  C    0.248691
     7  C    0.241380
     8  C   -0.281134
     9  C   -0.272049
    10  C    0.011348
    11  C    0.012383
    12  C    0.247208
    13  C    0.247703
 Electronic spatial extent (au):  <R**2>=           6228.0843
 Charge=              0.0000 electrons
 Dipole moment (field-independent basis, Debye):
    X=              0.0265    Y=             -3.3311    Z=             -0.0162  Tot=              3.3313
 Quadrupole moment (field-independent basis, Debye-Ang):
   XX=            -59.3334   YY=            -90.7899   ZZ=            -76.9508
   XY=              0.0935   XZ=              0.2551   YZ=             -0.0082
 Traceless Quadrupole moment (field-independent basis, Debye-Ang):
   XX=             16.3580   YY=            -15.0985   ZZ=             -1.2594
   XY=              0.0935   XZ=              0.2551   YZ=             -0.0082
 Octapole moment (field-independent basis, Debye-Ang**2):
  XXX=             -0.3584  YYY=             -8.5887  ZZZ=             -0.0944  XYY=              0.2602
  XXY=            -27.7764  XXZ=             -1.9318  XZZ=              0.0087  YZZ=              1.5704
  YYZ=              0.0032  XYZ=              0.0250
 Hexadecapole moment (field-independent basis, Debye-Ang**3):
 XXXX=          -5660.9963 YYYY=           -393.2110 ZZZZ=           -127.0014 XXXY=              4.1188
 XXXZ=             11.5073 YYYX=              0.2491 YYYZ=             -0.3488 ZZZX=             -0.0976
 ZZZY=             -0.0110 XXYY=          -1488.0064 XXZZ=          -1238.5825 YYZZ=            -77.7167
 XXYZ=              1.0388 YYXZ=              0.4984 ZZXY=             -0.0144
 N-N= 7.630978214489D+02 E-N=-3.053046557653D+03  KE= 6.503966521886D+02
 R6APFD:  NTU= -4 IXU= 1 FactS= 1.050
 Calling FoFJK, ICntrl=      2127 FMM=F ISym2X=0 I1Cent= 0 IOpClX= 0 NMat=1 NMatS=1 NMatT=0.
 ***** Axes restored to original set *****
 -------------------------------------------------------------------
 Center     Atomic                   Forces (Hartrees/Bohr)
 Number     Number              X              Y              Z
 -------------------------------------------------------------------
      1        8           0.006156076    0.018080143    0.000712917
      2        8          -0.005814395    0.018482900   -0.000115416
      3        8          -0.008236866   -0.041692460    0.001322164
      4        8           0.008691878   -0.041823692   -0.000079678
      5        6          -0.002648967    0.007385215    0.001804146
      6        6          -0.001052824   -0.000428081   -0.000615186
      7        6          -0.000705902   -0.003799125   -0.000714641
      8        6           0.007636703    0.007676518    0.000354680
      9        6          -0.006497859    0.011378830    0.000020298
     10        6          -0.003121339    0.019752128   -0.003347670
     11        6           0.005218223    0.018384777    0.000594665
     12        6           0.000304824   -0.001151738    0.000292486
     13        6          -0.000375785   -0.001166054   -0.000081972
     14        1           0.000088144   -0.002956198   -0.002072471
     15        1           0.000218817   -0.003431050    0.001856670
     16        1           0.000114898    0.001863243    0.000305543
     17        1          -0.000609838    0.001819592   -0.000105763
     18        1           0.000279472    0.001698783    0.000220926
     19        1           0.000725096    0.001757430   -0.000056315
     20        1          -0.002723179   -0.004564708    0.001006766
     21        1          -0.002428583   -0.004789497   -0.001038671
     22        1           0.002241349   -0.004552583    0.000822083
     23        1           0.002453583   -0.004441751   -0.001273862
     24        1           0.004188881   -0.002970473    0.000180840
     25        1           0.000976269    0.003125600    0.001056766
     26        1           0.000935236    0.003140461   -0.001064801
     27        1          -0.000952453    0.003116735    0.001062479
     28        1          -0.004092728   -0.003008784    0.000009994
     29        1          -0.000968731    0.003113839   -0.001056975
 -------------------------------------------------------------------
 Cartesian Forces:  Max     0.041823692 RMS     0.008149937

 GradGradGradGradGradGradGradGradGradGradGradGradGradGradGradGradGradGrad
 Berny optimization.
 FormGI is forming the generalized inverse of G from B-inverse, IUseBI=4.
 Internal  Forces:  Max     0.041608909 RMS     0.006554393
 Search for a local minimum.
 Step number   1 out of a maximum of  146
 All quantities printed in internal units (Hartrees-Bohrs-Radians)
 Mixed Optimization -- RFO/linear search
 Second derivative matrix not updated -- first step.
 ITU=  0
     Eigenvalues ---    0.00345   0.00374   0.00387   0.00399   0.00596
     Eigenvalues ---    0.00613   0.00989   0.00999   0.01277   0.01278
     Eigenvalues ---    0.02138   0.02142   0.03545   0.03666   0.03678
     Eigenvalues ---    0.04123   0.04261   0.04836   0.04876   0.04878
     Eigenvalues ---    0.05416   0.05440   0.08081   0.08136   0.08310
     Eigenvalues ---    0.09268   0.09437   0.10153   0.10154   0.10483
     Eigenvalues ---    0.10483   0.12016   0.12054   0.12186   0.12727
     Eigenvalues ---    0.12854   0.16000   0.16000   0.16000   0.16000
     Eigenvalues ---    0.16000   0.16000   0.21881   0.21898   0.21899
     Eigenvalues ---    0.22023   0.22042   0.24995   0.25000   0.25000
     Eigenvalues ---    0.25000   0.25000   0.25000   0.29254   0.29458
     Eigenvalues ---    0.29548   0.29631   0.31067   0.31196   0.33969
     Eigenvalues ---    0.33984   0.33997   0.34002   0.34052   0.34053
     Eigenvalues ---    0.34119   0.34146   0.34148   0.34157   0.34332
     Eigenvalues ---    0.34335   0.34337   0.34344   0.34441   0.34452
     Eigenvalues ---    0.40800   0.40809   0.51696   0.51755   0.93918
     Eigenvalues ---    0.93920
 RFO step:  Lambda=-1.19422649D-02 EMin= 3.44778517D-03
 Linear search not attempted -- first point.
 Iteration  1 RMS(Cart)=  0.06762018 RMS(Int)=  0.00108442
 Iteration  2 RMS(Cart)=  0.00290105 RMS(Int)=  0.00018950
 Iteration  3 RMS(Cart)=  0.00000212 RMS(Int)=  0.00018950
 Iteration  4 RMS(Cart)=  0.00000000 RMS(Int)=  0.00018950
 Variable       Old X    -DE/DX   Delta X   Delta X   Delta X     New X
                                 (Linear)    (Quad)   (Total)
    R1        2.58135  -0.02231   0.00000  -0.04213  -0.04213   2.53922
    R2        2.70469  -0.00475   0.00000  -0.01131  -0.01131   2.69338
    R3        2.58191  -0.02214   0.00000  -0.04187  -0.04187   2.54004
    R4        2.70481  -0.00474   0.00000  -0.01128  -0.01128   2.69352
    R5        2.31178  -0.04144   0.00000  -0.04357  -0.04357   2.26821
    R6        2.31177  -0.04161   0.00000  -0.04375  -0.04375   2.26802
    R7        2.89476  -0.00188   0.00000  -0.00618  -0.00618   2.88858
    R8        2.89056  -0.00033   0.00000  -0.00109  -0.00109   2.88947
    R9        2.07240   0.00336   0.00000   0.00954   0.00954   2.08194
   R10        2.07242   0.00361   0.00000   0.01024   0.01024   2.08266
   R11        2.88874  -0.00122   0.00000  -0.00396  -0.00396   2.88478
   R12        2.07357   0.00132   0.00000   0.00374   0.00374   2.07732
   R13        2.07382   0.00123   0.00000   0.00348   0.00348   2.07730
   R14        2.88705   0.00021   0.00000   0.00068   0.00068   2.88774
   R15        2.07335   0.00115   0.00000   0.00326   0.00326   2.07661
   R16        2.07326   0.00114   0.00000   0.00324   0.00324   2.07650
   R17        2.85885  -0.00194   0.00000  -0.00601  -0.00601   2.85283
   R18        2.07130   0.00188   0.00000   0.00532   0.00532   2.07663
   R19        2.07080   0.00197   0.00000   0.00559   0.00559   2.07639
   R20        2.85641  -0.00020   0.00000  -0.00062  -0.00062   2.85578
   R21        2.07066   0.00193   0.00000   0.00546   0.00546   2.07612
   R22        2.07084   0.00165   0.00000   0.00468   0.00468   2.07552
   R23        2.06592  -0.00087   0.00000  -0.00244  -0.00244   2.06348
   R24        2.06773   0.00076   0.00000   0.00214   0.00214   2.06987
   R25        2.06753   0.00080   0.00000   0.00225   0.00225   2.06978
   R26        2.06769   0.00077   0.00000   0.00216   0.00216   2.06985
   R27        2.06574  -0.00080   0.00000  -0.00224  -0.00224   2.06349
   R28        2.06765   0.00078   0.00000   0.00219   0.00219   2.06984
    A1        2.01583  -0.00612   0.00000  -0.02336  -0.02336   1.99248
    A2        2.01603  -0.00602   0.00000  -0.02298  -0.02298   1.99305
    A3        1.94131   0.00127   0.00000   0.00853   0.00850   1.94981
    A4        1.91240  -0.00025   0.00000  -0.00057  -0.00057   1.91184
    A5        1.90987   0.00004   0.00000   0.00409   0.00406   1.91393
    A6        1.91479  -0.00033   0.00000  -0.00179  -0.00180   1.91299
    A7        1.91302  -0.00023   0.00000   0.00149   0.00143   1.91445
    A8        1.87111  -0.00056   0.00000  -0.01251  -0.01251   1.85860
    A9        1.96276  -0.00364   0.00000  -0.01461  -0.01458   1.94818
   A10        1.91431   0.00097   0.00000   0.00398   0.00399   1.91830
   A11        1.90825   0.00186   0.00000   0.01142   0.01142   1.91967
   A12        1.90675   0.00150   0.00000   0.00690   0.00691   1.91366
   A13        1.91052   0.00072   0.00000   0.00198   0.00203   1.91255
   A14        1.85831  -0.00129   0.00000  -0.00941  -0.00943   1.84888
   A15        1.94364   0.00011   0.00000   0.00292   0.00291   1.94654
   A16        1.91629   0.00015   0.00000   0.00271   0.00271   1.91900
   A17        1.91239   0.00072   0.00000   0.00742   0.00743   1.91982
   A18        1.91213   0.00008   0.00000   0.00032   0.00031   1.91244
   A19        1.91554  -0.00041   0.00000  -0.00293  -0.00295   1.91258
   A20        1.86208  -0.00069   0.00000  -0.01103  -0.01104   1.85104
   A21        1.97572  -0.00529   0.00000  -0.01774  -0.01759   1.95813
   A22        1.90839   0.00410   0.00000   0.03016   0.03008   1.93847
   A23        1.91044   0.00384   0.00000   0.02731   0.02722   1.93767
   A24        1.88176   0.00041   0.00000  -0.00311  -0.00300   1.87876
   A25        1.88675   0.00051   0.00000  -0.00343  -0.00332   1.88343
   A26        1.89927  -0.00372   0.00000  -0.03544  -0.03581   1.86346
   A27        1.95465  -0.00061   0.00000   0.00378   0.00372   1.95838
   A28        1.91534   0.00239   0.00000   0.02143   0.02142   1.93676
   A29        1.91395   0.00270   0.00000   0.02342   0.02341   1.93736
   A30        1.88619  -0.00066   0.00000  -0.00583  -0.00600   1.88019
   A31        1.88953  -0.00097   0.00000  -0.00827  -0.00845   1.88108
   A32        1.90327  -0.00304   0.00000  -0.03672  -0.03696   1.86631
   A33        2.19659  -0.01652   0.00000  -0.06267  -0.06310   2.13349
   A34        1.90128   0.01119   0.00000   0.04307   0.04262   1.94390
   A35        2.18505   0.00536   0.00000   0.02082   0.02034   2.20539
   A36        2.19727  -0.01717   0.00000  -0.06556  -0.06557   2.13170
   A37        1.90019   0.01200   0.00000   0.04582   0.04581   1.94600
   A38        2.18572   0.00517   0.00000   0.01976   0.01975   2.20547
   A39        1.88706  -0.00671   0.00000  -0.03680  -0.03677   1.85029
   A40        1.92412   0.00086   0.00000   0.00382   0.00384   1.92796
   A41        1.92420   0.00106   0.00000   0.00506   0.00509   1.92928
   A42        1.89748   0.00382   0.00000   0.02436   0.02439   1.92186
   A43        1.89754   0.00377   0.00000   0.02419   0.02423   1.92177
   A44        1.93245  -0.00280   0.00000  -0.02042  -0.02041   1.91204
   A45        1.92414   0.00098   0.00000   0.00458   0.00461   1.92874
   A46        1.88702  -0.00664   0.00000  -0.03642  -0.03639   1.85063
   A47        1.92406   0.00094   0.00000   0.00431   0.00433   1.92839
   A48        1.89757   0.00376   0.00000   0.02410   0.02414   1.92170
   A49        1.93240  -0.00280   0.00000  -0.02042  -0.02041   1.91199
   A50        1.89768   0.00376   0.00000   0.02405   0.02408   1.92176
    D1       -0.00022   0.00047   0.00000   0.01977   0.01858   0.01835
    D2       -3.11801  -0.00099   0.00000  -0.03543  -0.03424   3.13093
    D3       -3.14146  -0.00003   0.00000  -0.00042  -0.00041   3.14131
    D4        1.06963  -0.00112   0.00000  -0.01005  -0.01004   1.05959
    D5       -1.06923   0.00112   0.00000   0.00971   0.00969  -1.05954
    D6       -0.00013   0.00005   0.00000   0.00240   0.00222   0.00209
    D7       -3.13915  -0.00016   0.00000  -0.00585  -0.00566   3.13837
    D8       -1.06928   0.00112   0.00000   0.00981   0.00979  -1.05949
    D9       -3.14147  -0.00001   0.00000  -0.00017  -0.00017   3.14154
   D10        1.06943  -0.00112   0.00000  -0.00994  -0.00992   1.05951
   D11       -3.12152  -0.00027   0.00000  -0.00567  -0.00569  -3.12721
   D12       -0.99599  -0.00013   0.00000  -0.00394  -0.00395  -0.99994
   D13        1.03562  -0.00006   0.00000  -0.00646  -0.00645   1.02917
   D14        1.04156  -0.00051   0.00000  -0.00862  -0.00864   1.03292
   D15       -3.11610  -0.00037   0.00000  -0.00689  -0.00690  -3.12300
   D16       -1.08449  -0.00030   0.00000  -0.00941  -0.00940  -1.09388
   D17       -1.00533   0.00029   0.00000   0.00446   0.00446  -1.00087
   D18        1.12019   0.00043   0.00000   0.00619   0.00620   1.12640
   D19       -3.13138   0.00050   0.00000   0.00367   0.00371  -3.12768
   D20        3.12153   0.00027   0.00000   0.00608   0.00608   3.12761
   D21        1.00061  -0.00001   0.00000   0.00190   0.00190   1.00251
   D22       -1.03909   0.00031   0.00000   0.00935   0.00936  -1.02972
   D23       -1.04294   0.00056   0.00000   0.00976   0.00976  -1.03319
   D24        3.11932   0.00028   0.00000   0.00558   0.00558   3.12490
   D25        1.07963   0.00061   0.00000   0.01303   0.01304   1.09267
   D26        1.00719  -0.00045   0.00000  -0.00560  -0.00561   1.00157
   D27       -1.11374  -0.00073   0.00000  -0.00979  -0.00979  -1.12353
   D28        3.12976  -0.00040   0.00000  -0.00234  -0.00233   3.12743
   D29       -3.09040  -0.00032   0.00000  -0.00905  -0.00906  -3.09946
   D30       -0.99223  -0.00039   0.00000  -0.00350  -0.00363  -0.99586
   D31        1.08682  -0.00017   0.00000  -0.01222  -0.01211   1.07471
   D32        1.06297  -0.00018   0.00000  -0.00919  -0.00919   1.05378
   D33       -3.12204  -0.00025   0.00000  -0.00365  -0.00376  -3.12580
   D34       -1.04300  -0.00002   0.00000  -0.01236  -0.01224  -1.05523
   D35       -0.96564   0.00012   0.00000  -0.00292  -0.00291  -0.96855
   D36        1.13253   0.00004   0.00000   0.00263   0.00252   1.13505
   D37       -3.07161   0.00027   0.00000  -0.00608  -0.00596  -3.07757
   D38        3.11451   0.00024   0.00000   0.00519   0.00518   3.11969
   D39        1.01969  -0.00014   0.00000  -0.00438  -0.00440   1.01529
   D40       -1.07060   0.00044   0.00000   0.01305   0.01307  -1.05753
   D41       -1.04534   0.00056   0.00000   0.01074   0.01074  -1.03460
   D42       -3.14015   0.00018   0.00000   0.00118   0.00115  -3.13900
   D43        1.05273   0.00076   0.00000   0.01860   0.01863   1.07136
   D44        0.99377  -0.00046   0.00000  -0.00411  -0.00411   0.98966
   D45       -1.10105  -0.00084   0.00000  -0.01368  -0.01369  -1.11474
   D46        3.09184  -0.00026   0.00000   0.00375   0.00378   3.09562
   D47        3.12375   0.00069   0.00000   0.03080   0.03117  -3.12826
   D48        0.00577  -0.00039   0.00000  -0.02253  -0.02291  -0.01714
   D49        1.01048  -0.00141   0.00000   0.00622   0.00662   1.01710
   D50       -2.10751  -0.00249   0.00000  -0.04712  -0.04746  -2.15497
   D51       -1.04008   0.00249   0.00000   0.05150   0.05185  -0.98823
   D52        2.12512   0.00141   0.00000  -0.00184  -0.00223   2.12289
   D53        3.12240   0.00016   0.00000   0.00505   0.00510   3.12749
   D54       -0.01664  -0.00001   0.00000  -0.00297  -0.00304  -0.01968
   D55       -1.04903   0.00231   0.00000   0.03022   0.03016  -1.01887
   D56        2.09512   0.00215   0.00000   0.02219   0.02202   2.11714
   D57        1.01015  -0.00218   0.00000  -0.02102  -0.02084   0.98931
   D58       -2.12889  -0.00235   0.00000  -0.02904  -0.02897  -2.15786
         Item               Value     Threshold  Converged?
 Maximum Force            0.041609     0.000450     NO 
 RMS     Force            0.006554     0.000300     NO 
 Maximum Displacement     0.215101     0.001800     NO 
 RMS     Displacement     0.067648     0.001200     NO 
 Predicted change in Energy=-6.257775D-03
 GradGradGradGradGradGradGradGradGradGradGradGradGradGradGradGradGradGrad

                          Input orientation:                          
 ---------------------------------------------------------------------
 Center     Atomic      Atomic             Coordinates (Angstroms)
 Number     Number       Type             X           Y           Z
 ---------------------------------------------------------------------
      1          8           0       -4.884145   -0.661991   -0.014597
      2          8           0        4.889309   -0.657319    0.006177
      3          8           0       -3.844456    1.309303   -0.013275
      4          8           0        3.847815    1.312097   -0.005535
      5          6           0        0.000743   -0.719074   -0.017736
      6          6           0       -1.265154    0.136977    0.017084
      7          6           0        1.265474    0.139609    0.015328
      8          6           0       -2.526332   -0.723055    0.004392
      9          6           0        2.528136   -0.720987    0.000221
     10          6           0       -3.784736    0.110527   -0.020376
     11          6           0        3.788110    0.113420    0.001919
     12          6           0       -6.109104    0.066573   -0.023330
     13          6           0        6.113402    0.072897    0.003791
     14          1           0       -0.000033   -1.341214   -0.926975
     15          1           0        0.001663   -1.414564    0.837192
     16          1           0       -1.261514    0.774388    0.912677
     17          1           0       -1.278505    0.823147   -0.841618
     18          1           0        1.263824    0.775191    0.911766
     19          1           0        1.276754    0.825205   -0.843317
     20          1           0       -2.546082   -1.382243   -0.874625
     21          1           0       -2.568969   -1.373168    0.889180
     22          1           0        2.554485   -1.364804   -0.889612
     23          1           0        2.563474   -1.383486    0.875519
     24          1           0       -6.904556   -0.681473   -0.017635
     25          1           0       -6.180276    0.685250   -0.924394
     26          1           0       -6.184143    0.702829    0.865029
     27          1           0        6.186440    0.696580   -0.893651
     28          1           0        6.910069   -0.673876    0.007771
     29          1           0        6.184804    0.704461    0.895830
 ---------------------------------------------------------------------
                    Distance matrix (angstroms):
                    1          2          3          4          5
     1  O    0.000000
     2  O    9.773477   0.000000
     3  O    2.228667   8.952465   0.000000
     4  O    8.952330   2.227879   7.692275   0.000000
     5  C    4.885222   4.889014   4.347400   4.350375   0.000000
     6  C    3.706272   6.205516   2.833385   5.246319   1.528571
     7  C    6.201715   3.710438   5.242174   2.836132   1.529043
     8  C    2.358680   7.415932   2.422446   6.691165   2.527175
     9  C    7.412530   2.362039   6.688212   2.423843   2.527457
    10  C    1.343695   8.708005   1.200284   7.726566   3.875319
    11  C    8.706867   1.344133   7.725700   1.200186   3.877832
    12  C    1.425274  11.022249   2.583236  10.034534   6.160154
    13  C   11.022088   1.425350  10.034337   2.582361   6.163787
    14  H    5.014811   5.024355   4.758117   4.763932   1.101714
    15  H    5.016276   5.015286   4.789090   4.789338   1.102094
    16  H    4.005805   6.379980   2.795552   5.218954   2.165500
    17  H    3.986256   6.399411   2.739818   5.217017   2.166496
    18  H    6.381313   4.002039   5.218764   2.794050   2.166142
    19  H    6.391808   3.996256   5.210577   2.747598   2.166699
    20  H    2.593251   7.522390   3.110004   6.992617   2.767737
    21  H    2.585077   7.544405   3.104343   7.013293   2.802456
    22  H    7.522819   2.598918   6.990369   3.101627   2.774659
    23  H    7.535243   2.587002   7.007327   3.113190   2.794090
    24  H    2.020508  11.793914   3.650675  10.935628   6.905402
    25  H    2.079122  11.189466   2.583725  10.089590   6.403058
    26  H    2.080017  11.189681   2.571646  10.088075   6.407331
    27  H   11.188221   2.079731  10.088080   2.576194   6.405790
    28  H   11.794241   2.020829  10.935870   3.649886   6.909520
    29  H   11.190071   2.079480  10.088526   2.577441   6.411214
                    6          7          8          9         10
     6  C    0.000000
     7  C    2.530630   0.000000
     8  C    1.526560   3.888715   0.000000
     9  C    3.889143   1.528125   5.054470   0.000000
    10  C    2.520000   5.050421   1.509653   6.367432   0.000000
    11  C    5.053341   2.522807   6.369606   1.511216   7.572880
    12  C    4.844630   7.375041   3.668860   8.673103   2.324785
    13  C    7.378846   4.848400   8.676321   3.672111   9.898239
    14  H    2.162597   2.163858   2.762562   2.763333   4.153727
    15  H    2.164412   2.165210   2.750000   2.750388   4.171108
    16  H    1.099269   2.755694   2.160343   4.174945   2.770912
    17  H    1.099262   2.770093   2.159524   4.193276   2.731933
    18  H    2.757444   1.098894   4.175326   2.160543   5.176739
    19  H    2.770423   1.098836   4.192754   2.160607   5.177517
    20  H    2.178061   4.199525   1.098904   5.191367   2.119521
    21  H    2.177389   4.213676   1.098779   5.214985   2.122907
    22  H    4.203223   2.178009   5.198633   1.098634   6.566422
    23  H    4.207982   2.178199   5.205877   1.098317   6.582893
    24  H    5.698590   8.211252   4.378477   9.432792   3.218781
    25  H    5.034422   7.524626   4.024583   8.869546   2.624150
    26  H    5.023510   7.519043   4.019132   8.870115   2.625246
    27  H    7.527871   5.035112   8.873231   4.023890  10.026485
    28  H    8.215341   5.702917   9.436530   4.382193  10.723569
    29  H    7.523038   5.029329   8.872224   4.025574  10.029154
                   11         12         13         14         15
    11  C    0.000000
    12  C    9.897357   0.000000
    13  C    2.325645  12.222537   0.000000
    14  H    4.162792   6.333971   6.343510   0.000000
    15  H    4.167685   6.346317   6.345113   1.765692   0.000000
    16  H    5.173496   4.987609   7.463749   3.074317   2.528404
    17  H    5.185158   4.957487   7.477826   2.515201   3.076457
    18  H    2.763654   7.465695   4.983577   3.075300   2.528565
    19  H    2.743715   7.469859   4.967567   2.516060   3.076774
    20  H    6.567140   3.939403   8.824721   2.546917   3.069587
    21  H    6.588599   3.929133   8.846388   3.146247   2.571491
    22  H    2.121746   8.823665   3.940944   2.554900   3.082407
    23  H    2.122177   8.838790   3.934837   3.134061   2.562287
    24  H   10.722190   1.091948  13.039815   6.995327   6.997429
    25  H   10.027650   1.095328  12.343865   6.503996   6.762305
    26  H   10.026873   1.095279  12.343749   6.755191   6.538220
    27  H    2.625663  12.342396   1.095316   6.513537   6.760489
    28  H    3.219704  13.040249   1.091954   7.004898   6.997330
    29  H    2.625366  12.344713   1.095311   6.764586   6.536432
                   16         17         18         19         20
    16  H    0.000000
    17  H    1.755054   0.000000
    18  H    2.525338   3.088704   0.000000
    19  H    3.086892   2.555261   1.755843   0.000000
    20  H    3.081497   2.543931   4.728752   4.414508   0.000000
    21  H    2.514357   3.079733   4.393889   4.756467   1.763977
    22  H    4.731410   4.413757   3.080640   2.535917   5.100619
    23  H    4.391849   4.751694   2.519978   3.080318   5.400978
    24  H    5.901605   5.881775   8.349137   8.359765   4.496867
    25  H    5.251380   4.904408   7.667737   7.458784   4.181432
    26  H    4.923379   5.195421   7.448465   7.654960   4.539759
    27  H    7.664260   7.466199   5.243840   4.911628   8.976569
    28  H    8.348119   8.367514   5.898905   5.891165   9.523612
    29  H    7.446665   7.663798   4.921514   5.208471   9.149711
                   21         22         23         24         25
    21  H    0.000000
    22  H    5.423464   0.000000
    23  H    5.132472   1.765253   0.000000
    24  H    4.483087   9.523694   9.535940   0.000000
    25  H    4.535160   8.972178   9.163652   1.792967   0.000000
    26  H    4.168912   9.149726   8.992976   1.792871   1.789514
    27  H    9.171670   4.176172   4.536796  13.192445  12.366759
    28  H    9.545578   4.500421   4.488810  13.814651  13.193683
    29  H    8.996951   4.544104   4.180187  13.194188  12.498351
                   26         27         28         29
    26  H    0.000000
    27  H   12.494971   0.000000
    28  H   13.194263   1.792861   0.000000
    29  H   12.368985   1.789500   1.792895   0.000000
 Stoichiometry    C9H16O4
 Framework group  C1[X(C9H16O4)]
 Deg. of freedom    81
 Full point group                 C1      NOp   1
 Largest Abelian subgroup         C1      NOp   1
 Largest concise Abelian subgroup C1      NOp   1
                         Standard orientation:                         
 ---------------------------------------------------------------------
 Center     Atomic      Atomic             Coordinates (Angstroms)
 Number     Number       Type             X           Y           Z
 ---------------------------------------------------------------------
      1          8           0       -4.885933   -0.636529   -0.002668
      2          8           0        4.887543   -0.636708    0.000192
      3          8           0       -3.845265    1.334250   -0.001928
      4          8           0        3.847007    1.333231   -0.008287
      5          6           0       -0.001088   -0.696027   -0.014801
      6          6           0       -1.266494    0.160626    0.022915
      7          6           0        1.264128    0.162007    0.016522
      8          6           0       -2.528120   -0.698772    0.011957
      9          6           0        2.526332   -0.699203   -0.001478
     10          6           0       -3.786154    0.135449   -0.009945
     11          6           0        3.786721    0.134579   -0.001529
     12          6           0       -6.110544    0.092648   -0.008667
     13          6           0        6.111992    0.092903   -0.003948
     14          1           0       -0.003839   -1.317555   -0.924455
     15          1           0        0.001054   -1.392093    0.839657
     16          1           0       -1.260896    0.797434    0.918927
     17          1           0       -1.281079    0.847381   -0.835300
     18          1           0        1.264436    0.796986    0.913387
     19          1           0        1.274174    0.848175   -0.841682
     20          1           0       -2.549808   -1.357359   -0.867465
     21          1           0       -2.569458   -1.349459    0.896385
[...]
 10485,0.00002664,-0.00058295,-0.00056835,0.00069498,0.00003674,0.00001
 146,-0.00002838,0.00013137,-0.00020168,0.00016369,0.00109497,-0.000479
 77,0.00051532,-0.00471138,0.00279813,0.00044527,-0.00000008,0.00000515
 ,-0.00000347,-0.00005792,-0.00002638,0.00000786,-0.00067050,0.00017751
 ,-0.00021221,0.05257037,0.00004981,0.00000478,-0.00000204,0.00125449,0
 .00077432,-0.00108092,0.00002687,-0.00000900,-0.00001137,-0.00348543,-
 0.00133409,-0.00237628,-0.00087668,0.00050986,-0.00030789,-0.00005152,
 0.00004092,-0.00023093,0.00087083,-0.01155602,0.01448905,0.00001332,0.
 00002293,-0.00005979,0.00251842,-0.13648158,0.12655647,-0.00006427,0.0
 0000388,0.00000952,0.00135650,-0.01455164,0.01728244,-0.00001506,0.000
 00784,0.00000341,-0.00041498,-0.00008436,-0.00071604,0.00003150,-0.000
 02123,-0.00013071,0.00049075,0.00049851,-0.00000972,0.00001880,-0.0000
 6228,0.00000477,-0.00017886,0.00004349,-0.00005111,-0.00037350,-0.0000
 1992,-0.00005194,0.00278449,-0.00128191,-0.00046715,-0.00000508,0.0000
 0207,-0.00000204,0.00002627,0.00001709,0.00000775,0.00022739,0.0115459
 3,-0.01553610,-0.00438178,0.15189020,-0.00003468,-0.00001448,0.0000021
 3,0.00038848,-0.00042653,0.00051216,-0.00000455,-0.00002791,-0.0000015
 8,-0.00012623,-0.00158164,-0.00059759,0.00013382,-0.00014296,0.0002163
 3,-0.00013897,-0.00026311,0.00021328,-0.00061026,-0.00097130,0.0014971
 6,-0.00005900,0.00004073,-0.00002877,-0.00283976,0.12557610,-0.2080513
 3,0.00001385,0.00001774,0.00000676,-0.00157900,-0.00046151,0.00038731,
 0.00000356,0.00000041,-0.00000144,0.00037448,-0.00000781,0.00011511,-0
 .00002901,0.00010110,-0.00016072,-0.00055912,-0.00001761,0.00005172,0.
 00003570,-0.00001992,-0.00002009,0.00014581,-0.00004568,-0.00002412,-0
 .00039324,-0.00004959,0.00065141,0.00033751,-0.00043008,0.00141612,-0.
 00000358,0.00000232,-0.00001120,-0.00000815,0.00000763,0.00001359,0.00
 028684,0.01619065,-0.02092417,0.00472081,-0.13739345,0.22476884,-0.036
 20940,-0.01966318,-0.00028421,-0.00008318,0.00000713,-0.00000008,0.001
 29974,-0.00104891,-0.00001051,-0.00004197,-0.00000908,-0.00000016,-0.0
 0009665,-0.00021956,-0.00000250,-0.00025099,0.00052643,0.00000530,-0.0
 0003847,0.00008528,0.00000078,-0.00093269,-0.00113456,-0.00001443,-0.0
 0002764,-0.00005443,-0.00000059,-0.00125334,0.00716705,0.00007556,0.00
 008707,0.00001206,0.00000028,-0.17671366,-0.13465063,-0.00173096,0.000
 02323,0.00001168,0.00000015,0.00000366,0.00000726,0.00001229,0.0000037
 1,0.00000751,-0.00001211,0.00001427,-0.00000961,-0.00001106,0.00001416
 ,-0.00000989,0.00001092,0.00000346,-0.00000061,-0.00000135,0.00000345,
 -0.00000065,0.00000135,-0.00002964,-0.00001207,0.00003647,-0.00002965,
 -0.00001127,-0.00003679,0.00000128,0.00000229,0.00000244,0.00000130,0.
 00000233,-0.00000239,0.20715231,0.02236470,0.01479030,0.00020775,-0.00
 002889,0.00000641,0.00000003,-0.00224033,0.00184606,0.00000843,-0.0000
 1463,0.00000378,0.00000002,0.00006101,0.00007475,0.00000070,0.00012582
 ,-0.00020321,-0.00000139,0.00001789,-0.00001987,-0.00000025,0.00056897
 ,0.00074974,0.00000698,0.00000248,-0.00000091,0.00000002,0.00306088,-0
 .00511132,-0.00005326,0.00003397,-0.00001053,-0.00000006,-0.14843201,-
 0.19588029,-0.00188120,0.00001039,0.00000408,0.00000005,-0.00000858,0.
 00000436,0.00000029,-0.00000853,0.00000431,-0.00000016,0.00001244,0.00
 000180,0.00002001,0.00001249,0.00000205,-0.00001990,0.00000071,0.00000
 024,0.00000179,0.00000070,0.00000026,-0.00000178,-0.00002474,0.0000210
 3,-0.00001744,-0.00002506,0.00002063,0.00001798,0.,0.00000094,0.000000
 35,0.,0.00000094,-0.00000033,0.14590927,0.20345288,0.00018015,0.000128
 97,-0.00019590,-0.00000047,0.00000010,-0.00000157,-0.00002326,0.000010
 58,0.00070403,-0.00000024,0.00000004,-0.00000101,0.00000045,0.00000022
 ,0.00001836,0.00000098,-0.00000066,-0.00005590,0.00000011,-0.00000013,
 0.00000709,0.00000409,0.00000408,0.00019636,-0.00000002,-0.00000009,-0
 .00000216,0.00003143,-0.00004561,0.00025692,0.00000053,-0.00000013,0.0
 0000238,-0.00188357,-0.00185485,-0.05110519,0.00000016,0.00000006,0.00
 000076,0.00000152,-0.00000205,-0.00000316,-0.00000169,0.00000224,-0.00
 000317,-0.00000077,-0.00000727,-0.00000014,0.00000111,0.00000730,-0.00
 000038,-0.00000048,-0.00000104,0.00000016,0.00000051,0.00000104,0.0000
 0015,-0.00001430,-0.00000007,-0.00000746,0.00001368,0.00000059,-0.0000
 0718,0.00000046,-0.00000036,-0.00000031,-0.00000046,0.00000039,-0.0000
 0032,0.00192249,0.00201944,0.04568310,-0.01393354,0.02009679,-0.025504
 43,-0.00003357,-0.00000044,0.00000028,-0.00012166,-0.00350879,-0.00012
 984,-0.00001866,-0.00001156,0.00000100,-0.00002109,-0.00007759,0.00000
 207,0.00000758,0.00010786,0.00014513,-0.00001453,0.00003255,-0.0000037
 5,-0.00034589,-0.00009684,0.00092596,-0.00001246,-0.00002265,0.0000004
 2,0.00389893,0.00759167,-0.00151999,0.00003771,0.00001356,-0.00000165,
 -0.04863806,0.00166270,-0.00302020,0.00000959,0.00000566,-0.00000008,0
 .00000842,-0.00000153,-0.00000197,0.00000917,0.00000074,0.00000056,-0.
 00001171,-0.00002083,-0.00001899,-0.00006704,-0.00003026,0.00001089,-0
 .00000069,-0.00000101,-0.00000229,0.00000109,-0.00000053,0.00000141,-0
 .00013248,0.00008812,-0.00001213,0.00011993,-0.00024919,0.00007606,0.0
 0000089,0.00000151,-0.00000008,0.00000123,0.00000123,0.,0.00351691,-0.
 01090258,0.01877218,0.05440402,0.00904137,-0.00908359,0.00943594,0.000
 06336,-0.00000701,-0.00000095,0.00044108,0.00120708,-0.00009685,0.0000
 3277,0.00000478,-0.00000148,0.00000935,0.00006862,0.00001011,0.0000142
 3,-0.00007846,-0.00004961,0.00000972,-0.00003511,-0.00000794,0.0002583
 6,0.00002582,0.00014517,0.00001374,0.00002868,0.00000213,-0.00348360,-
 0.00152817,-0.00032557,-0.00007055,-0.00000314,0.00000119,0.00683210,-
 0.13533684,0.12349516,-0.00001952,-0.00000867,0.00000094,0.00000314,-0
 .00001128,-0.00000712,-0.00000169,-0.00000561,0.00000021,-0.00000588,0
 .00000365,-0.00001242,0.00002037,0.00003392,0.00000415,-0.00000354,-0.
 00000013,-0.00000151,-0.00000147,0.00000268,0.00000034,-0.00002087,-0.
 00001390,0.00001427,-0.00002965,0.00003890,-0.00008875,0.00000003,-0.0
 0000304,-0.00000114,-0.00000120,-0.00000179,0.00000066,0.00150596,-0.0
 1004356,0.01742982,-0.01263531,0.14330908,-0.00264752,-0.00445259,0.00
 839501,-0.00001020,-0.00000351,0.00000097,0.00108430,-0.00163388,0.000
 07785,-0.00000636,-0.00000994,0.00000192,-0.00000968,-0.00001998,-0.00
 000453,-0.00003302,0.00002273,-0.00003294,-0.00000172,0.00000690,0.000
 00365,-0.00015077,-0.00015244,-0.00037862,-0.00000534,-0.00000637,-0.0
 0000239,0.00179590,0.00331812,0.00059321,0.00001283,0.00001254,-0.0000
 0094,-0.01048399,0.12527063,-0.22926606,0.00000429,0.00000268,-0.00000
 084,0.00000404,0.00000068,0.00000155,0.00000779,-0.00000620,0.00000340
 ,-0.00001122,0.00000557,-0.00000741,-0.00001712,-0.00000580,0.00002088
 ,0.00000025,0.00000148,-0.00000108,-0.00000247,-0.00000062,0.00000316,
 0.00007433,-0.00010112,-0.00003627,0.00000447,-0.00002828,0.00001052,0
 .00000029,0.00000064,-0.00000013,0.00000152,-0.00000051,0.00000067,0.0
 0060221,-0.00283092,0.00245837,0.01001679,-0.13500828,0.23776443,-0.01
 404017,0.01951149,0.02585975,-0.00003362,-0.00000044,-0.00000042,-0.00
 011706,-0.00351662,0.00005160,-0.00001869,-0.00001157,-0.00000131,-0.0
 0002112,-0.00007759,-0.00000375,0.00000792,0.00011092,-0.00014265,-0.0
 0001454,0.00003248,0.00000433,-0.00034322,-0.00007656,-0.00092801,-0.0
 0001247,-0.00002267,-0.00000091,0.00390010,0.00756863,0.00169957,0.000
 03777,0.00001356,0.00000207,-0.04870024,0.00204887,0.00374935,0.000009
 61,0.00000567,0.00000023,0.00000921,0.00000072,-0.00000052,0.00000843,
 -0.00000156,0.00000195,-0.00006704,-0.00003004,-0.00001183,-0.00001179
 ,-0.00002119,0.00001853,0.00000108,-0.00000050,-0.00000143,-0.00000070
 ,-0.00000106,0.00000226,0.00012018,-0.00024771,-0.00008108,-0.00013269
 ,0.00008754,0.00001359,0.00000124,0.00000123,0.00000003,0.00000089,0.0
 0000151,0.00000012,0.00359031,-0.01049393,-0.01900456,0.00133944,-0.00
 197815,-0.00022856,0.05449072,0.00901837,-0.00896545,-0.00978849,0.000
 06312,-0.00000711,0.00000103,0.00046541,0.00116884,0.00012188,0.000032
 62,0.00000451,0.00000164,0.00000916,0.00006835,-0.00000859,0.00001333,
 -0.00007898,0.00004885,0.00000965,-0.00003510,0.00000719,0.00025537,0.
 00002524,-0.00013518,0.00001362,0.00002857,-0.00000146,-0.00344429,-0.
 00146162,0.00026774,-0.00007025,-0.00000282,-0.00000148,0.00704397,-0.
 12988306,-0.12126393,-0.00001942,-0.00000859,-0.00000115,-0.00000151,-
 0.00000574,-0.00000041,0.00000320,-0.00001140,0.00000687,0.00001996,0.
 00003386,-0.00000385,-0.00000615,0.00000349,0.00001262,-0.00000153,0.0
 0000267,-0.00000037,-0.00000354,-0.00000013,0.00000151,-0.00002985,0.0
 0003647,0.00008919,-0.00001902,-0.00001582,-0.00001383,-0.00000117,-0.
 00000179,-0.00000072,0.00000003,-0.00000305,0.00000108,0.00158527,-0.0
 0971333,-0.01769260,-0.00204121,0.01143308,0.01561899,-0.01290098,0.13
 738491,0.00276433,0.00414020,0.00838299,0.00001150,0.00000332,0.000001
 10,-0.00107470,0.00164486,0.00011306,0.00000702,0.00000995,0.00000218,
 0.00000981,0.00002132,-0.00000424,0.00003348,-0.00002338,-0.00003280,0
 .00000187,-0.00000763,0.00000365,0.00015655,0.00016096,-0.00038115,0.0
 0000560,0.00000697,-0.00000227,-0.00186034,-0.00333496,0.00052557,-0.0
 0001427,-0.00001251,-0.00000127,0.01132439,-0.12305902,-0.23468088,-0.
 00000469,-0.00000283,-0.00000094,-0.00000781,0.00000601,0.00000349,-0.
 00000393,-0.00000098,0.00000169,0.00001723,0.00000601,0.00002093,0.000
 01107,-0.00000543,-0.00000711,0.00000242,0.00000061,0.00000317,-0.0000
 0033,-0.00000147,-0.00000106,-0.00000473,0.00002798,0.00001281,-0.0000
 7511,0.00010189,-0.00003461,-0.00000155,0.00000047,0.00000066,-0.00000
 028,-0.00000070,-0.00000012,-0.00056304,0.00252287,0.00205622,0.000262
 63,-0.01493839,-0.01960457,-0.01099829,0.13273329,0.24362329,-0.000033
 60,0.00000042,-0.00000041,-0.01402081,-0.02004141,0.02544171,-0.000018
 69,0.00001158,-0.00000107,-0.00011748,0.00351310,0.00012477,-0.0000212
 2,0.00007763,-0.00000213,-0.00001451,-0.00003258,0.00000367,0.00000799
 ,-0.00010801,-0.00014495,-0.00001250,0.00002266,-0.00000044,-0.0003434
 2,0.00009570,-0.00092659,0.00003775,-0.00001356,0.00000179,0.00390450,
 -0.00759726,0.00154215,0.00000961,-0.00000566,0.00000011,-0.04869884,-
 0.00207439,0.00364285,0.00000843,0.00000153,0.00000199,0.00000921,-0.0
 0000070,-0.00000053,-0.00000070,0.00000101,0.00000229,0.00000108,0.000
 00053,-0.00000142,-0.00001181,0.00002078,0.00001897,-0.00006705,0.0000
 3018,-0.00001122,0.00000089,-0.00000151,0.00000009,0.00000124,-0.00000
 123,0.,-0.00013270,-0.00008796,0.00001175,0.00011989,0.00024940,-0.000
 07581,-0.00000173,-0.00000053,-0.00000007,-0.00000093,0.00000130,-0.00
 000029,-0.00000089,0.00000129,0.00000034,0.05447384,-0.00006338,-0.000
 00708,-0.00000120,-0.00908320,-0.00910205,0.00945457,-0.00003279,0.000
 00473,-0.00000159,-0.00044714,0.00120817,-0.00009756,-0.00000945,0.000
 06867,0.00001009,-0.00000967,-0.00003514,-0.00000798,-0.00001394,-0.00
 007860,-0.00004998,-0.00001378,0.00002868,0.00000210,-0.00025892,0.000
 02555,0.00014224,0.00007058,-0.00000305,0.00000145,0.00348684,-0.00152
 826,-0.00030881,0.00001953,-0.00000865,0.00000099,-0.00722008,-0.13492
 645,0.12330054,-0.00000310,-0.00001127,-0.00000714,0.00000168,-0.00000
 562,0.00000023,0.00000355,-0.00000012,-0.00000149,0.00000148,0.0000026
 8,0.00000036,0.00000591,0.00000366,-0.00001238,-0.00002040,0.00003390,
 0.00000412,-0.00000002,-0.00000304,-0.00000114,0.00000120,-0.00000179,
 0.00000067,0.00002041,-0.00001413,0.00001424,0.00003006,0.00003921,-0.
 00008870,-0.00000326,-0.00000133,0.00000021,-0.00000130,0.00000291,-0.
 00000049,-0.00000130,0.00000242,0.00000018,0.01307551,0.14287715,0.000
 01022,-0.00000348,0.00000101,0.00257808,-0.00450045,0.00850022,0.00000
 637,-0.00000989,0.00000194,-0.00108175,-0.00162201,0.00007735,0.000009
 63,-0.00001980,-0.00000447,0.00000166,0.00000684,0.00000365,0.00003316
 ,0.00002249,-0.00003336,0.00000533,-0.00000634,-0.00000238,0.00015132,
 -0.00015222,-0.00038186,-0.00001284,0.00001246,-0.00000098,-0.00179158
 ,0.00328802,0.00058783,-0.00000430,0.00000267,-0.00000086,0.01110978,0
 .12510535,-0.22964449,-0.00000399,0.00000072,0.00000157,-0.00000777,-0
 .00000621,0.00000337,-0.00000026,0.00000149,-0.00000106,0.00000246,-0.
 00000062,0.00000317,0.00001117,0.00000566,-0.00000724,0.00001682,-0.00
 000573,0.00002090,-0.00000028,0.00000064,-0.00000013,-0.00000152,-0.00
 000052,0.00000066,-0.00007461,-0.00010156,-0.00003644,-0.00000404,-0.0
 0002739,0.00001039,0.00000046,0.00000012,-0.00000014,0.00000028,-0.000
 00049,0.00000060,0.00000031,-0.00000013,-0.00000025,-0.01065741,-0.134
 79649,0.23815196,-0.00008320,-0.00000722,-0.00000023,-0.03620636,0.019
 61326,0.00011197,-0.00004200,0.00000903,0.00000003,0.00129639,0.001048
 37,0.00001119,-0.00009681,0.00021939,0.00000204,-0.00003836,-0.0000852
 9,-0.00000099,-0.00025032,-0.00052648,-0.00000553,-0.00002769,0.000054
 41,0.00000054,-0.00093327,0.00113289,0.00000964,0.00008711,-0.00001197
 ,0.00000003,-0.00124291,-0.00716312,-0.00007699,0.00002325,-0.00001167
 ,-0.00000009,-0.17700019,0.13467698,0.00097731,0.00000371,-0.00000726,
 -0.00001226,0.00000366,-0.00000751,0.00001214,0.00000345,0.00000062,0.
 00000136,0.00000346,0.00000065,-0.00000133,0.00001415,0.00000969,0.000
 01110,0.00001428,0.00000984,-0.00001084,0.00000130,-0.00000228,-0.0000
 0244,0.00000129,-0.00000234,0.00000240,-0.00002956,0.00001206,-0.00003
 652,-0.00002980,0.00001118,0.00003670,-0.00000414,-0.00000143,-0.00000
 002,-0.00000172,0.00000326,-0.00000046,-0.00000173,0.00000325,0.000000
 53,0.00358711,-0.00156508,-0.00059194,0.20744737,0.00002880,0.00000643
 ,0.00000014,-0.02241521,0.01478818,0.00009255,0.00001458,0.00000381,0.
 00000007,0.00223974,0.00184930,0.00001567,-0.00006118,0.00007490,0.000
 00049,-0.00001791,-0.00001997,-0.00000031,-0.00012586,-0.00020385,-0.0
 0000163,-0.00000251,-0.00000086,0.,-0.00057064,0.00075030,0.00000517,-
 0.00003387,-0.00001057,-0.00000021,-0.00305695,-0.00512140,-0.00005977
 ,-0.00001037,0.00000406,0.00000002,0.14845849,-0.19560972,-0.00103065,
 0.00000856,0.00000435,0.00000030,0.00000854,0.00000433,-0.00000012,-0.
 00000071,0.00000024,0.00000179,-0.00000070,0.00000026,-0.00000179,-0.0
 0001250,0.00000179,0.00001995,-0.00001241,0.00000206,-0.00001998,0.,0.
 00000094,0.00000035,0.,0.00000094,-0.00000033,0.00002481,0.00002109,-0
 .00001742,0.00002488,0.00002063,0.00001807,0.00000143,0.00000110,0.000
 00001,0.00000052,-0.00000133,0.00000012,0.00000053,-0.00000132,-0.0000
 0014,0.01089494,-0.01000922,-0.00276650,-0.14591413,0.20317436,0.00000
 010,0.00000006,-0.00000157,-0.00028942,0.00018328,-0.00019659,0.000000
 06,0.00000005,-0.00000101,0.00002550,0.00001408,0.00070414,-0.00000083
 ,0.00000098,0.00001837,-0.00000027,-0.00000043,0.00000708,-0.00000164,
 -0.00000244,-0.00005592,-0.00000007,0.00000012,-0.00000215,-0.00000792
 ,0.00000733,0.00019638,-0.00000015,-0.00000013,0.00000238,-0.00002971,
 -0.00006957,0.00025660,-0.00000005,0.,0.00000076,0.00110571,-0.0010606
 1,-0.05108882,-0.00000151,-0.00000208,-0.00000322,0.00000170,0.0000022
 1,-0.00000311,0.00000050,-0.00000104,0.00000016,-0.00000049,0.00000104
 ,0.00000014,0.00000085,-0.00000725,-0.00000010,-0.00000104,0.00000732,
 -0.00000042,-0.00000046,-0.00000037,-0.00000032,0.00000046,0.00000039,
 -0.00000031,0.00001417,0.00000004,-0.00000756,-0.00001382,0.00000068,-
 0.00000707,0.,0.,0.00000024,0.00000006,0.00000023,-0.00000014,-0.00000
 006,-0.00000024,-0.00000015,-0.01880386,0.01742744,0.00235444,-0.00100
 663,0.00115840,0.04566611,-0.00003346,0.00000041,0.00000029,-0.0138942
 7,-0.01957548,-0.02590392,-0.00001862,0.00001151,0.00000124,-0.0001274
 3,0.00350977,-0.00005703,-0.00002113,0.00007737,0.00000371,-0.00001448
 ,-0.00003241,-0.00000442,0.00000776,-0.00011059,0.00014273,-0.00001246
 ,0.00002257,0.00000089,-0.00034536,0.00007696,0.00092769,0.00003761,-0
 .00001347,-0.00000193,0.00390291,-0.00755253,-0.00167777,0.00000956,-0
 .00000563,-0.00000019,-0.04862239,-0.00148285,-0.00286941,0.00000917,-
 0.00000073,0.00000054,0.00000843,0.00000159,-0.00000194,0.00000109,0.0
 0000049,0.00000142,-0.00000069,0.00000106,-0.00000227,-0.00006705,0.00
 002992,0.00001151,-0.00001174,0.00002121,-0.00001857,0.00000123,-0.000
 00123,-0.00000003,0.00000089,-0.00000150,-0.00000011,0.00011967,0.0002
 4766,0.00008115,-0.00013234,-0.00008793,-0.00001394,-0.00000172,-0.000
 00052,0.00000005,-0.00000088,0.00000130,-0.00000031,-0.00000093,0.0000
 0129,0.00000031,0.00133532,0.00203005,0.00029526,0.00350153,0.01052911
 ,0.01900882,0.05436979,-0.00006315,-0.00000716,0.00000079,-0.00898476,
 -0.00900400,-0.00981970,-0.00003265,0.00000452,0.00000154,-0.00046204,
 0.00117371,0.00012102,-0.00000924,0.00006844,-0.00000860,-0.00000966,-
 0.00003515,0.00000714,-0.00001344,-0.00007908,0.00004876,-0.00001367,0
 .00002859,-0.00000148,-0.00025557,0.00002521,-0.00013628,0.00007030,-0
 .00000280,-0.00000123,0.00345184,-0.00146959,0.00028104,0.00001945,-0.
 00000858,-0.00000110,-0.00650165,-0.13030266,-0.12148088,0.00000154,-0
 .00000572,-0.00000039,-0.00000320,-0.00001141,0.00000685,0.00000152,0.
 00000268,-0.00000035,0.00000354,-0.00000013,0.00000152,-0.00002013,0.0
 0003390,-0.00000386,0.00000608,0.00000353,0.00001263,0.00000118,-0.000
 00178,-0.00000071,-0.00000003,-0.00000306,0.00000108,0.00002959,0.0000
 3670,0.00008939,0.00001924,-0.00001573,-0.00001388,-0.00000325,-0.0000
 0132,-0.00000025,-0.00000129,0.00000242,-0.00000013,-0.00000130,0.0000
 0289,0.00000054,0.00196724,0.01143810,0.01557336,-0.00149910,-0.009730
 83,-0.01765950,0.01230261,0.13785832,-0.00001150,0.00000333,0.00000106
 ,-0.00284146,0.00408893,0.00827672,-0.00000704,0.00000999,0.00000216,0
 .00107399,0.00165894,0.00011381,-0.00000989,0.00002148,-0.00000430,-0.
 00000191,-0.00000769,0.00000366,-0.00003330,-0.00002370,-0.00003238,-0
 .00000562,0.00000700,-0.00000229,-0.00015631,0.00016081,-0.00037794,0.
 00001427,-0.00001256,-0.00000123,0.00187145,-0.00336152,0.00053067,0.0
 0000469,-0.00000283,-0.00000092,-0.01043807,-0.12326189,-0.23431009,0.
 00000782,0.00000602,0.00000352,0.00000399,-0.00000094,0.00000168,-0.00
 000243,0.00000060,0.00000317,0.00000032,-0.00000146,-0.00000108,-0.000
 01755,0.00000605,0.00002091,-0.00001110,-0.00000536,-0.00000728,0.0000
 0154,0.00000047,0.00000067,0.00000029,-0.00000070,-0.00000012,0.000005
 10,0.00002888,0.00001296,0.00007463,0.00010161,-0.00003444,-0.00000052
 ,-0.00000014,-0.00000015,-0.00000034,0.00000018,-0.00000026,-0.0000003
 1,0.00000053,0.00000062,-0.00016627,-0.01498449,-0.01960538,0.00056930
 ,0.00258575,0.00216167,0.01007625,0.13298270,0.24324460\\-0.00000460,-
 0.00000451,-0.00000036,0.00000332,-0.00000359,-0.00000401,0.00000051,-
 0.00000519,-0.00000011,0.,-0.00000738,-0.00000008,-0.00000026,-0.00000
 148,0.00000003,0.00000040,0.00000435,0.00000064,-0.00000133,0.00000406
 ,-0.00000014,0.00000059,-0.00000317,-0.00000094,0.00000195,-0.00000316
 ,-0.00000012,0.00000251,0.00001244,0.00000100,-0.00000318,0.00001382,0
 .00000251,-0.00000062,-0.00000303,-0.00000023,0.00000063,-0.00000301,0
 .00000260,-0.00000006,0.00000061,-0.00000010,0.00000015,0.00000062,-0.
 00000010,-0.00000058,-0.00000154,-0.00000023,0.00000024,-0.00000117,0.
 00000015,-0.00000007,-0.00000092,-0.00000013,0.00000055,-0.00000168,-0
 .00000013,-0.00000011,-0.00000015,0.00000076,0.00000027,-0.00000060,-0
 .00000047,-0.00000069,-0.00000056,0.00000071,-0.00000024,-0.00000020,-
 0.00000039,0.00000063,0.00000044,0.,0.00000009,0.00000115,0.00000049,0
 .00000018,0.00000117,-0.00000028,0.00000044,0.00000033,-0.00000055,-0.
 00000028,0.00000064,0.00000054,-0.00000044,0.00000170,-0.00000107\\\@


 WAR ES EIN GOTT DER DIESE ZEICHEN SCHRIEB?
          - LUDWIG BOLTZMANN, QUOTING GOETHE, ABOUT MAXWELL'S EQUATIONS.
 Job cpu time:       0 days  5 hours 25 minutes 37.1 seconds.
 Elapsed time:       0 days  0 hours 20 minutes 26.2 seconds.
 File lengths (MBytes):  RWF=    410 Int=      0 D2E=      0 Chk=     14 Scr=      1
 Normal termination of Gaussian 16 at Wed Oct  1 19:56:39 2025.
