 Entering Gaussian System, Link 0=g16
 Input=DINP0099.gjf
 Output=DINP0099.log
 Initial command:
 /usr/local/g16/l1.exe "/dados_01/scratch/Gau-2018065.inp" -scrdir="/dados_01/scratch/"
 Entering Link 1 = /usr/local/g16/l1.exe PID=   2018068.
  
 Copyright (c) 1988-2017, Gaussian, Inc.  All Rights Reserved.
  
 This is part of the Gaussian(R) 16 program.  It is based on
 the Gaussian(R) 09 system (copyright 2009, Gaussian, Inc.),
 the Gaussian(R) 03 system (copyright 2003, Gaussian, Inc.),
 the Gaussian(R) 98 system (copyright 1998, Gaussian, Inc.),
 the Gaussian(R) 94 system (copyright 1995, Gaussian, Inc.),
 the Gaussian 92(TM) system (copyright 1992, Gaussian, Inc.),
 the Gaussian 90(TM) system (copyright 1990, Gaussian, Inc.),
 the Gaussian 88(TM) system (copyright 1988, Gaussian, Inc.),
 the Gaussian 86(TM) system (copyright 1986, Carnegie Mellon
 University), and the Gaussian 82(TM) system (copyright 1983,
 Carnegie Mellon University). Gaussian is a federally registered
 trademark of Gaussian, Inc.
  
 This software contains proprietary and confidential information,
 including trade secrets, belonging to Gaussian, Inc.
  
 This software is provided under written license and may be
 used, copied, transmitted, or stored only in accord with that
 written license.
  
 The following legend is applicable only to US Government
 contracts under FAR:
  
                    RESTRICTED RIGHTS LEGEND
  
 Use, reproduction and disclosure by the US Government is
 subject to restrictions as set forth in subparagraphs (a)
 and (c) of the Commercial Computer Software - Restricted
 Rights clause in FAR 52.227-19.
  
 Gaussian, Inc.
 340 Quinnipiac St., Bldg. 40, Wallingford CT 06492
  
  
 ---------------------------------------------------------------
 Warning -- This program may not be used in any manner that
 competes with the business of Gaussian, Inc. or will provide
 assistance to any competitor of Gaussian, Inc.  The licensee
 of this program is prohibited from giving any competitor of
 Gaussian, Inc. access to this program.  By using this program,
 the user acknowledges that Gaussian, Inc. is engaged in the
 business of creating and licensing software in the field of
 computational chemistry and represents and warrants to the
 licensee that it is not a competitor of Gaussian, Inc. and that
 it will not use this program in any manner prohibited above.
 ---------------------------------------------------------------
  

 Cite this work as:
 Gaussian 16, Revision B.01,
 M. J. Frisch, G. W. Trucks, H. B. Schlegel, G. E. Scuseria, 
 M. A. Robb, J. R. Cheeseman, G. Scalmani, V. Barone, 
 G. A. Petersson, H. Nakatsuji, X. Li, M. Caricato, A. V. Marenich, 
 J. Bloino, B. G. Janesko, R. Gomperts, B. Mennucci, H. P. Hratchian, 
 J. V. Ortiz, A. F. Izmaylov, J. L. Sonnenberg, D. Williams-Young, 
 F. Ding, F. Lipparini, F. Egidi, J. Goings, B. Peng, A. Petrone, 
 T. Henderson, D. Ranasinghe, V. G. Zakrzewski, J. Gao, N. Rega, 
 G. Zheng, W. Liang, M. Hada, M. Ehara, K. Toyota, R. Fukuda, 
 J. Hasegawa, M. Ishida, T. Nakajima, Y. Honda, O. Kitao, H. Nakai, 
 T. Vreven, K. Throssell, J. A. Montgomery, Jr., J. E. Peralta, 
 F. Ogliaro, M. J. Bearpark, J. J. Heyd, E. N. Brothers, K. N. Kudin, 
 V. N. Staroverov, T. A. Keith, R. Kobayashi, J. Normand, 
 K. Raghavachari, A. P. Rendell, J. C. Burant, S. S. Iyengar, 
 J. Tomasi, M. Cossi, J. M. Millam, M. Klene, C. Adamo, R. Cammi, 
 J. W. Ochterski, R. L. Martin, K. Morokuma, O. Farkas, 
 J. B. Foresman, and D. J. Fox, Gaussian, Inc., Wallingford CT, 2016.
 
 ******************************************
 Gaussian 16:  ES64L-G16RevB.01 20-Dec-2017
                19-Sep-2025 
 ******************************************
 %nprocs=16
 Will use up to   16 processors via shared memory.
 %mem=40GB
 %chk=DINP0099.chk
 ----------------------------------------------------------------------
 # opt freq=noraman M08HX/6-311++G** scf=xqc Empiricaldispersion=pfd In
 t(Grid=ultraFine)
 ----------------------------------------------------------------------
 1/18=20,19=15,26=4,38=1/1,3;
 2/9=110,12=2,17=6,18=5,40=1/2;
 3/5=4,6=6,7=1111,11=2,25=1,30=1,71=1,74=-74,75=-5,124=11/1,2,3;
 4//1;
 5/5=2,8=3,13=1,38=5/2,8;
 6/7=2,8=2,9=2,10=2,28=1/1;
 7//1,2,3,16;
 1/18=20,19=15,26=4/3(2);
 2/9=110/2;
 99//99;
 2/9=110/2;
 3/5=4,6=6,7=1111,11=2,25=1,30=1,71=1,74=-74,75=-5,124=11/1,2,3;
 4/5=5,16=3,69=1/1;
 5/5=2,8=3,13=1,38=5/2,8;
 7//1,2,3,16;
 1/18=20,19=15,26=4/3(-5);
 2/9=110/2;
 6/7=2,8=2,9=2,10=2,19=2,28=1/1;
 99/9=1/99;
 --------
 DINP0099
 --------
 Symbolic Z-matrix:
 Charge =  0 Multiplicity = 1
 O                    -1.0021    1.0173    0.645 
 O                     1.023     1.0436   -0.6344 
 C                    -2.7556   -0.6048    0.4846 
 C                     2.7681   -0.5886   -0.4843 
 C                    -1.7123    0.1996   -0.2755 
 C                     1.6998    0.1845    0.2736 
 C                     0.        1.8069    0.0047 
 C                    -3.5467   -1.5166   -0.4359 
 C                     3.5257   -1.5419    0.4222 
 H                    -2.2646   -1.1994    1.2645 
 H                    -3.4359    0.0769    1.0089 
 H                     2.3042   -1.1473   -1.3061 
 H                     3.4671    0.1137   -0.9541 
 H                    -1.0231   -0.4808   -0.788 
 H                    -2.2004    0.8338   -1.0249 
 H                     0.9945   -0.5183    0.7306 
 H                     2.1614    0.784     1.067 
 H                    -0.4672    2.454    -0.7459 
 H                     0.455     2.458     0.7591 
 H                    -2.8891   -2.2328   -0.939 
 H                    -4.2892   -2.0817    0.1364 
 H                    -4.0753   -0.9389   -1.2008 
 H                     2.8503   -2.2778    0.8701 
 H                     4.2873   -2.083    -0.1479 
 H                     4.0277   -0.9995    1.2298 
 

 GradGradGradGradGradGradGradGradGradGradGradGradGradGradGradGradGradGrad
 Berny optimization.
 Initialization pass.
                           ----------------------------
                           !    Initial Parameters    !
                           ! (Angstroms and Degrees)  !
 --------------------------                            --------------------------
 ! Name  Definition              Value          Derivative Info.                !
 --------------------------------------------------------------------------------
 ! R1    R(1,5)                  1.4214         estimate D2E/DX2                !
 ! R2    R(1,7)                  1.4275         estimate D2E/DX2                !
 ! R3    R(2,6)                  1.4215         estimate D2E/DX2                !
 ! R4    R(2,7)                  1.4274         estimate D2E/DX2                !
 ! R5    R(3,5)                  1.5209         estimate D2E/DX2                !
 ! R6    R(3,8)                  1.5181         estimate D2E/DX2                !
 ! R7    R(3,10)                 1.0968         estimate D2E/DX2                !
 ! R8    R(3,11)                 1.0965         estimate D2E/DX2                !
 ! R9    R(4,6)                  1.521          estimate D2E/DX2                !
 ! R10   R(4,9)                  1.5181         estimate D2E/DX2                !
 ! R11   R(4,12)                 1.0967         estimate D2E/DX2                !
 ! R12   R(4,13)                 1.0966         estimate D2E/DX2                !
 ! R13   R(5,14)                 1.0957         estimate D2E/DX2                !
 ! R14   R(5,15)                 1.0964         estimate D2E/DX2                !
 ! R15   R(6,16)                 1.0955         estimate D2E/DX2                !
 ! R16   R(6,17)                 1.0963         estimate D2E/DX2                !
 ! R17   R(7,18)                 1.0956         estimate D2E/DX2                !
 ! R18   R(7,19)                 1.0955         estimate D2E/DX2                !
 ! R19   R(8,20)                 1.0948         estimate D2E/DX2                !
 ! R20   R(8,21)                 1.0946         estimate D2E/DX2                !
 ! R21   R(8,22)                 1.0946         estimate D2E/DX2                !
 ! R22   R(9,23)                 1.0947         estimate D2E/DX2                !
 ! R23   R(9,24)                 1.0945         estimate D2E/DX2                !
 ! R24   R(9,25)                 1.0947         estimate D2E/DX2                !
 ! A1    A(5,1,7)              112.2403         estimate D2E/DX2                !
 ! A2    A(6,2,7)              112.235          estimate D2E/DX2                !
 ! A3    A(5,3,8)              111.8449         estimate D2E/DX2                !
 ! A4    A(5,3,10)             109.5733         estimate D2E/DX2                !
 ! A5    A(5,3,11)             109.6166         estimate D2E/DX2                !
 ! A6    A(8,3,10)             109.8069         estimate D2E/DX2                !
 ! A7    A(8,3,11)             109.878          estimate D2E/DX2                !
 ! A8    A(10,3,11)            105.949          estimate D2E/DX2                !
 ! A9    A(6,4,9)              111.8494         estimate D2E/DX2                !
 ! A10   A(6,4,12)             109.5872         estimate D2E/DX2                !
 ! A11   A(6,4,13)             109.6129         estimate D2E/DX2                !
 ! A12   A(9,4,12)             109.7952         estimate D2E/DX2                !
 ! A13   A(9,4,13)             109.8701         estimate D2E/DX2                !
 ! A14   A(12,4,13)            105.954          estimate D2E/DX2                !
 ! A15   A(1,5,3)              108.8657         estimate D2E/DX2                !
 ! A16   A(1,5,14)             110.2341         estimate D2E/DX2                !
 ! A17   A(1,5,15)             109.4098         estimate D2E/DX2                !
 ! A18   A(3,5,14)             109.6818         estimate D2E/DX2                !
 ! A19   A(3,5,15)             110.0074         estimate D2E/DX2                !
 ! A20   A(14,5,15)            108.6336         estimate D2E/DX2                !
 ! A21   A(2,6,4)              108.8638         estimate D2E/DX2                !
 ! A22   A(2,6,16)             110.3434         estimate D2E/DX2                !
 ! A23   A(2,6,17)             109.4056         estimate D2E/DX2                !
 ! A24   A(4,6,16)             109.51           estimate D2E/DX2                !
 ! A25   A(4,6,17)             110.0492         estimate D2E/DX2                !
 ! A26   A(16,6,17)            108.661          estimate D2E/DX2                !
 ! A27   A(1,7,2)              114.0888         estimate D2E/DX2                !
 ! A28   A(1,7,18)             109.551          estimate D2E/DX2                !
 ! A29   A(1,7,19)             108.1462         estimate D2E/DX2                !
 ! A30   A(2,7,18)             108.3423         estimate D2E/DX2                !
 ! A31   A(2,7,19)             109.1765         estimate D2E/DX2                !
 ! A32   A(18,7,19)            107.329          estimate D2E/DX2                !
 ! A33   A(3,8,20)             111.0122         estimate D2E/DX2                !
 ! A34   A(3,8,21)             110.276          estimate D2E/DX2                !
 ! A35   A(3,8,22)             111.0002         estimate D2E/DX2                !
 ! A36   A(20,8,21)            108.0585         estimate D2E/DX2                !
 ! A37   A(20,8,22)            108.3131         estimate D2E/DX2                !
 ! A38   A(21,8,22)            108.0735         estimate D2E/DX2                !
 ! A39   A(4,9,23)             111.0126         estimate D2E/DX2                !
 ! A40   A(4,9,24)             110.2856         estimate D2E/DX2                !
 ! A41   A(4,9,25)             110.992          estimate D2E/DX2                !
 ! A42   A(23,9,24)            108.0658         estimate D2E/DX2                !
 ! A43   A(23,9,25)            108.31           estimate D2E/DX2                !
 ! A44   A(24,9,25)            108.0674         estimate D2E/DX2                !
 ! D1    D(7,1,5,3)           -179.9968         estimate D2E/DX2                !
 ! D2    D(7,1,5,14)            59.6533         estimate D2E/DX2                !
 ! D3    D(7,1,5,15)           -59.7482         estimate D2E/DX2                !
 ! D4    D(5,1,7,2)            -62.2097         estimate D2E/DX2                !
 ! D5    D(5,1,7,18)            59.4298         estimate D2E/DX2                !
 ! D6    D(5,1,7,19)           176.1102         estimate D2E/DX2                !
 ! D7    D(7,2,6,4)            179.9977         estimate D2E/DX2                !
 ! D8    D(7,2,6,16)            59.7932         estimate D2E/DX2                !
 ! D9    D(7,2,6,17)           -59.7065         estimate D2E/DX2                !
 ! D10   D(6,2,7,1)            -58.539          estimate D2E/DX2                !
 ! D11   D(6,2,7,18)           179.1567         estimate D2E/DX2                !
 ! D12   D(6,2,7,19)            62.5709         estimate D2E/DX2                !
 ! D13   D(8,3,5,1)           -179.3842         estimate D2E/DX2                !
 ! D14   D(8,3,5,14)           -58.694          estimate D2E/DX2                !
 ! D15   D(8,3,5,15)            60.7371         estimate D2E/DX2                !
 ! D16   D(10,3,5,1)           -57.3793         estimate D2E/DX2                !
 ! D17   D(10,3,5,14)           63.3108         estimate D2E/DX2                !
 ! D18   D(10,3,5,15)         -177.2581         estimate D2E/DX2                !
 ! D19   D(11,3,5,1)            58.4906         estimate D2E/DX2                !
 ! D20   D(11,3,5,14)          179.1807         estimate D2E/DX2                !
 ! D21   D(11,3,5,15)          -61.3882         estimate D2E/DX2                !
 ! D22   D(5,3,8,20)            60.3134         estimate D2E/DX2                !
 ! D23   D(5,3,8,21)          -179.957          estimate D2E/DX2                !
 ! D24   D(5,3,8,22)           -60.2164         estimate D2E/DX2                !
 ! D25   D(10,3,8,20)          -61.5574         estimate D2E/DX2                !
 ! D26   D(10,3,8,21)           58.1722         estimate D2E/DX2                !
 ! D27   D(10,3,8,22)          177.9129         estimate D2E/DX2                !
 ! D28   D(11,3,8,20)         -177.7113         estimate D2E/DX2                !
 ! D29   D(11,3,8,21)          -57.9816         estimate D2E/DX2                !
 ! D30   D(11,3,8,22)           61.759          estimate D2E/DX2                !
 ! D31   D(9,4,6,2)           -179.3847         estimate D2E/DX2                !
 ! D32   D(9,4,6,16)           -58.6665         estimate D2E/DX2                !
 ! D33   D(9,4,6,17)            60.7177         estimate D2E/DX2                !
 ! D34   D(12,4,6,2)           -57.3821         estimate D2E/DX2                !
 ! D35   D(12,4,6,16)           63.3361         estimate D2E/DX2                !
 ! D36   D(12,4,6,17)         -177.2797         estimate D2E/DX2                !
 ! D37   D(13,4,6,2)            58.4996         estimate D2E/DX2                !
 ! D38   D(13,4,6,16)          179.2178         estimate D2E/DX2                !
 ! D39   D(13,4,6,17)          -61.398          estimate D2E/DX2                !
 ! D40   D(6,4,9,23)            60.3227         estimate D2E/DX2                !
 ! D41   D(6,4,9,24)          -179.9319         estimate D2E/DX2                !
 ! D42   D(6,4,9,25)           -60.1979         estimate D2E/DX2                !
 ! D43   D(12,4,9,23)          -61.5606         estimate D2E/DX2                !
 ! D44   D(12,4,9,24)           58.1848         estimate D2E/DX2                !
 ! D45   D(12,4,9,25)          177.9188         estimate D2E/DX2                !
 ! D46   D(13,4,9,23)         -177.7092         estimate D2E/DX2                !
 ! D47   D(13,4,9,24)          -57.9637         estimate D2E/DX2                !
 ! D48   D(13,4,9,25)           61.7703         estimate D2E/DX2                !
 --------------------------------------------------------------------------------
 Trust Radius=3.00D-01 FncErr=1.00D-07 GrdErr=1.00D-06 EigMax=2.50D+02 EigMin=1.00D-04
 Number of steps in this run=    126 maximum allowed number of steps=    150.
 GradGradGradGradGradGradGradGradGradGradGradGradGradGradGradGradGradGrad

                          Input orientation:                          
 ---------------------------------------------------------------------
 Center     Atomic      Atomic             Coordinates (Angstroms)
 Number     Number       Type             X           Y           Z
 ---------------------------------------------------------------------
      1          8           0       -1.002100    1.017300    0.645000
      2          8           0        1.023000    1.043600   -0.634400
      3          6           0       -2.755600   -0.604800    0.484600
      4          6           0        2.768100   -0.588600   -0.484300
      5          6           0       -1.712300    0.199600   -0.275500
      6          6           0        1.699800    0.184500    0.273600
      7          6           0        0.000000    1.806900    0.004700
      8          6           0       -3.546700   -1.516600   -0.435900
      9          6           0        3.525700   -1.541900    0.422200
     10          1           0       -2.264600   -1.199400    1.264500
     11          1           0       -3.435900    0.076900    1.008900
     12          1           0        2.304200   -1.147300   -1.306100
     13          1           0        3.467100    0.113700   -0.954100
     14          1           0       -1.023100   -0.480800   -0.788000
     15          1           0       -2.200400    0.833800   -1.024900
     16          1           0        0.994500   -0.518300    0.730600
     17          1           0        2.161400    0.784000    1.067000
     18          1           0       -0.467200    2.454000   -0.745900
     19          1           0        0.455000    2.458000    0.759100
     20          1           0       -2.889100   -2.232800   -0.939000
     21          1           0       -4.289200   -2.081700    0.136400
     22          1           0       -4.075300   -0.938900   -1.200800
     23          1           0        2.850300   -2.277800    0.870100
     24          1           0        4.287300   -2.083000   -0.147900
     25          1           0        4.027700   -0.999500    1.229800
 ---------------------------------------------------------------------
                    Distance matrix (angstroms):
                    1          2          3          4          5
     1  O    0.000000
     2  O    2.395535   0.000000
     3  C    2.394097   4.271674   0.000000
     4  C    4.250722   2.394156   5.608056   0.000000
     5  C    1.421386   2.884963   1.520949   4.553992   0.000000
     6  C    2.851624   1.421469   4.529691   1.520974   3.456033
     7  C    1.427465   1.427447   3.693228   3.693226   2.365142
     8  C    3.750198   5.241773   1.518071   6.382807   2.517160
     9  C    5.205777   3.750296   6.351124   1.518052   5.563834
    10  H    2.625156   4.409669   1.096756   5.362784   2.152635
    11  H    2.634418   4.849405   1.096546   6.415774   2.153029
    12  H    4.407256   2.625395   5.394672   1.096679   4.359879
    13  H    4.831911   2.634492   6.427137   1.096603   5.224372
    14  H    2.073218   2.556152   2.153240   3.804872   1.095718
    15  H    2.063531   3.253738   2.157871   5.196293   1.096381
    16  H    2.520279   2.074504   3.759155   2.150949   2.975632
    17  H    3.200038   2.063519   5.142455   2.158390   4.141181
    18  H    2.069983   2.054837   4.013373   4.448934   2.617990
    19  H    2.052261   2.065186   4.445677   4.022219   3.296658
    20  H    4.078354   5.111957   2.166759   5.908812   2.782384
    21  H    4.546152   6.211369   2.157407   7.240173   3.466180
    22  H    4.083902   5.499434   2.166519   6.889717   2.781390
    23  H    5.074381   4.078510   5.862905   2.166692   5.316693
    24  H    6.182095   4.546203   7.224097   2.157398   6.420416
    25  H    5.450538   4.083837   6.835515   2.166465   6.054037
                    6          7          8          9         10
     6  C    0.000000
     7  C    2.365123   0.000000
     8  C    5.560836   4.880457   0.000000
     9  C    2.517231   4.880505   7.124312   0.000000
    10  H    4.314340   3.969049   2.153081   5.861258   0.000000
    11  H    5.189187   3.975767   2.153826   7.171374   1.751062
    12  H    2.152776   3.969236   5.926775   2.152857   5.242579
    13  H    2.153046   3.975803   7.219404   2.153752   6.284807
    14  H    2.997299   2.628436   2.750530   4.825153   2.504090
    15  H    4.161641   2.617014   2.771971   6.366025   3.062577
    16  H    1.095548   2.631067   4.793727   2.747697   3.372044
    17  H    1.096339   2.616573   6.335130   2.772525   4.854107
    18  H    3.299379   1.095634   5.034390   5.768442   4.540890
    19  H    2.637051   1.095480   5.765334   5.053899   4.585655
    20  H    5.326513   5.055358   1.094756   6.593927   2.512634
    21  H    6.404889   5.791010   1.094610   7.838733   2.479933
    22  H    6.065283   5.059715   1.094636   7.795700   3.069886
    23  H    2.782514   5.055482   6.573178   1.094682   5.242204
    24  H    3.466176   5.790989   7.859727   1.094458   6.760401
    25  H    2.781239   5.059557   7.772611   1.094723   6.295570
                   11         12         13         14         15
    11  H    0.000000
    12  H    6.309250   0.000000
    13  H    7.176777   1.751103   0.000000
    14  H    3.059654   3.432721   4.532429   0.000000
    15  H    2.497138   4.929021   5.713503   1.780542   0.000000
    16  H    4.478857   2.501820   3.058004   2.525522   3.888102
    17  H    5.642086   3.062991   2.497799   3.896381   4.837750
    18  H    4.188449   4.578629   4.582474   2.987281   2.388906
    19  H    4.568494   4.547832   4.183724   3.635223   3.587733
    20  H    3.070508   5.318218   6.775512   2.564032   3.144157
    21  H    2.479704   6.813724   8.134443   3.752973   3.769860
    22  H    2.514648   6.383772   7.619490   3.113870   2.586244
    23  H    6.714178   2.512390   3.070410   4.580582   6.227572
    24  H    8.102541   2.479848   2.479552   5.583648   7.167085
    25  H    7.544055   3.069705   2.514539   5.463620   6.872692
                   16         17         18         19         20
    16  H    0.000000
    17  H    1.780676   0.000000
    18  H    3.626456   3.603477   0.000000
    19  H    3.024935   2.410162   1.765076   0.000000
    20  H    4.561735   6.215518   5.279108   6.005843   0.000000
    21  H    5.542092   7.119585   5.996558   6.595761   1.771891
    22  H    5.441515   6.856218   4.973640   5.991974   1.774764
    23  H    2.561112   3.144515   6.000599   5.308256   6.017938
    24  H    3.750011   3.770295   6.599034   6.010811   7.221426
    25  H    3.111440   2.586591   6.002848   4.994001   7.353016
                   21         22         23         24         25
    21  H    0.000000
    22  H    1.771962   0.000000
    23  H    7.179779   7.351545   0.000000
    24  H    8.581211   8.505918   1.771790   0.000000
    25  H    8.457985   8.459911   1.774741   1.771841   0.000000
 Stoichiometry    C7H16O2
 Framework group  C1[X(C7H16O2)]
 Deg. of freedom    69
 Full point group                 C1      NOp   1
 Largest Abelian subgroup         C1      NOp   1
 Largest concise Abelian subgroup C1      NOp   1
                         Standard orientation:                         
 ---------------------------------------------------------------------
 Center     Atomic      Atomic             Coordinates (Angstroms)
 Number     Number       Type             X           Y           Z
 ---------------------------------------------------------------------
      1          8           0       -0.993015    1.058960    0.658750
      2          8           0        1.014648    1.086201   -0.647823
      3          6           0       -2.747813   -0.563895    0.521910
      4          6           0        2.762320   -0.545247   -0.521342
      5          6           0       -1.715201    0.240994   -0.252138
      6          6           0        1.703996    0.227352    0.250928
      7          6           0        0.000022    1.849026    0.005046
      8          6           0       -3.550850   -1.475996   -0.387893
      9          6           0        3.532482   -1.498260    0.374816
     10          1           0       -2.246089   -1.158318    1.295091
     11          1           0       -3.421281    0.117484    1.055367
     12          1           0        2.287630   -1.104110   -1.336845
     13          1           0        3.454621    0.157379   -1.000482
     14          1           0       -1.032675   -0.439082   -0.773916
     15          1           0       -2.213631    0.875017   -0.994859
     16          1           0        1.005224   -0.475776    0.717354
     17          1           0        2.175986    0.827016    1.038067
     18          1           0       -0.477532    2.495958   -0.739156
     19          1           0        0.464865    2.500288    0.753280
     20          1           0       -2.899779   -2.191886   -0.899848
     21          1           0       -4.285325   -2.041446    0.194331
     22          1           0       -4.089961   -0.898490   -1.145570
     23          1           0        2.863499   -2.234475    0.831738
     24          1           0        4.286565   -2.039002   -0.205525
     25          1           0        4.045085   -0.955680    1.175606
 ---------------------------------------------------------------------
 Rotational constants (GHZ):           2.3421983           0.6661975           0.5643025
 Standard basis: 6-311++G(d,p) (5D, 7F)
 There are   319 symmetry adapted cartesian basis functions of A   symmetry.
 There are   310 symmetry adapted basis functions of A   symmetry.
   310 basis functions,   468 primitive gaussians,   319 cartesian basis functions
    37 alpha electrons       37 beta electrons
       nuclear repulsion energy       481.8428528054 Hartrees.
 NAtoms=   25 NActive=   25 NUniq=   25 SFac= 1.00D+00 NAtFMM=   60 NAOKFM=F Big=F
 Integral buffers will be    131072 words long.
 Raffenetti 2 integral format.
 Two-electron integral symmetry is turned on.
 R6APFD:  NTU= -4 IXU= 1 FactS= 1.050
 Nuclear repulsion after empirical dispersion term =      481.8272083315 Hartrees.
 One-electron integrals computed using PRISM.
 NBasis=   310 RedAO= T EigKep=  2.00D-05  NBF=   310
 NBsUse=   310 1.00D-06 EigRej= -1.00D+00 NBFU=   310
 ExpMin= 3.60D-02 ExpMax= 8.59D+03 ExpMxC= 1.30D+03 IAcc=3 IRadAn=         5 AccDes= 0.00D+00
 Harris functional with IExCor= 1009 and IRadAn=       5 diagonalized for initial guess.
 HarFok:  IExCor= 1009 AccDes= 0.00D+00 IRadAn=         5 IDoV= 1 UseB2=F ITyADJ=14
 ICtDFT=  3500011 ScaDFX=  1.000000  1.000000  1.000000  1.000000
 FoFCou: FMM=F IPFlag=           0 FMFlag=      100000 FMFlg1=           0
         NFxFlg=           0 DoJE=T BraDBF=F KetDBF=T FulRan=T
         wScrn=  0.000000 ICntrl=       500 IOpCl=  0 I1Cent=   200000004 NGrid=           0
         NMat0=    1 NMatS0=      1 NMatT0=    0 NMatD0=    1 NMtDS0=    0 NMtDT0=    0
 Petite list used in FoFCou.
 Requested convergence on RMS density matrix=1.00D-08 within  32 cycles.
 Requested convergence on MAX density matrix=1.00D-06.
 Requested convergence on             energy=1.00D-06.
 No special actions if energy rises.
 SCF Done:  E(RM08HX) =  -426.817715133     A.U. after   12 cycles
            NFock= 12  Conv=0.62D-08     -V/T= 2.0050
 QCSCF skips out because SCF is already converged.

 **********************************************************************

            Population analysis using the SCF Density.

 **********************************************************************

 Orbital symmetries:
       Occupied  (A) (A) (A) (A) (A) (A) (A) (A) (A) (A) (A) (A)
                 (A) (A) (A) (A) (A) (A) (A) (A) (A) (A) (A) (A)
                 (A) (A) (A) (A) (A) (A) (A) (A) (A) (A) (A) (A)
                 (A)
       Virtual   (A) (A) (A) (A) (A) (A) (A) (A) (A) (A) (A) (A)
                 (A) (A) (A) (A) (A) (A) (A) (A) (A) (A) (A) (A)
                 (A) (A) (A) (A) (A) (A) (A) (A) (A) (A) (A) (A)
                 (A) (A) (A) (A) (A) (A) (A) (A) (A) (A) (A) (A)
                 (A) (A) (A) (A) (A) (A) (A) (A) (A) (A) (A) (A)
                 (A) (A) (A) (A) (A) (A) (A) (A) (A) (A) (A) (A)
                 (A) (A) (A) (A) (A) (A) (A) (A) (A) (A) (A) (A)
                 (A) (A) (A) (A) (A) (A) (A) (A) (A) (A) (A) (A)
                 (A) (A) (A) (A) (A) (A) (A) (A) (A) (A) (A) (A)
                 (A) (A) (A) (A) (A) (A) (A) (A) (A) (A) (A) (A)
                 (A) (A) (A) (A) (A) (A) (A) (A) (A) (A) (A) (A)
                 (A) (A) (A) (A) (A) (A) (A) (A) (A) (A) (A) (A)
                 (A) (A) (A) (A) (A) (A) (A) (A) (A) (A) (A) (A)
                 (A) (A) (A) (A) (A) (A) (A) (A) (A) (A) (A) (A)
                 (A) (A) (A) (A) (A) (A) (A) (A) (A) (A) (A) (A)
                 (A) (A) (A) (A) (A) (A) (A) (A) (A) (A) (A) (A)
                 (A) (A) (A) (A) (A) (A) (A) (A) (A) (A) (A) (A)
                 (A) (A) (A) (A) (A) (A) (A) (A) (A) (A) (A) (A)
                 (A) (A) (A) (A) (A) (A) (A) (A) (A) (A) (A) (A)
                 (A) (A) (A) (A) (A) (A) (A) (A) (A) (A) (A) (A)
                 (A) (A) (A) (A) (A) (A) (A) (A) (A) (A) (A) (A)
                 (A) (A) (A) (A) (A) (A) (A) (A) (A) (A) (A) (A)
                 (A) (A) (A) (A) (A) (A) (A) (A) (A)
 The electronic state is 1-A.
 Alpha  occ. eigenvalues --  -19.61936 -19.61864 -10.62584 -10.57274 -10.57195
 Alpha  occ. eigenvalues --  -10.52411 -10.52350 -10.51847 -10.51802  -1.18779
 Alpha  occ. eigenvalues --   -1.12734  -0.89896  -0.88816  -0.81108  -0.77444
 Alpha  occ. eigenvalues --   -0.71553  -0.68357  -0.67276  -0.58750  -0.58635
 Alpha  occ. eigenvalues --   -0.57266  -0.53960  -0.53901  -0.51145  -0.48669
 Alpha  occ. eigenvalues --   -0.48318  -0.46837  -0.45355  -0.43026  -0.42973
 Alpha  occ. eigenvalues --   -0.41257  -0.40506  -0.39903  -0.39665  -0.37600
 Alpha  occ. eigenvalues --   -0.34903  -0.34770
 Alpha virt. eigenvalues --   -0.02901  -0.01866  -0.01543  -0.01119  -0.00090
 Alpha virt. eigenvalues --    0.00129   0.00552   0.01675   0.01828   0.03081
 Alpha virt. eigenvalues --    0.03134   0.03291   0.04293   0.04606   0.05482
 Alpha virt. eigenvalues --    0.05514   0.05784   0.06800   0.07059   0.08600
 Alpha virt. eigenvalues --    0.09122   0.09788   0.10676   0.11067   0.11288
 Alpha virt. eigenvalues --    0.11794   0.11950   0.12254   0.12641   0.12963
 Alpha virt. eigenvalues --    0.13249   0.13402   0.14147   0.14279   0.14733
 Alpha virt. eigenvalues --    0.14843   0.15688   0.16380   0.16755   0.16800
 Alpha virt. eigenvalues --    0.16971   0.17964   0.18290   0.19469   0.20838
 Alpha virt. eigenvalues --    0.20980   0.21921   0.22493   0.22859   0.23531
 Alpha virt. eigenvalues --    0.24747   0.24904   0.25373   0.25762   0.25942
 Alpha virt. eigenvalues --    0.27592   0.28992   0.29146   0.29529   0.29750
 Alpha virt. eigenvalues --    0.30100   0.31131   0.31591   0.31631   0.32374
 Alpha virt. eigenvalues --    0.33916   0.35038   0.35193   0.35696   0.36912
 Alpha virt. eigenvalues --    0.37246   0.39448   0.39657   0.40461   0.42909
 Alpha virt. eigenvalues --    0.43417   0.45988   0.46030   0.46986   0.47678
 Alpha virt. eigenvalues --    0.49083   0.50325   0.53262   0.53495   0.55697
 Alpha virt. eigenvalues --    0.58792   0.59984   0.60959   0.61976   0.65519
 Alpha virt. eigenvalues --    0.66972   0.67647   0.67930   0.68861   0.69015
 Alpha virt. eigenvalues --    0.69754   0.69907   0.70408   0.70678   0.71261
 Alpha virt. eigenvalues --    0.72293   0.72622   0.73268   0.73588   0.74066
 Alpha virt. eigenvalues --    0.75993   0.76604   0.77584   0.78151   0.78512
 Alpha virt. eigenvalues --    0.80263   0.80814   0.85739   0.92809   0.93532
 Alpha virt. eigenvalues --    0.97619   0.99087   1.00453   1.02980   1.03213
 Alpha virt. eigenvalues --    1.05997   1.06562   1.10351   1.11336   1.13150
 Alpha virt. eigenvalues --    1.19671   1.21607   1.24549   1.26340   1.29669
 Alpha virt. eigenvalues --    1.29814   1.32344   1.32515   1.34290   1.37814
 Alpha virt. eigenvalues --    1.39872   1.41984   1.45940   1.49262   1.49694
 Alpha virt. eigenvalues --    1.52703   1.53433   1.56541   1.58454   1.58513
 Alpha virt. eigenvalues --    1.59214   1.59436   1.61602   1.61655   1.62806
 Alpha virt. eigenvalues --    1.63826   1.64237   1.64426   1.66166   1.66382
 Alpha virt. eigenvalues --    1.68315   1.69140   1.70693   1.71332   1.72890
 Alpha virt. eigenvalues --    1.73400   1.73873   1.75955   1.77681   1.78395
 Alpha virt. eigenvalues --    1.78531   1.79325   1.81614   1.83676   1.84985
 Alpha virt. eigenvalues --    1.87627   1.89967   1.93823   1.96110   1.99074
 Alpha virt. eigenvalues --    1.99749   2.00514   2.01931   2.11787   2.12942
 Alpha virt. eigenvalues --    2.13145   2.14222   2.18067   2.18119   2.18658
 Alpha virt. eigenvalues --    2.20485   2.21738   2.21994   2.27373   2.36541
 Alpha virt. eigenvalues --    2.36672   2.37827   2.38617   2.41330   2.41610
 Alpha virt. eigenvalues --    2.47429   2.49819   2.50551   2.50824   2.51491
 Alpha virt. eigenvalues --    2.51853   2.54297   2.55668   2.55823   2.56208
 Alpha virt. eigenvalues --    2.57465   2.59461   2.61171   2.63093   2.65154
 Alpha virt. eigenvalues --    2.65437   2.65904   2.66125   2.67978   2.68938
 Alpha virt. eigenvalues --    2.70341   2.74930   2.75430   2.76111   2.76725
 Alpha virt. eigenvalues --    2.77917   2.79008   2.81365   2.86802   2.89656
 Alpha virt. eigenvalues --    2.92313   2.94167   2.95574   3.04050   3.05284
 Alpha virt. eigenvalues --    3.06833   3.13119   3.17279   3.17971   3.24164
 Alpha virt. eigenvalues --    3.24958   3.30935   3.32741   3.39785   3.44908
 Alpha virt. eigenvalues --    3.51411   3.81375   3.82453   3.83455   3.83642
 Alpha virt. eigenvalues --    3.84190   3.84249   3.84844   3.89055   3.91984
 Alpha virt. eigenvalues --    4.06437   4.08060   4.11769   4.21580   4.22237
 Alpha virt. eigenvalues --    4.25948   4.38586   4.40613   5.24588   5.25550
 Alpha virt. eigenvalues --    5.46298   5.54268   5.73210   5.84932  23.87249
 Alpha virt. eigenvalues --   23.92222  23.93078  23.96434  23.96534  24.03444
 Alpha virt. eigenvalues --   24.03668  49.94292  49.96868
          Condensed to atoms (all electrons):
               1          2          3          4          5          6
     1  O    8.050740  -0.062682  -0.253135   0.011207   0.245772  -0.010275
     2  O   -0.062682   8.050801   0.008349  -0.256283  -0.012360   0.250185
     3  C   -0.253135   0.008349   7.016478   0.008840  -0.981186   0.073858
     4  C    0.011207  -0.256283   0.008840   7.019855   0.068081  -0.972788
     5  C    0.245772  -0.012360  -0.981186   0.068081   6.860306  -0.163972
     6  C   -0.010275   0.250185   0.073858  -0.972788  -0.163972   6.840160
     7  C    0.212184   0.220509  -0.135247  -0.135432  -0.238185  -0.233864
     8  C    0.037379   0.002661  -0.342764  -0.003463   0.173668  -0.010606
     9  C    0.003104   0.038295  -0.003184  -0.340141  -0.010392   0.166305
    10  H    0.015547   0.000305   0.492825  -0.002671  -0.103367   0.003162
    11  H   -0.005012  -0.000980   0.484820   0.000394  -0.074228   0.004542
    12  H    0.000551   0.014233  -0.002653   0.488588   0.003564  -0.097566
    13  H   -0.001143  -0.004558   0.000281   0.488807   0.003862  -0.077893
    14  H   -0.064967   0.025929   0.017907  -0.000796   0.328507   0.003617
    15  H   -0.044653  -0.021471  -0.080931   0.012078   0.415442  -0.004475
    16  H    0.024977  -0.063284  -0.001205   0.027296   0.000883   0.312315
    17  H   -0.021262  -0.047393   0.011799  -0.095628  -0.004683   0.429943
    18  H   -0.023407  -0.102272  -0.005769  -0.007634   0.030031   0.005933
    19  H   -0.099151  -0.022619  -0.005964  -0.004634  -0.002019   0.017194
    20  H   -0.000892  -0.000499   0.004769   0.002004  -0.041423  -0.000624
    21  H   -0.003327   0.000061  -0.092068   0.000307   0.047558  -0.000476
    22  H    0.000922   0.000640   0.001975  -0.001627  -0.047914   0.000760
    23  H   -0.000591  -0.000809   0.001996   0.006306  -0.000938  -0.042965
    24  H    0.000073  -0.003320   0.000337  -0.092136  -0.000534   0.048110
    25  H    0.000667   0.000864  -0.001653   0.001323   0.001105  -0.047344
               7          8          9         10         11         12
     1  O    0.212184   0.037379   0.003104   0.015547  -0.005012   0.000551
     2  O    0.220509   0.002661   0.038295   0.000305  -0.000980   0.014233
     3  C   -0.135247  -0.342764  -0.003184   0.492825   0.484820  -0.002653
     4  C   -0.135432  -0.003463  -0.340141  -0.002671   0.000394   0.488588
     5  C   -0.238185   0.173668  -0.010392  -0.103367  -0.074228   0.003564
     6  C   -0.233864  -0.010606   0.166305   0.003162   0.004542  -0.097566
     7  C    5.889640  -0.016954  -0.019414   0.008706   0.002772   0.008967
     8  C   -0.016954   5.789502  -0.000870  -0.051787  -0.074917  -0.000395
     9  C   -0.019414  -0.000870   5.791828  -0.000666   0.000011  -0.052179
    10  H    0.008706  -0.051787  -0.000666   0.516135  -0.056634   0.001418
    11  H    0.002772  -0.074917   0.000011  -0.056634   0.501913  -0.000291
    12  H    0.008967  -0.000395  -0.052179   0.001418  -0.000291   0.515561
    13  H    0.002828  -0.000046  -0.074626  -0.000279   0.000077  -0.056661
    14  H    0.009321  -0.002223  -0.005949  -0.023908   0.014793  -0.004749
    15  H    0.028518  -0.018750   0.000906   0.011532  -0.015884   0.001856
    16  H    0.007629  -0.005894   0.001749  -0.004893  -0.000700  -0.025636
    17  H    0.031529   0.000767  -0.018782   0.001955  -0.000534   0.012218
    18  H    0.374192   0.011300  -0.005908   0.002179  -0.003763  -0.000956
    19  H    0.387135  -0.005546   0.011360  -0.001072   0.002113   0.001908
    20  H   -0.000595   0.393317   0.000649  -0.014506   0.009202  -0.000645
    21  H   -0.001517   0.410653  -0.000066  -0.005059  -0.004143  -0.000021
    22  H   -0.001321   0.421332  -0.000094   0.008091  -0.017905   0.000206
    23  H   -0.000730   0.000632   0.392802  -0.000763   0.000048  -0.014573
    24  H   -0.001636  -0.000069   0.410425  -0.000029   0.000018  -0.005121
    25  H   -0.000947  -0.000069   0.421446   0.000251  -0.000035   0.007919
              13         14         15         16         17         18
     1  O   -0.001143  -0.064967  -0.044653   0.024977  -0.021262  -0.023407
     2  O   -0.004558   0.025929  -0.021471  -0.063284  -0.047393  -0.102272
     3  C    0.000281   0.017907  -0.080931  -0.001205   0.011799  -0.005769
     4  C    0.488807  -0.000796   0.012078   0.027296  -0.095628  -0.007634
     5  C    0.003862   0.328507   0.415442   0.000883  -0.004683   0.030031
     6  C   -0.077893   0.003617  -0.004475   0.312315   0.429943   0.005933
     7  C    0.002828   0.009321   0.028518   0.007629   0.031529   0.374192
     8  C   -0.000046  -0.002223  -0.018750  -0.005894   0.000767   0.011300
     9  C   -0.074626  -0.005949   0.000906   0.001749  -0.018782  -0.005908
    10  H   -0.000279  -0.023908   0.011532  -0.004893   0.001955   0.002179
    11  H    0.000077   0.014793  -0.015884  -0.000700  -0.000534  -0.003763
    12  H   -0.056661  -0.004749   0.001856  -0.025636   0.012218  -0.000956
    13  H    0.501924  -0.000292  -0.000498   0.015066  -0.016660   0.002161
    14  H   -0.000292   0.667198  -0.136696  -0.044398   0.010514  -0.000757
    15  H   -0.000498  -0.136696   0.653973   0.011867  -0.005863   0.006948
    16  H    0.015066  -0.044398   0.011867   0.681152  -0.139126  -0.004021
    17  H   -0.016660   0.010514  -0.005863  -0.139126   0.655570   0.001867
    18  H    0.002161  -0.000757   0.006948  -0.004021   0.001867   0.564091
    19  H   -0.003727  -0.002859   0.002034   0.000245   0.007809  -0.069585
    20  H    0.000037   0.006164   0.008147  -0.000563  -0.000556  -0.001657
    21  H    0.000014  -0.002138  -0.004826   0.000209   0.000096   0.000168
    22  H   -0.000030  -0.001868  -0.006003  -0.000246   0.000448   0.001938
    23  H    0.009036  -0.000139  -0.000612   0.006573   0.007720   0.000795
    24  H   -0.003863   0.000144   0.000098  -0.002009  -0.005123  -0.000175
    25  H   -0.017382  -0.000285   0.000447  -0.002582  -0.005582  -0.000696
              19         20         21         22         23         24
     1  O   -0.099151  -0.000892  -0.003327   0.000922  -0.000591   0.000073
     2  O   -0.022619  -0.000499   0.000061   0.000640  -0.000809  -0.003320
     3  C   -0.005964   0.004769  -0.092068   0.001975   0.001996   0.000337
     4  C   -0.004634   0.002004   0.000307  -0.001627   0.006306  -0.092136
     5  C   -0.002019  -0.041423   0.047558  -0.047914  -0.000938  -0.000534
     6  C    0.017194  -0.000624  -0.000476   0.000760  -0.042965   0.048110
     7  C    0.387135  -0.000595  -0.001517  -0.001321  -0.000730  -0.001636
     8  C   -0.005546   0.393317   0.410653   0.421332   0.000632  -0.000069
     9  C    0.011360   0.000649  -0.000066  -0.000094   0.392802   0.410425
    10  H   -0.001072  -0.014506  -0.005059   0.008091  -0.000763  -0.000029
    11  H    0.002113   0.009202  -0.004143  -0.017905   0.000048   0.000018
    12  H    0.001908  -0.000645  -0.000021   0.000206  -0.014573  -0.005121
    13  H   -0.003727   0.000037   0.000014  -0.000030   0.009036  -0.003863
    14  H   -0.002859   0.006164  -0.002138  -0.001868  -0.000139   0.000144
    15  H    0.002034   0.008147  -0.004826  -0.006003  -0.000612   0.000098
    16  H    0.000245  -0.000563   0.000209  -0.000246   0.006573  -0.002009
    17  H    0.007809  -0.000556   0.000096   0.000448   0.007720  -0.005123
    18  H   -0.069585  -0.001657   0.000168   0.001938   0.000795  -0.000175
    19  H    0.558591   0.000787  -0.000166  -0.000753  -0.001515   0.000158
    20  H    0.000787   0.551002  -0.026392  -0.068703  -0.000101   0.000076
    21  H   -0.000166  -0.026392   0.492008  -0.024431   0.000074   0.000003
    22  H   -0.000753  -0.068703  -0.024431   0.553244   0.000030  -0.000024
    23  H   -0.001515  -0.000101   0.000074   0.000030   0.551327  -0.026246
    24  H    0.000158   0.000076   0.000003  -0.000024  -0.026246   0.491710
    25  H    0.001673   0.000026  -0.000024  -0.000009  -0.067957  -0.024516
              25
     1  O    0.000667
     2  O    0.000864
     3  C   -0.001653
     4  C    0.001323
     5  C    0.001105
     6  C   -0.047344
     7  C   -0.000947
     8  C   -0.000069
     9  C    0.421446
    10  H    0.000251
    11  H   -0.000035
    12  H    0.007919
    13  H   -0.017382
    14  H   -0.000285
    15  H    0.000447
    16  H   -0.002582
    17  H   -0.005582
    18  H   -0.000696
    19  H    0.001673
    20  H    0.000026
    21  H   -0.000024
    22  H   -0.000009
    23  H   -0.067957
    24  H   -0.024516
    25  H    0.551589
 Mulliken charges:
               1
     1  O   -0.012623
     2  O   -0.014301
     3  C   -0.218475
     4  C   -0.221853
     5  C   -0.497576
     6  C   -0.493236
     7  C   -0.398087
     8  C   -0.706856
     9  C   -0.706610
    10  H    0.203529
    11  H    0.234323
    12  H    0.204458
    13  H    0.233564
    14  H    0.207928
    15  H    0.186817
    16  H    0.204596
    17  H    0.188956
    18  H    0.224997
    19  H    0.228602
    20  H    0.180979
    21  H    0.213503
    22  H    0.181344
    23  H    0.180602
    24  H    0.213649
    25  H    0.181770
 Sum of Mulliken charges =  -0.00000
 Mulliken charges with hydrogens summed into heavy atoms:
               1
     1  O   -0.012623
     2  O   -0.014301
     3  C    0.219378
     4  C    0.216169
     5  C   -0.102832
     6  C   -0.099684
     7  C    0.055512
     8  C   -0.131030
     9  C   -0.130589
 Electronic spatial extent (au):  <R**2>=           2124.9658
 Charge=             -0.0000 electrons
 Dipole moment (field-independent basis, Debye):
    X=             -0.0690    Y=             -0.5036    Z=             -0.0090  Tot=              0.5083
 Quadrupole moment (field-independent basis, Debye-Ang):
   XX=            -55.6685   YY=            -56.8001   ZZ=            -62.2723
   XY=             -0.1204   XZ=              2.7789   YZ=              0.0590
 Traceless Quadrupole moment (field-independent basis, Debye-Ang):
   XX=              2.5784   YY=              1.4469   ZZ=             -4.0253
   XY=             -0.1204   XZ=              2.7789   YZ=              0.0590
 Octapole moment (field-independent basis, Debye-Ang**2):
  XXX=             -0.1293  YYY=             17.7065  ZZZ=              0.0427  XYY=             -0.4003
  XXY=              0.5607  XXZ=              0.1952  XZZ=              0.0858  YZZ=              0.5805
  YYZ=              0.0971  XYZ=              8.2742
 Hexadecapole moment (field-independent basis, Debye-Ang**3):
 XXXX=          -2142.7914 YYYY=           -555.3173 ZZZZ=           -198.6645 XXXY=             -0.2990
 XXXZ=            -21.9967 YYYX=              0.1941 YYYZ=              0.1067 ZZZX=             -3.0771
 ZZZY=              0.2661 XXYY=           -465.0032 XXZZ=           -396.3431 YYZZ=           -128.1204
 XXYZ=              0.0146 YYXZ=             -0.6349 ZZXY=              0.0129
 N-N= 4.818272083315D+02 E-N=-1.958125859232D+03  KE= 4.246947616491D+02
 R6APFD:  NTU= -4 IXU= 1 FactS= 1.050
 Calling FoFJK, ICntrl=      2127 FMM=F ISym2X=0 I1Cent= 0 IOpClX= 0 NMat=1 NMatS=1 NMatT=0.
 ***** Axes restored to original set *****
 -------------------------------------------------------------------
 Center     Atomic                   Forces (Hartrees/Bohr)
 Number     Number              X              Y              Z
 -------------------------------------------------------------------
      1        8           0.018643210    0.009095014   -0.009055025
      2        8          -0.019865637    0.007081780    0.007712302
      3        6           0.001107820    0.002681016    0.004423050
      4        6          -0.000701608    0.003195021   -0.004453140
      5        6          -0.001403508   -0.000834257    0.009527932
      6        6           0.002138679   -0.000392659   -0.009599943
      7        6           0.000706583   -0.014580706    0.001231861
      8        6          -0.001195954   -0.001237169   -0.000284416
      9        6           0.001155506   -0.001090726    0.000386649
     10        1           0.002921057    0.000252862    0.000706189
     11        1           0.000201265    0.002678649    0.000403236
     12        1          -0.002935593    0.000309499   -0.000836885
     13        1          -0.000140627    0.002613876   -0.000334972
     14        1           0.003624237   -0.001161962   -0.003420335
     15        1          -0.001082828    0.002543297   -0.005138028
     16        1          -0.003797118   -0.001011447    0.003303588
     17        1           0.000882119    0.002309059    0.005414828
     18        1           0.001579619   -0.003400418   -0.007380967
     19        1          -0.001651080   -0.003135352    0.007523805
     20        1           0.000253210   -0.001476578   -0.001787772
     21        1          -0.001128213   -0.001217792   -0.001331067
     22        1          -0.001150281   -0.000081117   -0.002125849
     23        1          -0.000349967   -0.001591688    0.001742447
     24        1           0.001134394   -0.001337310    0.001247049
     25        1           0.001054715   -0.000210896    0.002125464
 -------------------------------------------------------------------
 Cartesian Forces:  Max     0.019865637 RMS     0.004912713

 GradGradGradGradGradGradGradGradGradGradGradGradGradGradGradGradGradGrad
 Berny optimization.
 FormGI is forming the generalized inverse of G from B-inverse, IUseBI=4.
 Internal  Forces:  Max     0.024436305 RMS     0.003974191
 Search for a local minimum.
 Step number   1 out of a maximum of  126
 All quantities printed in internal units (Hartrees-Bohrs-Radians)
 Mixed Optimization -- RFO/linear search
 Second derivative matrix not updated -- first step.
 ITU=  0
     Eigenvalues ---    0.00489   0.00489   0.00527   0.00527   0.01328
     Eigenvalues ---    0.01329   0.01408   0.01409   0.03690   0.03690
     Eigenvalues ---    0.04935   0.04935   0.05316   0.05318   0.05626
     Eigenvalues ---    0.05627   0.05720   0.05721   0.05950   0.05960
     Eigenvalues ---    0.07534   0.08303   0.08303   0.09435   0.11227
     Eigenvalues ---    0.11236   0.12163   0.12164   0.12576   0.13694
     Eigenvalues ---    0.13696   0.14648   0.16000   0.16000   0.16000
     Eigenvalues ---    0.16000   0.16000   0.16000   0.21864   0.21864
     Eigenvalues ---    0.22023   0.22025   0.22203   0.25000   0.25000
     Eigenvalues ---    0.30273   0.30275   0.30553   0.30555   0.34043
     Eigenvalues ---    0.34052   0.34061   0.34067   0.34086   0.34090
     Eigenvalues ---    0.34160   0.34170   0.34179   0.34187   0.34269
     Eigenvalues ---    0.34272   0.34277   0.34282   0.34285   0.34303
     Eigenvalues ---    0.41356   0.41358   0.42240   0.42252
 RFO step:  Lambda=-6.59015363D-03 EMin= 4.88506058D-03
 Linear search not attempted -- first point.
 Iteration  1 RMS(Cart)=  0.09239708 RMS(Int)=  0.00067669
 Iteration  2 RMS(Cart)=  0.00207057 RMS(Int)=  0.00018990
 Iteration  3 RMS(Cart)=  0.00000059 RMS(Int)=  0.00018990
 Variable       Old X    -DE/DX   Delta X   Delta X   Delta X     New X
                                 (Linear)    (Quad)   (Total)
    R1        2.68603  -0.00294   0.00000  -0.00685  -0.00685   2.67918
    R2        2.69752  -0.02444   0.00000  -0.05816  -0.05816   2.63936
    R3        2.68619  -0.00308   0.00000  -0.00717  -0.00717   2.67902
    R4        2.69748  -0.02364   0.00000  -0.05625  -0.05625   2.64123
    R5        2.87418  -0.00154   0.00000  -0.00496  -0.00496   2.86921
    R6        2.86874   0.00744   0.00000   0.02384   0.02384   2.89258
    R7        2.07257   0.00167   0.00000   0.00482   0.00482   2.07739
    R8        2.07217   0.00173   0.00000   0.00499   0.00499   2.07716
    R9        2.87422  -0.00145   0.00000  -0.00467  -0.00467   2.86955
   R10        2.86870   0.00743   0.00000   0.02382   0.02382   2.89252
   R11        2.07242   0.00171   0.00000   0.00493   0.00493   2.07735
   R12        2.07228   0.00173   0.00000   0.00498   0.00498   2.07726
   R13        2.07061   0.00460   0.00000   0.01321   0.01321   2.08382
   R14        2.07186   0.00546   0.00000   0.01573   0.01573   2.08759
   R15        2.07029   0.00447   0.00000   0.01283   0.01283   2.08312
   R16        2.07178   0.00555   0.00000   0.01598   0.01598   2.08776
   R17        2.07045   0.00237   0.00000   0.00682   0.00682   2.07727
   R18        2.07016   0.00263   0.00000   0.00755   0.00755   2.07771
   R19        2.06879   0.00194   0.00000   0.00555   0.00555   2.07434
   R20        2.06851   0.00070   0.00000   0.00200   0.00200   2.07051
   R21        2.06856   0.00200   0.00000   0.00572   0.00572   2.07428
   R22        2.06865   0.00200   0.00000   0.00572   0.00572   2.07437
   R23        2.06823   0.00080   0.00000   0.00229   0.00229   2.07052
   R24        2.06873   0.00195   0.00000   0.00557   0.00557   2.07430
    A1        1.95896  -0.00327   0.00000  -0.01276  -0.01276   1.94620
    A2        1.95887  -0.00270   0.00000  -0.01051  -0.01051   1.94836
    A3        1.95206  -0.00192   0.00000  -0.01089  -0.01085   1.94121
    A4        1.91241  -0.00101   0.00000  -0.01578  -0.01572   1.89669
    A5        1.91317  -0.00059   0.00000  -0.01106  -0.01100   1.90217
    A6        1.91649   0.00188   0.00000   0.01543   0.01524   1.93173
    A7        1.91773   0.00165   0.00000   0.01508   0.01493   1.93267
    A8        1.84916   0.00010   0.00000   0.00816   0.00784   1.85700
    A9        1.95214  -0.00203   0.00000  -0.01133  -0.01129   1.94085
   A10        1.91266  -0.00103   0.00000  -0.01625  -0.01619   1.89646
   A11        1.91311  -0.00047   0.00000  -0.00998  -0.00992   1.90319
   A12        1.91629   0.00195   0.00000   0.01562   0.01542   1.93171
   A13        1.91760   0.00163   0.00000   0.01499   0.01485   1.93245
   A14        1.84925   0.00007   0.00000   0.00791   0.00760   1.85684
   A15        1.90006  -0.00101   0.00000  -0.00229  -0.00229   1.89778
   A16        1.92395  -0.00078   0.00000  -0.00777  -0.00777   1.91618
   A17        1.90956   0.00034   0.00000   0.00304   0.00302   1.91258
   A18        1.91431   0.00208   0.00000   0.01396   0.01395   1.92826
   A19        1.91999   0.00110   0.00000   0.00908   0.00906   1.92905
   A20        1.89601  -0.00173   0.00000  -0.01596  -0.01601   1.88000
   A21        1.90003  -0.00122   0.00000  -0.00311  -0.00311   1.89693
   A22        1.92586  -0.00088   0.00000  -0.00845  -0.00845   1.91740
   A23        1.90949   0.00044   0.00000   0.00300   0.00299   1.91247
   A24        1.91131   0.00250   0.00000   0.01710   0.01709   1.92840
   A25        1.92072   0.00106   0.00000   0.00858   0.00856   1.92928
   A26        1.89649  -0.00187   0.00000  -0.01703  -0.01710   1.87940
   A27        1.99122  -0.00687   0.00000  -0.03836  -0.03885   1.95238
   A28        1.91202   0.00575   0.00000   0.02803   0.02723   1.93925
   A29        1.88751  -0.00495   0.00000  -0.03749  -0.03749   1.85002
   A30        1.89093  -0.00547   0.00000  -0.04506  -0.04531   1.84562
   A31        1.90549   0.00664   0.00000   0.03841   0.03801   1.94350
   A32        1.87324   0.00574   0.00000   0.06152   0.06175   1.93499
   A33        1.93753   0.00094   0.00000   0.00474   0.00470   1.94223
   A34        1.92468   0.00249   0.00000   0.01682   0.01674   1.94142
   A35        1.93732   0.00106   0.00000   0.00537   0.00534   1.94266
   A36        1.88598  -0.00154   0.00000  -0.00740  -0.00747   1.87851
   A37        1.89042  -0.00151   0.00000  -0.01253  -0.01252   1.87790
   A38        1.88624  -0.00164   0.00000  -0.00815  -0.00823   1.87801
   A39        1.93754   0.00094   0.00000   0.00475   0.00472   1.94225
   A40        1.92485   0.00247   0.00000   0.01666   0.01658   1.94143
   A41        1.93717   0.00108   0.00000   0.00553   0.00549   1.94267
   A42        1.88610  -0.00154   0.00000  -0.00746  -0.00753   1.87857
   A43        1.89037  -0.00152   0.00000  -0.01256  -0.01255   1.87781
   A44        1.88613  -0.00163   0.00000  -0.00807  -0.00814   1.87799
    D1       -3.14154   0.00023   0.00000   0.00275   0.00274  -3.13879
    D2        1.04115  -0.00122   0.00000  -0.00822  -0.00820   1.03294
    D3       -1.04280   0.00117   0.00000   0.01425   0.01423  -1.02857
    D4       -1.08576   0.00315   0.00000   0.04615   0.04677  -1.03900
    D5        1.03725  -0.00440   0.00000  -0.01796  -0.01801   1.01923
    D6        3.07370   0.00280   0.00000   0.04965   0.04908   3.12278
    D7        3.14155   0.00049   0.00000   0.00942   0.00942  -3.13222
    D8        1.04359  -0.00128   0.00000  -0.00448  -0.00446   1.03913
    D9       -1.04208   0.00130   0.00000   0.01979   0.01977  -1.02231
   D10       -1.02170   0.00156   0.00000   0.00394   0.00493  -1.01677
   D11        3.12687   0.00282   0.00000   0.02704   0.02616  -3.13015
   D12        1.09207  -0.00460   0.00000  -0.04213  -0.04224   1.04983
   D13       -3.13084   0.00024   0.00000   0.00282   0.00281  -3.12803
   D14       -1.02440  -0.00007   0.00000   0.00041   0.00038  -1.02402
   D15        1.06006  -0.00022   0.00000  -0.00497  -0.00497   1.05509
   D16       -1.00146   0.00063   0.00000   0.00413   0.00415  -0.99730
   D17        1.10498   0.00032   0.00000   0.00171   0.00172   1.10671
   D18       -3.09374   0.00017   0.00000  -0.00366  -0.00363  -3.09737
   D19        1.02085  -0.00015   0.00000  -0.00130  -0.00130   1.01955
   D20        3.12729  -0.00046   0.00000  -0.00371  -0.00373   3.12356
   D21       -1.07143  -0.00062   0.00000  -0.00908  -0.00908  -1.08051
   D22        1.05267  -0.00041   0.00000  -0.00613  -0.00616   1.04651
   D23       -3.14084  -0.00011   0.00000  -0.00134  -0.00134   3.14100
   D24       -1.05097   0.00016   0.00000   0.00292   0.00293  -1.04804
   D25       -1.07438   0.00086   0.00000   0.01052   0.01061  -1.06377
   D26        1.01530   0.00116   0.00000   0.01531   0.01542   1.03072
   D27        3.10517   0.00143   0.00000   0.01957   0.01970   3.12487
   D28       -3.10165  -0.00131   0.00000  -0.01704  -0.01716  -3.11881
   D29       -1.01197  -0.00101   0.00000  -0.01224  -0.01235  -1.02432
   D30        1.07790  -0.00074   0.00000  -0.00799  -0.00807   1.06983
   D31       -3.13085   0.00023   0.00000   0.00284   0.00283  -3.12803
   D32       -1.02392  -0.00009   0.00000   0.00099   0.00096  -1.02297
   D33        1.05972  -0.00020   0.00000  -0.00409  -0.00409   1.05563
   D34       -1.00151   0.00062   0.00000   0.00377   0.00380  -0.99770
   D35        1.10542   0.00031   0.00000   0.00192   0.00193   1.10736
   D36       -3.09411   0.00020   0.00000  -0.00316  -0.00312  -3.09724
   D37        1.02101  -0.00015   0.00000  -0.00162  -0.00162   1.01939
   D38        3.12794  -0.00047   0.00000  -0.00347  -0.00349   3.12445
   D39       -1.07160  -0.00058   0.00000  -0.00855  -0.00854  -1.08014
   D40        1.05283  -0.00045   0.00000  -0.00707  -0.00710   1.04573
   D41       -3.14040  -0.00016   0.00000  -0.00245  -0.00246   3.14032
   D42       -1.05065   0.00011   0.00000   0.00191   0.00192  -1.04873
   D43       -1.07444   0.00087   0.00000   0.01033   0.01043  -1.06401
   D44        1.01552   0.00116   0.00000   0.01495   0.01507   1.03058
   D45        3.10527   0.00144   0.00000   0.01931   0.01945   3.12472
   D46       -3.10161  -0.00128   0.00000  -0.01696  -0.01709  -3.11870
   D47       -1.01166  -0.00099   0.00000  -0.01234  -0.01245  -1.02411
   D48        1.07809  -0.00072   0.00000  -0.00799  -0.00807   1.07002
         Item               Value     Threshold  Converged?
 Maximum Force            0.024436     0.000450     NO 
 RMS     Force            0.003974     0.000300     NO 
 Maximum Displacement     0.295932     0.001800     NO 
 RMS     Displacement     0.094194     0.001200     NO 
 Predicted change in Energy=-3.412679D-03
 GradGradGradGradGradGradGradGradGradGradGradGradGradGradGradGradGradGrad

                          Input orientation:                          
 ---------------------------------------------------------------------
 Center     Atomic      Atomic             Coordinates (Angstroms)
 Number     Number       Type             X           Y           Z
 ---------------------------------------------------------------------
      1          8           0       -0.958613    1.061584    0.656845
      2          8           0        0.961871    1.073219   -0.635339
      3          6           0       -2.662068   -0.603360    0.500860
      4          6           0        2.662588   -0.595885   -0.506185
      5          6           0       -1.637336    0.219334   -0.259668
      6          6           0        1.626846    0.203124    0.264962
      7          6           0       -0.000869    1.850066    0.015162
      8          6           0       -3.417465   -1.550227   -0.434991
      9          6           0        3.404365   -1.571457    0.410837
     10          1           0       -2.144840   -1.167991    1.289622
     11          1           0       -3.358557    0.076442    1.011726
     12          1           0        2.156498   -1.135759   -1.319108
     13          1           0        3.366688    0.098464   -0.986233
     14          1           0       -0.913606   -0.439596   -0.767599
     15          1           0       -2.131302    0.835074   -1.032478
     16          1           0        0.896830   -0.470787    0.742532
     17          1           0        2.109502    0.794927    1.063325
     18          1           0       -0.459493    2.472628   -0.766127
     19          1           0        0.451470    2.474960    0.798583
     20          1           0       -2.732500   -2.248815   -0.932716
     21          1           0       -4.156588   -2.144442    0.113729
     22          1           0       -3.951893   -0.995626   -1.217081
     23          1           0        2.712203   -2.284359    0.877364
     24          1           0        4.150972   -2.149199   -0.145299
     25          1           0        3.927896   -1.041420    1.216976
 ---------------------------------------------------------------------
                    Distance matrix (angstroms):
                    1          2          3          4          5
     1  O    0.000000
     2  O    2.314764   0.000000
     3  C    2.387075   4.151481   0.000000
     4  C    4.148848   2.386426   5.419055   0.000000
     5  C    1.417761   2.761544   1.518323   4.383457   0.000000
     6  C    2.752295   1.417674   4.370452   1.518501   3.306114
     7  C    1.396687   1.397680   3.652011   3.653557   2.326552
     8  C    3.749616   5.108933   1.530687   6.154908   2.516137
     9  C    5.101863   3.748943   6.143852   1.530655   5.392148
    10  H    2.603564   4.287207   1.099308   5.163680   2.140684
    11  H    2.618430   4.729956   1.099187   6.245820   2.144636
    12  H    4.293789   2.602740   5.178253   1.099288   4.165557
    13  H    4.726049   2.618477   6.248992   1.099237   5.057940
    14  H    2.069930   2.413196   2.166317   3.589140   1.102710
    15  H    2.068893   3.127643   2.168393   5.030507   1.104704
    16  H    2.407940   2.070438   3.569557   2.166297   2.811169
    17  H    3.106391   2.068807   5.003944   2.168784   4.015023
    18  H    2.065191   1.998931   3.989774   4.385286   2.592518
    19  H    2.001513   2.069182   4.388486   4.002693   3.251285
    20  H    4.078249   4.977220   2.183489   5.658717   2.782829
    21  H    4.560770   6.092050   2.181375   7.020220   3.474694
    22  H    4.086983   5.363172   2.183768   6.664572   2.783871
    23  H    4.971806   4.077409   5.643607   2.183487   5.145853
    24  H    6.087727   4.560097   7.016028   2.181355   6.255201
    25  H    5.349238   4.086573   6.643218   2.183756   5.894217
                    6          7          8          9         10
     6  C    0.000000
     7  C    2.329007   0.000000
     8  C    5.386024   4.841257   0.000000
     9  C    2.515947   4.843449   6.874100   0.000000
    10  H    4.141920   3.915294   2.177148   5.632825   0.000000
    11  H    5.042614   3.925934   2.177732   6.986684   1.760383
    12  H    2.140658   3.917864   5.658844   2.177089   5.030707
    13  H    2.145575   3.925728   7.003341   2.177581   6.095930
    14  H    2.816588   2.586186   2.759247   4.616784   2.505724
    15  H    4.025716   2.581958   2.775044   6.206300   3.066692
    16  H    1.102340   2.592545   4.600533   2.758482   3.168147
    17  H    1.104794   2.581788   6.188059   2.775281   4.690808
    18  H    3.250631   1.099242   5.004260   5.715704   4.507838
    19  H    2.612948   1.099477   5.717735   5.024284   4.500337
    20  H    5.142989   5.016085   1.097694   6.318627   2.540140
    21  H    6.243561   5.765052   1.095668   7.588451   2.526522
    22  H    5.895404   5.022646   1.097662   7.556204   3.094949
    23  H    2.782195   5.019723   6.311423   1.097709   5.000710
    24  H    3.474615   5.766944   7.597627   1.095671   6.531387
    25  H    2.783892   5.023967   7.546007   1.097672   6.074489
                   11         12         13         14         15
    11  H    0.000000
    12  H    6.108850   0.000000
    13  H    7.015786   1.760304   0.000000
    14  H    3.067586   3.195988   4.319516   0.000000
    15  H    2.502089   4.727744   5.547308   1.782618   0.000000
    16  H    4.298866   2.505854   3.068040   2.357784   3.745065
    17  H    5.515302   3.066878   2.503251   3.743730   4.730583
    18  H    4.160173   4.491063   4.508300   2.947418   2.355307
    19  H    4.507175   4.519847   4.163147   3.579245   3.565490
    20  H    3.095097   5.028965   6.535493   2.570780   3.143527
    21  H    2.524991   6.551757   7.927183   3.768312   3.780620
    22  H    2.543415   6.110849   7.403509   3.121280   2.588453
    23  H    6.515026   2.540193   3.095026   4.388113   6.069423
    24  H    7.917400   2.526423   2.524729   5.381444   7.011414
    25  H    7.374561   3.094911   2.543309   5.266960   6.730167
                   16         17         18         19         20
    16  H    0.000000
    17  H    1.781997   0.000000
    18  H    3.574823   3.572298   0.000000
    19  H    2.979750   2.375220   1.810574   0.000000
    20  H    4.374914   6.057518   5.242741   5.953915   0.000000
    21  H    5.360369   6.986094   5.979966   6.560648   1.770302
    22  H    5.256011   6.719140   4.942570   5.957975   1.771515
    23  H    2.569591   3.143220   5.948920   5.269557   5.737808
    24  H    3.767592   3.781038   6.557675   5.996672   6.929078
    25  H    3.120590   2.588887   5.960740   4.962411   7.102102
                   21         22         23         24         25
    21  H    0.000000
    22  H    1.769954   0.000000
    23  H    6.912525   7.103359   0.000000
    24  H    8.311599   8.254445   1.770357   0.000000
    25  H    8.233632   8.247291   1.771480   1.769952   0.000000
 Stoichiometry    C7H16O2
 Framework group  C1[X(C7H16O2)]
 Deg. of freedom    69
 Full point group                 C1      NOp   1
 Largest Abelian subgroup         C1      NOp   1
 Largest concise Abelian subgroup C1      NOp   1
                         Standard orientation:                         
 ---------------------------------------------------------------------
 Center     Atomic      Atomic             Coordinates (Angstroms)
 Number     Number       Type             X           Y           Z
 ---------------------------------------------------------------------
      1          8           0       -0.950532    1.098848    0.658913
      2          8           0        0.955492    1.104632   -0.654544
      3          6           0       -2.652762   -0.569920    0.533384
      4          6           0        2.660387   -0.560755   -0.532691
      5          6           0       -1.637928    0.249137   -0.244152
      6          6           0        1.631890    0.241906    0.244338
      7          6           0       -0.001306    1.884411    0.001192
      8          6           0       -3.416863   -1.524504   -0.387441
      9          6           0        3.413947   -1.528715    0.382791
     10          1           0       -2.125861   -1.128206    1.320257
     11          1           0       -3.344709    0.112281    1.047217
     12          1           0        2.146244   -1.107094   -1.336186
     13          1           0        3.357937    0.131387   -1.025324
     14          1           0       -0.918745   -0.412127   -0.755497
     15          1           0       -2.141479    0.858681   -1.015687
     16          1           0        0.908364   -0.429859    0.734638
     17          1           0        2.122350    0.840033    1.033174
     18          1           0       -0.469624    2.500775   -0.779261
     19          1           0        0.458617    2.515475    0.775194
     20          1           0       -2.736262   -2.225417   -0.887876
     21          1           0       -4.148844   -2.116095    0.173552
     22          1           0       -3.960872   -0.976228   -1.167382
     23          1           0        2.728217   -2.239484    0.861900
     24          1           0        4.155332   -2.109090   -0.177573
     25          1           0        3.945472   -0.992230    1.179378
 ---------------------------------------------------------------------
 Rotational constants (GHZ):           2.2533067           0.7147067           0.5937225
 Standard basis: 6-311++G(d,p) (5D, 7F)
 There are   319 symmetry adapted cartesian basis functions of A   symmetry.
 There are   310 symmetry adapted basis functions of A   symmetry.
   310 basis functions,   468 primitive gaussians,   319 cartesian basis functions
    37 alpha electrons       37 beta electrons
       nuclear repulsion energy       487.6295154809 Hartrees.
 NAtoms=   25 NActive=   25 NUniq=   25 SFac= 1.00D+00 NAtFMM=   60 NAOKFM=F Big=F
 Integral buffers will be    131072 words long.
 Raffenetti 2 integral format.
 Two-electron integral symmetry is turned on.
 R6APFD:  NTU= -4 IXU= 1 FactS= 1.050
 Nuclear repulsion after empirical dispersion term =      487.6134541769 Hartrees.
 One-electron integrals computed using PRISM.
 NBasis=   310 RedAO= T EigKep=  1.97D-05  NBF=   310
 NBsUse=   310 1.00D-06 EigRej= -1.00D+00 NBFU=   310
 Initial guess from the checkpoint file:  "DINP0099.chk"
 B after Tr=    -0.000000    0.000000    0.000000
         Rot=    0.999996    0.002836   -0.000236   -0.000641 Ang=   0.33 deg.
 ExpMin= 3.60D-02 ExpMax= 8.59D+03 ExpMxC= 1.30D+03 IAcc=3 IRadAn=         5 AccDes= 0.00D+00
 Harris functional with IExCor= 1009 and IRadAn=       5 diagonalized for initial guess.
 HarFok:  IExCor= 1009 AccDes= 0.00D+00 IRadAn=         5 IDoV= 1 UseB2=F ITyADJ=14
 ICtDFT=  3500011 ScaDFX=  1.000000  1.000000  1.000000  1.000000
 FoFCou: FMM=F IPFlag=           0 FMFlag=      100000 FMFlg1=           0
         NFxFlg=           0 DoJE=T BraDBF=F KetDBF=T FulRan=T
         wScrn=  0.000000 ICntrl=       500 IOpCl=  0 I1Cent=   200000004 NGrid=           0
         NMat0=    1 NMatS0=      1 NMatT0=    0 NMatD0=    1 NMtDS0=    0 NMtDT0=    0
 Petite list used in FoFCou.
 Requested convergence on RMS density matrix=1.00D-08 within  32 cycles.
 Requested convergence on MAX density matrix=1.00D-06.
 Requested convergence on             energy=1.00D-06.
 No special actions if energy rises.
 SCF Done:  E(RM08HX) =  -426.820530136     A.U. after   10 cycles
            NFock= 10  Conv=0.95D-08     -V/T= 2.0049
 QCSCF skips out because SCF is already converged.
 R6APFD:  NTU= -4 IXU= 1 FactS= 1.050
 Calling FoFJK, ICntrl=      2127 FMM=F ISym2X=0 I1Cent= 0 IOpClX= 0 NMat=1 NMatS=1 NMatT=0.
 ***** Axes restored to original set *****
 -------------------------------------------------------------------
 Center     Atomic                   Forces (Hartrees/Bohr)
 Number     Number              X              Y              Z
 -------------------------------------------------------------------
      1        8          -0.002578511    0.002345242   -0.001683033
      2        8           0.002179791    0.002093450    0.001999864
      3        6          -0.000759343   -0.000196968    0.000126604
      4        6           0.000723288   -0.000194791   -0.000041530
      5        6          -0.002295801   -0.002135771    0.002957817
      6        6           0.002770891   -0.001542118   -0.003010694
      7        6          -0.000040529   -0.003296274   -0.000516386
      8        6           0.000282348    0.000408243    0.001300884
      9        6          -0.000242282    0.000413201   -0.001286061
     10        1           0.000240435   -0.000150769   -0.000385518
     11        1           0.000078686   -0.000048803   -0.000435567
     12        1          -0.000244977   -0.000168070    0.000366465
     13        1          -0.000156725   -0.000024533    0.000485443
     14        1          -0.000829643    0.000019946   -0.000889496
     15        1           0.000461456    0.000220202   -0.000994116
     16        1           0.000680684   -0.000124780    0.000902788
     17        1          -0.000470349    0.000141556    0.001012303
     18        1          -0.000361983    0.001160281   -0.000460241
     19        1           0.000558314    0.000474249    0.000550182
     20        1           0.000262074    0.000154372   -0.000018834
     21        1          -0.000090235   -0.000101019   -0.000264698
     22        1           0.000161284    0.000260178   -0.000030575
     23        1          -0.000254040    0.000152596    0.000017118
     24        1           0.000089664   -0.000120756    0.000269220
     25        1          -0.000164498    0.000261136    0.000028063
 -------------------------------------------------------------------
 Cartesian Forces:  Max     0.003296274 RMS     0.001103027

 GradGradGradGradGradGradGradGradGradGradGradGradGradGradGradGradGradGrad
 Berny optimization.
 Using GEDIIS/GDIIS optimizer.
 FormGI is forming the generalized inverse of G from B-inverse, IUseBI=4.
 Internal  Forces:  Max     0.010282141 RMS     0.001692532
 Search for a local minimum.
 Step number   2 out of a maximum of  126
 All quantities printed in internal units (Hartrees-Bohrs-Radians)
 Mixed Optimization -- RFO/linear search
 Update second derivatives using D2CorX and points    1    2
 DE= -2.82D-03 DEPred=-3.41D-03 R= 8.25D-01
 TightC=F SS=  1.41D+00  RLast= 1.89D-01 DXNew= 5.0454D-01 5.6849D-01
 Trust test= 8.25D-01 RLast= 1.89D-01 DXMaxT set to 5.05D-01
 ITU=  1  0
 Use linear search instead of GDIIS.
     Eigenvalues ---    0.00489   0.00489   0.00527   0.00527   0.01319
     Eigenvalues ---    0.01352   0.01405   0.01409   0.03763   0.03765
     Eigenvalues ---    0.04910   0.04950   0.05276   0.05283   0.05555
     Eigenvalues ---    0.05579   0.05584   0.05584   0.05825   0.05865
     Eigenvalues ---    0.08008   0.08128   0.08192   0.09819   0.11152
     Eigenvalues ---    0.11293   0.12071   0.12073   0.12228   0.13704
     Eigenvalues ---    0.13725   0.14158   0.15856   0.16000   0.16000
     Eigenvalues ---    0.16000   0.16000   0.16029   0.21683   0.21865
     Eigenvalues ---    0.21932   0.21974   0.23326   0.24997   0.26031
     Eigenvalues ---    0.30269   0.30275   0.30554   0.31453   0.33952
     Eigenvalues ---    0.34045   0.34054   0.34064   0.34088   0.34091
     Eigenvalues ---    0.34136   0.34171   0.34181   0.34250   0.34270
     Eigenvalues ---    0.34275   0.34281   0.34285   0.34302   0.34466
     Eigenvalues ---    0.41355   0.42108   0.42246   0.47272
 RFO step:  Lambda=-1.14365196D-03 EMin= 4.88516492D-03
 Quartic linear search produced a step of -0.14277.
 Iteration  1 RMS(Cart)=  0.12133586 RMS(Int)=  0.00113753
 Iteration  2 RMS(Cart)=  0.00300754 RMS(Int)=  0.00003552
 Iteration  3 RMS(Cart)=  0.00000176 RMS(Int)=  0.00003550
 Iteration  4 RMS(Cart)=  0.00000000 RMS(Int)=  0.00003550
 Variable       Old X    -DE/DX   Delta X   Delta X   Delta X     New X
                                 (Linear)    (Quad)   (Total)
    R1        2.67918   0.00124   0.00098   0.00031   0.00129   2.68047
    R2        2.63936   0.00289   0.00830  -0.01272  -0.00442   2.63494
    R3        2.67902   0.00123   0.00102   0.00018   0.00120   2.68022
    R4        2.64123   0.00254   0.00803  -0.01282  -0.00479   2.63644
    R5        2.86921  -0.00015   0.00071  -0.00203  -0.00132   2.86789
    R6        2.89258  -0.00135  -0.00340   0.00394   0.00054   2.89312
    R7        2.07739  -0.00009  -0.00069   0.00134   0.00065   2.07804
    R8        2.07716  -0.00028  -0.00071   0.00090   0.00019   2.07735
    R9        2.86955  -0.00026   0.00067  -0.00224  -0.00157   2.86798
   R10        2.89252  -0.00131  -0.00340   0.00406   0.00066   2.89318
   R11        2.07735  -0.00008  -0.00070   0.00140   0.00070   2.07805
   R12        2.07726  -0.00033  -0.00071   0.00078   0.00007   2.07733
   R13        2.08382  -0.00015  -0.00189   0.00390   0.00201   2.08583
   R14        2.08759   0.00061  -0.00225   0.00661   0.00437   2.09196
   R15        2.08312   0.00002  -0.00183   0.00419   0.00235   2.08547
   R16        2.08776   0.00060  -0.00228   0.00667   0.00439   2.09215
   R17        2.07727   0.00114  -0.00097   0.00504   0.00407   2.08133
   R18        2.07771   0.00089  -0.00108   0.00467   0.00359   2.08130
   R19        2.07434   0.00007  -0.00079   0.00198   0.00118   2.07553
   R20        2.07051  -0.00002  -0.00029   0.00060   0.00032   2.07083
   R21        2.07428   0.00008  -0.00082   0.00203   0.00122   2.07550
   R22        2.07437   0.00007  -0.00082   0.00202   0.00120   2.07557
   R23        2.07052  -0.00001  -0.00033   0.00071   0.00038   2.07090
   R24        2.07430   0.00007  -0.00080   0.00197   0.00117   2.07547
    A1        1.94620   0.00885   0.00182   0.02602   0.02784   1.97405
    A2        1.94836   0.00854   0.00150   0.02572   0.02722   1.97558
    A3        1.94121  -0.00043   0.00155  -0.00642  -0.00488   1.93633
    A4        1.89669   0.00003   0.00224  -0.00677  -0.00453   1.89216
    A5        1.90217   0.00011   0.00157  -0.00373  -0.00216   1.90001
    A6        1.93173   0.00007  -0.00218   0.00473   0.00255   1.93429
    A7        1.93267   0.00009  -0.00213   0.00558   0.00346   1.93612
    A8        1.85700   0.00015  -0.00112   0.00687   0.00578   1.86278
    A9        1.94085  -0.00034   0.00161  -0.00625  -0.00465   1.93620
   A10        1.89646   0.00002   0.00231  -0.00683  -0.00453   1.89194
   A11        1.90319   0.00002   0.00142  -0.00411  -0.00269   1.90049
   A12        1.93171   0.00004  -0.00220   0.00481   0.00261   1.93432
   A13        1.93245   0.00011  -0.00212   0.00574   0.00363   1.93608
   A14        1.85684   0.00017  -0.00108   0.00688   0.00582   1.86266
   A15        1.89778  -0.00066   0.00033  -0.00182  -0.00150   1.89628
   A16        1.91618   0.00086   0.00111   0.00513   0.00624   1.92242
   A17        1.91258  -0.00013  -0.00043  -0.00060  -0.00103   1.91156
   A18        1.92826  -0.00001  -0.00199   0.00493   0.00294   1.93120
   A19        1.92905   0.00069  -0.00129   0.00549   0.00420   1.93325
   A20        1.88000  -0.00073   0.00229  -0.01312  -0.01082   1.86918
   A21        1.89693  -0.00060   0.00044  -0.00184  -0.00141   1.89552
   A22        1.91740   0.00079   0.00121   0.00430   0.00550   1.92290
   A23        1.91247  -0.00009  -0.00043  -0.00005  -0.00047   1.91200
   A24        1.92840  -0.00003  -0.00244   0.00575   0.00331   1.93171
   A25        1.92928   0.00064  -0.00122   0.00522   0.00400   1.93328
   A26        1.87940  -0.00070   0.00244  -0.01335  -0.01089   1.86850
   A27        1.95238   0.01028   0.00555   0.02831   0.03394   1.98632
   A28        1.93925  -0.00278  -0.00389   0.00004  -0.00375   1.93551
   A29        1.85002  -0.00215   0.00535  -0.01932  -0.01396   1.83606
   A30        1.84562  -0.00179   0.00647  -0.01812  -0.01166   1.83396
   A31        1.94350  -0.00335  -0.00543  -0.00159  -0.00693   1.93658
   A32        1.93499  -0.00017  -0.00882   0.01177   0.00285   1.93784
   A33        1.94223  -0.00041  -0.00067  -0.00107  -0.00174   1.94049
   A34        1.94142   0.00062  -0.00239   0.00990   0.00752   1.94894
   A35        1.94266  -0.00044  -0.00076  -0.00114  -0.00190   1.94075
   A36        1.87851   0.00002   0.00107  -0.00132  -0.00025   1.87826
   A37        1.87790   0.00022   0.00179  -0.00496  -0.00318   1.87471
   A38        1.87801   0.00000   0.00117  -0.00190  -0.00072   1.87729
   A39        1.94225  -0.00040  -0.00067  -0.00104  -0.00171   1.94054
   A40        1.94143   0.00064  -0.00237   0.00994   0.00758   1.94901
   A41        1.94267  -0.00045  -0.00078  -0.00114  -0.00193   1.94074
   A42        1.87857   0.00000   0.00108  -0.00141  -0.00033   1.87824
   A43        1.87781   0.00022   0.00179  -0.00496  -0.00318   1.87463
   A44        1.87799  -0.00000   0.00116  -0.00188  -0.00071   1.87728
    D1       -3.13879   0.00015  -0.00039   0.01589   0.01550  -3.12329
    D2        1.03294   0.00005   0.00117   0.00783   0.00900   1.04194
    D3       -1.02857   0.00051  -0.00203   0.02112   0.01909  -1.00948
    D4       -1.03900  -0.00144  -0.00668  -0.02806  -0.03490  -1.07389
    D5        1.01923   0.00116   0.00257  -0.03245  -0.02987   0.98937
    D6        3.12278  -0.00194  -0.00701  -0.03012  -0.03698   3.08580
    D7       -3.13222   0.00020  -0.00134   0.02184   0.02050  -3.11171
[...]
 7891,0.00013317,0.00005648,-0.00763438,-0.01096424,-0.01566556,0.05307
 476,0.13609709,-0.00128774,-0.00021010,0.00028176,-0.01797375,-0.00086
 596,-0.02420538,-0.00002759,0.00007213,-0.00001120,-0.00624770,-0.0109
 1175,-0.01218232,0.00025669,0.00008012,0.00021106,-0.06384176,-0.09568
 822,-0.16763951,0.00409230,-0.00215046,-0.00086516,-0.00001100,-0.0000
 1223,0.00003325,-0.00029394,0.00050536,0.00029296,-0.00002570,-0.00002
 010,0.00003245,-0.00002152,-0.00001432,0.00001791,0.00228847,-0.001162
 92,-0.00088470,-0.00031697,0.00043487,0.00007695,0.00002465,0.00008941
 ,-0.00012409,0.00009081,-0.00005161,-0.00007533,0.00519493,0.00569509,
 0.00940205,0.07813180,0.10293173,0.19354746,0.00323648,-0.02349826,0.0
 2244389,-0.01897177,0.02236029,-0.01564035,-0.00010465,-0.00013965,0.0
 0012284,-0.00006081,0.00083185,-0.00122240,0.00350351,0.00072461,0.004
 87759,-0.00110306,0.00162452,0.00441488,-0.09033589,0.05374552,-0.0779
 7224,-0.00004592,0.00008475,-0.00003633,-0.00036928,0.00018285,0.00045
 745,-0.00009393,0.00005943,-0.00013702,0.00002842,0.00000747,0.0000139
 2,-0.00000935,0.00008455,0.00007702,-0.00003444,-0.00007588,0.00000742
 ,-0.00026178,-0.00008110,-0.00055031,-0.00011821,0.00130769,-0.0009709
 2,-0.00015692,0.00041599,-0.00015834,0.00018050,-0.00023340,0.00021276
 ,0.10727603,-0.00374939,-0.01483872,0.02111826,0.01995736,-0.01781816,
 0.01314560,-0.00035905,0.00007240,-0.00037018,0.00039314,-0.00044025,0
 .00112474,0.00325429,0.00121650,0.00322515,0.00132529,0.00067838,-0.00
 404361,0.05035260,-0.12478555,0.08794398,-0.00006351,-0.00000772,0.000
 01766,0.00027976,-0.00017681,-0.00036806,0.00012359,0.00018646,-0.0002
 0104,0.00005475,0.00000818,0.00002290,-0.00008580,0.00000706,-0.000019
 46,0.00002669,0.00003012,-0.00000876,-0.00011938,-0.00019343,-0.000209
 81,-0.00094481,-0.00014094,-0.00099328,-0.00015353,0.00007796,0.000124
 18,0.00029036,0.00004401,0.00044161,-0.06412552,0.14470951,0.00590939,
 0.01703310,-0.01394440,0.01040594,-0.01317314,0.01249272,0.00016065,-0
 .00015419,0.00055962,0.00042611,-0.00029633,0.00066865,-0.00106263,-0.
 00336469,0.00006245,0.00181904,-0.00154677,-0.00067000,-0.08340698,0.0
 9942973,-0.18099991,0.00011808,0.00004030,-0.00010007,0.00016990,-0.00
 009949,-0.00019018,-0.00020066,-0.00020302,0.00006624,-0.00000221,-0.0
 0000362,-0.00004996,-0.00008256,0.00003925,0.00001239,-0.00003527,0.00
 001387,0.00000651,0.00003809,0.00036041,0.00013151,0.00105808,0.000934
 98,0.00099025,0.00011806,-0.00026174,0.00010064,0.00034292,-0.00005594
 ,0.00035107,0.07262232,-0.11010241,0.19246931,-0.01911718,-0.02203123,
 -0.01613492,0.00332145,0.02298369,0.02284564,-0.00006679,-0.00080612,-
 0.00124513,-0.00010209,0.00013752,0.00012887,-0.00111109,-0.00171184,0
 .00439780,0.00348539,-0.00083278,0.00485712,-0.09065640,-0.05224475,-0
 .07933524,-0.00037001,-0.00019294,0.00045548,-0.00004576,-0.00008415,-
 0.00003827,-0.00000901,-0.00008607,0.00007528,-0.00003433,0.00007582,0
 .00000924,-0.00009438,-0.00005546,-0.00013766,0.00002768,-0.00000780,0
 .00001358,-0.00015651,-0.00040922,-0.00016716,0.00018014,0.00022823,0.
 00021489,-0.00026043,0.00009223,-0.00054885,-0.00011739,-0.00128630,-0
 .00099570,-0.00246122,-0.00644838,-0.00849543,0.10768571,-0.02016451,-
 0.01766454,-0.01371099,0.00357416,-0.01415208,-0.02119412,-0.00040432,
 -0.00041731,-0.00114252,0.00035560,0.00006093,0.00035928,-0.00135279,0
 .00057046,0.00405432,-0.00323984,0.00122593,-0.00322643,-0.04873810,-0
 .12065593,-0.08645465,-0.00028157,-0.00018566,0.00036683,0.00006118,-0
 .00000632,-0.00001560,0.00008753,0.00000742,0.00001892,-0.00002584,0.0
 0003010,0.00000916,-0.00011904,0.00017820,0.00020399,-0.00005416,0.000
 00850,-0.00002204,0.00015238,0.00007555,-0.00012302,-0.00029899,0.0000
 5235,-0.00044813,0.00011963,-0.00018895,0.00020647,0.00092180,-0.00014
 174,0.00097703,0.00666605,0.01147701,0.01139498,0.06273451,0.13983053,
 0.01003862,0.01252094,0.01248096,0.00593612,-0.01706014,-0.01473202,0.
 00041980,0.00027257,0.00065088,0.00016710,0.00014331,0.00057140,0.0017
 9544,0.00156757,-0.00055442,-0.00111940,0.00339360,0.00006744,-0.08473
 520,-0.09792258,-0.18478095,0.00016409,0.00009946,-0.00018083,0.000119
 55,-0.00003868,-0.00010117,-0.00008074,-0.00003913,0.00001195,-0.00003
 584,-0.00001342,0.00000657,-0.00020305,0.00020563,0.00007450,-0.000002
 76,0.00000473,-0.00005054,0.00012317,0.00026182,0.00010292,0.00033691,
 0.00004877,0.00034194,0.00003931,-0.00036658,0.00012811,0.00107294,-0.
 00096126,0.00099201,-0.00839861,-0.01088832,-0.01202890,0.07426537,0.1
 0879024,0.19692941,0.00006742,0.00027856,0.00003974,0.00008777,-0.0000
 0098,0.00001490,0.01177562,-0.01308831,-0.00721495,0.00000022,0.000008
 94,0.00000322,0.00124850,-0.00072132,-0.00059254,-0.00005803,0.0000043
 0,-0.00000379,-0.00012381,0.00003620,0.00010401,-0.14554859,0.10921892
 ,0.06540452,0.00000355,-0.00000188,-0.00000657,0.00080766,0.00064996,0
 .00049647,-0.00133894,-0.00289455,-0.00213031,-0.00000417,0.00000020,0
 .00000428,0.00000745,0.00000049,-0.00000153,-0.00020327,0.00037090,0.0
 0015164,-0.00009646,0.00008236,0.00013894,-0.00000004,0.00001099,-0.00
 001566,0.00001365,0.00000746,0.00000151,0.00000735,0.00000347,-0.00001
 041,0.00004089,0.00002644,-0.00000957,0.15551867,-0.00041524,0.0005092
 5,0.00047956,-0.00008090,0.00010252,0.00008847,0.01218295,-0.01439496,
 -0.00793247,-0.00001972,-0.00002066,-0.00003222,0.00181534,-0.00016845
 ,-0.00067532,-0.00002411,-0.00003105,0.00000843,0.00009759,-0.00005865
 ,-0.00003853,0.10869669,-0.16573868,-0.07144696,-0.00000381,0.00000984
 ,0.00000741,-0.00025667,0.00084485,0.00017525,-0.00293094,-0.00127826,
 -0.00226497,-0.00000933,0.00001062,0.00002516,0.00000855,0.00000546,0.
 00000599,-0.00107808,-0.00013263,0.00031856,-0.00002331,0.00000735,-0.
 00002100,0.00000722,-0.00000385,-0.00004185,0.00001806,0.00002389,0.00
 000664,0.00000024,0.00000053,-0.00000659,0.00001813,0.00001036,0.00000
 447,-0.11745947,0.17985173,-0.00018459,0.00032793,0.00008006,-0.000186
 51,0.00008312,-0.00000778,0.01316691,-0.01464406,-0.00921657,0.0000006
 0,0.00000829,-0.00000751,0.00075276,0.00064261,0.00015997,0.00002915,-
 0.00011046,0.00009535,0.00015588,0.00008124,-0.00003809,0.06517249,-0.
 07104876,-0.08978157,-0.00001658,-0.00001684,0.00001574,0.00044686,0.0
 0044644,-0.00003554,-0.00286513,-0.00242864,-0.00171429,-0.00000342,-0
 .00000716,0.00001197,0.00000621,0.00000679,-0.00000164,-0.00050098,-0.
 00012790,0.00051176,-0.00012577,0.00005035,0.00000458,0.00001479,0.000
 00468,-0.00002875,0.00000978,0.00001665,-0.00001287,-0.00000415,0.0000
 0757,0.00000542,-0.00000370,-0.00000572,-0.00000544,-0.06985989,0.0821
 2063,0.09622335,-0.00116089,-0.00137060,0.00073756,-0.00033337,0.00013
 127,0.00005061,-0.01161665,-0.00655017,0.00876038,0.00000560,0.0000012
 2,-0.00000576,0.00014821,-0.00065359,-0.00352902,0.00013956,-0.0000738
 2,0.00010199,0.00041344,0.00003181,-0.00060889,-0.18255791,-0.09290795
 ,0.09656019,-0.00001070,-0.00000759,0.00001893,-0.00022496,0.00044063,
 0.00002779,0.00069429,0.00002564,-0.00015417,0.00000744,-0.00000498,-0
 .00000665,-0.00001057,0.00000043,0.00000171,0.00038719,0.00015992,-0.0
 0029424,0.00011029,-0.00015343,0.00023077,0.00001781,-0.00000709,0.000
 01653,-0.00001640,-0.00001288,-0.00001667,-0.00000900,-0.00001946,0.00
 004954,-0.00013793,-0.00010016,0.00004643,-0.01356698,-0.01010950,0.00
 912062,0.19660689,-0.00185031,-0.00095847,0.00069406,-0.00028872,0.000
 14849,0.00006982,-0.01376427,-0.01017806,0.01139233,-0.00000232,-0.000
 01004,-0.00002574,0.00004648,-0.00113569,-0.00405539,0.00011994,-0.000
 07258,0.00009018,0.00032514,0.00001206,-0.00063767,-0.09266977,-0.1088
 8074,0.06557807,-0.00000834,0.00000480,0.00001937,0.00033744,0.0008104
 1,-0.00009980,0.00046305,-0.00013626,0.00039296,-0.00000018,0.00000152
 ,0.00000636,-0.00000482,0.00000216,0.00000551,-0.00026007,0.00022356,0
 .00017277,0.00026974,0.00017573,-0.00025485,0.00001385,-0.00001024,-0.
 00000990,-0.00000950,0.00000042,-0.00001298,-0.00000143,-0.00001320,0.
 00005393,-0.00014202,-0.00010758,0.00005372,0.01600781,0.01169771,-0.0
 1153158,0.10368869,0.11683192,-0.00132337,-0.00115364,0.00080918,-0.00
 006877,0.00009283,0.00005991,-0.01722312,-0.01127749,0.01235407,-0.000
 00628,-0.00000708,-0.00001853,-0.00092048,-0.00170224,-0.00356025,0.00
 001588,-0.00003341,0.00003203,-0.00002304,-0.00020173,-0.00043443,0.09
 745612,0.06632847,-0.11406279,-0.00000349,0.00000316,0.00000751,0.0002
 8967,0.00081026,0.00075309,0.00073464,0.00050958,0.00070871,-0.0000035
 6,0.00000555,0.00000836,0.00000248,0.00000266,0.00000159,-0.00019640,0
 .00013194,-0.00006479,0.00004025,-0.00033347,0.00018318,0.00000813,0.0
 0000296,-0.00000815,0.00000401,0.00000420,0.00000167,0.00000157,-0.000
 02099,0.00001422,-0.00010340,-0.00008168,0.00004216,0.00751612,0.00662
 499,-0.00699824,-0.10356336,-0.06946121,0.12172987,0.00027238,-0.00019
 269,0.00059216,0.00007134,-0.00006950,0.00007875,-0.00810272,0.0088630
 5,-0.01214125,-0.00000572,-0.00002085,0.00000012,0.00012171,0.00145992
 ,-0.00125909,-0.00001233,0.00010124,-0.00008412,-0.00006585,-0.0000023
 6,0.00003516,-0.09529040,0.05916762,-0.08278204,0.00000843,0.00001264,
 -0.00000668,-0.00086067,-0.00267061,-0.00166049,0.00064001,-0.00020354
 ,0.00054765,0.00000141,0.00001014,-0.00000200,-0.00000844,-0.00000188,
 0.00000409,-0.00001054,0.00000382,0.00002230,-0.00025443,-0.00084482,0
 .00036365,0.00000482,-0.00002000,0.00000527,0.00000168,-0.00000534,0.0
 0001546,-0.00002569,-0.00005498,0.00001781,0.00002607,0.00001034,0.000
 00220,-0.00864239,0.00956400,-0.01512942,0.01112110,-0.01226587,0.0173
 6505,0.10101129,0.00032247,0.00006823,0.00008707,0.00007114,-0.0000147
 0,-0.00002170,-0.01001196,0.01214903,-0.01649292,-0.00000060,-0.000004
 82,0.00000329,-0.00008877,0.00111330,-0.00084012,-0.00002555,0.0000048
 5,-0.00001489,-0.00001638,-0.00005294,0.00017854,0.05960514,-0.1181245
 3,0.10086157,-0.00000398,-0.00000683,0.00000203,-0.00290220,-0.0021865
 3,-0.00270939,0.00068739,0.00093029,0.00038794,-0.00000445,-0.00000389
 ,0.00000862,0.00000353,0.00000598,0.00000056,0.00001717,-0.00008427,0.
 00020247,0.00020417,-0.00020186,0.00039085,0.00001699,-0.00000332,-0.0
 0001702,0.00000673,0.00000690,0.00000107,-0.00003208,-0.00002190,0.000
 01578,0.00003490,0.00002727,-0.00001185,0.00745805,-0.01124954,0.01610
 371,0.00748116,-0.00841059,0.00975337,-0.06282679,0.12605485,0.0002750
 8,-0.00028148,0.00037256,-0.00006123,-0.00004273,0.00004508,-0.0091532
 4,0.01057792,-0.01575814,-0.00000032,-0.00002045,-0.00000234,0.0008073
 6,0.00086785,0.00006393,0.00004819,0.00005080,-0.00002979,0.00009910,0
 .00007777,-0.00002570,-0.08249239,0.10052698,-0.18754552,0.00000102,0.
 00000676,0.00000429,-0.00186619,-0.00332571,-0.00130637,0.00050342,0.0
 0002761,0.00000421,0.00000211,0.00000324,0.00000136,-0.00001093,0.0000
 0055,0.00000719,-0.00000323,-0.00012865,-0.00000350,-0.00053329,-0.000
 54375,0.00055715,0.00001091,-0.00002621,-0.00000146,-0.00000585,-0.000
 00269,-0.00000028,-0.00003802,-0.00003800,0.00002514,-0.00001819,-0.00
 000638,-0.00001041,0.00596798,-0.00740281,0.01075697,-0.00753459,0.007
 56818,-0.01155613,0.09400508,-0.10788272,0.20440250,0.00008830,0.00000
 085,0.00001469,0.00006712,-0.00027792,0.00003272,0.00000026,-0.0000090
 0,0.00000310,0.01176430,0.01315990,-0.00686883,-0.00005806,-0.00000444
 ,-0.00000408,0.00124590,0.00073285,-0.00057365,-0.00012417,-0.00003786
 ,0.00010307,0.00000356,0.00000200,-0.00000656,-0.14626437,-0.11082258,
 0.06301759,-0.00000414,-0.00000028,0.00000424,0.00000740,-0.00000047,-
 0.00000155,0.00080482,-0.00065895,0.00048289,-0.00131597,0.00293517,-0
 .00205962,-0.00000015,-0.00001054,-0.00001577,0.00001358,-0.00000743,0
 .00000135,-0.00020136,-0.00037318,0.00014118,-0.00009671,-0.00008478,0
 .00013684,0.00004075,-0.00002634,-0.00001010,0.00000738,-0.00000326,-0
 .00001046,-0.00000384,-0.00000509,0.00000116,0.00000832,0.00000374,-0.
 00000071,-0.00000055,-0.00000013,0.00000143,0.15629201,0.00008531,0.00
 010607,-0.00008589,0.00042131,0.00052671,-0.00046926,0.00001978,-0.000
 02132,0.00003204,-0.01253950,-0.01488976,0.00779719,0.00002336,-0.0000
 3345,-0.00001142,-0.00183659,-0.00016782,0.00066705,-0.00010099,-0.000
 05725,0.00003776,0.00000417,0.00000968,-0.00000760,-0.11029334,-0.1683
 8454,0.06937413,0.00000939,0.00001100,-0.00002528,-0.00000871,0.000005
 78,-0.00000584,0.00024777,0.00085830,-0.00015556,0.00298785,-0.0013931
 1,0.00228104,-0.00000755,-0.00000467,0.00004235,-0.00001818,0.00002444
 ,-0.00000580,0.00109015,-0.00013012,-0.00033129,0.00002633,0.00000835,
 0.00002109,-0.00001813,0.00001045,-0.00000411,-0.00000019,0.00000068,0
 .00000660,0.00000510,0.00000117,0.00000958,0.00000078,-0.00000142,0.00
 000190,-0.00000825,0.00000329,-0.00000816,0.11918754,0.18293852,-0.000
 18459,-0.00007975,-0.00001133,-0.00017596,-0.00031781,0.00006261,0.000
 00100,-0.00000860,-0.00000694,0.01296514,0.01451746,-0.00871121,0.0000
 3000,0.00010723,0.00009727,0.00071305,-0.00064983,0.00015944,0.0001527
 8,-0.00008263,-0.00003871,-0.00001641,0.00001673,0.00001595,0.06279638
 ,0.06897467,-0.08644277,-0.00000316,0.00000718,0.00001154,0.00000599,-
 0.00000664,-0.00000192,0.00045265,-0.00042819,-0.00004742,-0.00279345,
 0.00244685,-0.00161936,0.00001457,-0.00000414,-0.00002780,0.00000928,-
 0.00001578,-0.00001338,-0.00047814,0.00011434,0.00050669,-0.00012527,-
 0.00005029,0.00000403,-0.00000396,0.00000607,-0.00000543,-0.00000410,-
 0.00000766,0.00000532,0.00000123,-0.00000927,-0.00001213,-0.00000184,-
 0.00000507,-0.00000301,0.00000456,-0.00000629,-0.00000214,-0.06730338,
 -0.07984115,0.09239646,-0.00033287,-0.00013051,0.00004782,-0.00115114,
 0.00135358,0.00076269,0.00000562,-0.00000118,-0.00000567,-0.01155827,0
 .00633735,0.00883216,0.00013949,0.00007089,0.00010307,0.00015691,0.000
 72456,-0.00349763,0.00041215,-0.00002145,-0.00060737,-0.00001061,0.000
 00721,0.00001901,-0.18256403,0.09106385,0.09832964,0.00000748,0.000005
 15,-0.00000664,-0.00001058,-0.00000041,0.00000170,-0.00022735,-0.00043
 757,0.00001678,0.00069205,-0.00002266,-0.00015587,0.00001780,0.0000066
 6,0.00001677,-0.00001643,0.00001330,-0.00001636,0.00038820,-0.00015341
 ,-0.00029750,0.00010946,0.00014801,0.00023433,-0.00013709,0.00009928,0
 .00004826,-0.00000888,0.00001841,0.00004977,0.00000830,-0.00000074,-0.
 00000184,-0.00001321,-0.00001148,-0.00000052,-0.00000158,0.00000208,-0
 .00000749,-0.01361374,0.00997144,0.00935396,0.19659499,0.00029137,0.00
 015109,-0.00006811,0.00187909,-0.00097599,-0.00073116,0.00000250,-0.00
 001077,0.00002595,0.01416643,-0.01020794,-0.01187909,-0.00012086,-0.00
 007113,-0.00009253,-0.00003651,-0.00126502,0.00411351,-0.00032518,-0.0
 0000367,0.00064816,0.00000842,0.00000527,-0.00001947,0.09080404,-0.106
 36222,-0.06543916,0.00000020,0.00000175,-0.00000649,0.00000479,0.00000
 232,-0.00000551,-0.00034198,0.00082768,0.00010064,-0.00047961,-0.00011
 541,-0.00041122,-0.00001410,-0.00001040,0.00000977,0.00000954,0.000000
 17,0.00001300,0.00026423,0.00022996,-0.00016559,-0.00027094,0.00016321
 ,0.00025337,0.00014410,-0.00010889,-0.00005695,0.00000138,-0.00001257,
 -0.00005467,-0.00000374,-0.00000149,0.00000512,0.00001154,0.00000824,0
 .00000081,-0.00000327,-0.00000218,0.00000235,-0.01613886,0.01159329,0.
 01189031,-0.10170781,0.11420431,-0.00006329,-0.00009065,0.00005665,-0.
 00128237,0.00112067,0.00081748,-0.00000627,0.00000732,-0.00001788,-0.0
 1693891,0.01082981,0.01232510,0.00001364,0.00003117,0.00003085,-0.0009
 1087,0.00175552,-0.00344061,-0.00002919,0.00021006,-0.00041719,-0.0000
 0333,-0.00000323,0.00000708,0.09922037,-0.06619026,-0.11658581,-0.0000
 0353,-0.00000570,0.00000811,0.00000255,-0.00000265,0.00000143,0.000278
 70,-0.00081024,0.00073806,0.00072261,-0.00052884,0.00068920,0.00000784
 ,-0.00000296,-0.00000796,0.00000417,-0.00000423,0.00000185,-0.00019038
 ,-0.00012536,-0.00007202,0.00003485,0.00033323,0.00019634,-0.00010017,
 0.00007897,0.00004267,0.00000169,0.00002046,0.00001355,-0.00000078,-0.
 00000185,-0.00000295,-0.00000031,-0.00000059,-0.00000246,0.00000256,-0
 .00000037,0.00000329,0.00713600,-0.00621141,-0.00685068,-0.10555073,0.
 06931768,0.12438164,0.00007121,0.00006716,0.00008026,0.00027029,0.0001
 7825,0.00059574,-0.00000571,0.00002078,0.00000051,-0.00805866,-0.00853
 180,-0.01228295,-0.00001276,-0.00009896,-0.00008599,0.00012038,-0.0014
 2816,-0.00128853,-0.00006569,0.00000205,0.00003456,0.00000841,-0.00001
 254,-0.00000698,-0.09521059,-0.05718303,-0.08408601,0.00000136,-0.0000
 1014,-0.00000223,-0.00000839,0.00000183,0.00000412,-0.00084187,0.00269
 673,-0.00159484,0.00063632,0.00019289,0.00055181,0.00000479,0.00001973
 ,0.00000575,0.00000172,0.00000498,0.00001559,-0.00001103,-0.00000498,0
 .00002179,-0.00025255,0.00083553,0.00037950,0.00002598,-0.00001043,0.0
 0000207,-0.00002530,0.00005454,0.00001881,-0.00000053,0.00000812,0.000
 00477,-0.00000155,0.00000321,0.00000261,0.00000109,0.00000198,0.000003
 29,-0.00866064,-0.00924886,-0.01541033,0.01111332,0.01185521,0.0176551
 6,0.10090041,-0.00006989,-0.00001607,0.00002023,-0.00032871,0.00006509
 ,-0.00009568,0.00000059,-0.00000517,-0.00000337,0.01021944,0.01200181,
 0.01715042,0.00002452,0.00000575,0.00001575,0.00007209,0.00111622,0.00
 086613,0.00001438,-0.00004751,-0.00017913,0.00000391,-0.00000661,-0.00
 000225,-0.05762739,-0.11349476,-0.09917529,0.00000439,-0.00000364,-0.0
 0000875,-0.00000328,0.00000600,-0.00000059,0.00293372,-0.00233023,0.00
 269570,-0.00069623,0.00093909,-0.00036904,-0.00001710,-0.00000421,0.00
 001689,-0.00000659,0.00000684,-0.00000094,-0.00001706,-0.00008243,-0.0
 0020442,-0.00019177,-0.00020623,-0.00040888,-0.00003446,0.00002700,0.0
 0001263,0.00003284,-0.00002262,-0.00001680,0.00000012,0.00000296,0.000
 00640,-0.00000192,-0.00000214,0.00000024,-0.00000204,0.00000389,-0.000
 00027,-0.00756094,-0.01101428,-0.01656773,-0.00733453,-0.00803962,-0.0
 0972654,0.06058589,0.12110089,-0.00006280,0.00004163,0.00004666,0.0002
 6859,0.00027507,0.00037827,-0.00000026,0.00002031,-0.00000198,-0.00893
 764,-0.00996485,-0.01565346,0.00004857,-0.00005000,-0.00003055,0.00080
 833,-0.00085045,0.00006334,0.00009898,-0.00007892,-0.00003159,0.000001
 10,-0.00000700,0.00000407,-0.08380665,-0.09884016,-0.19228870,0.000002
 22,-0.00000335,0.00000105,-0.00001097,-0.00000052,0.00000715,-0.001793
 82,0.00331201,-0.00118016,0.00048906,-0.00000705,-0.00000325,0.0000105
 7,0.00002597,-0.00000042,-0.00000603,0.00000289,-0.00000020,-0.0000036
 2,0.00012711,-0.00000529,-0.00053833,0.00053003,0.00055987,-0.00001887
 ,0.00000726,-0.00000996,-0.00003723,0.00003726,0.00002556,0.00000144,0
 .00000826,-0.00000179,-0.00000752,-0.00000245,0.00000324,0.00000322,0.
 00000040,-0.00000189,0.00577846,0.00689202,0.01053493,-0.00766834,-0.0
 0745073,-0.01191573,0.09538152,0.10597526,0.20950085\\-0.00003380,-0.0
 0001851,-0.00001018,0.00000241,-0.00001446,0.00001378,-0.00000398,-0.0
 0000556,-0.00000790,0.00000705,-0.00000735,0.00000824,0.00002201,0.000
 02635,0.00002386,-0.00001000,0.00002712,-0.00002031,0.00002317,-0.0000
 1883,-0.00000872,0.00000393,0.00000594,0.00000761,-0.00000608,0.000007
 43,-0.00000717,0.00000019,-0.00000086,-0.00000143,0.00000305,0.0000002
 4,0.00000017,0.00000155,-0.00000089,0.00000056,-0.00000164,0.00000006,
 -0.00000087,0.00000014,-0.00000054,-0.00000069,-0.00000513,-0.00000431
 ,-0.00000236,-0.00000055,-0.00000325,-0.00000067,0.00000068,-0.0000049
 0,0.00000360,0.00000339,0.00000273,0.00000490,-0.00000574,0.00000513,-
 0.00000195,0.00000003,0.00000072,0.00000059,0.00000139,0.00000068,0.00
 000234,0.00000063,0.00000053,0.00000236,0.,0.00000078,-0.00000072,-0.0
 0000186,0.00000144,-0.00000282,-0.00000087,0.00000031,-0.00000222\\\@


 THE PROGRESS OF RIVERS TO THE SEA IS NOT AS RAPID
 AS THAT OF MAN TO ERROR.
                                              -- VOLTAIRE
 Job cpu time:       0 days  3 hours 20 minutes 12.4 seconds.
 Elapsed time:       0 days  0 hours 12 minutes 34.3 seconds.
 File lengths (MBytes):  RWF=    208 Int=      0 D2E=      0 Chk=      9 Scr=      1
 Normal termination of Gaussian 16 at Fri Sep 19 06:21:04 2025.
