 Entering Gaussian System, Link 0=g16
 Input=DIPH0036.gjf
 Output=DIPH0036.log
 Initial command:
 /usr/local/g16/l1.exe "/dados_01/scratch/Gau-2402904.inp" -scrdir="/dados_01/scratch/"
 Entering Link 1 = /usr/local/g16/l1.exe PID=   2402905.
  
 Copyright (c) 1988-2017, Gaussian, Inc.  All Rights Reserved.
  
 This is part of the Gaussian(R) 16 program.  It is based on
 the Gaussian(R) 09 system (copyright 2009, Gaussian, Inc.),
 the Gaussian(R) 03 system (copyright 2003, Gaussian, Inc.),
 the Gaussian(R) 98 system (copyright 1998, Gaussian, Inc.),
 the Gaussian(R) 94 system (copyright 1995, Gaussian, Inc.),
 the Gaussian 92(TM) system (copyright 1992, Gaussian, Inc.),
 the Gaussian 90(TM) system (copyright 1990, Gaussian, Inc.),
 the Gaussian 88(TM) system (copyright 1988, Gaussian, Inc.),
 the Gaussian 86(TM) system (copyright 1986, Carnegie Mellon
 University), and the Gaussian 82(TM) system (copyright 1983,
 Carnegie Mellon University). Gaussian is a federally registered
 trademark of Gaussian, Inc.
  
 This software contains proprietary and confidential information,
 including trade secrets, belonging to Gaussian, Inc.
  
 This software is provided under written license and may be
 used, copied, transmitted, or stored only in accord with that
 written license.
  
 The following legend is applicable only to US Government
 contracts under FAR:
  
                    RESTRICTED RIGHTS LEGEND
  
 Use, reproduction and disclosure by the US Government is
 subject to restrictions as set forth in subparagraphs (a)
 and (c) of the Commercial Computer Software - Restricted
 Rights clause in FAR 52.227-19.
  
 Gaussian, Inc.
 340 Quinnipiac St., Bldg. 40, Wallingford CT 06492
  
  
 ---------------------------------------------------------------
 Warning -- This program may not be used in any manner that
 competes with the business of Gaussian, Inc. or will provide
 assistance to any competitor of Gaussian, Inc.  The licensee
 of this program is prohibited from giving any competitor of
 Gaussian, Inc. access to this program.  By using this program,
 the user acknowledges that Gaussian, Inc. is engaged in the
 business of creating and licensing software in the field of
 computational chemistry and represents and warrants to the
 licensee that it is not a competitor of Gaussian, Inc. and that
 it will not use this program in any manner prohibited above.
 ---------------------------------------------------------------
  

 Cite this work as:
 Gaussian 16, Revision B.01,
 M. J. Frisch, G. W. Trucks, H. B. Schlegel, G. E. Scuseria, 
 M. A. Robb, J. R. Cheeseman, G. Scalmani, V. Barone, 
 G. A. Petersson, H. Nakatsuji, X. Li, M. Caricato, A. V. Marenich, 
 J. Bloino, B. G. Janesko, R. Gomperts, B. Mennucci, H. P. Hratchian, 
 J. V. Ortiz, A. F. Izmaylov, J. L. Sonnenberg, D. Williams-Young, 
 F. Ding, F. Lipparini, F. Egidi, J. Goings, B. Peng, A. Petrone, 
 T. Henderson, D. Ranasinghe, V. G. Zakrzewski, J. Gao, N. Rega, 
 G. Zheng, W. Liang, M. Hada, M. Ehara, K. Toyota, R. Fukuda, 
 J. Hasegawa, M. Ishida, T. Nakajima, Y. Honda, O. Kitao, H. Nakai, 
 T. Vreven, K. Throssell, J. A. Montgomery, Jr., J. E. Peralta, 
 F. Ogliaro, M. J. Bearpark, J. J. Heyd, E. N. Brothers, K. N. Kudin, 
 V. N. Staroverov, T. A. Keith, R. Kobayashi, J. Normand, 
 K. Raghavachari, A. P. Rendell, J. C. Burant, S. S. Iyengar, 
 J. Tomasi, M. Cossi, J. M. Millam, M. Klene, C. Adamo, R. Cammi, 
 J. W. Ochterski, R. L. Martin, K. Morokuma, O. Farkas, 
 J. B. Foresman, and D. J. Fox, Gaussian, Inc., Wallingford CT, 2016.
 
 ******************************************
 Gaussian 16:  ES64L-G16RevB.01 20-Dec-2017
                 1-Oct-2025 
 ******************************************
 %nprocs=16
 Will use up to   16 processors via shared memory.
 %mem=40GB
 %chk=DIPH0036.chk
 ----------------------------------------------------------------------
 # opt freq=noraman M08HX/6-311++G** scf=xqc Empiricaldispersion=pfd In
 t(Grid=ultraFine)
 ----------------------------------------------------------------------
 1/18=20,19=15,26=4,38=1/1,3;
 2/9=110,12=2,17=6,18=5,40=1/2;
 3/5=4,6=6,7=1111,11=2,25=1,30=1,71=1,74=-74,75=-5,124=11/1,2,3;
 4//1;
 5/5=2,8=3,13=1,38=5/2,8;
 6/7=2,8=2,9=2,10=2,28=1/1;
 7//1,2,3,16;
 1/18=20,19=15,26=4/3(2);
 2/9=110/2;
 99//99;
 2/9=110/2;
 3/5=4,6=6,7=1111,11=2,25=1,30=1,71=1,74=-74,75=-5,124=11/1,2,3;
 4/5=5,16=3,69=1/1;
 5/5=2,8=3,13=1,38=5/2,8;
 7//1,2,3,16;
 1/18=20,19=15,26=4/3(-5);
 2/9=110/2;
 6/7=2,8=2,9=2,10=2,19=2,28=1/1;
 99/9=1/99;
 --------
 DIPH0036
 --------
 Symbolic Z-matrix:
 Charge =  0 Multiplicity = 1
 O                     2.1516   -0.6114    0.9395 
 O                    -2.2187   -1.4775    0.4119 
 O                     2.1521   -0.4593   -1.3481 
 O                    -0.3606   -1.8922   -0.8655 
 C                     0.5529    0.7763   -0.1132 
 C                    -0.7628    0.3133   -0.1019 
 C                     0.8135    2.1405    0.0162 
 C                    -1.8181    1.2146    0.0385 
 C                    -0.2418    3.0418    0.1567 
 C                    -1.5576    2.5787    0.1677 
 C                     1.6766   -0.14     -0.2582 
 C                    -1.0672   -1.1055   -0.2348 
 C                     3.2576   -1.5185    0.8697 
 C                    -2.5777   -2.8608    0.3215 
 H                     1.8345    2.5135    0.0088 
 H                    -2.8542    0.8861    0.0386 
 H                    -0.0392    4.1041    0.2567 
 H                    -2.3792    3.2812    0.2741 
 H                     4.1186   -1.0296    0.4043 
 H                     2.9742   -2.4169    0.3133 
 H                     3.5256   -1.8066    1.8897 
 H                    -1.7966   -3.4838    0.7672 
 H                    -2.7472   -3.1396   -0.7228 
 H                    -3.5061   -3.0079    0.8797 
 

 GradGradGradGradGradGradGradGradGradGradGradGradGradGradGradGradGradGrad
 Berny optimization.
 Initialization pass.
                           ----------------------------
                           !    Initial Parameters    !
                           ! (Angstroms and Degrees)  !
 --------------------------                            --------------------------
 ! Name  Definition              Value          Derivative Info.                !
 --------------------------------------------------------------------------------
 ! R1    R(1,11)                 1.372          estimate D2E/DX2                !
 ! R2    R(1,13)                 1.4321         estimate D2E/DX2                !
 ! R3    R(2,12)                 1.3721         estimate D2E/DX2                !
 ! R4    R(2,14)                 1.432          estimate D2E/DX2                !
 ! R5    R(3,11)                 1.2312         estimate D2E/DX2                !
 ! R6    R(4,12)                 1.2312         estimate D2E/DX2                !
 ! R7    R(5,6)                  1.3948         estimate D2E/DX2                !
 ! R8    R(5,7)                  1.3949         estimate D2E/DX2                !
 ! R9    R(5,11)                 1.4572         estimate D2E/DX2                !
 ! R10   R(6,8)                  1.3949         estimate D2E/DX2                !
 ! R11   R(6,12)                 1.4572         estimate D2E/DX2                !
 ! R12   R(7,9)                  1.3949         estimate D2E/DX2                !
 ! R13   R(7,15)                 1.087          estimate D2E/DX2                !
 ! R14   R(8,10)                 1.3947         estimate D2E/DX2                !
 ! R15   R(8,16)                 1.0869         estimate D2E/DX2                !
 ! R16   R(9,10)                 1.395          estimate D2E/DX2                !
 ! R17   R(9,17)                 1.0861         estimate D2E/DX2                !
 ! R18   R(10,18)                1.0862         estimate D2E/DX2                !
 ! R19   R(13,19)                1.094          estimate D2E/DX2                !
 ! R20   R(13,20)                1.0941         estimate D2E/DX2                !
 ! R21   R(13,21)                1.0933         estimate D2E/DX2                !
 ! R22   R(14,22)                1.094          estimate D2E/DX2                !
 ! R23   R(14,23)                1.0941         estimate D2E/DX2                !
 ! R24   R(14,24)                1.0932         estimate D2E/DX2                !
 ! A1    A(11,1,13)            116.261          estimate D2E/DX2                !
 ! A2    A(12,2,14)            116.2669         estimate D2E/DX2                !
 ! A3    A(6,5,7)              120.0074         estimate D2E/DX2                !
 ! A4    A(6,5,11)             121.2973         estimate D2E/DX2                !
 ! A5    A(7,5,11)             118.6953         estimate D2E/DX2                !
 ! A6    A(5,6,8)              119.9974         estimate D2E/DX2                !
 ! A7    A(5,6,12)             121.2994         estimate D2E/DX2                !
 ! A8    A(8,6,12)             118.7032         estimate D2E/DX2                !
 ! A9    A(5,7,9)              119.9954         estimate D2E/DX2                !
 ! A10   A(5,7,15)             120.6929         estimate D2E/DX2                !
 ! A11   A(9,7,15)             119.3117         estimate D2E/DX2                !
 ! A12   A(6,8,10)             119.9979         estimate D2E/DX2                !
 ! A13   A(6,8,16)             121.7285         estimate D2E/DX2                !
 ! A14   A(10,8,16)            118.2693         estimate D2E/DX2                !
 ! A15   A(7,9,10)             119.9933         estimate D2E/DX2                !
 ! A16   A(7,9,17)             120.0098         estimate D2E/DX2                !
 ! A17   A(10,9,17)            119.9968         estimate D2E/DX2                !
 ! A18   A(8,10,9)             120.0085         estimate D2E/DX2                !
 ! A19   A(8,10,18)            120.0221         estimate D2E/DX2                !
 ! A20   A(9,10,18)            119.9692         estimate D2E/DX2                !
 ! A21   A(1,11,3)             123.3637         estimate D2E/DX2                !
 ! A22   A(1,11,5)             113.3393         estimate D2E/DX2                !
 ! A23   A(3,11,5)             123.297          estimate D2E/DX2                !
 ! A24   A(2,12,4)             123.3561         estimate D2E/DX2                !
 ! A25   A(2,12,6)             113.3482         estimate D2E/DX2                !
 ! A26   A(4,12,6)             123.2957         estimate D2E/DX2                !
 ! A27   A(1,13,19)            110.21           estimate D2E/DX2                !
 ! A28   A(1,13,20)            110.1729         estimate D2E/DX2                !
 ! A29   A(1,13,21)            108.105          estimate D2E/DX2                !
 ! A30   A(19,13,20)           110.7606         estimate D2E/DX2                !
 ! A31   A(19,13,21)           108.7674         estimate D2E/DX2                !
 ! A32   A(20,13,21)           108.7586         estimate D2E/DX2                !
 ! A33   A(2,14,22)            110.2053         estimate D2E/DX2                !
 ! A34   A(2,14,23)            110.1975         estimate D2E/DX2                !
 ! A35   A(2,14,24)            108.0984         estimate D2E/DX2                !
 ! A36   A(22,14,23)           110.7539         estimate D2E/DX2                !
 ! A37   A(22,14,24)           108.7647         estimate D2E/DX2                !
 ! A38   A(23,14,24)           108.7542         estimate D2E/DX2                !
 ! D1    D(13,1,11,3)           -0.002          estimate D2E/DX2                !
 ! D2    D(13,1,11,5)          179.9875         estimate D2E/DX2                !
 ! D3    D(11,1,13,19)          61.2114         estimate D2E/DX2                !
 ! D4    D(11,1,13,20)         -61.3125         estimate D2E/DX2                !
 ! D5    D(11,1,13,21)         179.9655         estimate D2E/DX2                !
 ! D6    D(14,2,12,4)           -0.0005         estimate D2E/DX2                !
 ! D7    D(14,2,12,6)          179.9855         estimate D2E/DX2                !
 ! D8    D(12,2,14,22)          61.1836         estimate D2E/DX2                !
 ! D9    D(12,2,14,23)         -61.3453         estimate D2E/DX2                !
 ! D10   D(12,2,14,24)         179.9278         estimate D2E/DX2                !
 ! D11   D(7,5,6,8)              0.0151         estimate D2E/DX2                !
 ! D12   D(7,5,6,12)          -179.9919         estimate D2E/DX2                !
 ! D13   D(11,5,6,8)           179.9991         estimate D2E/DX2                !
 ! D14   D(11,5,6,12)           -0.0078         estimate D2E/DX2                !
 ! D15   D(6,5,7,9)             -0.0103         estimate D2E/DX2                !
 ! D16   D(6,5,7,15)          -179.997          estimate D2E/DX2                !
 ! D17   D(11,5,7,9)          -179.9948         estimate D2E/DX2                !
 ! D18   D(11,5,7,15)            0.0185         estimate D2E/DX2                !
 ! D19   D(6,5,11,1)           -89.974          estimate D2E/DX2                !
 ! D20   D(6,5,11,3)            90.0155         estimate D2E/DX2                !
 ! D21   D(7,5,11,1)            90.0102         estimate D2E/DX2                !
 ! D22   D(7,5,11,3)           -90.0003         estimate D2E/DX2                !
 ! D23   D(5,6,8,10)            -0.0059         estimate D2E/DX2                !
 ! D24   D(5,6,8,16)           179.2286         estimate D2E/DX2                !
 ! D25   D(12,6,8,10)         -179.9991         estimate D2E/DX2                !
 ! D26   D(12,6,8,16)           -0.7646         estimate D2E/DX2                !
 ! D27   D(5,6,12,2)           150.0241         estimate D2E/DX2                !
 ! D28   D(5,6,12,4)           -29.9899         estimate D2E/DX2                !
 ! D29   D(8,6,12,2)           -29.9828         estimate D2E/DX2                !
 ! D30   D(8,6,12,4)           150.0032         estimate D2E/DX2                !
 ! D31   D(5,7,9,10)            -0.0035         estimate D2E/DX2                !
 ! D32   D(5,7,9,17)          -179.9529         estimate D2E/DX2                !
 ! D33   D(15,7,9,10)          179.9833         estimate D2E/DX2                !
 ! D34   D(15,7,9,17)            0.034          estimate D2E/DX2                !
 ! D35   D(6,8,10,9)            -0.008          estimate D2E/DX2                !
 ! D36   D(6,8,10,18)          179.819          estimate D2E/DX2                !
 ! D37   D(16,8,10,9)         -179.2687         estimate D2E/DX2                !
 ! D38   D(16,8,10,18)           0.5582         estimate D2E/DX2                !
 ! D39   D(7,9,10,8)             0.0127         estimate D2E/DX2                !
 ! D40   D(7,9,10,18)         -179.8144         estimate D2E/DX2                !
 ! D41   D(17,9,10,8)          179.962          estimate D2E/DX2                !
 ! D42   D(17,9,10,18)           0.135          estimate D2E/DX2                !
 --------------------------------------------------------------------------------
 Trust Radius=3.00D-01 FncErr=1.00D-07 GrdErr=1.00D-06 EigMax=2.50D+02 EigMin=1.00D-04
 Number of steps in this run=    114 maximum allowed number of steps=    144.
 GradGradGradGradGradGradGradGradGradGradGradGradGradGradGradGradGradGrad

                          Input orientation:                          
 ---------------------------------------------------------------------
 Center     Atomic      Atomic             Coordinates (Angstroms)
 Number     Number       Type             X           Y           Z
 ---------------------------------------------------------------------
      1          8           0        2.151600   -0.611400    0.939500
      2          8           0       -2.218700   -1.477500    0.411900
      3          8           0        2.152100   -0.459300   -1.348100
      4          8           0       -0.360600   -1.892200   -0.865500
      5          6           0        0.552900    0.776300   -0.113200
      6          6           0       -0.762800    0.313300   -0.101900
      7          6           0        0.813500    2.140500    0.016200
      8          6           0       -1.818100    1.214600    0.038500
      9          6           0       -0.241800    3.041800    0.156700
     10          6           0       -1.557600    2.578700    0.167700
     11          6           0        1.676600   -0.140000   -0.258200
     12          6           0       -1.067200   -1.105500   -0.234800
     13          6           0        3.257600   -1.518500    0.869700
     14          6           0       -2.577700   -2.860800    0.321500
     15          1           0        1.834500    2.513500    0.008800
     16          1           0       -2.854200    0.886100    0.038600
     17          1           0       -0.039200    4.104100    0.256700
     18          1           0       -2.379200    3.281200    0.274100
     19          1           0        4.118600   -1.029600    0.404300
     20          1           0        2.974200   -2.416900    0.313300
     21          1           0        3.525600   -1.806600    1.889700
     22          1           0       -1.796600   -3.483800    0.767200
     23          1           0       -2.747200   -3.139600   -0.722800
     24          1           0       -3.506100   -3.007900    0.879700
 ---------------------------------------------------------------------
                    Distance matrix (angstroms):
                    1          2          3          4          5
     1  O    0.000000
     2  O    4.486425   0.000000
     3  O    2.292651   4.820604   0.000000
     4  O    3.348077   2.292654   2.932536   0.000000
     5  C    2.364261   3.610694   2.368359   2.919132   0.000000
     6  C    3.230064   2.364445   3.262908   2.368350   1.394834
     7  C    3.196240   4.737166   3.226782   4.291687   1.394883
     8  C    4.461457   2.747237   4.526267   3.548764   2.415939
     9  C    4.437005   4.939366   4.500320   5.040175   2.415964
    10  C    4.952835   4.116970   5.028814   4.742284   2.789581
    11  C    1.371980   4.172685   1.231233   2.754851   1.457166
    12  C    3.461761   1.372063   3.467118   1.231244   2.486098
    13  C    1.432110   5.495555   2.694934   4.030129   3.680707
    14  C    5.273329   1.431982   5.561095   2.694937   4.818518
    15  H    3.275936   5.702543   3.283228   4.999306   2.162232
    16  H    5.302090   2.475847   5.366198   3.841144   3.412247
    17  H    5.244212   5.994044   5.310537   6.108866   3.400244
    18  H    6.010261   4.763399   6.095535   5.668995   3.875788
    19  H    2.080966   6.353113   2.695045   4.734945   4.030297
    20  H    2.080535   5.278106   2.695978   3.575720   4.030028
    21  H    2.054084   5.940470   3.766307   4.764557   4.418136
    22  H    4.885555   2.080780   5.405028   2.694624   4.944058
    23  H    5.757888   2.080729   5.619444   2.696707   5.157184
    24  H    6.144620   2.053865   6.593458   3.766255   5.637508
                    6          7          8          9         10
     6  C    0.000000
     7  C    2.416057   0.000000
     8  C    1.394888   2.789822   0.000000
     9  C    2.789808   1.394898   2.416061   0.000000
    10  C    2.415870   2.416006   1.394748   1.394960   0.000000
    11  C    2.486078   2.453756   3.759774   3.738483   4.246501
    12  C    1.457160   3.759860   2.453856   4.246723   3.738426
    13  C    4.523617   4.482228   5.824385   5.792280   6.361289
    14  C    3.680766   6.050326   4.155234   6.350140   5.536463
    15  H    3.405745   1.087026   3.876791   2.147556   3.396446
    16  H    2.172969   3.876344   1.086929   3.389045   2.136056
    17  H    3.875868   2.154220   3.400192   1.086061   2.154137
    18  H    3.400376   3.400153   2.154339   2.153967   1.086211
    19  H    5.087994   4.596068   6.357252   5.970820   6.730160
    20  H    4.646671   5.052404   6.019090   6.337554   6.746438
    21  H    5.181778   5.142479   6.411686   6.379935   6.930733
    22  H    4.030142   6.245748   4.754622   6.735991   6.096755
    23  H    4.030618   6.411253   4.516842   6.727574   5.908223
    24  H    4.418099   6.775736   4.624551   6.912109   5.959337
                   11         12         13         14         15
    11  C    0.000000
    12  C    2.908810   0.000000
    13  C    2.381592   4.482676   0.000000
    14  C    5.083097   2.381629   6.012738   0.000000
    15  H    2.671570   4.645037   4.361581   6.960488   0.000000
    16  H    4.655010   2.689719   6.620191   3.767724   4.963187
    17  H    4.606677   5.332756   6.546624   7.413367   2.470266
    18  H    5.332679   4.606893   7.427340   6.145390   4.291272
    19  H    2.682100   5.225584   1.094048   6.942664   4.234040
    20  H    2.682285   4.284052   1.094084   5.569624   5.069564
    21  H    3.287831   5.108704   1.093264   6.389120   5.006083
    22  H    4.929053   2.681854   5.423822   1.094027   7.051785
    23  H    5.365022   2.682929   6.420408   1.094085   7.313327
    24  H    6.031587   3.287776   6.925753   1.093230   7.730869
                   16         17         18         19         20
    16  H    0.000000
    17  H    4.281042   0.000000
    18  H    2.453078   2.480538   0.000000
    19  H    7.240413   6.607871   7.798805   0.000000
    20  H    6.704887   7.183817   7.818489   1.800704   0.000000
    21  H    7.167918   7.093015   7.960059   1.778143   1.778073
    22  H    4.554712   7.805465   6.807922   6.414389   4.909667
    23  H    4.098468   7.795119   6.508142   7.270603   5.859199
    24  H    4.036788   7.936502   6.417899   7.891497   6.531797
                   21         22         23         24
    21  H    0.000000
    22  H    5.691996   0.000000
    23  H    6.924599   1.800615   0.000000
    24  H    7.204723   1.778068   1.777999   0.000000
 Stoichiometry    C10H10O4
 Framework group  C1[X(C10H10O4)]
 Deg. of freedom    66
 Full point group                 C1      NOp   1
 Largest Abelian subgroup         C1      NOp   1
 Largest concise Abelian subgroup C1      NOp   1
                         Standard orientation:                         
 ---------------------------------------------------------------------
 Center     Atomic      Atomic             Coordinates (Angstroms)
 Number     Number       Type             X           Y           Z
 ---------------------------------------------------------------------
      1          8           0       -2.030583   -0.823812   -0.890499
      2          8           0        2.425437   -0.985380   -0.394718
      3          8           0       -2.037610   -0.645177    1.395171
      4          8           0        0.665487   -1.671103    0.904753
      5          6           0       -0.662153    0.810997    0.131523
      6          6           0        0.709879    0.560510    0.112911
      7          6           0       -1.135107    2.115537   -0.010558
      8          6           0        1.609142    1.614698   -0.047487
      9          6           0       -0.235846    3.169723   -0.171055
     10          6           0        1.136304    2.919157   -0.189368
     11          6           0       -1.626567   -0.268700    0.297335
     12          6           0        1.234703   -0.791017    0.258684
     13          6           0       -2.979537   -1.892579   -0.800150
     14          6           0        2.998271   -2.293797   -0.292352
     15          1           0       -2.201989    2.323435    0.002365
     16          1           0        2.683989    1.453207   -0.053748
     17          1           0       -0.603804    4.185628   -0.280934
     18          1           0        1.836318    3.740714   -0.311346
     19          1           0       -3.903166   -1.539366   -0.332080
     20          1           0       -2.554102   -2.728241   -0.236507
     21          1           0       -3.206622   -2.231925   -1.814301
     22          1           0        2.321545   -3.037363   -0.723682
     23          1           0        3.217459   -2.529439    0.753331
     24          1           0        3.933980   -2.300048   -0.857649
 ---------------------------------------------------------------------
 Rotational constants (GHZ):           0.7616979           0.6940218           0.4079932
 Standard basis: 6-311++G(d,p) (5D, 7F)
 There are   392 symmetry adapted cartesian basis functions of A   symmetry.
 There are   378 symmetry adapted basis functions of A   symmetry.
   378 basis functions,   594 primitive gaussians,   392 cartesian basis functions
    51 alpha electrons       51 beta electrons
       nuclear repulsion energy       884.8823181435 Hartrees.
 NAtoms=   24 NActive=   24 NUniq=   24 SFac= 1.00D+00 NAtFMM=   60 NAOKFM=F Big=F
 Integral buffers will be    131072 words long.
 Raffenetti 2 integral format.
 Two-electron integral symmetry is turned on.
 R6APFD:  NTU= -4 IXU= 1 FactS= 1.050
 Nuclear repulsion after empirical dispersion term =      884.8634085913 Hartrees.
 One-electron integrals computed using PRISM.
 NBasis=   378 RedAO= T EigKep=  1.15D-06  NBF=   378
 NBsUse=   376 1.00D-06 EigRej=  7.35D-07 NBFU=   376
 ExpMin= 3.60D-02 ExpMax= 8.59D+03 ExpMxC= 1.30D+03 IAcc=3 IRadAn=         5 AccDes= 0.00D+00
 Harris functional with IExCor= 1009 and IRadAn=       5 diagonalized for initial guess.
 HarFok:  IExCor= 1009 AccDes= 0.00D+00 IRadAn=         5 IDoV= 1 UseB2=F ITyADJ=14
 ICtDFT=  3500011 ScaDFX=  1.000000  1.000000  1.000000  1.000000
 FoFCou: FMM=F IPFlag=           0 FMFlag=      100000 FMFlg1=           0
         NFxFlg=           0 DoJE=T BraDBF=F KetDBF=T FulRan=T
         wScrn=  0.000000 ICntrl=       500 IOpCl=  0 I1Cent=   200000004 NGrid=           0
         NMat0=    1 NMatS0=      1 NMatT0=    0 NMatD0=    1 NMtDS0=    0 NMtDT0=    0
 Petite list used in FoFCou.
 Requested convergence on RMS density matrix=1.00D-08 within  32 cycles.
 Requested convergence on MAX density matrix=1.00D-06.
 Requested convergence on             energy=1.00D-06.
 No special actions if energy rises.
 SCF Done:  E(RM08HX) =  -687.957156347     A.U. after   16 cycles
            NFock= 16  Conv=0.84D-08     -V/T= 2.0045
 QCSCF skips out because SCF is already converged.

 **********************************************************************

            Population analysis using the SCF Density.

 **********************************************************************

 Orbital symmetries:
       Occupied  (A) (A) (A) (A) (A) (A) (A) (A) (A) (A) (A) (A)
                 (A) (A) (A) (A) (A) (A) (A) (A) (A) (A) (A) (A)
                 (A) (A) (A) (A) (A) (A) (A) (A) (A) (A) (A) (A)
                 (A) (A) (A) (A) (A) (A) (A) (A) (A) (A) (A) (A)
                 (A) (A) (A)
       Virtual   (A) (A) (A) (A) (A) (A) (A) (A) (A) (A) (A) (A)
                 (A) (A) (A) (A) (A) (A) (A) (A) (A) (A) (A) (A)
                 (A) (A) (A) (A) (A) (A) (A) (A) (A) (A) (A) (A)
                 (A) (A) (A) (A) (A) (A) (A) (A) (A) (A) (A) (A)
                 (A) (A) (A) (A) (A) (A) (A) (A) (A) (A) (A) (A)
                 (A) (A) (A) (A) (A) (A) (A) (A) (A) (A) (A) (A)
                 (A) (A) (A) (A) (A) (A) (A) (A) (A) (A) (A) (A)
                 (A) (A) (A) (A) (A) (A) (A) (A) (A) (A) (A) (A)
                 (A) (A) (A) (A) (A) (A) (A) (A) (A) (A) (A) (A)
                 (A) (A) (A) (A) (A) (A) (A) (A) (A) (A) (A) (A)
                 (A) (A) (A) (A) (A) (A) (A) (A) (A) (A) (A) (A)
                 (A) (A) (A) (A) (A) (A) (A) (A) (A) (A) (A) (A)
                 (A) (A) (A) (A) (A) (A) (A) (A) (A) (A) (A) (A)
                 (A) (A) (A) (A) (A) (A) (A) (A) (A) (A) (A) (A)
                 (A) (A) (A) (A) (A) (A) (A) (A) (A) (A) (A) (A)
                 (A) (A) (A) (A) (A) (A) (A) (A) (A) (A) (A) (A)
                 (A) (A) (A) (A) (A) (A) (A) (A) (A) (A) (A) (A)
                 (A) (A) (A) (A) (A) (A) (A) (A) (A) (A) (A) (A)
                 (A) (A) (A) (A) (A) (A) (A) (A) (A) (A) (A) (A)
                 (A) (A) (A) (A) (A) (A) (A) (A) (A) (A) (A) (A)
                 (A) (A) (A) (A) (A) (A) (A) (A) (A) (A) (A) (A)
                 (A) (A) (A) (A) (A) (A) (A) (A) (A) (A) (A) (A)
                 (A) (A) (A) (A) (A) (A) (A) (A) (A) (A) (A) (A)
                 (A) (A) (A) (A) (A) (A) (A) (A) (A) (A) (A) (A)
                 (A) (A) (A) (A) (A) (A) (A) (A) (A) (A) (A) (A)
                 (A) (A) (A) (A) (A) (A) (A) (A) (A) (A) (A) (A)
                 (A) (A) (A) (A) (A) (A) (A) (A) (A) (A) (A) (A)
                 (A)
 The electronic state is 1-A.
 Alpha  occ. eigenvalues --  -19.66740 -19.66185 -19.60975 -19.60339 -10.68094
 Alpha  occ. eigenvalues --  -10.67569 -10.58932 -10.58189 -10.57674 -10.57370
 Alpha  occ. eigenvalues --  -10.56297 -10.56194 -10.56139 -10.55765  -1.23414
 Alpha  occ. eigenvalues --   -1.22559  -1.14067  -1.13077  -1.00431  -0.90481
 Alpha  occ. eigenvalues --   -0.89695  -0.83527  -0.82342  -0.75054  -0.73503
 Alpha  occ. eigenvalues --   -0.68238  -0.65464  -0.63408  -0.60579  -0.58312
 Alpha  occ. eigenvalues --   -0.57239  -0.56499  -0.56174  -0.55926  -0.53925
 Alpha  occ. eigenvalues --   -0.53118  -0.50390  -0.50120  -0.48779  -0.46181
 Alpha  occ. eigenvalues --   -0.45472  -0.45317  -0.43994  -0.43787  -0.42855
 Alpha  occ. eigenvalues --   -0.38403  -0.38054  -0.36929  -0.35891  -0.33464
 Alpha  occ. eigenvalues --   -0.32924
 Alpha virt. eigenvalues --   -0.03963  -0.03058  -0.02174  -0.01995  -0.01287
 Alpha virt. eigenvalues --   -0.00521  -0.00015   0.00615   0.01167   0.01672
 Alpha virt. eigenvalues --    0.01978   0.02951   0.03239   0.03393   0.04278
 Alpha virt. eigenvalues --    0.04534   0.05193   0.05401   0.06028   0.06818
 Alpha virt. eigenvalues --    0.06983   0.08094   0.08589   0.08992   0.09520
 Alpha virt. eigenvalues --    0.10159   0.10626   0.10912   0.11044   0.11086
 Alpha virt. eigenvalues --    0.11688   0.11961   0.12504   0.12673   0.13086
 Alpha virt. eigenvalues --    0.13401   0.13937   0.13990   0.15172   0.15843
 Alpha virt. eigenvalues --    0.16451   0.16966   0.17570   0.17887   0.18233
 Alpha virt. eigenvalues --    0.18696   0.19210   0.19664   0.20515   0.20705
 Alpha virt. eigenvalues --    0.21194   0.21730   0.22387   0.22479   0.23296
 Alpha virt. eigenvalues --    0.24346   0.24621   0.25288   0.26541   0.26738
 Alpha virt. eigenvalues --    0.27599   0.28240   0.28336   0.28813   0.29180
 Alpha virt. eigenvalues --    0.30140   0.30343   0.30970   0.31702   0.32303
 Alpha virt. eigenvalues --    0.32731   0.33793   0.34219   0.34589   0.34824
 Alpha virt. eigenvalues --    0.35103   0.36303   0.37208   0.37780   0.38901
 Alpha virt. eigenvalues --    0.39178   0.40306   0.40859   0.41556   0.41818
 Alpha virt. eigenvalues --    0.42604   0.43699   0.46323   0.47610   0.47881
 Alpha virt. eigenvalues --    0.49812   0.51068   0.52093   0.53050   0.54479
 Alpha virt. eigenvalues --    0.55653   0.56531   0.57057   0.58378   0.58839
 Alpha virt. eigenvalues --    0.59683   0.61583   0.62451   0.63092   0.63864
 Alpha virt. eigenvalues --    0.64823   0.65972   0.66336   0.66722   0.67401
 Alpha virt. eigenvalues --    0.67840   0.68889   0.69286   0.70479   0.70745
 Alpha virt. eigenvalues --    0.71660   0.71972   0.73392   0.73762   0.75294
 Alpha virt. eigenvalues --    0.76010   0.77063   0.77505   0.78845   0.80149
 Alpha virt. eigenvalues --    0.82303   0.84227   0.86121   0.86804   0.86988
 Alpha virt. eigenvalues --    0.87300   0.89356   0.91147   0.92427   0.94076
 Alpha virt. eigenvalues --    0.95639   0.97835   1.00254   1.02754   1.03032
 Alpha virt. eigenvalues --    1.05267   1.05990   1.07916   1.08487   1.09106
 Alpha virt. eigenvalues --    1.10099   1.11339   1.13584   1.14764   1.18494
 Alpha virt. eigenvalues --    1.19293   1.22253   1.23469   1.24341   1.25822
 Alpha virt. eigenvalues --    1.26716   1.28451   1.32051   1.32673   1.33890
 Alpha virt. eigenvalues --    1.35628   1.35985   1.38369   1.40672   1.42596
 Alpha virt. eigenvalues --    1.44779   1.45194   1.46851   1.47983   1.48627
 Alpha virt. eigenvalues --    1.51519   1.54264   1.55322   1.55392   1.55607
 Alpha virt. eigenvalues --    1.57586   1.57909   1.58867   1.59545   1.62193
 Alpha virt. eigenvalues --    1.63885   1.64730   1.64876   1.67558   1.67873
 Alpha virt. eigenvalues --    1.69121   1.71393   1.72420   1.73359   1.73926
 Alpha virt. eigenvalues --    1.74839   1.75233   1.76518   1.78435   1.80363
 Alpha virt. eigenvalues --    1.81481   1.83619   1.84381   1.86215   1.88599
 Alpha virt. eigenvalues --    1.91539   1.93416   1.95723   1.97343   1.97924
 Alpha virt. eigenvalues --    1.98645   1.99753   2.00475   2.04079   2.04799
 Alpha virt. eigenvalues --    2.06893   2.08228   2.10819   2.13975   2.15097
 Alpha virt. eigenvalues --    2.16439   2.16775   2.18118   2.21532   2.23405
 Alpha virt. eigenvalues --    2.31204   2.35873   2.39012   2.41088   2.43701
 Alpha virt. eigenvalues --    2.45018   2.45809   2.46758   2.49774   2.50115
 Alpha virt. eigenvalues --    2.54870   2.55143   2.56280   2.57520   2.59127
 Alpha virt. eigenvalues --    2.60590   2.62256   2.63142   2.64317   2.68068
 Alpha virt. eigenvalues --    2.69182   2.71464   2.72953   2.74771   2.77319
 Alpha virt. eigenvalues --    2.80474   2.82928   2.85267   2.86959   2.87849
 Alpha virt. eigenvalues --    2.88887   2.89504   2.92207   2.95311   2.96927
 Alpha virt. eigenvalues --    2.98606   2.99383   3.00879   3.05312   3.05964
 Alpha virt. eigenvalues --    3.06901   3.10543   3.11786   3.13010   3.14314
 Alpha virt. eigenvalues --    3.16199   3.24139   3.27034   3.28763   3.29404
 Alpha virt. eigenvalues --    3.29737   3.35497   3.39588   3.42710   3.43853
 Alpha virt. eigenvalues --    3.44598   3.47507   3.55329   3.57789   3.61019
 Alpha virt. eigenvalues --    3.63087   3.65968   3.66647   3.77227   3.81580
 Alpha virt. eigenvalues --    3.82500   3.82858   3.86085   3.94387   4.06270
 Alpha virt. eigenvalues --    4.10219   4.12153   4.12670   4.17207   4.18392
 Alpha virt. eigenvalues --    4.23434   4.31511   4.43105   4.90872   5.14096
 Alpha virt. eigenvalues --    5.15795   5.18599   5.26599   5.36348   5.38855
 Alpha virt. eigenvalues --    5.47252   5.49254   5.70767   5.72569   5.94813
 Alpha virt. eigenvalues --    5.95485  23.62706  23.89051  23.91018  23.97621
 Alpha virt. eigenvalues --   23.98355  23.99603  24.01244  24.11918  24.13104
 Alpha virt. eigenvalues --   24.22029  49.90146  49.91990  50.00744  50.01460
          Condensed to atoms (all electrons):
               1          2          3          4          5          6
     1  O    8.213355  -0.003417  -0.204244  -0.002431  -0.248871  -0.172670
     2  O   -0.003417   8.389216  -0.001563  -0.145101  -0.261539  -0.697400
     3  O   -0.204244  -0.001563   7.750435  -0.012834   0.413395   0.214176
     4  O   -0.002431  -0.145101  -0.012834   7.978073   0.266441  -0.036593
     5  C   -0.248871  -0.261539   0.413395   0.266441  29.721627   5.804493
     6  C   -0.172670  -0.697400   0.214176  -0.036593   5.804493  27.755160
     7  C   -0.057897  -0.016712  -0.163841   0.046566  -4.895158  -6.244325
     8  C   -0.105855   0.247194   0.015040  -0.113097  -8.903495  -2.969556
     9  C    0.024732  -0.003170  -0.016325  -0.000738  -4.138297   1.938727
    10  C    0.012971   0.062559   0.000956   0.045598   4.004415  -2.354942
    11  C    0.307995  -0.009067   0.223672   0.268860  -4.266144 -12.891699
    12  C   -0.012334   0.356603  -0.096268  -0.086273 -10.956761  -4.702242
    13  C    0.185658  -0.001570  -0.071294  -0.002742  -0.430916  -0.290039
    14  C   -0.005151   0.199088  -0.000774  -0.040683  -0.310035  -0.454275
    15  H   -0.004398   0.000499   0.001258  -0.001761  -0.104684  -0.015562
    16  H   -0.000666  -0.019986  -0.000074  -0.002533  -0.046237   0.085432
    17  H    0.000205  -0.000216  -0.000147   0.000273  -0.004878   0.037208
    18  H   -0.000011   0.000219   0.000177   0.000065   0.039835   0.018383
    19  H   -0.035604   0.000202  -0.009253  -0.001339  -0.034720  -0.014703
    20  H   -0.008447  -0.000647  -0.011061   0.002667   0.040320   0.032014
    21  H   -0.057249  -0.000122   0.001487   0.000460  -0.027482  -0.016958
    22  H   -0.000302  -0.018863  -0.000588  -0.016485  -0.018019  -0.067751
    23  H    0.000121  -0.030607   0.000071  -0.012582  -0.008130   0.028062
    24  H   -0.000252  -0.062146   0.000012   0.001592  -0.008880  -0.022594
               7          8          9         10         11         12
     1  O   -0.057897  -0.105855   0.024732   0.012971   0.307995  -0.012334
     2  O   -0.016712   0.247194  -0.003170   0.062559  -0.009067   0.356603
     3  O   -0.163841   0.015040  -0.016325   0.000956   0.223672  -0.096268
     4  O    0.046566  -0.113097  -0.000738   0.045598   0.268860  -0.086273
     5  C   -4.895158  -8.903495  -4.138297   4.004415  -4.266144 -10.956761
     6  C   -6.244325  -2.969556   1.938727  -2.354942 -12.891699  -4.702242
     7  C   14.854078   2.341978   0.399189  -0.796811   3.588122  -3.110789
     8  C    2.341978  17.196150   0.188960  -3.074026  -4.919666   5.951355
     9  C    0.399189   0.188960   9.301516  -1.268491  -0.868837   0.344973
    10  C   -0.796811  -3.074026  -1.268491   9.742956   1.406547  -1.790887
    11  C    3.588122  -4.919666  -0.868837   1.406547  26.395307  -1.927496
    12  C   -3.110789   5.951355   0.344973  -1.790887  -1.927496  21.950038
    13  C    0.020181  -0.085890   0.013992  -0.003269   0.408109   0.027346
    14  C   -0.035471   0.144713  -0.012322  -0.006543  -0.019665   0.384960
    15  H    0.473083   0.101515  -0.087864   0.013304  -0.083549   0.007442
    16  H    0.061866   0.491732   0.005114  -0.166171  -0.062128  -0.017587
    17  H   -0.037141  -0.007759   0.422775  -0.039147  -0.025580  -0.021357
    18  H   -0.012193  -0.067786  -0.029970   0.393578  -0.005716  -0.023587
    19  H   -0.012096  -0.004298   0.007418   0.000451   0.027950   0.015007
    20  H   -0.005977   0.003148  -0.001761   0.000571  -0.122969  -0.016216
    21  H    0.005558  -0.002153  -0.001318   0.000528   0.069547   0.005366
    22  H    0.006453   0.034061  -0.000242   0.000249  -0.002765   0.011279
    23  H   -0.004541  -0.026167  -0.002600  -0.001860  -0.001949  -0.022361
    24  H   -0.001699   0.009406   0.001425   0.000292   0.003622   0.059757
              13         14         15         16         17         18
     1  O    0.185658  -0.005151  -0.004398  -0.000666   0.000205  -0.000011
     2  O   -0.001570   0.199088   0.000499  -0.019986  -0.000216   0.000219
     3  O   -0.071294  -0.000774   0.001258  -0.000074  -0.000147   0.000177
     4  O   -0.002742  -0.040683  -0.001761  -0.002533   0.000273   0.000065
     5  C   -0.430916  -0.310035  -0.104684  -0.046237  -0.004878   0.039835
     6  C   -0.290039  -0.454275  -0.015562   0.085432   0.037208   0.018383
     7  C    0.020181  -0.035471   0.473083   0.061866  -0.037141  -0.012193
     8  C   -0.085890   0.144713   0.101515   0.491732  -0.007759  -0.067786
     9  C    0.013992  -0.012322  -0.087864   0.005114   0.422775  -0.029970
    10  C   -0.003269  -0.006543   0.013304  -0.166171  -0.039147   0.393578
    11  C    0.408109  -0.019665  -0.083549  -0.062128  -0.025580  -0.005716
    12  C    0.027346   0.384960   0.007442  -0.017587  -0.021357  -0.023587
    13  C    5.465148  -0.002701  -0.012619  -0.000200   0.000618  -0.000316
    14  C   -0.002701   5.423210   0.000820  -0.008406  -0.000495   0.000377
    15  H   -0.012619   0.000820   0.428930   0.002007  -0.010745   0.001327
    16  H   -0.000200  -0.008406   0.002007   0.404230   0.001260  -0.004789
    17  H    0.000618  -0.000495  -0.010745   0.001260   0.403551  -0.004305
    18  H   -0.000316   0.000377   0.001327  -0.004789  -0.004305   0.399449
    19  H    0.401390   0.000313  -0.001996  -0.000119  -0.000099   0.000035
    20  H    0.421041  -0.002096  -0.000334   0.000048   0.000048   0.000020
    21  H    0.382741   0.000149   0.000295  -0.000009  -0.000071  -0.000022
    22  H   -0.000498   0.407962   0.000090   0.000187   0.000001  -0.000006
    23  H   -0.000101   0.414156   0.000085  -0.000061  -0.000039   0.000048
    24  H    0.000081   0.376620  -0.000020  -0.001018  -0.000011  -0.000074
              19         20         21         22         23         24
     1  O   -0.035604  -0.008447  -0.057249  -0.000302   0.000121  -0.000252
     2  O    0.000202  -0.000647  -0.000122  -0.018863  -0.030607  -0.062146
     3  O   -0.009253  -0.011061   0.001487  -0.000588   0.000071   0.000012
     4  O   -0.001339   0.002667   0.000460  -0.016485  -0.012582   0.001592
     5  C   -0.034720   0.040320  -0.027482  -0.018019  -0.008130  -0.008880
     6  C   -0.014703   0.032014  -0.016958  -0.067751   0.028062  -0.022594
     7  C   -0.012096  -0.005977   0.005558   0.006453  -0.004541  -0.001699
     8  C   -0.004298   0.003148  -0.002153   0.034061  -0.026167   0.009406
     9  C    0.007418  -0.001761  -0.001318  -0.000242  -0.002600   0.001425
    10  C    0.000451   0.000571   0.000528   0.000249  -0.001860   0.000292
    11  C    0.027950  -0.122969   0.069547  -0.002765  -0.001949   0.003622
    12  C    0.015007  -0.016216   0.005366   0.011279  -0.022361   0.059757
    13  C    0.401390   0.421041   0.382741  -0.000498  -0.000101   0.000081
    14  C    0.000313  -0.002096   0.000149   0.407962   0.414156   0.376620
    15  H   -0.001996  -0.000334   0.000295   0.000090   0.000085  -0.000020
    16  H   -0.000119   0.000048  -0.000009   0.000187  -0.000061  -0.001018
    17  H   -0.000099   0.000048  -0.000071   0.000001  -0.000039  -0.000011
    18  H    0.000035   0.000020  -0.000022  -0.000006   0.000048  -0.000074
    19  H    0.528438  -0.056176  -0.032989   0.000108   0.000032   0.000004
    20  H   -0.056176   0.517219  -0.033836  -0.000742  -0.000079  -0.000065
    21  H   -0.032989  -0.033836   0.498339  -0.000096  -0.000003   0.000052
    22  H    0.000108  -0.000742  -0.000096   0.517016  -0.050553  -0.030565
    23  H    0.000032  -0.000079  -0.000003  -0.050553   0.508671  -0.031039
    24  H    0.000004  -0.000065   0.000052  -0.030565  -0.031039   0.489297
 Mulliken charges:
               1
     1  O    0.174760
     2  O    0.016546
     3  O   -0.032411
     4  O   -0.135402
     5  C    0.373720
     6  C    1.037655
     7  C   -0.402421
     8  C   -0.445503
     9  C   -0.216889
    10  C   -0.182826
    11  C   -1.492501
    12  C   -0.329969
    13  C   -0.424148
    14  C   -0.453753
    15  H    0.292875
    16  H    0.278109
    17  H    0.286054
    18  H    0.295260
    19  H    0.222045
    20  H    0.243312
    21  H    0.207787
    22  H    0.230067
    23  H    0.241429
    24  H    0.216203
 Sum of Mulliken charges =  -0.00000
 Mulliken charges with hydrogens summed into heavy atoms:
               1
     1  O    0.174760
     2  O    0.016546
     3  O   -0.032411
     4  O   -0.135402
     5  C    0.373720
     6  C    1.037655
     7  C   -0.109546
     8  C   -0.167394
     9  C    0.069166
    10  C    0.112433
    11  C   -1.492501
    12  C   -0.329969
    13  C    0.248996
    14  C    0.233946
 Electronic spatial extent (au):  <R**2>=           2799.3206
 Charge=             -0.0000 electrons
 Dipole moment (field-independent basis, Debye):
    X=              1.5644    Y=              1.4390    Z=             -2.8071  Tot=              3.5211
 Quadrupole moment (field-independent basis, Debye-Ang):
   XX=            -68.1217   YY=            -67.9638   ZZ=            -90.5184
   XY=             -2.1553   XZ=              5.2146   YZ=              4.9680
 Traceless Quadrupole moment (field-independent basis, Debye-Ang):
   XX=              7.4129   YY=              7.5709   ZZ=            -14.9838
   XY=             -2.1553   XZ=              5.2146   YZ=              4.9680
 Octapole moment (field-independent basis, Debye-Ang**2):
  XXX=              5.5084  YYY=              0.2373  ZZZ=             -5.3421  XYY=              3.9781
  XXY=            -27.3476  XXZ=            -13.5742  XZZ=              7.0197  YZZ=            -11.1157
  YYZ=            -15.7929  XYZ=             -6.0860
 Hexadecapole moment (field-independent basis, Debye-Ang**3):
 XXXX=          -1587.0519 YYYY=          -1494.9033 ZZZZ=           -278.9479 XXXY=            -24.8828
 XXXZ=             30.4179 YYYX=            -10.9942 YYYZ=              3.5023 ZZZX=             16.5976
 ZZZY=             10.8457 XXYY=           -456.5112 XXZZ=           -355.1175 YYZZ=           -344.7126
 XXYZ=             26.5409 YYXZ=              1.1290 ZZXY=             -4.1458
 N-N= 8.848634085913D+02 E-N=-3.377461295652D+03  KE= 6.848785429605D+02
 R6APFD:  NTU= -4 IXU= 1 FactS= 1.050
 Calling FoFJK, ICntrl=      2127 FMM=F ISym2X=0 I1Cent= 0 IOpClX= 0 NMat=1 NMatS=1 NMatT=0.
 ***** Axes restored to original set *****
 -------------------------------------------------------------------
 Center     Atomic                   Forces (Hartrees/Bohr)
 Number     Number              X              Y              Z
 -------------------------------------------------------------------
      1        8          -0.010948006    0.010239324   -0.016657734
      2        8           0.015741499    0.007195744   -0.009553659
      3        8          -0.014851964    0.017014733    0.049930644
      4        8          -0.028993563    0.024666287    0.028158414
      5        6          -0.013097547    0.016931601    0.006037323
      6        6          -0.009778645    0.016149681    0.006290556
      7        6          -0.005193291    0.001587952    0.000532304
      8        6           0.000404541    0.013377688    0.001692598
      9        6          -0.001683745   -0.004962856   -0.000753730
     10        6           0.004010907   -0.002685977   -0.001398279
     11        6           0.050871898   -0.046751590   -0.035962864
     12        6           0.009080165   -0.057791480   -0.016737865
     13        6          -0.002001226    0.000526581   -0.001982026
     14        6           0.001714346    0.002237411   -0.001652582
     15        1           0.001720852   -0.002544313   -0.000030089
     16        1           0.001614345   -0.005309046    0.000495755
     17        1           0.000867122    0.001427841    0.000195738
     18        1          -0.001267370    0.000562088   -0.000039573
     19        1          -0.000362481   -0.000751042   -0.003463941
     20        1           0.000505606    0.001177273   -0.003521870
     21        1          -0.004526221    0.003823746    0.001266167
     22        1           0.002137944   -0.000591143   -0.002775791
     23        1           0.003236504   -0.001346491   -0.001000842
     24        1           0.000798331    0.005815988    0.000931345
 -------------------------------------------------------------------
 Cartesian Forces:  Max     0.057791480 RMS     0.015479432

 GradGradGradGradGradGradGradGradGradGradGradGradGradGradGradGradGradGrad
 Berny optimization.
 FormGI is forming the generalized inverse of G from B-inverse, IUseBI=4.
 Internal  Forces:  Max     0.054347647 RMS     0.009479486
 Search for a local minimum.
 Step number   1 out of a maximum of  114
 All quantities printed in internal units (Hartrees-Bohrs-Radians)
 Mixed Optimization -- RFO/linear search
 Second derivative matrix not updated -- first step.
 ITU=  0
     Eigenvalues ---    0.01267   0.01269   0.01333   0.01333   0.01576
     Eigenvalues ---    0.01576   0.01893   0.01914   0.02061   0.02062
     Eigenvalues ---    0.02156   0.02156   0.02156   0.02157   0.02157
     Eigenvalues ---    0.02157   0.02158   0.10158   0.10159   0.10484
     Eigenvalues ---    0.10485   0.15999   0.16000   0.16000   0.16000
     Eigenvalues ---    0.16000   0.16000   0.16000   0.16000   0.16000
     Eigenvalues ---    0.16000   0.22000   0.22493   0.24488   0.25000
     Eigenvalues ---    0.25000   0.25000   0.25000   0.25000   0.25000
     Eigenvalues ---    0.25000   0.25000   0.34345   0.34345   0.34349
     Eigenvalues ---    0.34351   0.34438   0.34442   0.35159   0.35170
     Eigenvalues ---    0.35254   0.35272   0.37321   0.37322   0.40688
     Eigenvalues ---    0.40706   0.42238   0.42406   0.46472   0.46477
     Eigenvalues ---    0.46483   0.46495   0.50582   0.50598   0.90570
     Eigenvalues ---    0.90575
 RFO step:  Lambda=-1.97560319D-02 EMin= 1.26702943D-02
 Linear search not attempted -- first point.
 Iteration  1 RMS(Cart)=  0.08238753 RMS(Int)=  0.00353412
 Iteration  2 RMS(Cart)=  0.00433222 RMS(Int)=  0.00018423
 Iteration  3 RMS(Cart)=  0.00001222 RMS(Int)=  0.00018406
 Iteration  4 RMS(Cart)=  0.00000000 RMS(Int)=  0.00018406
 Variable       Old X    -DE/DX   Delta X   Delta X   Delta X     New X
                                 (Linear)    (Quad)   (Total)
    R1        2.59267  -0.03242   0.00000  -0.06167  -0.06167   2.53099
    R2        2.70630  -0.00758   0.00000  -0.01778  -0.01778   2.68852
    R3        2.59282  -0.03006   0.00000  -0.05720  -0.05720   2.53562
    R4        2.70605  -0.00760   0.00000  -0.01780  -0.01780   2.68825
    R5        2.32669  -0.05435   0.00000  -0.05872  -0.05872   2.26797
    R6        2.32671  -0.04682   0.00000  -0.05059  -0.05059   2.27612
    R7        2.63586   0.00277   0.00000   0.00609   0.00607   2.64193
    R8        2.63595  -0.00357   0.00000  -0.00736  -0.00739   2.62856
    R9        2.75364   0.02470   0.00000   0.06285   0.06285   2.81649
   R10        2.63596   0.00095   0.00000   0.00232   0.00232   2.63828
   R11        2.75363   0.01876   0.00000   0.04774   0.04774   2.80138
   R12        2.63597  -0.00236   0.00000  -0.00522  -0.00522   2.63075
   R13        2.05418   0.00074   0.00000   0.00200   0.00200   2.05618
   R14        2.63569  -0.00333   0.00000  -0.00688  -0.00686   2.62884
   R15        2.05400   0.00007   0.00000   0.00018   0.00018   2.05418
   R16        2.63609  -0.00226   0.00000  -0.00505  -0.00502   2.63107
   R17        2.05236   0.00158   0.00000   0.00423   0.00423   2.05659
   R18        2.05264   0.00132   0.00000   0.00354   0.00354   2.05618
   R19        2.06745   0.00085   0.00000   0.00235   0.00235   2.06980
   R20        2.06752   0.00069   0.00000   0.00190   0.00190   2.06942
   R21        2.06597  -0.00094   0.00000  -0.00257  -0.00257   2.06340
   R22        2.06741   0.00073   0.00000   0.00202   0.00202   2.06943
   R23        2.06752   0.00080   0.00000   0.00219   0.00219   2.06971
   R24        2.06591  -0.00099   0.00000  -0.00271  -0.00271   2.06320
    A1        2.02914  -0.01424   0.00000  -0.05279  -0.05279   1.97635
    A2        2.02924  -0.01328   0.00000  -0.04922  -0.04922   1.98002
    A3        2.09452  -0.00111   0.00000  -0.00356  -0.00367   2.09085
    A4        2.11704   0.00278   0.00000   0.01003   0.01008   2.12711
    A5        2.07162  -0.00167   0.00000  -0.00647  -0.00643   2.06520
    A6        2.09435  -0.00150   0.00000  -0.00439  -0.00451   2.08984
    A7        2.11707  -0.00413   0.00000  -0.01589  -0.01590   2.10118
    A8        2.07176   0.00563   0.00000   0.02028   0.02027   2.09203
    A9        2.09431   0.00138   0.00000   0.00486   0.00470   2.09902
   A10        2.10649  -0.00373   0.00000  -0.01936  -0.01937   2.08712
   A11        2.08238   0.00235   0.00000   0.01450   0.01448   2.09686
   A12        2.09436   0.00097   0.00000   0.00461   0.00454   2.09890
   A13        2.12456  -0.00609   0.00000  -0.03344  -0.03347   2.09109
   A14        2.06419   0.00513   0.00000   0.02903   0.02900   2.09319
   A15        2.09428   0.00069   0.00000   0.00122   0.00118   2.09546
   A16        2.09457  -0.00094   0.00000  -0.00391  -0.00389   2.09068
   A17        2.09434   0.00025   0.00000   0.00269   0.00271   2.09704
   A18        2.09454  -0.00043   0.00000  -0.00274  -0.00279   2.09175
   A19        2.09478  -0.00020   0.00000  -0.00094  -0.00097   2.09381
   A20        2.09386   0.00063   0.00000   0.00372   0.00368   2.09754
   A21        2.15310  -0.00017   0.00000  -0.00061  -0.00140   2.15170
   A22        1.97814  -0.00723   0.00000  -0.02678  -0.02760   1.95055
   A23        2.15194   0.00739   0.00000   0.02740   0.02656   2.17850
   A24        2.15297  -0.00481   0.00000  -0.01782  -0.01784   2.13513
   A25        1.97830  -0.00479   0.00000  -0.01776  -0.01778   1.96052
   A26        2.15192   0.00960   0.00000   0.03559   0.03557   2.18748
   A27        1.92353   0.00096   0.00000   0.00426   0.00426   1.92779
   A28        1.92288   0.00006   0.00000  -0.00077  -0.00079   1.92209
   A29        1.88679  -0.00782   0.00000  -0.04141  -0.04142   1.84537
   A30        1.93314  -0.00242   0.00000  -0.01732  -0.01733   1.91580
   A31        1.89835   0.00441   0.00000   0.02664   0.02665   1.92500
   A32        1.89820   0.00480   0.00000   0.02874   0.02871   1.92690
   A33        1.92345   0.00053   0.00000   0.00180   0.00179   1.92524
   A34        1.92331   0.00125   0.00000   0.00612   0.00614   1.92945
   A35        1.88667  -0.00781   0.00000  -0.04152  -0.04151   1.84517
   A36        1.93302  -0.00269   0.00000  -0.01853  -0.01852   1.91450
   A37        1.89830   0.00434   0.00000   0.02571   0.02570   1.92400
   A38        1.89812   0.00435   0.00000   0.02650   0.02654   1.92466
    D1       -0.00004  -0.00255   0.00000  -0.06741  -0.06693  -0.06697
    D2        3.14137   0.00005   0.00000   0.00550   0.00502  -3.13679
    D3        1.06834  -0.00115   0.00000  -0.00861  -0.00859   1.05975
    D4       -1.07010   0.00121   0.00000   0.01086   0.01088  -1.05923
    D5        3.14099   0.00005   0.00000   0.00128   0.00124  -3.14095
    D6       -0.00001  -0.00077   0.00000  -0.01987  -0.01973  -0.01974
    D7        3.14134  -0.00036   0.00000  -0.00835  -0.00848   3.13286
    D8        1.06786  -0.00103   0.00000  -0.00869  -0.00871   1.05915
    D9       -1.07068   0.00116   0.00000   0.00933   0.00930  -1.06137
   D10        3.14033  -0.00015   0.00000  -0.00141  -0.00136   3.13897
   D11        0.00026   0.00134   0.00000   0.03169   0.03159   0.03185
   D12       -3.14145   0.00206   0.00000   0.05004   0.04973  -3.09172
   D13        3.14158   0.00163   0.00000   0.03924   0.03922  -3.10239
   D14       -0.00014   0.00235   0.00000   0.05760   0.05736   0.05723
   D15       -0.00018  -0.00138   0.00000  -0.03286  -0.03289  -0.03307
   D16       -3.14154  -0.00052   0.00000  -0.01217  -0.01234   3.12930
   D17       -3.14150  -0.00166   0.00000  -0.04023  -0.04026   3.10142
   D18        0.00032  -0.00080   0.00000  -0.01953  -0.01971  -0.01939
   D19       -1.57034   0.00207   0.00000   0.06573   0.06549  -1.50485
   D20        1.57107   0.00465   0.00000   0.13858   0.13876   1.70983
   D21        1.57097   0.00235   0.00000   0.07320   0.07302   1.64399
   D22       -1.57080   0.00494   0.00000   0.14605   0.14629  -1.42451
   D23       -0.00010  -0.00034   0.00000  -0.00757  -0.00754  -0.00764
   D24        3.12813   0.00042   0.00000   0.00990   0.00967   3.13780
   D25       -3.14158  -0.00104   0.00000  -0.02545  -0.02558   3.11602
   D26       -0.01335  -0.00028   0.00000  -0.00799  -0.00837  -0.02172
   D27        2.61841   0.00210   0.00000   0.06550   0.06542   2.68383
   D28       -0.52342   0.00251   0.00000   0.07701   0.07706  -0.44636
   D29       -0.52330   0.00281   0.00000   0.08363   0.08358  -0.43972
   D30        2.61805   0.00321   0.00000   0.09514   0.09522   2.71327
   D31       -0.00006   0.00041   0.00000   0.00992   0.01001   0.00995
   D32       -3.14077   0.00051   0.00000   0.01207   0.01214  -3.12863
   D33        3.14130  -0.00044   0.00000  -0.01049  -0.01066   3.13064
   D34        0.00059  -0.00034   0.00000  -0.00835  -0.00853  -0.00794
   D35       -0.00014  -0.00063   0.00000  -0.01537  -0.01534  -0.01548
   D36        3.13843   0.00005   0.00000   0.00135   0.00143   3.13986
   D37       -3.12883  -0.00128   0.00000  -0.03177  -0.03209   3.12226
   D38        0.00974  -0.00059   0.00000  -0.01505  -0.01533  -0.00559
   D39        0.00022   0.00060   0.00000   0.01419   0.01417   0.01439
   D40       -3.13835  -0.00009   0.00000  -0.00251  -0.00262  -3.14097
   D41        3.14093   0.00050   0.00000   0.01204   0.01203  -3.13022
   D42        0.00236  -0.00018   0.00000  -0.00466  -0.00476  -0.00240
         Item               Value     Threshold  Converged?
 Maximum Force            0.054348     0.000450     NO 
 RMS     Force            0.009479     0.000300     NO 
 Maximum Displacement     0.389404     0.001800     NO 
 RMS     Displacement     0.083278     0.001200     NO 
 Predicted change in Energy=-1.122042D-02
 GradGradGradGradGradGradGradGradGradGradGradGradGradGradGradGradGradGrad

                          Input orientation:                          
 ---------------------------------------------------------------------
 Center     Atomic      Atomic             Coordinates (Angstroms)
 Number     Number       Type             X           Y           Z
 ---------------------------------------------------------------------
      1          8           0        2.094845   -0.660832    0.919715
      2          8           0       -2.235030   -1.456144    0.399853
      3          8           0        2.274806   -0.353936   -1.287520
      4          8           0       -0.337095   -1.961816   -0.659436
      5          6           0        0.545484    0.778755   -0.091324
      6          6           0       -0.773847    0.316343   -0.082506
      7          6           0        0.802086    2.139035    0.045054
      8          6           0       -1.826299    1.227373    0.024793
      9          6           0       -0.250147    3.044412    0.150563
     10          6           0       -1.565977    2.589719    0.131849
     11          6           0        1.702684   -0.146488   -0.253101
     12          6           0       -1.060019   -1.135947   -0.163380
     13          6           0        3.203241   -1.545004    0.802323
     14          6           0       -2.538892   -2.843884    0.325474
     15          1           0        1.830677    2.493871    0.049273
     16          1           0       -2.852685    0.869402    0.028199
     17          1           0       -0.040670    4.108195    0.244805
     18          1           0       -2.389890    3.295702    0.213600
     19          1           0        4.070387   -1.018937    0.388831
     20          1           0        2.942897   -2.392364    0.159341
     21          1           0        3.416810   -1.888313    1.816612
     22          1           0       -1.774805   -3.428818    0.848218
     23          1           0       -2.601758   -3.168245   -0.718747
     24          1           0       -3.506603   -2.961578    0.817111
 ---------------------------------------------------------------------
                    Distance matrix (angstroms):
                    1          2          3          4          5
     1  O    0.000000
     2  O    4.432899   0.000000
     3  O    2.235723   4.939708   0.000000
     4  O    3.178146   2.231582   3.130782   0.000000
     5  C    2.344170   3.601012   2.388394   2.934693   0.000000
     6  C    3.191976   2.347220   3.345985   2.390316   1.398047
     7  C    3.205545   4.719669   3.187407   4.314049   1.390973
     8  C    4.443149   2.740255   4.587130   3.585641   2.416629
     9  C    4.451901   4.925131   4.471268   5.072079   2.413450
    10  C    4.958673   4.109558   5.042948   4.780455   2.790639
    11  C    1.339343   4.200850   1.200158   2.760656   1.490422
    12  C    3.369273   1.341793   3.605037   1.204471   2.499783
    13  C    1.422702   5.453868   2.578387   3.852850   3.641721
    14  C    5.156584   1.422563   5.654492   2.568268   4.776045
    15  H    3.283231   5.679393   3.177148   5.005462   2.147816
    16  H    5.254947   2.434705   5.433124   3.849263   3.401478
    17  H    5.268733   5.983405   5.255479   6.144148   3.397312
    18  H    6.022094   4.758017   6.110042   5.711187   3.878715
    19  H    2.076739   6.320567   2.544895   4.627503   3.985874
    20  H    2.072573   5.267379   2.587459   3.407949   3.983267
    21  H    2.014627   5.842711   3.646110   4.497557   4.358667
    22  H    4.758261   2.074675   5.515037   2.547965   4.895932
    23  H    5.570436   2.077750   5.659038   2.566649   5.087003
    24  H    6.056416   2.014282   6.682362   3.636688   5.588806
                    6          7          8          9         10
     6  C    0.000000
     7  C    2.412891   0.000000
     8  C    1.396118   2.782076   0.000000
     9  C    2.787641   1.392133   2.408673   0.000000
    10  C    2.416951   2.412130   1.391120   1.392302   0.000000
    11  C    2.525177   2.474589   3.797162   3.762757   4.280089
    12  C    1.482425   3.773114   2.491561   4.269644   3.771437
    13  C    4.479371   4.462191   5.795421   5.780434   6.347512
    14  C    3.642646   6.005851   4.144071   6.319887   5.523413
    15  H    3.397431   1.088083   3.870154   2.154805   3.399009
    16  H    2.153996   3.869057   1.087025   3.393943   2.150779
    17  H    3.875928   2.151216   3.396471   1.088299   2.155247
    18  H    3.402331   3.399265   2.152039   2.155371   1.088085
    19  H    5.046953   4.557715   6.320549   5.935874   6.697540
    20  H    4.605406   5.012954   5.988808   6.305088   6.719512
    21  H    5.101839   5.118079   6.356753   6.368208   6.907920
    22  H    3.986778   6.187603   4.728720   6.686854   6.064617
    23  H    3.986028   6.351123   4.525002   6.699469   5.911895
    24  H    4.361426   6.721394   4.582412   6.864453   5.920516
                   11         12         13         14         15
    11  C    0.000000
    12  C    2.935917   0.000000
    13  C    2.306824   4.390364   0.000000
    14  C    5.059808   2.311512   5.906485   0.000000
    15  H    2.660697   4.645097   4.331689   6.903698   0.000000
    16  H    4.675740   2.696623   6.565277   3.738359   4.957139
    17  H    4.624881   5.357865   6.541593   7.387761   2.479156
    18  H    5.368021   4.642218   7.420388   6.142413   4.299201
    19  H    2.603702   5.161366   1.095292   6.856896   4.179883
    20  H    2.598498   4.207858   1.095090   5.502861   5.012428
    21  H    3.202482   4.952618   1.091904   6.213453   4.984259
    22  H    4.907089   2.606051   5.322763   1.095097   6.979689
    23  H    5.279778   2.610675   6.216637   1.095245   7.231590
    24  H    6.017205   3.206254   6.857762   1.091798   7.670597
                   16         17         18         19         20
    16  H    0.000000
    17  H    4.294663   0.000000
    18  H    2.476992   2.485952   0.000000
    19  H    7.185041   6.573356   7.770586   0.000000
    20  H    6.651698   7.153058   7.797157   1.791704   0.000000
    21  H    7.078840   7.098088   7.947417   1.794864   1.795886
    22  H    4.506545   7.757441   6.782348   6.339151   4.879088
    23  H    4.113816   7.773943   6.534277   7.096744   5.667118
    24  H    3.965652   7.894423   6.384735   7.833777   6.507896
                   21         22         23         24
    21  H    0.000000
    22  H    5.501255   0.000000
    23  H    6.655030   1.790846   0.000000
    24  H    7.077044   1.793991   1.794524   0.000000
 Stoichiometry    C10H10O4
 Framework group  C1[X(C10H10O4)]
 Deg. of freedom    66
 Full point group                 C1      NOp   1
 Largest Abelian subgroup         C1      NOp   1
 Largest concise Abelian subgroup C1      NOp   1
                         Standard orientation:                         
 ---------------------------------------------------------------------
 Center     Atomic      Atomic             Coordinates (Angstroms)
 Number     Number       Type             X           Y           Z
 ---------------------------------------------------------------------
      1          8           0       -1.978481   -0.809198   -0.870359
      2          8           0        2.414315   -1.041430   -0.322629
      3          8           0       -2.206792   -0.476158    1.328599
      4          8           0        0.589612   -1.756994    0.744321
      5          6           0       -0.627460    0.836893    0.109568
      6          6           0        0.739547    0.543976    0.114504
      7          6           0       -1.052269    2.150570   -0.059543
      8          6           0        1.669706    1.577375   -0.012120
      9          6           0       -0.121626    3.178377   -0.184244
     10          6           0        1.240799    2.893314   -0.151975
     11          6           0       -1.660025   -0.222509    0.290770
     12          6           0        1.205536   -0.858527    0.230369
     13          6           0       -2.967565   -1.822761   -0.734400
     14          6           0        2.889773   -2.377837   -0.214748
     15          1           0       -2.117261    2.373052   -0.074347
     16          1           0        2.732944    1.351329   -0.004870
     17          1           0       -0.462639    4.204895   -0.304108
     18          1           0        1.969870    3.695207   -0.248684
     19          1           0       -3.896034   -1.400445   -0.335326
     20          1           0       -2.606074   -2.615484   -0.070972
     21          1           0       -3.131145   -2.213677   -1.740720
     22          1           0        2.207913   -3.066199   -0.725104
     23          1           0        2.987595   -2.667364    0.836996
     24          1           0        3.867088   -2.384304   -0.701407
 ---------------------------------------------------------------------
 Rotational constants (GHZ):           0.7683361           0.7067115           0.4069652
 Standard basis: 6-311++G(d,p) (5D, 7F)
 There are   392 symmetry adapted cartesian basis functions of A   symmetry.
 There are   378 symmetry adapted basis functions of A   symmetry.
   378 basis functions,   594 primitive gaussians,   392 cartesian basis functions
    51 alpha electrons       51 beta electrons
       nuclear repulsion energy       889.5958496615 Hartrees.
 NAtoms=   24 NActive=   24 NUniq=   24 SFac= 1.00D+00 NAtFMM=   60 NAOKFM=F Big=F
 Integral buffers will be    131072 words long.
 Raffenetti 2 integral format.
 Two-electron integral symmetry is turned on.
 R6APFD:  NTU= -4 IXU= 1 FactS= 1.050
 Nuclear repulsion after empirical dispersion term =      889.5774127887 Hartrees.
 One-electron integrals computed using PRISM.
 NBasis=   378 RedAO= T EigKep=  1.30D-06  NBF=   378
 NBsUse=   376 1.00D-06 EigRej=  7.17D-07 NBFU=   376
 Initial guess from the checkpoint file:  "DIPH0036.chk"
 B after Tr=    -0.000000   -0.000000   -0.000000
         Rot=    0.999830    0.002796    0.007822    0.016469 Ang=   2.11 deg.
 ExpMin= 3.60D-02 ExpMax= 8.59D+03 ExpMxC= 1.30D+03 IAcc=3 IRadAn=         5 AccDes= 0.00D+00
 Harris functional with IExCor= 1009 and IRadAn=       5 diagonalized for initial guess.
 HarFok:  IExCor= 1009 AccDes= 0.00D+00 IRadAn=         5 IDoV= 1 UseB2=F ITyADJ=14
 ICtDFT=  3500011 ScaDFX=  1.000000  1.000000  1.000000  1.000000
 FoFCou: FMM=F IPFlag=           0 FMFlag=      100000 FMFlg1=           0
         NFxFlg=           0 DoJE=T BraDBF=F KetDBF=T FulRan=T
         wScrn=  0.000000 ICntrl=       500 IOpCl=  0 I1Cent=   200000004 NGrid=           0
         NMat0=    1 NMatS0=      1 NMatT0=    0 NMatD0=    1 NMtDS0=    0 NMtDT0=    0
 Petite list used in FoFCou.
 Requested convergence on RMS density matrix=1.00D-08 within  32 cycles.
 Requested convergence on MAX density matrix=1.00D-06.
 Requested convergence on             energy=1.00D-06.
 No special actions if energy rises.
 SCF Done:  E(RM08HX) =  -687.968012995     A.U. after   15 cycles
            NFock= 15  Conv=0.60D-08     -V/T= 2.0040
 QCSCF skips out because SCF is already converged.
 R6APFD:  NTU= -4 IXU= 1 FactS= 1.050
 Calling FoFJK, ICntrl=      2127 FMM=F ISym2X=0 I1Cent= 0 IOpClX= 0 NMat=1 NMatS=1 NMatT=0.
 ***** Axes restored to original set *****
 -------------------------------------------------------------------
 Center     Atomic                   Forces (Hartrees/Bohr)
 Number     Number              X              Y              Z
 -------------------------------------------------------------------
      1        8          -0.005834769    0.001208760   -0.002985753
      2        8           0.002253689    0.003215299   -0.002902268
      3        8          -0.003740094    0.003905455    0.000712020
      4        8           0.004767922    0.004828246    0.001821487
      5        6          -0.007343905    0.001710819    0.000058847
      6        6          -0.001717461    0.006432139    0.002533156
      7        6           0.000086224    0.000902118   -0.002461077
      8        6           0.000215034    0.002897061    0.001524377
      9        6          -0.000095394   -0.000505511    0.000168093
     10        6           0.000533582   -0.000779827    0.000044437
     11        6           0.011115443   -0.005166223   -0.003272540
     12        6           0.000381438   -0.008904868   -0.000554329
     13        6           0.002498457   -0.003905376    0.005561909
     14        6          -0.006038013   -0.002330896    0.002812937
     15        1           0.000557070   -0.000572327   -0.000009250
     16        1           0.000324170   -0.001737387    0.000210129
     17        1           0.000183927    0.000065557    0.000219940
     18        1          -0.000110661   -0.000069095   -0.000412477
     19        1          -0.000265779   -0.000618880   -0.000910876
     20        1           0.000462798    0.000620390   -0.000836113
     21        1           0.000164549   -0.000167669   -0.000285551
     22        1           0.000314281   -0.000333821   -0.001204141
     23        1           0.001176926   -0.000475888    0.000273378
     24        1           0.000110567   -0.000218076   -0.000106334
 -------------------------------------------------------------------
 Cartesian Forces:  Max     0.011115443 RMS     0.002950876

 GradGradGradGradGradGradGradGradGradGradGradGradGradGradGradGradGradGrad
 Berny optimization.
 Using GEDIIS/GDIIS optimizer.
 FormGI is forming the generalized inverse of G from B-inverse, IUseBI=4.
 Internal  Forces:  Max     0.009763127 RMS     0.002655699
 Search for a local minimum.
 Step number   2 out of a maximum of  114
 All quantities printed in internal units (Hartrees-Bohrs-Radians)
 Mixed Optimization -- RFO/linear search
 Update second derivatives using D2CorX and points    1    2
 DE= -1.09D-02 DEPred=-1.12D-02 R= 9.68D-01
 TightC=F SS=  1.41D+00  RLast= 3.69D-01 DXNew= 5.0454D-01 1.1059D+00
 Trust test= 9.68D-01 RLast= 3.69D-01 DXMaxT set to 5.05D-01
 ITU=  1  0
 Use linear search instead of GDIIS.
     Eigenvalues ---    0.01212   0.01267   0.01269   0.01334   0.01564
     Eigenvalues ---    0.01687   0.01895   0.01915   0.02054   0.02063
     Eigenvalues ---    0.02155   0.02156   0.02157   0.02157   0.02157
     Eigenvalues ---    0.02157   0.02198   0.10104   0.10204   0.10666
     Eigenvalues ---    0.10673   0.15574   0.15997   0.15999   0.16000
     Eigenvalues ---    0.16000   0.16000   0.16000   0.16000   0.16000
     Eigenvalues ---    0.16105   0.21997   0.22510   0.23329   0.24478
     Eigenvalues ---    0.24967   0.24998   0.24999   0.24999   0.25000
     Eigenvalues ---    0.25000   0.28964   0.34345   0.34346   0.34350
     Eigenvalues ---    0.34356   0.34438   0.34443   0.35154   0.35169
     Eigenvalues ---    0.35257   0.35275   0.36167   0.37338   0.40697
     Eigenvalues ---    0.41438   0.42225   0.42747   0.46411   0.46474
     Eigenvalues ---    0.46480   0.46529   0.50582   0.53741   0.89044
     Eigenvalues ---    0.90710
 RFO step:  Lambda=-6.47506357D-03 EMin= 1.21170556D-02
 Quartic linear search produced a step of  0.07443.
 Iteration  1 RMS(Cart)=  0.16697097 RMS(Int)=  0.00901240
 Iteration  2 RMS(Cart)=  0.02773203 RMS(Int)=  0.00061075
 Iteration  3 RMS(Cart)=  0.00047078 RMS(Int)=  0.00058729
 Iteration  4 RMS(Cart)=  0.00000053 RMS(Int)=  0.00058729
 Variable       Old X    -DE/DX   Delta X   Delta X   Delta X     New X
                                 (Linear)    (Quad)   (Total)
    R1        2.53099   0.00070  -0.00459  -0.00940  -0.01399   2.51700
    R2        2.68852   0.00447  -0.00132   0.00811   0.00678   2.69530
    R3        2.53562   0.00148  -0.00426  -0.00704  -0.01130   2.52432
    R4        2.68825   0.00413  -0.00132   0.00726   0.00594   2.69419
    R5        2.26797  -0.00307  -0.00437  -0.01392  -0.01829   2.24968
    R6        2.27612  -0.00120  -0.00377  -0.01035  -0.01412   2.26200
    R7        2.64193  -0.00401   0.00045  -0.00811  -0.00766   2.63427
    R8        2.62856  -0.00071  -0.00055  -0.00300  -0.00356   2.62500
    R9        2.81649   0.00619   0.00468   0.02781   0.03249   2.84898
   R10        2.63828  -0.00100   0.00017  -0.00201  -0.00183   2.63645
   R11        2.80138   0.00356   0.00355   0.01799   0.02154   2.82292
   R12        2.63075   0.00026  -0.00039  -0.00012  -0.00051   2.63024
   R13        2.05618   0.00034   0.00015   0.00133   0.00148   2.05766
   R14        2.62884  -0.00025  -0.00051  -0.00161  -0.00212   2.62672
   R15        2.05418   0.00027   0.00001   0.00080   0.00082   2.05500
   R16        2.63107   0.00112  -0.00037   0.00195   0.00158   2.63265
   R17        2.05659   0.00012   0.00031   0.00107   0.00139   2.05798
   R18        2.05618   0.00001   0.00026   0.00064   0.00090   2.05708
   R19        2.06980  -0.00016   0.00018  -0.00007   0.00010   2.06990
   R20        2.06942  -0.00010   0.00014   0.00003   0.00018   2.06960
   R21        2.06340  -0.00018  -0.00019  -0.00098  -0.00117   2.06223
   R22        2.06943  -0.00018   0.00015  -0.00017  -0.00002   2.06942
   R23        2.06971  -0.00019   0.00016  -0.00018  -0.00002   2.06969
   R24        2.06320  -0.00012  -0.00020  -0.00083  -0.00103   2.06217
    A1        1.97635   0.00928  -0.00393   0.02855   0.02462   2.00097
    A2        1.98002   0.00976  -0.00366   0.03109   0.02743   2.00745
    A3        2.09085   0.00108  -0.00027   0.00292   0.00260   2.09346
    A4        2.12711  -0.00380   0.00075  -0.01330  -0.01258   2.11454
    A5        2.06520   0.00272  -0.00048   0.01028   0.00977   2.07497
    A6        2.08984   0.00166  -0.00034   0.00501   0.00466   2.09450
    A7        2.10118  -0.00850  -0.00118  -0.03660  -0.03778   2.06339
    A8        2.09203   0.00684   0.00151   0.03153   0.03303   2.12506
    A9        2.09902  -0.00143   0.00035  -0.00544  -0.00511   2.09390
   A10        2.08712  -0.00002  -0.00144  -0.00467  -0.00611   2.08101
   A11        2.09686   0.00145   0.00108   0.01004   0.01112   2.10798
   A12        2.09890  -0.00143   0.00034  -0.00577  -0.00546   2.09344
   A13        2.09109  -0.00105  -0.00249  -0.01327  -0.01578   2.07532
   A14        2.09319   0.00248   0.00216   0.01900   0.02114   2.11433
   A15        2.09546   0.00009   0.00009   0.00202   0.00208   2.09754
   A16        2.09068  -0.00021  -0.00029  -0.00257  -0.00286   2.08782
   A17        2.09704   0.00012   0.00020   0.00055   0.00075   2.09780
   A18        2.09175   0.00003  -0.00021   0.00092   0.00069   2.09245
   A19        2.09381  -0.00017  -0.00007  -0.00179  -0.00186   2.09195
   A20        2.09754   0.00014   0.00027   0.00085   0.00113   2.09867
   A21        2.15170   0.00733  -0.00010   0.03265   0.02924   2.18094
   A22        1.95055  -0.00430  -0.00205  -0.01890  -0.02420   1.92635
   A23        2.17850  -0.00281   0.00198  -0.00377  -0.00499   2.17351
   A24        2.13513   0.00790  -0.00133   0.02882   0.02742   2.16255
   A25        1.96052  -0.00169  -0.00132  -0.00992  -0.01130   1.94921
   A26        2.18748  -0.00621   0.00265  -0.01910  -0.01652   2.17097
   A27        1.92779   0.00014   0.00032   0.00074   0.00103   1.92882
   A28        1.92209  -0.00035  -0.00006  -0.00341  -0.00348   1.91861
   A29        1.84537   0.00095  -0.00308   0.00098  -0.00211   1.84325
   A30        1.91580  -0.00127  -0.00129  -0.01420  -0.01552   1.90028
   A31        1.92500   0.00029   0.00198   0.00827   0.01024   1.93524
   A32        1.92690   0.00033   0.00214   0.00839   0.01052   1.93743
   A33        1.92524   0.00018   0.00013   0.00041   0.00053   1.92577
   A34        1.92945  -0.00005   0.00046  -0.00035   0.00009   1.92955
   A35        1.84517   0.00081  -0.00309   0.00020  -0.00289   1.84228
   A36        1.91450  -0.00151  -0.00138  -0.01605  -0.01745   1.89705
   A37        1.92400   0.00031   0.00191   0.00818   0.01009   1.93409
   A38        1.92466   0.00036   0.00198   0.00849   0.01046   1.93512
    D1       -0.06697   0.00022  -0.00498   0.02273   0.01881  -0.04816
    D2       -3.13679  -0.00273   0.00037  -0.12364  -0.12432   3.02207
    D3        1.05975  -0.00082  -0.00064  -0.00572  -0.00634   1.05341
    D4       -1.05923   0.00091   0.00081   0.01385   0.01464  -1.04458
    D5       -3.14095   0.00016   0.00009   0.00511   0.00520  -3.13575
    D6       -0.01974  -0.00028  -0.00147  -0.01252  -0.01417  -0.03391
    D7        3.13286   0.00018  -0.00063   0.00650   0.00605   3.13891
    D8        1.05915  -0.00088  -0.00065  -0.00829  -0.00892   1.05022
    D9       -1.06137   0.00093   0.00069   0.01186   0.01254  -1.04884
   D10        3.13897   0.00005  -0.00010   0.00179   0.00169   3.14066
   D11        0.03185   0.00031   0.00235   0.01256   0.01491   0.04676
   D12       -3.09172   0.00029   0.00370   0.01594   0.01952  -3.07221
   D13       -3.10239   0.00066   0.00292   0.02778   0.03064  -3.07175
   D14        0.05723   0.00064   0.00427   0.03115   0.03524   0.09247
   D15       -0.03307  -0.00010  -0.00245  -0.00564  -0.00807  -0.04114
   D16        3.12930  -0.00004  -0.00092  -0.00208  -0.00299   3.12631
   D17        3.10142  -0.00046  -0.00300  -0.02042  -0.02353   3.07789
   D18       -0.01939  -0.00041  -0.00147  -0.01686  -0.01846  -0.03784
   D19       -1.50485   0.00434   0.00487   0.21752   0.22176  -1.28309
   D20        1.70983   0.00085   0.01033   0.06671   0.07768   1.78750
   D21        1.64399   0.00470   0.00544   0.23256   0.23735   1.88134
   D22       -1.42451   0.00120   0.01089   0.08174   0.09327  -1.33125
   D23       -0.00764  -0.00018  -0.00056  -0.00779  -0.00832  -0.01597
   D24        3.13780   0.00007   0.00072   0.00264   0.00326   3.14106
   D25        3.11602  -0.00032  -0.00190  -0.01185  -0.01384   3.10218
   D26       -0.02172  -0.00008  -0.00062  -0.00143  -0.00226  -0.02398
   D27        2.68383   0.00238   0.00487   0.12720   0.13217   2.81600
   D28       -0.44636   0.00275   0.00574   0.14653   0.15218  -0.29418
   D29       -0.43972   0.00242   0.00622   0.13085   0.13717  -0.30255
   D30        2.71327   0.00279   0.00709   0.15019   0.15718   2.87045
   D31        0.00995  -0.00018   0.00074  -0.00590  -0.00514   0.00480
   D32       -3.12863  -0.00005   0.00090  -0.00076   0.00014  -3.12849
   D33        3.13064  -0.00025  -0.00079  -0.00966  -0.01051   3.12013
   D34       -0.00794  -0.00012  -0.00064  -0.00452  -0.00522  -0.01316
   D35       -0.01548  -0.00008  -0.00114  -0.00371  -0.00485  -0.02032
   D36        3.13986  -0.00007   0.00011  -0.00210  -0.00196   3.13790
   D37        3.12226  -0.00034  -0.00239  -0.01422  -0.01678   3.10548
   D38       -0.00559  -0.00032  -0.00114  -0.01261  -0.01389  -0.01948
   D39        0.01439   0.00025   0.00105   0.01056   0.01160   0.02599
   D40       -3.14097   0.00023  -0.00020   0.00893   0.00868  -3.13229
   D41       -3.13022   0.00012   0.00090   0.00540   0.00628  -3.12395
   D42       -0.00240   0.00010  -0.00035   0.00376   0.00336   0.00095
         Item               Value     Threshold  Converged?
 Maximum Force            0.009763     0.000450     NO 
 RMS     Force            0.002656     0.000300     NO 
 Maximum Displacement     0.702129     0.001800     NO 
 RMS     Displacement     0.189528     0.001200     NO 
[...]
 43544,0.00030695,0.00073139,-0.00000016,-0.00025170,-0.00214611,0.0041
 1208,0.00063907,-0.01793086,-0.01156059,0.00230696,0.00060050,0.000504
 94,-0.00018373,-0.29489273,-0.10075889,0.02580173,0.00159651,-0.000046
 19,0.00060677,0.00195562,0.00159857,0.00019927,0.00012429,-0.00159224,
 0.00014610,-0.00239914,-0.00136549,0.00032859,0.00008212,-0.00007111,-
 0.00001417,0.00066254,0.00049974,-0.00006817,-0.00006545,-0.00007559,-
 0.00008817,0.31081382,0.00002316,-0.00036421,0.00009944,0.00001631,-0.
 00328079,0.00046559,0.00041061,-0.00038929,-0.00028246,-0.00060862,0.0
 0021388,0.00059534,0.00401402,-0.00195069,-0.00019985,0.01677223,0.011
 07529,-0.00160524,0.00076639,-0.00120156,-0.00012257,-0.10308635,-0.10
 095832,0.00907216,-0.00008062,-0.00561247,0.00007398,-0.02818043,-0.00
 558394,0.00280260,0.00033689,0.00133995,0.00004263,0.00179819,0.001368
 83,-0.00090604,-0.00005700,0.00004621,0.00001487,-0.00039846,-0.000605
 99,-0.00006319,-0.00005300,0.00005444,0.00002072,0.10923662,0.10549374
 ,-0.00001385,-0.00003380,-0.00007982,-0.00025474,0.00081930,0.00004797
 ,-0.00009473,0.00014019,-0.00018486,0.00061978,-0.00093716,0.00010035,
 0.00145568,-0.00005899,0.00661494,0.00075736,0.00036090,0.00341267,0.0
 0006517,-0.00075016,-0.00129962,0.02615735,0.00833822,-0.04147168,0.00
 002945,0.00017896,0.00754154,0.00053461,0.00075518,0.00404963,0.000095
 05,0.00015342,0.00072213,0.00001136,0.00132990,-0.00387143,-0.00003628
 ,-0.00000435,-0.00001088,0.00003548,0.00000346,-0.00008917,-0.00010387
 ,-0.00003314,-0.00089662,-0.02877361,-0.01027104,0.02950854,-0.0003824
 8,0.00036154,-0.00020991,0.00015585,-0.00009193,-0.00003811,-0.0003437
 2,-0.00011238,0.00013834,0.00019333,-0.00010631,-0.00008510,-0.0035782
 9,0.00362987,0.00136996,-0.00160602,0.00028724,0.00018553,0.00771304,0
 .02514567,-0.00079511,-0.00496018,-0.00211492,0.00154666,-0.06335219,-
 0.03515228,0.00345588,0.00193921,-0.02892260,0.00069186,0.00116179,0.0
 0073219,-0.00009221,-0.00028802,0.00010111,-0.00001517,0.00001716,-0.0
 0006359,-0.00008640,0.00004611,0.00006282,-0.00001333,0.00049068,-0.00
 043315,-0.00051488,-0.00001458,-0.00133801,-0.00006041,0.06237251,0.00
 037887,-0.00043907,0.00019581,-0.00002343,-0.00012686,0.00001332,0.000
 43364,-0.00004402,-0.00016072,-0.00005881,-0.00003820,-0.00002536,0.00
 357509,-0.00055104,-0.00028681,0.00032418,0.00098187,-0.00007230,-0.00
 545933,-0.01340051,0.00085939,-0.00233297,0.00108115,0.00035836,-0.035
 06424,-0.33403462,0.00886599,0.00175055,-0.00710257,-0.00008634,-0.001
 22320,-0.00008635,0.00006848,0.00001250,-0.00008241,-0.00001451,-0.000
 06377,0.00009332,0.00006185,0.00003090,0.00006843,0.00001593,0.0002995
 4,0.00054504,-0.00013030,0.00017380,-0.00040960,-0.00002343,0.03759550
 ,0.35307592,0.00008428,-0.00011365,-0.00000497,0.00004313,0.00009860,0
 .00006543,0.00012400,-0.00006349,-0.00009417,0.00015846,-0.00015990,0.
 00014200,0.00102444,-0.00095877,0.00717393,-0.00007221,-0.00004427,-0.
 00097939,-0.00079084,-0.00225676,0.00411017,0.00189118,0.00027548,0.00
 749049,0.00374343,0.00884683,-0.03990303,0.00005437,0.00378540,0.00382
 823,-0.00019885,-0.00007407,0.00008283,-0.00012286,0.00025097,-0.00123
 209,0.00008671,0.00001660,0.00001032,0.00000541,-0.00002461,-0.0000031
 8,-0.00056832,-0.00006316,-0.00386060,-0.00001258,0.00022269,-0.000089
 55,-0.00495353,-0.00961845,0.02714965,-0.00005223,0.00012827,-0.000094
 33,0.00004288,0.00016486,-0.00004638,0.00006071,0.00011332,-0.00003707
 ,-0.00003978,-0.00000168,-0.00007561,-0.00011511,-0.00123456,-0.000011
 14,0.00157005,-0.00152300,0.00073448,-0.00403586,-0.00330933,0.0014260
 1,0.00688980,-0.00475914,-0.00033063,-0.01632616,0.01963750,0.00205805
 ,-0.23427869,0.13462532,0.02142984,-0.00003736,-0.00011502,0.00000254,
 0.00028137,-0.00040541,0.00006296,0.00002945,-0.00003538,-0.00000731,-
 0.00001683,-0.00005095,0.00000688,-0.00082027,0.00097366,0.00006142,0.
 00047978,0.00036443,-0.00052031,0.00048636,-0.00039688,-0.00051409,0.2
 4588608,0.00005372,0.00005359,-0.00004343,-0.00044262,-0.00025413,0.00
 008786,0.00006920,0.00003875,-0.00008856,0.00002553,-0.00097395,-0.000
 37184,-0.00114919,-0.00063504,0.00020620,-0.00189777,-0.00548748,0.000
 26444,-0.00298217,0.00014710,0.00049703,0.02609941,-0.01300372,-0.0027
 0849,-0.01118667,0.01114051,0.00126047,0.13446341,-0.16101390,-0.01452
 758,-0.00004044,-0.00010851,0.00010428,0.00176991,0.00074154,0.0000199
 8,-0.00002660,0.00002440,-0.00001663,0.00003901,0.00012629,0.00000286,
 -0.00058281,0.00039228,0.00004813,-0.00037489,0.00059561,0.00004149,0.
 00038959,0.00054936,-0.00012212,-0.14420804,0.16773917,-0.00007557,0.0
 0017440,0.00002156,0.00003077,0.00004620,-0.00002718,0.00024905,-0.000
 00971,-0.00000094,0.00007929,0.00018373,-0.00016750,-0.00025394,-0.000
 17467,-0.00085541,0.00026723,0.00035780,0.00734978,0.00156223,0.000818
 99,0.00737943,-0.00063786,0.00028816,0.00351594,0.00266230,-0.00247347
 ,0.00327243,0.02135352,-0.01441647,-0.04030168,-0.00010006,-0.00014509
 ,-0.00110402,-0.00013769,0.00008287,0.00035621,0.00002083,0.00004394,-
 0.00001187,0.00000933,0.00001561,0.00003244,0.00013561,-0.00012586,-0.
 00000876,-0.00047721,-0.00002355,-0.00400250,-0.00053307,-0.00001045,-
 0.00391036,-0.02414691,0.01534467,0.02846954,-0.01801183,0.00387327,-0
 .00021433,-0.00018917,-0.00012207,0.00009572,0.00277386,-0.00031587,-0
 .00210778,-0.00029842,0.00004543,-0.00005908,0.00015578,0.00041904,-0.
 00023311,-0.00000084,0.00007919,-0.00003646,-0.00013173,-0.00011675,-0
 .00002069,0.00008844,-0.00011555,-0.00002662,-0.00006392,0.00009168,0.
 00004257,0.00005956,0.00009277,-0.00001151,-0.00198156,-0.00394691,0.0
 0659772,0.00058391,-0.00009269,-0.00009776,-0.26836908,-0.09461486,0.0
 2842675,0.00004026,0.00011004,0.00001153,0.00000623,0.00002009,-0.0000
 2049,-0.00000695,0.00000053,0.00000585,-0.00001809,0.00001936,0.000009
 02,-0.00000352,0.00001124,-0.00000016,0.28864092,0.03297398,0.00621936
 ,-0.00196271,-0.00009811,0.00012522,0.00007745,-0.00076841,-0.00144113
 ,0.00223070,-0.00012787,0.00059632,0.00016506,-0.00065067,-0.00093735,
 -0.00030221,-0.00015695,0.00012256,0.00007940,0.00026624,0.00003220,0.
 00006428,-0.00001418,0.00003880,0.00002696,-0.00000880,-0.00008732,0.0
 0000529,-0.00000595,-0.00002222,0.00000253,0.00201244,0.00264145,-0.00
 349612,0.00000307,-0.00052747,-0.00028762,-0.10411629,-0.09354162,0.01
 312103,0.00004579,-0.00008533,0.00002679,-0.00000766,-0.00000485,0.000
 01192,0.00001045,-0.00000960,0.00000818,0.00002218,-0.00001975,-0.0000
 2282,0.00000096,0.00000073,-0.00000208,0.09919836,0.09667844,0.0030844
 3,-0.00031204,-0.00069422,-0.00012563,0.00002964,0.00011792,0.00035286
 ,-0.00011607,-0.00131241,-0.00022462,0.00038874,0.00003820,0.00035911,
 0.00026672,0.00009039,0.00006530,-0.00008702,-0.00002536,-0.00003736,0
 .00006752,-0.00007356,0.00002241,0.00007058,0.00002251,0.00005467,0.00
 001047,-0.00001109,-0.00000133,-0.00004221,-0.00000899,-0.00243661,0.0
 0049961,0.00170048,0.00026093,-0.00030029,-0.00016469,0.03087119,0.012
 62857,-0.05333999,0.00000039,0.00001041,-0.00001538,-0.00000765,0.0000
 2226,0.00002129,0.00001735,-0.00001364,0.00000063,0.00000650,-0.000005
 89,0.00001296,0.00000250,-0.00000009,-0.00000092,-0.03347046,-0.013323
 59,0.05027375,0.00040462,0.02573465,0.02020918,0.00058572,-0.00005728,
 -0.00043254,0.00054413,0.00102656,-0.00080285,0.00108835,-0.00128379,-
 0.00032698,-0.00051175,-0.00074270,-0.00032029,0.00007945,-0.00007052,
 -0.00017282,0.00001048,-0.00006656,0.00001211,-0.00015771,0.00002368,0
 .00008133,0.00005737,-0.00009160,0.00003780,-0.00011217,-0.00006798,-0
 .00000392,0.00066319,-0.00152169,0.00344699,-0.00099832,0.00162723,0.0
 0104663,-0.06904525,-0.04576378,-0.06247889,-0.00007262,-0.00009003,-0
 .00003555,-0.00000258,-0.00002676,-0.00002640,-0.00003614,0.00004199,0
 .00000513,-0.00000535,0.00000844,-0.00000536,-0.00000344,-0.00001394,-
 0.00000530,-0.00515331,-0.01497383,-0.02321914,0.07185538,0.00527703,-
 0.02970784,-0.01750095,-0.00030126,0.00003489,0.00023754,-0.00238885,0
 .00078699,0.00244235,-0.00053060,0.00053073,0.00029630,0.00043086,0.00
 043605,0.00044171,-0.00008193,-0.00005804,0.00015667,-0.00003563,0.000
 12377,-0.00003630,0.00005190,-0.00001210,-0.00007347,0.00001089,0.0000
 4892,-0.00002965,0.00005688,0.00000563,-0.00000885,0.00173715,0.002494
 90,-0.00903567,0.00037576,-0.00076339,-0.00040690,-0.04013041,-0.12541
 584,-0.10867908,0.00001450,0.00007965,-0.00001716,-0.00000079,-0.00000
 045,0.00001443,0.00002034,-0.00002131,-0.00000848,0.00000457,-0.000008
 96,0.00000513,0.00000376,0.00000395,0.00000848,-0.00395284,-0.00496226
 ,-0.00938461,0.03479775,0.14431236,0.00440895,-0.00413684,0.00201911,0
 .00002562,0.00012266,0.00001986,-0.00005216,-0.00127486,0.00037586,0.0
 0007813,0.00051557,-0.00034743,-0.00007050,-0.00051612,-0.00006460,-0.
 00006761,0.00003644,0.00004339,0.00004655,0.00005269,-0.00004166,-0.00
 000983,0.00001718,0.00004203,0.00003637,0.00000747,-0.00001944,0.00000
 756,-0.00003005,-0.00000776,-0.00078916,0.00303362,0.00027255,0.000198
 57,-0.00025741,-0.00005150,-0.05732809,-0.11560121,-0.21647932,0.00004
 238,-0.00014527,0.00004008,0.00000250,0.00002346,0.00000975,0.00000745
 ,-0.00000810,0.00001119,0.00000753,-0.00000656,0.00000187,0.00000149,0
 .00000272,-0.00000235,0.00163730,0.00423452,0.00448104,0.05952223,0.12
 825381,0.22646183,-0.00370618,0.02240653,-0.02449401,-0.00006696,-0.00
 014678,0.00008848,0.00218936,-0.00143761,-0.00043887,0.00000979,-0.000
 25892,0.00006854,0.00028433,0.00081820,-0.00079548,0.00005796,-0.00000
 006,-0.00003388,-0.00028345,0.00006588,0.00005825,-0.00004014,0.000005
 13,0.00004953,0.00003778,0.00006270,0.00004742,-0.00002655,-0.00000498
 ,0.00000447,-0.00488596,0.00144704,0.00408368,0.00003361,0.00036456,-0
 .00010197,-0.04955224,-0.01765562,0.02326235,-0.00005822,0.00009839,-0
 .00003863,-0.00000196,0.00000438,-0.00002509,-0.00001775,0.00001627,-0
 .00000208,-0.00002418,0.00002062,0.00000044,-0.00000280,-0.00000314,-0
 .00000813,0.00187804,-0.01361180,0.02441412,0.00082965,0.00463290,-0.0
 0771339,0.05333797,0.00430720,-0.02384674,0.02510705,0.00004434,0.0001
 0572,-0.00003195,-0.00058119,0.00080441,0.00065014,-0.00002741,0.00022
 468,0.00006884,-0.00017479,-0.00054024,0.00097190,-0.00007300,-0.00003
 040,0.00000057,0.00031030,-0.00012129,-0.00006884,0.00007540,-0.000057
 81,-0.00006362,-0.00008349,-0.00004080,-0.00008856,0.00008155,0.000029
 19,-0.00000019,0.00413213,-0.00122764,-0.00358255,-0.00010380,-0.00033
 380,0.00006328,-0.01207390,-0.11848785,0.11567910,-0.00001159,-0.00001
 312,-0.00000905,-0.00000460,0.00001493,0.00005107,0.00002411,-0.000017
 04,-0.00000395,0.00002635,-0.00002975,0.00000500,0.00000879,-0.0000003
 7,0.00001308,-0.00066542,-0.00486701,0.00960064,0.00152677,0.01209881,
 -0.01438005,0.00325289,0.13631228,-0.00050655,-0.00388032,0.00608335,-
 0.00022400,-0.00020300,0.00014657,-0.00100039,0.00094201,0.00052033,-0
 .00027312,-0.00009285,0.00015039,-0.00000526,-0.00001970,0.00021966,-0
 .00000726,0.00000976,-0.00002716,-0.00004103,-0.00001515,0.00000939,-0
 .00001313,0.00000116,-0.00001606,-0.00001095,-0.00001502,-0.00001991,-
 0.00002415,0.00000997,0.00000533,0.00209281,-0.00183676,0.00033788,0.0
 0026928,0.00017813,-0.00020986,0.01533086,0.12611643,-0.25549314,-0.00
 002706,0.00019064,-0.00004746,-0.00000219,-0.00002912,-0.00000272,-0.0
 0001224,0.00000987,-0.00000403,-0.00000428,0.00000766,0.00000483,-0.00
 000487,0.00000136,0.00000257,-0.00052131,-0.00062470,-0.00109567,0.003
 42039,0.01331651,-0.01670519,-0.01843849,-0.13399530,0.26611284,0.0000
 2789,0.00007441,-0.00001061,0.01068264,-0.00746382,0.00734747,0.000010
 70,0.00003597,-0.00000704,-0.00034025,0.00005914,0.00044387,0.00001572
 ,-0.00007741,-0.00001667,-0.00042910,0.00011076,-0.00073550,0.00000379
 ,0.00001823,0.00004475,-0.00004755,0.00006571,0.00006140,0.00000931,-0
 .00002488,-0.00001042,-0.00002957,0.00000882,-0.00000296,0.00000844,-0
 .00009818,0.00000002,0.00140242,-0.00202721,0.00037661,-0.00000494,-0.
 00002322,-0.00002603,-0.19928266,0.10376085,-0.08937075,-0.00000007,-0
 .00000452,-0.00000080,-0.00001719,-0.00001231,0.00000271,0.00000182,0.
 00000415,0.00000342,-0.00000304,0.00000252,-0.00000205,0.00000798,0.00
 001994,0.00000539,-0.00002417,0.00000528,0.00003036,-0.00001566,-0.000
 00065,-0.00001740,0.20492457,-0.00009172,0.00025571,-0.00025545,0.0154
 3430,-0.03089491,0.01432979,-0.00011164,0.00010319,-0.00007081,-0.0024
 2256,0.00200192,0.00178527,0.00012134,-0.00007231,-0.00009922,-0.00070
 250,-0.00022640,-0.00051940,-0.00007341,-0.00009437,0.00005458,0.00006
 926,-0.00005051,0.00006005,-0.00005162,-0.00004393,-0.00000740,-0.0001
 3130,0.00003114,-0.00002803,0.00029044,-0.00030584,0.00025053,0.008516
 98,-0.00006984,-0.00365599,0.00004394,-0.00007463,0.00006108,0.0951652
 6,-0.11374501,0.05660282,-0.00000587,-0.00003059,0.00000685,-0.0001963
 6,0.00017911,0.00003945,-0.00001784,-0.00001334,0.00001151,0.00000792,
 -0.00002011,0.00000259,-0.00000518,0.00002540,-0.00000592,-0.00000533,
 -0.00000208,0.00002857,-0.00004686,0.00001495,-0.00003638,-0.10732685,
 0.13273655,-0.00001927,-0.00009975,-0.00003777,0.00664027,-0.00377412,
 0.00385673,0.00000438,-0.00004434,-0.00000141,0.00024059,-0.00174704,-
 0.00047829,-0.00001190,-0.00002971,-0.00002463,0.00012864,-0.00007626,
 -0.00021397,0.00000527,0.00002934,0.00001037,-0.00003600,-0.00004402,-
 0.00001335,0.00002544,-0.00001376,-0.00000988,0.00000243,-0.00005331,0
 .00002047,0.00002263,0.00013636,-0.00001046,-0.00238293,0.00168120,0.0
 0173853,-0.00001531,0.00005628,0.00008410,-0.08716123,0.06041776,-0.10
 128095,-0.00000290,0.00000068,0.00000274,0.00000082,0.00000815,-0.0000
 2155,0.00000097,-0.00000374,-0.00000184,0.00000156,-0.00001040,0.00000
 197,-0.00000624,-0.00002193,-0.00002329,0.00004327,0.00000936,-0.00004
 671,-0.00000465,0.00001219,0.00001254,0.09416105,-0.06292931,0.1005146
 9,0.00006201,0.00007440,0.00006634,-0.00228897,-0.00416468,-0.00527107
 ,-0.00003451,0.00004610,0.00003338,-0.00098430,0.00188354,0.00084377,0
 .00002982,0.00009789,-0.00000307,0.00004109,0.00003818,0.00056505,0.00
 001930,-0.00009156,-0.00001770,0.00001774,-0.00005095,-0.00002764,-0.0
 0007978,-0.00000071,0.00001484,0.00000516,0.00009268,-0.00005877,0.000
 01424,-0.00013037,-0.00002112,0.00340186,-0.00232609,-0.00346284,-0.00
 000865,-0.00001074,-0.00005034,-0.05037440,-0.00289075,-0.01363390,0.0
 0000048,-0.00000237,-0.00000344,-0.00000384,0.00001991,0.00005299,-0.0
 0000384,0.00000207,0.00000514,0.00000253,0.00000457,0.00000440,0.00000
 573,0.00000132,0.00000991,-0.00002431,0.00000156,-0.00000108,0.0000130
 9,0.00000168,0.00001428,-0.00089546,-0.00512956,-0.02305429,0.04663693
 ,-0.00005993,0.00013972,-0.00009783,-0.00888440,-0.02107258,-0.0314333
 1,-0.00012719,0.00005375,0.00000475,-0.00229013,0.00131267,0.00160421,
 0.00018013,0.00018129,-0.00001372,0.00021052,-0.00046642,0.00096730,0.
 00005468,-0.00021159,-0.00006066,-0.00010435,-0.00015969,0.00003452,-0
 .00016075,-0.00004294,0.00000977,0.00002403,0.00011475,0.00002200,0.00
 024162,-0.00013867,0.00013245,0.00626127,0.00060642,-0.00502837,0.0000
 4932,-0.00005637,0.00005399,-0.00312199,-0.05980484,-0.04942560,-0.000
 00825,-0.00001551,-0.00000953,-0.00007848,0.00007775,-0.00010118,-0.00
 001025,-0.00000536,-0.00000145,0.00000858,-0.00002782,0.00000204,-0.00
 000873,0.00001010,-0.00000819,0.00000275,-0.00000198,0.00000836,-0.000
 01391,0.00000493,-0.00001854,0.00030623,0.00597411,0.01562668,0.005827
 07,0.07155328,-0.00006030,-0.00003567,0.00004746,-0.00071397,-0.002993
 25,0.00755315,-0.00004909,-0.00000311,0.00007035,-0.00026544,0.0012883
 3,0.00063945,0.00005257,-0.00007373,0.00002187,-0.00054159,-0.00013095
 ,-0.00037387,-0.00001754,-0.00001905,-0.00000360,-0.00000921,0.0000837
 1,0.00006184,-0.00000495,-0.00000253,0.00000323,-0.00004430,0.00000444
 ,0.00001995,0.00004997,0.00005353,-0.00012146,0.00317237,0.00074088,-0
 .00064494,0.00004170,-0.00003608,-0.00002732,-0.01766313,-0.05818007,-
 0.30426783,-0.00000054,-0.00000674,0.00000017,-0.00004293,0.00004560,-
 0.00003507,-0.00000239,-0.00000418,0.00000058,0.00000141,-0.00000083,-
 0.00001000,-0.00000531,-0.00000516,0.00000591,0.00000876,-0.00000659,-
 0.00000018,0.00001228,-0.00000132,0.00000310,0.00094107,-0.00252282,-0
 .01181302,0.01770180,0.06327074,0.31912068,-0.00010049,-0.00001932,-0.
 00002546,-0.00509437,-0.00393994,0.00203751,-0.00009094,-0.00000931,0.
 00004172,0.00011736,-0.00100363,0.00013283,0.00005184,-0.00008990,-0.0
 0002114,-0.00018584,-0.00004985,0.00017350,-0.00001246,-0.00001586,-0.
 00002799,-0.00002708,-0.00003631,0.00002101,-0.00000458,-0.00003503,0.
 00000345,-0.00002213,-0.00002798,-0.00002457,0.00016308,0.00004638,-0.
 00001767,0.00131980,0.00054965,-0.00061075,0.00004557,-0.00002340,0.00
 003199,-0.26210851,-0.03330364,0.11390753,-0.00000397,-0.00001450,0.00
 000330,-0.00003917,-0.00000274,0.00003190,-0.00000091,-0.00000657,0.00
 000523,0.00000607,-0.00001983,0.00000339,-0.00001230,-0.00001424,-0.00
 000428,0.00002876,0.00000116,-0.00002115,0.00001046,0.00000831,0.00000
 606,-0.01600563,-0.00333084,0.01141739,0.00444805,0.00170215,-0.002561
 25,0.27751739,-0.00006374,0.00013262,-0.00007054,-0.03990177,-0.019111
 87,0.01906361,-0.00009831,0.00005744,0.00001284,0.00011974,0.00293332,
 0.00039844,0.00013813,-0.00046222,-0.00007503,-0.00156707,-0.00003013,
 0.00077363,-0.00013626,-0.00005551,-0.00002989,-0.00014968,0.00003485,
 -0.00001345,-0.00003206,-0.00000896,0.00001476,0.00005359,-0.00000383,
 -0.00005046,0.00020874,-0.00016576,0.00008353,0.00364512,-0.00717918,-
 0.00362140,0.00003820,-0.00006360,-0.00000238,-0.02116847,-0.04839729,
 0.01268772,-0.00000535,-0.00005486,0.00000633,0.00001750,-0.00004000,0
 .00005703,0.00000461,-0.00000267,0.00000530,0.00000201,-0.00002826,-0.
 00000120,-0.00000412,0.00001532,0.00000439,-0.00001406,-0.00000240,0.0
 0001941,-0.00001583,0.00000393,-0.00001666,0.01258704,0.00432178,-0.00
 913031,0.00670681,0.00197499,-0.00146515,0.03963524,0.06613229,0.00005
 990,0.00000123,0.00003586,-0.00530555,-0.00157831,0.00240783,0.0000158
 3,0.00001241,0.00000508,0.00034681,0.00106591,0.00069635,-0.00005078,-
 0.00002754,0.00002649,-0.00005592,0.00002234,0.00024865,-0.00001414,0.
 00002128,-0.00002488,0.00004287,0.00003981,-0.00003563,0.00001812,0.00
 000245,0.00000589,-0.00001975,-0.00000965,-0.00002518,-0.00005129,-0.0
 0004786,0.00000004,0.00003459,-0.00187903,-0.00021834,-0.00002693,0.00
 002584,-0.00001208,0.11638179,0.01960487,-0.11381559,-0.00000088,0.000
 00205,-0.00000206,0.00004603,0.00002205,0.00004720,0.00000067,0.000002
 24,0.00000589,-0.00000048,0.00000846,0.00000161,0.00000485,-0.00000517
 ,0.00000049,-0.00000378,0.00000543,-0.00001241,0.00000514,0.00000251,0
 .00001243,-0.01321789,-0.00310238,0.00773499,0.02629338,0.00446158,-0.
 01025046,-0.12450257,-0.01865052,0.11316782\\-0.00000630,0.00002054,0.
 00000747,0.00000140,0.00000248,-0.00000445,-0.00000219,-0.00000047,-0.
 00000065,0.00001602,-0.00000882,-0.00001416,0.00003281,0.00000687,-0.0
 0001171,0.00001664,-0.00001150,-0.00000322,-0.00001432,0.00000922,0.00
 000105,-0.00001307,0.00000318,0.00000006,0.00001820,-0.00000375,-0.000
 00117,-0.00001039,-0.00001418,-0.00000092,-0.00003284,-0.00001869,0.00
 001560,-0.00001467,0.00001887,0.00002287,0.00002083,-0.00001330,-0.000
 02103,0.00000412,-0.00000347,-0.00000336,0.00000112,-0.00000125,-0.000
 00014,0.00000089,0.00000427,-0.00000236,-0.00000163,0.00000051,-0.0000
 0152,0.00000360,0.00000415,0.00000091,-0.00000246,0.00000058,0.0000103
 3,-0.00000784,0.00000190,0.00000185,-0.00000292,-0.00000255,0.00000271
 ,-0.00000322,0.00000172,0.00000108,-0.00000269,0.00000251,0.00000056,-
 0.00000109,0.00000117,0.00000019\\\@


 QED = W**5 (WHICH WAS WHAT WE WANTED)
 Job cpu time:       0 days  4 hours 46 minutes 18.5 seconds.
 Elapsed time:       0 days  0 hours 17 minutes 58.8 seconds.
 File lengths (MBytes):  RWF=    316 Int=      0 D2E=      0 Chk=     13 Scr=      1
 Normal termination of Gaussian 16 at Wed Oct  1 20:45:31 2025.
