 Entering Gaussian System, Link 0=g16
 Input=DITE0001.gjf
 Output=DITE0001.log
 Initial command:
 /usr/local/g16/l1.exe "/dados_01/scratch/Gau-2019994.inp" -scrdir="/dados_01/scratch/"
 Entering Link 1 = /usr/local/g16/l1.exe PID=   2019995.
  
 Copyright (c) 1988-2017, Gaussian, Inc.  All Rights Reserved.
  
 This is part of the Gaussian(R) 16 program.  It is based on
 the Gaussian(R) 09 system (copyright 2009, Gaussian, Inc.),
 the Gaussian(R) 03 system (copyright 2003, Gaussian, Inc.),
 the Gaussian(R) 98 system (copyright 1998, Gaussian, Inc.),
 the Gaussian(R) 94 system (copyright 1995, Gaussian, Inc.),
 the Gaussian 92(TM) system (copyright 1992, Gaussian, Inc.),
 the Gaussian 90(TM) system (copyright 1990, Gaussian, Inc.),
 the Gaussian 88(TM) system (copyright 1988, Gaussian, Inc.),
 the Gaussian 86(TM) system (copyright 1986, Carnegie Mellon
 University), and the Gaussian 82(TM) system (copyright 1983,
 Carnegie Mellon University). Gaussian is a federally registered
 trademark of Gaussian, Inc.
  
 This software contains proprietary and confidential information,
 including trade secrets, belonging to Gaussian, Inc.
  
 This software is provided under written license and may be
 used, copied, transmitted, or stored only in accord with that
 written license.
  
 The following legend is applicable only to US Government
 contracts under FAR:
  
                    RESTRICTED RIGHTS LEGEND
  
 Use, reproduction and disclosure by the US Government is
 subject to restrictions as set forth in subparagraphs (a)
 and (c) of the Commercial Computer Software - Restricted
 Rights clause in FAR 52.227-19.
  
 Gaussian, Inc.
 340 Quinnipiac St., Bldg. 40, Wallingford CT 06492
  
  
 ---------------------------------------------------------------
 Warning -- This program may not be used in any manner that
 competes with the business of Gaussian, Inc. or will provide
 assistance to any competitor of Gaussian, Inc.  The licensee
 of this program is prohibited from giving any competitor of
 Gaussian, Inc. access to this program.  By using this program,
 the user acknowledges that Gaussian, Inc. is engaged in the
 business of creating and licensing software in the field of
 computational chemistry and represents and warrants to the
 licensee that it is not a competitor of Gaussian, Inc. and that
 it will not use this program in any manner prohibited above.
 ---------------------------------------------------------------
  

 Cite this work as:
 Gaussian 16, Revision B.01,
 M. J. Frisch, G. W. Trucks, H. B. Schlegel, G. E. Scuseria, 
 M. A. Robb, J. R. Cheeseman, G. Scalmani, V. Barone, 
 G. A. Petersson, H. Nakatsuji, X. Li, M. Caricato, A. V. Marenich, 
 J. Bloino, B. G. Janesko, R. Gomperts, B. Mennucci, H. P. Hratchian, 
 J. V. Ortiz, A. F. Izmaylov, J. L. Sonnenberg, D. Williams-Young, 
 F. Ding, F. Lipparini, F. Egidi, J. Goings, B. Peng, A. Petrone, 
 T. Henderson, D. Ranasinghe, V. G. Zakrzewski, J. Gao, N. Rega, 
 G. Zheng, W. Liang, M. Hada, M. Ehara, K. Toyota, R. Fukuda, 
 J. Hasegawa, M. Ishida, T. Nakajima, Y. Honda, O. Kitao, H. Nakai, 
 T. Vreven, K. Throssell, J. A. Montgomery, Jr., J. E. Peralta, 
 F. Ogliaro, M. J. Bearpark, J. J. Heyd, E. N. Brothers, K. N. Kudin, 
 V. N. Staroverov, T. A. Keith, R. Kobayashi, J. Normand, 
 K. Raghavachari, A. P. Rendell, J. C. Burant, S. S. Iyengar, 
 J. Tomasi, M. Cossi, J. M. Millam, M. Klene, C. Adamo, R. Cammi, 
 J. W. Ochterski, R. L. Martin, K. Morokuma, O. Farkas, 
 J. B. Foresman, and D. J. Fox, Gaussian, Inc., Wallingford CT, 2016.
 
 ******************************************
 Gaussian 16:  ES64L-G16RevB.01 20-Dec-2017
                19-Sep-2025 
 ******************************************
 %nprocs=16
 Will use up to   16 processors via shared memory.
 %mem=40GB
 %chk=DITE0001.chk
 ----------------------------------------------------------------------
 # opt freq=noraman M08HX/6-311++G** scf=xqc Empiricaldispersion=pfd In
 t(Grid=ultraFine)
 ----------------------------------------------------------------------
 1/18=20,19=15,26=4,38=1/1,3;
 2/9=110,12=2,17=6,18=5,40=1/2;
 3/5=4,6=6,7=1111,11=2,25=1,30=1,71=1,74=-74,75=-5,124=11/1,2,3;
 4//1;
 5/5=2,8=3,13=1,38=5/2,8;
 6/7=2,8=2,9=2,10=2,28=1/1;
 7//1,2,3,16;
 1/18=20,19=15,26=4/3(2);
 2/9=110/2;
 99//99;
 2/9=110/2;
 3/5=4,6=6,7=1111,11=2,25=1,30=1,71=1,74=-74,75=-5,124=11/1,2,3;
 4/5=5,16=3,69=1/1;
 5/5=2,8=3,13=1,38=5/2,8;
 7//1,2,3,16;
 1/18=20,19=15,26=4/3(-5);
 2/9=110/2;
 6/7=2,8=2,9=2,10=2,19=2,28=1/1;
 99/9=1/99;
 --------
 DITE0001
 --------
 Symbolic Z-matrix:
 Charge =  0 Multiplicity = 1
 O                    -1.56      2.2805    0.0047 
 O                     1.5378   -2.2822    0.0041 
 C                    -2.8884   -0.2487    0.0044 
 C                     2.8662    0.2466    0.0045 
 C                    -1.3572   -0.1074    0.0056 
 C                     1.3794    0.1095    0.0049 
 C                    -0.802     1.148     0.0051 
 C                     0.7798   -1.15      0.0054 
 C                    -0.6106   -1.2605    0.0057 
 C                     0.5884    1.2584    0.0048 
 C                    -3.2719   -1.7444    0.0036 
 C                    -3.4715    0.4256   -1.2563 
 C                    -3.5769    0.3981    1.2276 
 C                     3.2942    1.7463    0.0041 
 C                     3.4943   -0.4235   -1.2559 
 C                     3.5983   -0.3964    1.228 
 H                    -0.9994   -2.2698    0.0072 
 H                     0.9904    2.2643    0.0061 
 H                    -2.9357   -2.2695    0.9058 
 H                    -2.9212   -2.2713   -0.8921 
 H                    -4.3652   -1.8496   -0.0088 
 H                    -3.3979    1.5163   -1.2496 
 H                    -4.5382    0.1911   -1.3603 
 H                    -2.9713    0.0649   -2.1632 
 H                    -3.4611    1.4851    1.2613 
 H                    -3.1624   -0.001     2.1609 
 H                    -4.6543    0.1945    1.2284 
 H                     4.3887    1.8321   -0.0103 
 H                     2.9435    2.2778   -0.8888 
 H                     2.9603    2.2746    0.9052 
 H                     3.0206   -0.0323   -2.1653 
 H                     4.5614   -0.1758   -1.3246 
 H                     3.4398   -1.5106   -1.3155 
 H                     4.6683   -0.1531    1.2073 
 H                     3.1924    0.0191    2.1589 
 H                     3.5426   -1.4799    1.3258 
 H                    -0.9764    3.0584    0.004 
 H                     2.4807   -2.1398    0.0867 
 

 GradGradGradGradGradGradGradGradGradGradGradGradGradGradGradGradGradGrad
 Berny optimization.
 Initialization pass.
                           ----------------------------
                           !    Initial Parameters    !
                           ! (Angstroms and Degrees)  !
 --------------------------                            --------------------------
 ! Name  Definition              Value          Derivative Info.                !
 --------------------------------------------------------------------------------
 ! R1    R(1,7)                  1.3628         estimate D2E/DX2                !
 ! R2    R(1,37)                 0.9725         estimate D2E/DX2                !
 ! R3    R(2,8)                  1.3625         estimate D2E/DX2                !
 ! R4    R(2,38)                 0.9572         estimate D2E/DX2                !
 ! R5    R(3,5)                  1.5377         estimate D2E/DX2                !
 ! R6    R(3,11)                 1.5441         estimate D2E/DX2                !
 ! R7    R(3,12)                 1.544          estimate D2E/DX2                !
 ! R8    R(3,13)                 1.5455         estimate D2E/DX2                !
 ! R9    R(4,6)                  1.4931         estimate D2E/DX2                !
 ! R10   R(4,14)                 1.5596         estimate D2E/DX2                !
 ! R11   R(4,15)                 1.5595         estimate D2E/DX2                !
 ! R12   R(4,16)                 1.5641         estimate D2E/DX2                !
 ! R13   R(5,7)                  1.3727         estimate D2E/DX2                !
 ! R14   R(5,9)                  1.3737         estimate D2E/DX2                !
 ! R15   R(6,8)                  1.3949         estimate D2E/DX2                !
 ! R16   R(6,10)                 1.3949         estimate D2E/DX2                !
 ! R17   R(7,10)                 1.3948         estimate D2E/DX2                !
 ! R18   R(8,9)                  1.3948         estimate D2E/DX2                !
 ! R19   R(9,17)                 1.0816         estimate D2E/DX2                !
 ! R20   R(10,18)                1.0833         estimate D2E/DX2                !
 ! R21   R(11,19)                1.0967         estimate D2E/DX2                !
 ! R22   R(11,20)                1.0968         estimate D2E/DX2                !
 ! R23   R(11,21)                1.0984         estimate D2E/DX2                !
 ! R24   R(12,22)                1.0932         estimate D2E/DX2                !
 ! R25   R(12,23)                1.0971         estimate D2E/DX2                !
 ! R26   R(12,24)                1.0967         estimate D2E/DX2                !
 ! R27   R(13,25)                1.0937         estimate D2E/DX2                !
 ! R28   R(13,26)                1.0964         estimate D2E/DX2                !
 ! R29   R(13,27)                1.0965         estimate D2E/DX2                !
 ! R30   R(14,28)                1.098          estimate D2E/DX2                !
 ! R31   R(14,29)                1.0967         estimate D2E/DX2                !
 ! R32   R(14,30)                1.0966         estimate D2E/DX2                !
 ! R33   R(15,31)                1.0975         estimate D2E/DX2                !
 ! R34   R(15,32)                1.0976         estimate D2E/DX2                !
 ! R35   R(15,33)                1.0901         estimate D2E/DX2                !
 ! R36   R(16,34)                1.0975         estimate D2E/DX2                !
 ! R37   R(16,35)                1.0973         estimate D2E/DX2                !
 ! R38   R(16,36)                1.0893         estimate D2E/DX2                !
 ! A1    A(7,1,37)             109.3268         estimate D2E/DX2                !
 ! A2    A(8,2,38)             115.1081         estimate D2E/DX2                !
 ! A3    A(5,3,11)             109.6533         estimate D2E/DX2                !
 ! A4    A(5,3,12)             109.6672         estimate D2E/DX2                !
 ! A5    A(5,3,13)             113.8614         estimate D2E/DX2                !
 ! A6    A(11,3,12)            109.1966         estimate D2E/DX2                !
 ! A7    A(11,3,13)            107.1669         estimate D2E/DX2                !
 ! A8    A(12,3,13)            107.1706         estimate D2E/DX2                !
 ! A9    A(6,4,14)             111.1967         estimate D2E/DX2                !
 ! A10   A(6,4,15)             111.2113         estimate D2E/DX2                !
 ! A11   A(6,4,16)             115.3491         estimate D2E/DX2                !
 ! A12   A(14,4,15)            107.6047         estimate D2E/DX2                !
 ! A13   A(14,4,16)            105.4897         estimate D2E/DX2                !
 ! A14   A(15,4,16)            105.4886         estimate D2E/DX2                !
 ! A15   A(3,5,7)              119.1297         estimate D2E/DX2                !
 ! A16   A(3,5,9)              117.6496         estimate D2E/DX2                !
 ! A17   A(7,5,9)              123.2207         estimate D2E/DX2                !
 ! A18   A(4,6,8)              120.7258         estimate D2E/DX2                !
 ! A19   A(4,6,10)             119.2784         estimate D2E/DX2                !
 ! A20   A(8,6,10)             119.9958         estimate D2E/DX2                !
 ! A21   A(1,7,5)              122.3476         estimate D2E/DX2                !
 ! A22   A(1,7,10)             119.2552         estimate D2E/DX2                !
 ! A23   A(5,7,10)             118.3972         estimate D2E/DX2                !
 ! A24   A(2,8,6)              120.7406         estimate D2E/DX2                !
 ! A25   A(2,8,9)              119.2581         estimate D2E/DX2                !
 ! A26   A(6,8,9)              120.0013         estimate D2E/DX2                !
 ! A27   A(5,9,8)              118.378          estimate D2E/DX2                !
 ! A28   A(5,9,17)             126.0105         estimate D2E/DX2                !
 ! A29   A(8,9,17)             115.6115         estimate D2E/DX2                !
 ! A30   A(6,10,7)             120.007          estimate D2E/DX2                !
 ! A31   A(6,10,18)            123.6694         estimate D2E/DX2                !
 ! A32   A(7,10,18)            116.3235         estimate D2E/DX2                !
 ! A33   A(3,11,19)            112.7827         estimate D2E/DX2                !
 ! A34   A(3,11,20)            112.7285         estimate D2E/DX2                !
 ! A35   A(3,11,21)            109.8762         estimate D2E/DX2                !
 ! A36   A(19,11,20)           110.1083         estimate D2E/DX2                !
 ! A37   A(19,11,21)           105.5786         estimate D2E/DX2                !
 ! A38   A(20,11,21)           105.2504         estimate D2E/DX2                !
 ! A39   A(3,12,22)            113.9089         estimate D2E/DX2                !
 ! A40   A(3,12,23)            110.5627         estimate D2E/DX2                !
 ! A41   A(3,12,24)            111.0579         estimate D2E/DX2                !
 ! A42   A(22,12,23)           106.2181         estimate D2E/DX2                !
 ! A43   A(22,12,24)           107.6079         estimate D2E/DX2                !
 ! A44   A(23,12,24)           107.1433         estimate D2E/DX2                !
 ! A45   A(3,13,25)            113.1518         estimate D2E/DX2                !
 ! A46   A(3,13,26)            110.6681         estimate D2E/DX2                !
 ! A47   A(3,13,27)            111.1373         estimate D2E/DX2                !
 ! A48   A(25,13,26)           107.189          estimate D2E/DX2                !
 ! A49   A(25,13,27)           106.7725         estimate D2E/DX2                !
 ! A50   A(26,13,27)           107.6536         estimate D2E/DX2                !
 ! A51   A(4,14,28)            110.409          estimate D2E/DX2                !
 ! A52   A(4,14,29)            112.2395         estimate D2E/DX2                !
 ! A53   A(4,14,30)            112.3019         estimate D2E/DX2                !
 ! A54   A(28,14,29)           105.6775         estimate D2E/DX2                !
 ! A55   A(28,14,30)           106.0606         estimate D2E/DX2                !
 ! A56   A(29,14,30)           109.7653         estimate D2E/DX2                !
 ! A57   A(4,15,31)            110.041          estimate D2E/DX2                !
 ! A58   A(4,15,32)            110.192          estimate D2E/DX2                !
 ! A59   A(4,15,33)            116.9074         estimate D2E/DX2                !
 ! A60   A(31,15,32)           106.6976         estimate D2E/DX2                !
 ! A61   A(31,15,33)           106.7737         estimate D2E/DX2                !
 ! A62   A(32,15,33)           105.6781         estimate D2E/DX2                !
 ! A63   A(4,16,34)            110.5147         estimate D2E/DX2                !
 ! A64   A(4,16,35)            109.562          estimate D2E/DX2                !
 ! A65   A(4,16,36)            117.0777         estimate D2E/DX2                !
 ! A66   A(34,16,35)           107.0201         estimate D2E/DX2                !
 ! A67   A(34,16,36)           105.7858         estimate D2E/DX2                !
 ! A68   A(35,16,36)           106.3535         estimate D2E/DX2                !
 ! D1    D(37,1,7,5)          -179.9762         estimate D2E/DX2                !
 ! D2    D(37,1,7,10)            0.0143         estimate D2E/DX2                !
 ! D3    D(38,2,8,6)             5.5508         estimate D2E/DX2                !
 ! D4    D(38,2,8,9)          -174.5221         estimate D2E/DX2                !
 ! D5    D(11,3,5,7)           179.9356         estimate D2E/DX2                !
 ! D6    D(11,3,5,9)             0.0032         estimate D2E/DX2                !
 ! D7    D(12,3,5,7)            60.04           estimate D2E/DX2                !
 ! D8    D(12,3,5,9)          -119.8924         estimate D2E/DX2                !
 ! D9    D(13,3,5,7)           -60.0196         estimate D2E/DX2                !
 ! D10   D(13,3,5,9)           120.048          estimate D2E/DX2                !
 ! D11   D(5,3,11,19)           63.1511         estimate D2E/DX2                !
 ! D12   D(5,3,11,20)          -62.3149         estimate D2E/DX2                !
 ! D13   D(5,3,11,21)         -179.3598         estimate D2E/DX2                !
 ! D14   D(12,3,11,19)        -176.6662         estimate D2E/DX2                !
 ! D15   D(12,3,11,20)          57.8678         estimate D2E/DX2                !
 ! D16   D(12,3,11,21)         -59.1771         estimate D2E/DX2                !
 ! D17   D(13,3,11,19)         -60.898          estimate D2E/DX2                !
 ! D18   D(13,3,11,20)         173.6361         estimate D2E/DX2                !
 ! D19   D(13,3,11,21)          56.5911         estimate D2E/DX2                !
 ! D20   D(5,3,12,22)          -69.9508         estimate D2E/DX2                !
 ! D21   D(5,3,12,23)          170.5373         estimate D2E/DX2                !
 ! D22   D(5,3,12,24)           51.7353         estimate D2E/DX2                !
 ! D23   D(11,3,12,22)         169.875          estimate D2E/DX2                !
 ! D24   D(11,3,12,23)          50.3631         estimate D2E/DX2                !
 ! D25   D(11,3,12,24)         -68.4389         estimate D2E/DX2                !
 ! D26   D(13,3,12,22)          54.1092         estimate D2E/DX2                !
 ! D27   D(13,3,12,23)         -65.4027         estimate D2E/DX2                !
 ! D28   D(13,3,12,24)         175.7953         estimate D2E/DX2                !
 ! D29   D(5,3,13,25)           64.965          estimate D2E/DX2                !
 ! D30   D(5,3,13,26)          -55.3546         estimate D2E/DX2                !
 ! D31   D(5,3,13,27)         -174.9154         estimate D2E/DX2                !
 ! D32   D(11,3,13,25)        -173.5984         estimate D2E/DX2                !
 ! D33   D(11,3,13,26)          66.0819         estimate D2E/DX2                !
 ! D34   D(11,3,13,27)         -53.4788         estimate D2E/DX2                !
 ! D35   D(12,3,13,25)         -56.4917         estimate D2E/DX2                !
 ! D36   D(12,3,13,26)        -176.8114         estimate D2E/DX2                !
 ! D37   D(12,3,13,27)          63.6278         estimate D2E/DX2                !
 ! D38   D(14,4,6,8)          -179.995          estimate D2E/DX2                !
 ! D39   D(14,4,6,10)            0.0035         estimate D2E/DX2                !
 ! D40   D(15,4,6,8)            60.1056         estimate D2E/DX2                !
 ! D41   D(15,4,6,10)         -119.8958         estimate D2E/DX2                !
 ! D42   D(16,4,6,8)           -59.9496         estimate D2E/DX2                !
 ! D43   D(16,4,6,10)          120.0489         estimate D2E/DX2                !
 ! D44   D(6,4,14,28)         -179.2144         estimate D2E/DX2                !
 ! D45   D(6,4,14,29)          -61.5927         estimate D2E/DX2                !
 ! D46   D(6,4,14,30)           62.6433         estimate D2E/DX2                !
 ! D47   D(15,4,14,28)         -57.1964         estimate D2E/DX2                !
 ! D48   D(15,4,14,29)          60.4254         estimate D2E/DX2                !
 ! D49   D(15,4,14,30)        -175.3387         estimate D2E/DX2                !
 ! D50   D(16,4,14,28)          55.0545         estimate D2E/DX2                !
 ! D51   D(16,4,14,29)         172.6763         estimate D2E/DX2                !
 ! D52   D(16,4,14,30)         -63.0878         estimate D2E/DX2                !
 ! D53   D(6,4,15,31)           53.5084         estimate D2E/DX2                !
 ! D54   D(6,4,15,32)          170.8971         estimate D2E/DX2                !
 ! D55   D(6,4,15,33)          -68.4708         estimate D2E/DX2                !
 ! D56   D(14,4,15,31)         -68.5005         estimate D2E/DX2                !
 ! D57   D(14,4,15,32)          48.8882         estimate D2E/DX2                !
 ! D58   D(14,4,15,33)         169.5203         estimate D2E/DX2                !
 ! D59   D(16,4,15,31)         179.2478         estimate D2E/DX2                !
 ! D60   D(16,4,15,32)         -63.3635         estimate D2E/DX2                !
 ! D61   D(16,4,15,33)          57.2686         estimate D2E/DX2                !
 ! D62   D(6,4,16,34)         -173.6063         estimate D2E/DX2                !
 ! D63   D(6,4,16,35)          -55.92           estimate D2E/DX2                !
 ! D64   D(6,4,16,36)           65.2282         estimate D2E/DX2                !
 ! D65   D(14,4,16,34)         -50.4816         estimate D2E/DX2                !
 ! D66   D(14,4,16,35)          67.2047         estimate D2E/DX2                !
 ! D67   D(14,4,16,36)        -171.6471         estimate D2E/DX2                !
 ! D68   D(15,4,16,34)          63.2511         estimate D2E/DX2                !
 ! D69   D(15,4,16,35)        -179.0627         estimate D2E/DX2                !
 ! D70   D(15,4,16,36)         -57.9144         estimate D2E/DX2                !
 ! D71   D(3,5,7,1)              0.0561         estimate D2E/DX2                !
 ! D72   D(3,5,7,10)          -179.9345         estimate D2E/DX2                !
 ! D73   D(9,5,7,1)            179.9846         estimate D2E/DX2                !
 ! D74   D(9,5,7,10)            -0.006          estimate D2E/DX2                !
 ! D75   D(3,5,9,8)            179.9354         estimate D2E/DX2                !
 ! D76   D(3,5,9,17)            -0.1435         estimate D2E/DX2                !
 ! D77   D(7,5,9,8)              0.006          estimate D2E/DX2                !
 ! D78   D(7,5,9,17)           179.927          estimate D2E/DX2                !
 ! D79   D(4,6,8,2)             -0.0702         estimate D2E/DX2                !
 ! D80   D(4,6,8,9)           -179.9967         estimate D2E/DX2                !
 ! D81   D(10,6,8,2)           179.9313         estimate D2E/DX2                !
 ! D82   D(10,6,8,9)             0.0047         estimate D2E/DX2                !
 ! D83   D(4,6,10,7)           179.9967         estimate D2E/DX2                !
 ! D84   D(4,6,10,18)           -0.1053         estimate D2E/DX2                !
 ! D85   D(8,6,10,7)            -0.0047         estimate D2E/DX2                !
 ! D86   D(8,6,10,18)          179.8933         estimate D2E/DX2                !
 ! D87   D(1,7,10,6)          -179.9857         estimate D2E/DX2                !
 ! D88   D(1,7,10,18)            0.109          estimate D2E/DX2                !
 ! D89   D(5,7,10,6)             0.0052         estimate D2E/DX2                !
 ! D90   D(5,7,10,18)         -179.9001         estimate D2E/DX2                !
 ! D91   D(2,8,9,5)           -179.9328         estimate D2E/DX2                !
 ! D92   D(2,8,9,17)             0.138          estimate D2E/DX2                !
 ! D93   D(6,8,9,5)             -0.0052         estimate D2E/DX2                !
 ! D94   D(6,8,9,17)          -179.9344         estimate D2E/DX2                !
 --------------------------------------------------------------------------------
 Trust Radius=3.00D-01 FncErr=1.00D-07 GrdErr=1.00D-06 EigMax=2.50D+02 EigMin=1.00D-04
 Number of steps in this run=    210 maximum allowed number of steps=    228.
 GradGradGradGradGradGradGradGradGradGradGradGradGradGradGradGradGradGrad

                          Input orientation:                          
 ---------------------------------------------------------------------
 Center     Atomic      Atomic             Coordinates (Angstroms)
 Number     Number       Type             X           Y           Z
 ---------------------------------------------------------------------
      1          8           0       -1.560000    2.280500    0.004700
      2          8           0        1.537800   -2.282200    0.004100
      3          6           0       -2.888400   -0.248700    0.004400
      4          6           0        2.866200    0.246600    0.004500
      5          6           0       -1.357200   -0.107400    0.005600
      6          6           0        1.379400    0.109500    0.004900
      7          6           0       -0.802000    1.148000    0.005100
      8          6           0        0.779800   -1.150000    0.005400
      9          6           0       -0.610600   -1.260500    0.005700
     10          6           0        0.588400    1.258400    0.004800
     11          6           0       -3.271900   -1.744400    0.003600
     12          6           0       -3.471500    0.425600   -1.256300
     13          6           0       -3.576900    0.398100    1.227600
     14          6           0        3.294200    1.746300    0.004100
     15          6           0        3.494300   -0.423500   -1.255900
     16          6           0        3.598300   -0.396400    1.228000
     17          1           0       -0.999400   -2.269800    0.007200
     18          1           0        0.990400    2.264300    0.006100
     19          1           0       -2.935700   -2.269500    0.905800
     20          1           0       -2.921200   -2.271300   -0.892100
     21          1           0       -4.365200   -1.849600   -0.008800
     22          1           0       -3.397900    1.516300   -1.249600
     23          1           0       -4.538200    0.191100   -1.360300
     24          1           0       -2.971300    0.064900   -2.163200
     25          1           0       -3.461100    1.485100    1.261300
     26          1           0       -3.162400   -0.001000    2.160900
     27          1           0       -4.654300    0.194500    1.228400
     28          1           0        4.388700    1.832100   -0.010300
     29          1           0        2.943500    2.277800   -0.888800
     30          1           0        2.960300    2.274600    0.905200
     31          1           0        3.020600   -0.032300   -2.165300
     32          1           0        4.561400   -0.175800   -1.324600
     33          1           0        3.439800   -1.510600   -1.315500
     34          1           0        4.668300   -0.153100    1.207300
     35          1           0        3.192400    0.019100    2.158900
     36          1           0        3.542600   -1.479900    1.325800
     37          1           0       -0.976400    3.058400    0.004000
     38          1           0        2.480700   -2.139800    0.086700
 ---------------------------------------------------------------------
                    Distance matrix (angstroms):
                    1          2          3          4          5
     1  O    0.000000
     2  O    5.514943   0.000000
     3  C    2.856834   4.870972   0.000000
     4  C    4.871139   2.856480   5.775876   0.000000
     5  C    2.396496   3.620881   1.537706   4.238210   0.000000
     6  C    3.654219   2.396940   4.282806   1.493108   2.745182
     7  C    1.362762   4.152221   2.510744   3.777329   1.372689
     8  C    4.152469   1.362513   3.777305   2.510689   2.377769
     9  C    3.666066   2.378970   2.492411   3.789392   1.373700
    10  C    2.379141   3.665680   3.789392   2.492411   2.377135
    11  C    4.373834   4.839674   1.544083   6.452934   2.519097
    12  C    2.946966   5.832142   1.544037   6.464372   2.519275
    13  C    3.017747   5.902636   1.545510   6.559913   2.583773
    14  C    4.883506   4.394742   6.496504   1.559578   5.007168
    15  C    5.869129   2.978298   6.508285   1.559536   5.022783
    16  C    5.938882   3.049563   6.602749   1.564088   5.112217
    17  H    4.584704   2.537232   2.766437   4.612498   2.191802
    18  H    2.550452   4.579335   4.621716   2.754949   3.337093
    19  H    4.838081   4.563488   2.213231   6.387890   2.824305
    20  H    4.834873   4.548184   2.212623   6.374771   2.816811
    21  H    4.992700   5.918844   2.178071   7.529102   3.476138
    22  H    2.352689   6.353070   2.224260   6.513360   2.894199
    23  H    3.885678   6.700491   2.185788   7.529336   3.474701
    24  H    3.405942   5.526124   2.191736   6.229634   2.709003
    25  H    2.413687   6.384521   2.216719   6.568725   2.922197
    26  H    3.524504   5.652215   2.187904   6.407448   2.813430
    27  H    3.927280   6.780491   2.193856   7.619617   3.529483
    28  H    5.965595   5.005527   7.568760   2.198189   6.064427
    29  H    4.591281   4.854571   6.418105   2.220300   4.998515
    30  H    4.609127   4.857974   6.433178   2.221013   5.012386
    31  H    5.571341   3.459341   6.298469   2.193093   4.887083
    32  H    6.728446   3.917208   7.567766   2.195138   6.066625
    33  H    6.411971   2.440146   6.586398   2.271380   5.169670
    34  H    6.794143   3.972504   7.652439   2.203191   6.144332
    35  H    5.686810   3.560456   6.456757   2.190799   5.035034
    36  H    6.474754   2.531758   6.679799   2.276873   5.256874
    37  H    0.972480   5.902814   3.820033   4.761491   3.188621
    38  H    5.989410   0.957163   5.693002   2.418734   4.343582
                    6          7          8          9         10
     6  C    0.000000
     7  C    2.415986   0.000000
     8  C    1.394941   2.789784   0.000000
     9  C    2.415989   2.416093   1.394784   0.000000
    10  C    1.394866   1.394776   2.415994   2.789706   0.000000
    11  C    5.007149   3.803470   4.095069   2.704936   4.890677
    12  C    5.022129   3.039609   4.706161   3.552510   4.332057
    13  C    5.113042   3.123608   4.782387   3.611500   4.425503
    14  C    2.519042   4.139664   3.835461   4.928317   2.749436
    15  C    2.519228   4.745306   3.080128   4.375204   3.586420
    16  C    2.583685   4.821130   3.163322   4.467161   3.646105
    17  H    3.364486   3.423496   2.102263   1.081598   3.869019
    18  H    2.189631   2.111593   3.420789   3.871358   1.083255
    19  H    5.009127   4.128346   3.983584   2.689675   5.067264
    20  H    4.996797   4.121600   3.969914   2.677057   5.057717
    21  H    6.069488   4.656414   5.192366   3.800562   5.847906
    22  H    5.135704   2.906650   5.112471   4.129823   4.186958
    23  H    6.073584   4.091352   5.651974   4.404446   5.411530
    24  H    4.861197   3.252767   4.499951   3.468965   4.335450
    25  H    5.186642   2.960150   5.148424   4.152132   4.246014
    26  H    5.028767   3.396934   4.637599   3.569721   4.505925
    27  H    6.157086   4.152811   5.729996   4.468057   5.487712
    28  H    3.467487   5.235609   4.681594   5.878557   3.843389
    29  H    2.818977   4.013013   4.151024   5.094244   2.717387
    30  H    2.827975   4.029182   4.158378   5.104641   2.733001
    31  H    2.724594   4.551485   3.313967   4.405375   3.505829
    32  H    3.460360   5.682131   4.125344   5.449390   4.428201
    33  H    2.934864   5.177355   2.991723   4.267770   4.188202
    34  H    3.511636   5.749985   4.190323   5.526026   4.481509
    35  H    2.816888   4.676377   3.438749   4.553730   3.599559
    36  H    2.991722   5.246490   3.079830   4.363470   4.239177
    37  H    3.774362   1.918344   4.560139   4.334364   2.385079
    38  H    2.505774   4.646763   1.969613   3.214944   3.890407
                   11         12         13         14         15
    11  C    0.000000
    12  C    2.517159   0.000000
    13  C    2.486264   2.486287   0.000000
    14  C    7.436307   7.007678   7.108207   0.000000
    15  C    7.008037   7.017360   7.539540   2.517076   0.000000
    16  C    7.107454   7.538535   7.219053   2.486277   2.486224
    17  H    2.332448   3.869482   3.905198   5.879122   5.019720
    18  H    5.851229   4.988289   5.082814   2.361318   3.884125
    19  H    1.096688   3.496473   2.762387   7.466684   7.030332
    20  H    1.096765   2.776462   3.471133   7.454896   6.686206
    21  H    1.098420   2.744356   2.683702   8.461505   8.084600
    22  H    3.495504   1.093201   2.723772   6.812405   7.159978
    23  H    2.685126   1.097112   2.768424   8.101032   8.056655
    24  H    2.838829   1.096710   3.460534   6.839648   6.547191
    25  H    3.470919   2.731475   1.093670   6.876253   7.639152
    26  H    2.775856   3.457569   1.096421   7.027982   7.494310
    27  H    2.677779   2.761550   1.096469   8.190583   8.541273
    28  H    8.454368   8.081677   8.187767   1.097952   2.727490
    29  H    7.456921   6.687146   7.108308   1.096701   2.781216
    30  H    7.470312   7.032705   6.808831   1.096618   3.497893
    31  H    6.872479   6.571401   7.431287   2.818612   1.097469
    32  H    8.098470   8.055671   8.548392   2.658140   1.097624
    33  H    6.844093   7.177635   7.703543   3.517093   1.090096
    34  H    8.187057   8.524117   8.263629   2.635064   2.742033
    35  H    7.038638   7.499093   6.843565   2.763466   3.456573
    36  H    6.946624   7.713350   7.363682   3.495277   2.789890
    37  H    5.323177   3.839989   3.916247   4.467620   5.805009
    38  H    5.766771   6.619185   6.666116   3.971194   2.403257
                   16         17         18         19         20
    16  C    0.000000
    17  H    5.112614   0.000000
    18  H    3.920906   4.951502   0.000000
    19  H    6.804812   2.134652   6.064574   0.000000
    20  H    7.107317   2.121805   6.056323   1.797959   0.000000
    21  H    8.188944   3.391966   6.753284   1.748222   1.744473
    22  H    7.664446   4.654772   4.625307   4.380829   3.834183
    23  H    8.558451   4.522078   6.060580   3.709147   2.982837
    24  H    7.407610   3.748313   5.023772   3.856093   2.660082
    25  H    7.305907   4.661760   4.690259   3.807814   4.363389
    26  H    6.836206   3.803215   5.198124   2.602453   3.812250
    27  H    8.273728   4.574101   6.135204   3.021416   3.685149
    28  H    2.669144   6.771817   3.425713   8.444477   8.429122
    29  H    3.472888   6.085223   2.148401   7.646144   7.422198
    30  H    2.765047   6.094030   2.165408   7.443901   7.647714
    31  H    3.461328   5.087884   3.756469   7.065000   6.476044
    32  H    2.737150   6.089419   4.525140   8.097208   7.782511
    33  H    2.781359   4.693870   4.689995   6.793902   6.420300
    34  H    1.097508   6.167940   4.562198   7.898789   8.154432
    35  H    1.097256   5.238326   3.811073   6.660447   7.206292
    36  H    1.089330   4.795040   4.719573   6.539743   6.879397
    37  H    5.861885   5.328251   2.121061   5.747923   5.743774
    38  H    2.364538   3.483435   4.650117   5.479520   5.491436
                   21         22         23         24         25
    21  H    0.000000
    22  H    3.715446   0.000000
    23  H    2.453760   1.751769   0.000000
    24  H    3.201516   1.767262   1.765149   0.000000
    25  H    3.681138   2.511889   3.115665   3.739528   0.000000
    26  H    3.093808   3.740210   3.785311   4.328822   1.762667
    27  H    2.406779   3.076716   2.591304   3.788434   1.757970
    28  H    9.496614   7.890927   9.176324   7.869407   7.959694
    29  H    8.439605   6.397141   7.781546   6.442506   6.802221
    30  H    8.456203   6.756100   8.105613   7.034325   6.479544
    31  H    7.905891   6.665869   7.604827   5.992689   7.487091
    32  H    9.176989   8.137523   9.107064   7.583057   8.591040
    33  H    7.920884   7.478008   8.157590   6.656050   7.952140
    34  H    9.271523   8.595745   9.564031   8.352921   8.292995
    35  H    8.081354   7.569117   8.495677   7.528203   6.871965
    36  H    8.028146   7.986266   8.677943   7.549200   7.605735
    37  H    5.964276   3.132610   4.771702   4.199693   3.198407
    38  H    6.852714   7.050582   7.536037   6.296591   7.058652
                   26         27         28         29         30
    26  H    0.000000
    27  H    1.770181   0.000000
    28  H    8.068053   9.273185   0.000000
    29  H    7.195527   8.157772   1.749004   0.000000
    30  H    6.651511   7.900216   1.753361   1.794082   0.000000
    31  H    7.546289   8.394804   3.160967   2.640447   3.841015
    32  H    8.475633   9.569956   2.406008   2.971140   3.679672
    33  H    7.612706   8.654089   3.711819   3.844524   4.414654
    34  H    7.890016   9.329102   2.345580   3.643878   2.983665
    35  H    6.354832   7.903626   3.069777   3.801599   2.590929
    36  H    6.916760   8.366736   3.670203   4.402690   3.822597
    37  H    4.334829   4.819546   5.503482   4.095369   4.113892
    38  H    6.381328   7.593462   4.407478   4.547634   4.515184
                   31         32         33         34         35
    31  H    0.000000
    32  H    1.761089   0.000000
    33  H    1.755921   1.743491   0.000000
    34  H    3.755521   2.534257   3.117136   0.000000
    35  H    4.327917   3.747922   3.804293   1.764505   0.000000
    36  H    3.815208   3.124620   2.643478   1.744030   1.750342
    37  H    5.498572   6.549233   6.489966   6.604870   5.591049
    38  H    3.131222   3.190357   1.811610   3.160430   3.075935
                   36         37         38
    36  H    0.000000
    37  H    6.539471   0.000000
    38  H    1.760247   6.243370   0.000000
 Stoichiometry    C14H22O2
 Framework group  C1[X(C14H22O2)]
 Deg. of freedom   108
 Full point group                 C1      NOp   1
 Largest Abelian subgroup         C1      NOp   1
 Largest concise Abelian subgroup C1      NOp   1
                         Standard orientation:                         
 ---------------------------------------------------------------------
 Center     Atomic      Atomic             Coordinates (Angstroms)
 Number     Number       Type             X           Y           Z
 ---------------------------------------------------------------------
      1          8           0        1.572023    2.273784   -0.008695
      2          8           0       -1.520945   -2.292188   -0.001764
      3          6           0        2.903100   -0.254007   -0.005903
      4          6           0       -2.852021    0.235203   -0.004656
      5          6           0        1.371751   -0.114329   -0.006756
      6          6           0       -1.365077    0.099676   -0.005393
      7          6           0        0.815222    1.140483   -0.007528
      8          6           0       -0.764144   -1.159189   -0.004632
      9          6           0        0.626372   -1.268218   -0.005268
     10          6           0       -0.575293    1.249412   -0.006891
     11          6           0        3.288183   -1.749299   -0.003495
     12          6           0        3.485905    0.422373    1.253818
     13          6           0        3.590508    0.392100   -1.230083
     14          6           0       -3.281608    1.734449   -0.005854
     15          6           0       -3.478992   -0.434097    1.256731
     16          6           0       -3.583847   -0.409991   -1.227164
     17          1           0        1.016239   -2.277107   -0.005726
     18          1           0       -0.978358    2.254884   -0.009224
     19          1           0        2.952239   -2.275801   -0.904973
     20          1           0        2.938339   -2.275529    0.892933
     21          1           0        4.381598   -1.853328    0.008661
     22          1           0        3.411149    1.512986    1.245877
     23          1           0        4.552887    0.189122    1.357734
     24          1           0        2.986389    0.062197    2.161303
     25          1           0        3.473546    1.478937   -1.265006
     26          1           0        3.176120   -0.008522   -2.162781
     27          1           0        4.668122    0.189639   -1.231007
     28          1           0       -4.376193    1.819108    0.008813
     29          1           0       -2.931173    2.267356    0.886312
     30          1           0       -2.948567    2.262055   -0.907678
     31          1           0       -3.005403   -0.041340    2.165518
     32          1           0       -4.546330   -0.187447    1.325500
     33          1           0       -3.423321   -1.521069    1.317575
     34          1           0       -4.654097   -0.167799   -1.206389
     35          1           0       -3.178697    0.004857   -2.158681
     36          1           0       -3.527033   -1.493544   -1.323725
     37          1           0        0.987601    3.051066   -0.008703
     38          1           0       -2.464023   -2.150881   -0.084214
 ---------------------------------------------------------------------
 Rotational constants (GHZ):           1.0318663           0.3224638           0.2749499
 Standard basis: 6-311++G(d,p) (5D, 7F)
 There are   522 symmetry adapted cartesian basis functions of A   symmetry.
 There are   506 symmetry adapted basis functions of A   symmetry.
   506 basis functions,   774 primitive gaussians,   522 cartesian basis functions
    61 alpha electrons       61 beta electrons
       nuclear repulsion energy      1181.4348199218 Hartrees.
 NAtoms=   38 NActive=   38 NUniq=   38 SFac= 1.00D+00 NAtFMM=   60 NAOKFM=F Big=F
 Integral buffers will be    131072 words long.
 Raffenetti 2 integral format.
 Two-electron integral symmetry is turned on.
 R6APFD:  NTU= -4 IXU= 1 FactS= 1.050
 Nuclear repulsion after empirical dispersion term =     1181.3986550822 Hartrees.
 One-electron integrals computed using PRISM.
 NBasis=   506 RedAO= T EigKep=  1.84D-06  NBF=   506
 NBsUse=   501 1.00D-06 EigRej=  9.21D-07 NBFU=   501
 ExpMin= 3.60D-02 ExpMax= 8.59D+03 ExpMxC= 1.30D+03 IAcc=3 IRadAn=         5 AccDes= 0.00D+00
 Harris functional with IExCor= 1009 and IRadAn=       5 diagonalized for initial guess.
 HarFok:  IExCor= 1009 AccDes= 0.00D+00 IRadAn=         5 IDoV= 1 UseB2=F ITyADJ=14
 ICtDFT=  3500011 ScaDFX=  1.000000  1.000000  1.000000  1.000000
 FoFCou: FMM=F IPFlag=           0 FMFlag=      100000 FMFlg1=           0
         NFxFlg=           0 DoJE=T BraDBF=F KetDBF=T FulRan=T
         wScrn=  0.000000 ICntrl=       500 IOpCl=  0 I1Cent=   200000004 NGrid=           0
         NMat0=    1 NMatS0=      1 NMatT0=    0 NMatD0=    1 NMtDS0=    0 NMtDT0=    0
 Petite list used in FoFCou.
 Requested convergence on RMS density matrix=1.00D-08 within  32 cycles.
 Requested convergence on MAX density matrix=1.00D-06.
 Requested convergence on             energy=1.00D-06.
 No special actions if energy rises.
 SCF Done:  E(RM08HX) =  -697.220607166     A.U. after   14 cycles
            NFock= 14  Conv=0.82D-08     -V/T= 2.0049
 QCSCF skips out because SCF is already converged.

 **********************************************************************

            Population analysis using the SCF Density.

 **********************************************************************

 Orbital symmetries:
       Occupied  (A) (A) (A) (A) (A) (A) (A) (A) (A) (A) (A) (A)
                 (A) (A) (A) (A) (A) (A) (A) (A) (A) (A) (A) (A)
                 (A) (A) (A) (A) (A) (A) (A) (A) (A) (A) (A) (A)
                 (A) (A) (A) (A) (A) (A) (A) (A) (A) (A) (A) (A)
                 (A) (A) (A) (A) (A) (A) (A) (A) (A) (A) (A) (A)
                 (A)
       Virtual   (A) (A) (A) (A) (A) (A) (A) (A) (A) (A) (A) (A)
                 (A) (A) (A) (A) (A) (A) (A) (A) (A) (A) (A) (A)
                 (A) (A) (A) (A) (A) (A) (A) (A) (A) (A) (A) (A)
                 (A) (A) (A) (A) (A) (A) (A) (A) (A) (A) (A) (A)
                 (A) (A) (A) (A) (A) (A) (A) (A) (A) (A) (A) (A)
                 (A) (A) (A) (A) (A) (A) (A) (A) (A) (A) (A) (A)
                 (A) (A) (A) (A) (A) (A) (A) (A) (A) (A) (A) (A)
                 (A) (A) (A) (A) (A) (A) (A) (A) (A) (A) (A) (A)
                 (A) (A) (A) (A) (A) (A) (A) (A) (A) (A) (A) (A)
                 (A) (A) (A) (A) (A) (A) (A) (A) (A) (A) (A) (A)
                 (A) (A) (A) (A) (A) (A) (A) (A) (A) (A) (A) (A)
                 (A) (A) (A) (A) (A) (A) (A) (A) (A) (A) (A) (A)
                 (A) (A) (A) (A) (A) (A) (A) (A) (A) (A) (A) (A)
                 (A) (A) (A) (A) (A) (A) (A) (A) (A) (A) (A) (A)
                 (A) (A) (A) (A) (A) (A) (A) (A) (A) (A) (A) (A)
                 (A) (A) (A) (A) (A) (A) (A) (A) (A) (A) (A) (A)
                 (A) (A) (A) (A) (A) (A) (A) (A) (A) (A) (A) (A)
                 (A) (A) (A) (A) (A) (A) (A) (A) (A) (A) (A) (A)
                 (A) (A) (A) (A) (A) (A) (A) (A) (A) (A) (A) (A)
                 (A) (A) (A) (A) (A) (A) (A) (A) (A) (A) (A) (A)
                 (A) (A) (A) (A) (A) (A) (A) (A) (A) (A) (A) (A)
                 (A) (A) (A) (A) (A) (A) (A) (A) (A) (A) (A) (A)
                 (A) (A) (A) (A) (A) (A) (A) (A) (A) (A) (A) (A)
                 (A) (A) (A) (A) (A) (A) (A) (A) (A) (A) (A) (A)
                 (A) (A) (A) (A) (A) (A) (A) (A) (A) (A) (A) (A)
                 (A) (A) (A) (A) (A) (A) (A) (A) (A) (A) (A) (A)
                 (A) (A) (A) (A) (A) (A) (A) (A) (A) (A) (A) (A)
                 (A) (A) (A) (A) (A) (A) (A) (A) (A) (A) (A) (A)
                 (A) (A) (A) (A) (A) (A) (A) (A) (A) (A) (A) (A)
                 (A) (A) (A) (A) (A) (A) (A) (A) (A) (A) (A) (A)
                 (A) (A) (A) (A) (A) (A) (A) (A) (A) (A) (A) (A)
                 (A) (A) (A) (A) (A) (A) (A) (A) (A) (A) (A) (A)
                 (A) (A) (A) (A) (A) (A) (A) (A) (A) (A) (A) (A)
                 (A) (A) (A) (A) (A) (A) (A) (A) (A) (A) (A) (A)
                 (A) (A) (A) (A) (A) (A) (A) (A) (A) (A) (A) (A)
                 (A) (A) (A) (A) (A) (A) (A) (A) (A) (A) (A) (A)
                 (A) (A) (A) (A) (A) (A) (A) (A)
 The electronic state is 1-A.
 Alpha  occ. eigenvalues --  -19.63878 -19.62853 -10.58657 -10.58465 -10.56655
 Alpha  occ. eigenvalues --  -10.54313 -10.53885 -10.53340 -10.53265 -10.53195
 Alpha  occ. eigenvalues --  -10.52964 -10.52748 -10.52502 -10.50871 -10.50250
 Alpha  occ. eigenvalues --  -10.50097  -1.18417  -1.17789  -0.97865  -0.94392
 Alpha  occ. eigenvalues --   -0.90664  -0.84474  -0.83074  -0.79560  -0.79232
 Alpha  occ. eigenvalues --   -0.77587  -0.76648  -0.73094  -0.71234  -0.66299
 Alpha  occ. eigenvalues --   -0.64734  -0.61959  -0.59757  -0.57252  -0.53828
 Alpha  occ. eigenvalues --   -0.52871  -0.52377  -0.51565  -0.51127  -0.50047
 Alpha  occ. eigenvalues --   -0.49771  -0.49113  -0.48698  -0.46894  -0.46718
 Alpha  occ. eigenvalues --   -0.45539  -0.44952  -0.44349  -0.44048  -0.43853
 Alpha  occ. eigenvalues --   -0.42814  -0.41723  -0.40911  -0.40265  -0.39379
 Alpha  occ. eigenvalues --   -0.38728  -0.38007  -0.37200  -0.36430  -0.30263
 Alpha  occ. eigenvalues --   -0.25669
 Alpha virt. eigenvalues --   -0.03665  -0.02506  -0.01822  -0.01306  -0.00646
 Alpha virt. eigenvalues --   -0.00134   0.00042   0.00399   0.00546   0.01130
 Alpha virt. eigenvalues --    0.01241   0.01742   0.02532   0.02864   0.03115
 Alpha virt. eigenvalues --    0.03715   0.04099   0.04334   0.04429   0.04684
 Alpha virt. eigenvalues --    0.05182   0.05564   0.06276   0.06445   0.07241
 Alpha virt. eigenvalues --    0.07580   0.07721   0.08287   0.08760   0.09546
 Alpha virt. eigenvalues --    0.10041   0.10319   0.10487   0.10674   0.11372
 Alpha virt. eigenvalues --    0.11765   0.12031   0.12513   0.12784   0.12981
 Alpha virt. eigenvalues --    0.13092   0.13319   0.13393   0.13526   0.13952
 Alpha virt. eigenvalues --    0.14311   0.14373   0.14559   0.14938   0.15216
 Alpha virt. eigenvalues --    0.15293   0.15618   0.16122   0.16407   0.16883
 Alpha virt. eigenvalues --    0.17259   0.17610   0.17692   0.17880   0.18636
 Alpha virt. eigenvalues --    0.19167   0.19409   0.19610   0.19798   0.20032
 Alpha virt. eigenvalues --    0.20574   0.20774   0.21588   0.21845   0.21922
 Alpha virt. eigenvalues --    0.22439   0.22530   0.22785   0.23581   0.24421
 Alpha virt. eigenvalues --    0.24781   0.25017   0.25731   0.26306   0.26885
 Alpha virt. eigenvalues --    0.27206   0.27444   0.27547   0.28663   0.28762
 Alpha virt. eigenvalues --    0.28889   0.29299   0.29743   0.30021   0.30075
 Alpha virt. eigenvalues --    0.30199   0.31222   0.31421   0.31501   0.32173
 Alpha virt. eigenvalues --    0.32304   0.33155   0.33586   0.34119   0.34509
 Alpha virt. eigenvalues --    0.34678   0.35204   0.35505   0.36060   0.36254
 Alpha virt. eigenvalues --    0.36737   0.36869   0.36983   0.37568   0.38859
 Alpha virt. eigenvalues --    0.39701   0.40818   0.42182   0.42736   0.43731
 Alpha virt. eigenvalues --    0.44604   0.45157   0.46087   0.46634   0.46983
 Alpha virt. eigenvalues --    0.47949   0.49539   0.50410   0.52085   0.52705
 Alpha virt. eigenvalues --    0.54248   0.54434   0.55297   0.56891   0.57883
 Alpha virt. eigenvalues --    0.58924   0.59313   0.60368   0.60654   0.61637
 Alpha virt. eigenvalues --    0.62007   0.62850   0.63263   0.63545   0.64073
 Alpha virt. eigenvalues --    0.64298   0.64542   0.64812   0.66791   0.67126
 Alpha virt. eigenvalues --    0.67706   0.68336   0.68700   0.69170   0.69770
 Alpha virt. eigenvalues --    0.70207   0.70476   0.70821   0.71438   0.71633
 Alpha virt. eigenvalues --    0.72330   0.72825   0.73169   0.74048   0.74613
 Alpha virt. eigenvalues --    0.75405   0.77096   0.77305   0.77608   0.77799
 Alpha virt. eigenvalues --    0.78530   0.78884   0.79610   0.80024   0.80421
 Alpha virt. eigenvalues --    0.81178   0.82257   0.83291   0.83379   0.83491
 Alpha virt. eigenvalues --    0.84587   0.85139   0.86410   0.87230   0.89177
 Alpha virt. eigenvalues --    0.92271   0.94120   0.94574   0.95633   0.96631
 Alpha virt. eigenvalues --    0.97522   0.98840   0.99656   1.00708   1.02568
 Alpha virt. eigenvalues --    1.04105   1.04689   1.06457   1.07044   1.08102
 Alpha virt. eigenvalues --    1.08712   1.10310   1.11243   1.12599   1.14425
 Alpha virt. eigenvalues --    1.15676   1.17614   1.18242   1.19886   1.22469
 Alpha virt. eigenvalues --    1.23711   1.24378   1.25459   1.26059   1.28062
 Alpha virt. eigenvalues --    1.29166   1.29548   1.30713   1.31792   1.33360
 Alpha virt. eigenvalues --    1.33833   1.35405   1.40429   1.42241   1.45631
 Alpha virt. eigenvalues --    1.46488   1.48243   1.48548   1.49291   1.49929
 Alpha virt. eigenvalues --    1.50497   1.51009   1.51838   1.52049   1.52475
 Alpha virt. eigenvalues --    1.53451   1.53606   1.54720   1.54960   1.55407
 Alpha virt. eigenvalues --    1.56504   1.56945   1.57625   1.58471   1.59773
 Alpha virt. eigenvalues --    1.61986   1.62408   1.63046   1.63588   1.64477
 Alpha virt. eigenvalues --    1.65036   1.66249   1.67925   1.68225   1.69231
 Alpha virt. eigenvalues --    1.69833   1.70562   1.71434   1.71603   1.72459
 Alpha virt. eigenvalues --    1.73818   1.74387   1.74563   1.75353   1.76457
 Alpha virt. eigenvalues --    1.77674   1.79053   1.80323   1.80734   1.82321
 Alpha virt. eigenvalues --    1.82792   1.83080   1.83734   1.85607   1.86380
 Alpha virt. eigenvalues --    1.87115   1.88002   1.88318   1.89182   1.91040
 Alpha virt. eigenvalues --    1.93297   1.94072   1.96918   1.97901   1.98442
 Alpha virt. eigenvalues --    1.99296   1.99948   2.01916   2.01996   2.02183
 Alpha virt. eigenvalues --    2.03350   2.05633   2.07273   2.08255   2.09178
 Alpha virt. eigenvalues --    2.09971   2.13692   2.13958   2.14987   2.16869
 Alpha virt. eigenvalues --    2.17849   2.19069   2.21311   2.21407   2.22414
 Alpha virt. eigenvalues --    2.24059   2.25253   2.25517   2.27161   2.27306
 Alpha virt. eigenvalues --    2.28685   2.29339   2.30392   2.33908   2.36449
 Alpha virt. eigenvalues --    2.39074   2.41275   2.42166   2.43223   2.46547
 Alpha virt. eigenvalues --    2.47480   2.48088   2.50564   2.51686   2.52999
 Alpha virt. eigenvalues --    2.53783   2.54213   2.55312   2.55513   2.57083
 Alpha virt. eigenvalues --    2.57518   2.58274   2.58993   2.59102   2.59591
 Alpha virt. eigenvalues --    2.60140   2.60984   2.61528   2.62273   2.63630
 Alpha virt. eigenvalues --    2.63922   2.65140   2.66011   2.67241   2.67402
 Alpha virt. eigenvalues --    2.68733   2.69441   2.70892   2.72360   2.73794
 Alpha virt. eigenvalues --    2.74795   2.77100   2.77331   2.77755   2.79340
 Alpha virt. eigenvalues --    2.79877   2.81641   2.82355   2.82720   2.84349
 Alpha virt. eigenvalues --    2.86454   2.87092   2.88493   2.92204   2.93923
 Alpha virt. eigenvalues --    2.95376   2.98708   2.99198   3.01240   3.03286
 Alpha virt. eigenvalues --    3.04494   3.05784   3.07618   3.11216   3.13249
 Alpha virt. eigenvalues --    3.14772   3.17569   3.19230   3.22435   3.23129
 Alpha virt. eigenvalues --    3.24371   3.25389   3.28001   3.28161   3.30933
 Alpha virt. eigenvalues --    3.32073   3.33490   3.35032   3.39744   3.49324
 Alpha virt. eigenvalues --    3.52456   3.54802   3.58847   3.63481   3.69313
 Alpha virt. eigenvalues --    3.72656   3.77972   3.78826   3.80350   3.81143
 Alpha virt. eigenvalues --    3.81831   3.82286   3.82958   3.83868   3.86103
 Alpha virt. eigenvalues --    3.86494   3.86943   3.88193   3.88750   3.90530
 Alpha virt. eigenvalues --    3.98137   4.01643   4.07510   4.21485   4.26875
 Alpha virt. eigenvalues --    4.29385   4.31402   4.34584   4.35357   4.40102
 Alpha virt. eigenvalues --    4.45339   4.56675   4.98757   5.17558   5.18135
 Alpha virt. eigenvalues --    5.56971   5.64731   5.86242   5.95333  23.64173
 Alpha virt. eigenvalues --   23.88046  23.89219  23.99437  24.02339  24.03616
 Alpha virt. eigenvalues --   24.04970  24.05221  24.06107  24.07164  24.08056
 Alpha virt. eigenvalues --   24.14791  24.18197  24.28673  49.99184  50.00539
          Condensed to atoms (all electrons):
               1          2          3          4          5          6
     1  O    8.037200   0.000538   0.046689   0.031537  -0.616269   0.118301
     2  O    0.000538   7.942075  -0.005017   0.063390   0.017582  -0.120304
     3  C    0.046689  -0.005017  10.211167  -0.038439   2.274999   0.341732
     4  C    0.031537   0.063390  -0.038439  10.297542  -0.744182  -0.084633
     5  C   -0.616269   0.017582   2.274999  -0.744182  17.642801   0.888858
     6  C    0.118301  -0.120304   0.341732  -0.084633   0.888858  18.329107
     7  C    0.168455   0.000420  -1.675448  -2.330356  -0.209877  -2.667708
     8  C    0.028416   0.276522  -1.752683  -0.126766  -4.421914  -4.732779
     9  C    0.061802  -0.137660  -1.776008  -0.307664  -2.026461  -6.483889
    10  C    0.269498   0.044566  -1.498339  -1.153270  -6.381854   0.854737
    11  C    0.018138   0.009713  -0.296193  -0.015941  -0.739534  -0.479370
    12  C   -0.087127  -0.001053  -0.069014  -0.038687   0.273104  -0.094453
    13  C   -0.084623  -0.001189   0.023233  -0.029069   0.268083  -0.079654
    14  C    0.012176  -0.001768  -0.023481   0.213985  -0.426168  -0.558685
    15  C   -0.000544  -0.056204  -0.023481  -0.068492  -0.075840   0.300713
    16  C   -0.000391  -0.047695  -0.020782   0.047618  -0.090044   0.346832
    17  H    0.000374  -0.044459  -0.273429  -0.038406  -0.349774  -0.530694
    18  H   -0.008497  -0.000382  -0.016773  -0.017819  -0.267989  -0.055246
    19  H   -0.000831   0.000362   0.046180   0.001248   0.031844   0.038291
    20  H   -0.000599   0.000187   0.061761   0.000328   0.042557   0.035050
    21  H    0.000668   0.000265  -0.030911  -0.000414   0.005403  -0.017911
    22  H    0.004331  -0.000034  -0.035342  -0.002216  -0.091692  -0.004458
    23  H   -0.003177  -0.000027  -0.048480  -0.000806   0.041084   0.001739
    24  H    0.006258   0.000126   0.058789   0.003238  -0.011979   0.001830
    25  H    0.006068  -0.000102  -0.033128  -0.003392  -0.069597  -0.011326
    26  H    0.005654   0.000063   0.065700   0.003188  -0.033295   0.001012
    27  H   -0.003577  -0.000009  -0.061278  -0.000011   0.045655   0.007820
    28  H    0.000657  -0.001986  -0.000200  -0.046370  -0.004354   0.014298
    29  H   -0.000341   0.002157   0.000927   0.038071   0.010089   0.022801
    30  H   -0.000440   0.001436   0.001418   0.052133   0.011076   0.016332
    31  H    0.000567  -0.003715   0.001120   0.059491   0.013865   0.012654
    32  H    0.000004   0.004736  -0.000620  -0.001802  -0.010486  -0.006200
    33  H   -0.000361  -0.017596  -0.001470  -0.030040  -0.009700  -0.075284
    34  H    0.000016   0.003949  -0.000050  -0.033065  -0.001633   0.026803
    35  H    0.000381   0.000940   0.000904   0.078111   0.006933  -0.017427
    36  H   -0.000311  -0.040020  -0.000717  -0.066130  -0.003737  -0.067827
    37  H    0.155961   0.000054  -0.023669  -0.004715   0.191284  -0.029794
    38  H    0.000261   0.217780  -0.007846  -0.029019  -0.027350  -0.393989
               7          8          9         10         11         12
     1  O    0.168455   0.028416   0.061802   0.269498   0.018138  -0.087127
     2  O    0.000420   0.276522  -0.137660   0.044566   0.009713  -0.001053
     3  C   -1.675448  -1.752683  -1.776008  -1.498339  -0.296193  -0.069014
     4  C   -2.330356  -0.126766  -0.307664  -1.153270  -0.015941  -0.038687
     5  C   -0.209877  -4.421914  -2.026461  -6.381854  -0.739534   0.273104
     6  C   -2.667708  -4.732779  -6.483889   0.854737  -0.479370  -0.094453
     7  C   12.152969   0.180127   0.995989   0.556336   0.040418  -0.109307
     8  C    0.180127  12.983364   3.177348   1.097696   0.041138   0.031995
     9  C    0.995989   3.177348  11.012835   1.205187   0.337796   0.028035
    10  C    0.556336   1.097696   1.205187  11.136221   0.123084  -0.190615
    11  C    0.040418   0.041138   0.337796   0.123084   7.211239  -0.426411
    12  C   -0.109307   0.031995   0.028035  -0.190615  -0.426411   6.893186
    13  C   -0.145047  -0.012620  -0.029442  -0.219869  -0.431315  -0.378910
    14  C   -0.206442   0.122481   0.065877   0.129071   0.005866  -0.003747
    15  C    0.055587  -0.276472  -0.196256   0.076812  -0.001894   0.009103
    16  C    0.007887  -0.378065  -0.252019   0.041429  -0.001456  -0.005487
    17  H    0.172568   0.064525   0.873620   0.179147   0.119469  -0.013833
    18  H   -0.291716   0.162351   0.112412   0.621421   0.018715  -0.012370
    19  H   -0.010341  -0.014472  -0.043292  -0.014427   0.326393   0.026783
    20  H   -0.021516  -0.019964  -0.041219  -0.020390   0.324320  -0.007825
    21  H   -0.001728  -0.005093   0.030758  -0.004779   0.438067  -0.035908
    22  H    0.028463   0.007767   0.004438   0.025563   0.039093   0.410244
    23  H    0.021454  -0.000138   0.005111  -0.006105  -0.070505   0.439206
    24  H   -0.027108  -0.013066  -0.000735  -0.008027   0.009596   0.307548
    25  H    0.029189   0.009598   0.004156   0.008781   0.038938  -0.031790
    26  H   -0.018144  -0.014097  -0.009720   0.003380   0.013298   0.030939
    27  H    0.026163  -0.000740   0.005145  -0.000392  -0.069635  -0.020950
    28  H    0.001004  -0.024709  -0.011199   0.035686  -0.000086   0.000061
    29  H   -0.021544  -0.021266  -0.011011  -0.004522  -0.000686   0.000759
    30  H   -0.026071   0.000404  -0.006961  -0.014904  -0.000654  -0.000463
    31  H   -0.021205  -0.031123  -0.017450  -0.023372  -0.001230   0.000593
    32  H   -0.006840   0.047271   0.013239   0.009201   0.000193  -0.000070
    33  H    0.007828   0.008814   0.000640   0.011716   0.001404   0.000160
    34  H   -0.001011   0.027806   0.012504   0.017723   0.000270  -0.000152
    35  H   -0.020906  -0.026266  -0.006017  -0.032925  -0.000632   0.000018
    36  H   -0.001377   0.068804  -0.007794  -0.000029   0.000124  -0.000428
    37  H    0.123391  -0.005516  -0.018816  -0.204575  -0.008495   0.026653
    38  H    0.023735   0.286730   0.174008   0.009531  -0.000147   0.001277
              13         14         15         16         17         18
     1  O   -0.084623   0.012176  -0.000544  -0.000391   0.000374  -0.008497
     2  O   -0.001189  -0.001768  -0.056204  -0.047695  -0.044459  -0.000382
     3  C    0.023233  -0.023481  -0.023481  -0.020782  -0.273429  -0.016773
     4  C   -0.029069   0.213985  -0.068492   0.047618  -0.038406  -0.017819
     5  C    0.268083  -0.426168  -0.075840  -0.090044  -0.349774  -0.267989
     6  C   -0.079654  -0.558685   0.300713   0.346832  -0.530694  -0.055246
     7  C   -0.145047  -0.206442   0.055587   0.007887   0.172568  -0.291716
     8  C   -0.012620   0.122481  -0.276472  -0.378065   0.064525   0.162351
     9  C   -0.029442   0.065877  -0.196256  -0.252019   0.873620   0.112412
    10  C   -0.219869   0.129071   0.076812   0.041429   0.179147   0.621421
    11  C   -0.431315   0.005866  -0.001894  -0.001456   0.119469   0.018715
    12  C   -0.378910  -0.003747   0.009103  -0.005487  -0.013833  -0.012370
    13  C    6.887203  -0.003577  -0.004976   0.007800  -0.015975  -0.014712
    14  C   -0.003577   6.720461  -0.317468  -0.307829   0.010458   0.018541
    15  C   -0.004976  -0.317468   6.792661  -0.397377  -0.005940  -0.003315
    16  C    0.007800  -0.307829  -0.397377   6.788926  -0.009331  -0.007403
    17  H   -0.015975   0.010458  -0.005940  -0.009331   0.548698   0.009534
    18  H   -0.014712   0.018541  -0.003315  -0.007403   0.009534   0.627261
    19  H   -0.006051  -0.000350  -0.000344   0.000649  -0.023582  -0.000978
    20  H    0.025747  -0.000579   0.000452  -0.000268  -0.025041  -0.001064
    21  H   -0.034189  -0.000103  -0.000028  -0.000009   0.009025   0.000125
    22  H   -0.025056   0.000350   0.000713  -0.000284   0.002347   0.004384
    23  H   -0.028230   0.000053   0.000155  -0.000130  -0.002536  -0.000126
    24  H    0.034827  -0.000189  -0.000347   0.000024  -0.000559  -0.000827
    25  H    0.411668   0.000160  -0.000168   0.000755   0.002108   0.003991
    26  H    0.313487  -0.000107  -0.000078  -0.000277   0.000169  -0.000279
    27  H    0.429235   0.000113  -0.000157   0.000108  -0.002692  -0.000348
    28  H    0.000041   0.443023  -0.028697  -0.031748  -0.000166   0.007914
    29  H   -0.000272   0.364031  -0.028501   0.025657  -0.000940  -0.024257
    30  H    0.000741   0.336544   0.026314  -0.017828  -0.000787  -0.022746
    31  H   -0.000036  -0.008175   0.360290   0.025889  -0.002033  -0.000343
    32  H   -0.000121  -0.063533   0.382493  -0.021418   0.000623  -0.001086
    33  H   -0.000343   0.054173   0.361190   0.010160   0.003695   0.001860
    34  H   -0.000021  -0.049809  -0.028679   0.382063   0.000496  -0.000353
    35  H    0.000426   0.006931   0.019357   0.356364  -0.001217  -0.000959
    36  H    0.000144   0.020229   0.022895   0.392183   0.001882   0.001269
    37  H    0.029959  -0.001628   0.000803   0.000537   0.000194  -0.044942
    38  H    0.000979   0.009689  -0.022389  -0.025532   0.015258   0.001163
              19         20         21         22         23         24
     1  O   -0.000831  -0.000599   0.000668   0.004331  -0.003177   0.006258
     2  O    0.000362   0.000187   0.000265  -0.000034  -0.000027   0.000126
     3  C    0.046180   0.061761  -0.030911  -0.035342  -0.048480   0.058789
     4  C    0.001248   0.000328  -0.000414  -0.002216  -0.000806   0.003238
     5  C    0.031844   0.042557   0.005403  -0.091692   0.041084  -0.011979
     6  C    0.038291   0.035050  -0.017911  -0.004458   0.001739   0.001830
     7  C   -0.010341  -0.021516  -0.001728   0.028463   0.021454  -0.027108
     8  C   -0.014472  -0.019964  -0.005093   0.007767  -0.000138  -0.013066
     9  C   -0.043292  -0.041219   0.030758   0.004438   0.005111  -0.000735
    10  C   -0.014427  -0.020390  -0.004779   0.025563  -0.006105  -0.008027
    11  C    0.326393   0.324320   0.438067   0.039093  -0.070505   0.009596
    12  C    0.026783  -0.007825  -0.035908   0.410244   0.439206   0.307548
    13  C   -0.006051   0.025747  -0.034189  -0.025056  -0.028230   0.034827
    14  C   -0.000350  -0.000579  -0.000103   0.000350   0.000053  -0.000189
    15  C   -0.000344   0.000452  -0.000028   0.000713   0.000155  -0.000347
    16  C    0.000649  -0.000268  -0.000009  -0.000284  -0.000130   0.000024
    17  H   -0.023582  -0.025041   0.009025   0.002347  -0.002536  -0.000559
    18  H   -0.000978  -0.001064   0.000125   0.004384  -0.000126  -0.000827
    19  H    0.523004  -0.043631  -0.031791  -0.003943  -0.000867   0.001441
    20  H   -0.043631   0.525740  -0.031987  -0.001824   0.009572   0.000255
    21  H   -0.031791  -0.031987   0.453290   0.003151  -0.005481  -0.000129
    22  H   -0.003943  -0.001824   0.003151   0.486404  -0.048445  -0.028722
    23  H   -0.000867   0.009572  -0.005481  -0.048445   0.522555  -0.030851
    24  H    0.001441   0.000255  -0.000129  -0.028722  -0.030851   0.479800
    25  H   -0.001997  -0.003563   0.003665  -0.005343   0.004265   0.002526
    26  H    0.000293   0.000964  -0.000050   0.001871   0.003574  -0.005120
    27  H    0.008742  -0.000352  -0.005271   0.004831  -0.019853   0.002424
    28  H    0.000003  -0.000001  -0.000014   0.000040   0.000007  -0.000046
    29  H    0.000051   0.000070  -0.000004  -0.000279   0.000026  -0.000050
    30  H    0.000058   0.000050  -0.000010  -0.000050  -0.000020   0.000136
    31  H    0.000194   0.000006  -0.000073   0.000174  -0.000031  -0.000097
    32  H    0.000010  -0.000066   0.000010  -0.000032  -0.000015   0.000045
    33  H   -0.000404  -0.000036   0.000084  -0.000070   0.000055  -0.000041
    34  H   -0.000047   0.000004   0.000014  -0.000003  -0.000001   0.000025
    35  H    0.000003   0.000120  -0.000024  -0.000057   0.000026  -0.000033
    36  H   -0.000028  -0.000223  -0.000006   0.000014  -0.000035   0.000047
    37  H    0.000205   0.000163   0.000041  -0.008857   0.000084   0.001170
    38  H    0.000200  -0.000082  -0.000043   0.000008   0.000011  -0.000150
              25         26         27         28         29         30
     1  O    0.006068   0.005654  -0.003577   0.000657  -0.000341  -0.000440
     2  O   -0.000102   0.000063  -0.000009  -0.001986   0.002157   0.001436
     3  C   -0.033128   0.065700  -0.061278  -0.000200   0.000927   0.001418
     4  C   -0.003392   0.003188  -0.000011  -0.046370   0.038071   0.052133
     5  C   -0.069597  -0.033295   0.045655  -0.004354   0.010089   0.011076
     6  C   -0.011326   0.001012   0.007820   0.014298   0.022801   0.016332
     7  C    0.029189  -0.018144   0.026163   0.001004  -0.021544  -0.026071
     8  C    0.009598  -0.014097  -0.000740  -0.024709  -0.021266   0.000404
     9  C    0.004156  -0.009720   0.005145  -0.011199  -0.011011  -0.006961
    10  C    0.008781   0.003380  -0.000392   0.035686  -0.004522  -0.014904
    11  C    0.038938   0.013298  -0.069635  -0.000086  -0.000686  -0.000654
    12  C   -0.031790   0.030939  -0.020950   0.000061   0.000759  -0.000463
    13  C    0.411668   0.313487   0.429235   0.000041  -0.000272   0.000741
    14  C    0.000160  -0.000107   0.000113   0.443023   0.364031   0.336544
    15  C   -0.000168  -0.000078  -0.000157  -0.028697  -0.028501   0.026314
    16  C    0.000755  -0.000277   0.000108  -0.031748   0.025657  -0.017828
    17  H    0.002108   0.000169  -0.002692  -0.000166  -0.000940  -0.000787
    18  H    0.003991  -0.000279  -0.000348   0.007914  -0.024257  -0.022746
    19  H   -0.001997   0.000293   0.008742   0.000003   0.000051   0.000058
    20  H   -0.003563   0.000964  -0.000352  -0.000001   0.000070   0.000050
    21  H    0.003665  -0.000050  -0.005271  -0.000014  -0.000004  -0.000010
    22  H   -0.005343   0.001871   0.004831   0.000040  -0.000279  -0.000050
    23  H    0.004265   0.003574  -0.019853   0.000007   0.000026  -0.000020
    24  H    0.002526  -0.005120   0.002424  -0.000046  -0.000050   0.000136
    25  H    0.482635  -0.027072  -0.051067   0.000010  -0.000026  -0.000183
    26  H   -0.027072   0.484882  -0.033573  -0.000029   0.000101  -0.000056
    27  H   -0.051067  -0.033573   0.529065   0.000012  -0.000014   0.000015
    28  H    0.000010  -0.000029   0.000012   0.447023  -0.031700  -0.030303
    29  H   -0.000026   0.000101  -0.000014  -0.031700   0.513049  -0.041693
    30  H   -0.000183  -0.000056   0.000015  -0.030303  -0.041693   0.509958
    31  H   -0.000097  -0.000043   0.000049  -0.000054  -0.001035   0.001436
    32  H    0.000001   0.000017  -0.000001  -0.007731   0.010968   0.000037
    33  H    0.000059   0.000055  -0.000058   0.005490  -0.000739  -0.005375
    34  H   -0.000004   0.000034  -0.000013  -0.008279   0.001316   0.009475
    35  H    0.000059   0.000014   0.000007  -0.000449   0.000615   0.000987
    36  H   -0.000044  -0.000060   0.000020   0.006909  -0.004561  -0.002214
    37  H   -0.008452   0.000320   0.000720  -0.000201   0.001583   0.001516
    38  H   -0.000039  -0.000143   0.000067   0.000105  -0.000554  -0.000303
              31         32         33         34         35         36
     1  O    0.000567   0.000004  -0.000361   0.000016   0.000381  -0.000311
     2  O   -0.003715   0.004736  -0.017596   0.003949   0.000940  -0.040020
     3  C    0.001120  -0.000620  -0.001470  -0.000050   0.000904  -0.000717
     4  C    0.059491  -0.001802  -0.030040  -0.033065   0.078111  -0.066130
     5  C    0.013865  -0.010486  -0.009700  -0.001633   0.006933  -0.003737
     6  C    0.012654  -0.006200  -0.075284   0.026803  -0.017427  -0.067827
     7  C   -0.021205  -0.006840   0.007828  -0.001011  -0.020906  -0.001377
     8  C   -0.031123   0.047271   0.008814   0.027806  -0.026266   0.068804
     9  C   -0.017450   0.013239   0.000640   0.012504  -0.006017  -0.007794
    10  C   -0.023372   0.009201   0.011716   0.017723  -0.032925  -0.000029
    11  C   -0.001230   0.000193   0.001404   0.000270  -0.000632   0.000124
    12  C    0.000593  -0.000070   0.000160  -0.000152   0.000018  -0.000428
    13  C   -0.000036  -0.000121  -0.000343  -0.000021   0.000426   0.000144
    14  C   -0.008175  -0.063533   0.054173  -0.049809   0.006931   0.020229
    15  C    0.360290   0.382493   0.361190  -0.028679   0.019357   0.022895
    16  C    0.025889  -0.021418   0.010160   0.382063   0.356364   0.392183
    17  H   -0.002033   0.000623   0.003695   0.000496  -0.001217   0.001882
    18  H   -0.000343  -0.001086   0.001860  -0.000353  -0.000959   0.001269
    19  H    0.000194   0.000010  -0.000404  -0.000047   0.000003  -0.000028
    20  H    0.000006  -0.000066  -0.000036   0.000004   0.000120  -0.000223
    21  H   -0.000073   0.000010   0.000084   0.000014  -0.000024  -0.000006
    22  H    0.000174  -0.000032  -0.000070  -0.000003  -0.000057   0.000014
    23  H   -0.000031  -0.000015   0.000055  -0.000001   0.000026  -0.000035
    24  H   -0.000097   0.000045  -0.000041   0.000025  -0.000033   0.000047
    25  H   -0.000097   0.000001   0.000059  -0.000004   0.000059  -0.000044
    26  H   -0.000043   0.000017   0.000055   0.000034   0.000014  -0.000060
    27  H    0.000049  -0.000001  -0.000058  -0.000013   0.000007   0.000020
    28  H   -0.000054  -0.007731   0.005490  -0.008279  -0.000449   0.006909
    29  H   -0.001035   0.010968  -0.000739   0.001316   0.000615  -0.004561
    30  H    0.001436   0.000037  -0.005375   0.009475   0.000987  -0.002214
    31  H    0.463057  -0.030514  -0.043213  -0.000976  -0.004324   0.005898
    32  H   -0.030514   0.529775  -0.057499  -0.017929   0.001832   0.004071
    33  H   -0.043213  -0.057499   0.590422   0.008629   0.003522  -0.017859
    34  H   -0.000976  -0.017929   0.008629   0.528898  -0.032413  -0.063472
    35  H   -0.004324   0.001832   0.003522  -0.032413   0.455428  -0.028830
    36  H    0.005898   0.004071  -0.017859  -0.063472  -0.028830   0.562792
    37  H   -0.000108   0.000092   0.000050   0.000018  -0.000031   0.000049
    38  H    0.000970   0.000680   0.015120  -0.001754   0.000196   0.029073
              37         38
     1  O    0.155961   0.000261
     2  O    0.000054   0.217780
     3  C   -0.023669  -0.007846
     4  C   -0.004715  -0.029019
     5  C    0.191284  -0.027350
     6  C   -0.029794  -0.393989
     7  C    0.123391   0.023735
     8  C   -0.005516   0.286730
     9  C   -0.018816   0.174008
    10  C   -0.204575   0.009531
    11  C   -0.008495  -0.000147
    12  C    0.026653   0.001277
    13  C    0.029959   0.000979
    14  C   -0.001628   0.009689
    15  C    0.000803  -0.022389
    16  C    0.000537  -0.025532
    17  H    0.000194   0.015258
    18  H   -0.044942   0.001163
    19  H    0.000205   0.000200
    20  H    0.000163  -0.000082
    21  H    0.000041  -0.000043
    22  H   -0.008857   0.000008
    23  H    0.000084   0.000011
    24  H    0.001170  -0.000150
    25  H   -0.008452  -0.000039
    26  H    0.000320  -0.000143
    27  H    0.000720   0.000067
    28  H   -0.000201   0.000105
    29  H    0.001583  -0.000554
    30  H    0.001516  -0.000303
    31  H   -0.000108   0.000970
    32  H    0.000092   0.000680
    33  H    0.000050   0.015120
    34  H    0.000018  -0.001754
    35  H   -0.000031   0.000196
    36  H    0.000049   0.029073
    37  H    0.539852   0.000111
    38  H    0.000111   0.491524
 Mulliken charges:
               1
     1  O   -0.166861
     2  O   -0.107640
     3  C    0.578177
     4  C    0.321821
     5  C    0.848513
     6  C    1.152720
     7  C   -0.778288
     8  C   -0.745408
     9  C   -0.737285
    10  C   -0.678394
    11  C   -0.573089
    12  C   -0.951063
    13  C   -0.888272
    14  C   -0.560575
    15  C   -0.871893
    16  C   -0.819505
    17  H    0.327202
    18  H    0.203586
    19  H    0.191423
    20  H    0.192889
    21  H    0.261386
    22  H    0.232524
    23  H    0.216882
    24  H    0.217973
    25  H    0.238758
    26  H    0.213126
    27  H    0.209800
    28  H    0.266039
    29  H    0.201724
    30  H    0.200997
    31  H    0.242995
    32  H    0.220664
    33  H    0.174965
    34  H    0.219621
    35  H    0.239336
    36  H    0.189298
    37  H    0.284990
    38  H    0.230864
 Sum of Mulliken charges =  -0.00000
 Mulliken charges with hydrogens summed into heavy atoms:
               1
     1  O    0.118129
     2  O    0.123224
     3  C    0.578177
     4  C    0.321821
     5  C    0.848513
     6  C    1.152720
     7  C   -0.778288
     8  C   -0.745408
     9  C   -0.410083
    10  C   -0.474807
    11  C    0.072608
    12  C   -0.283684
    13  C   -0.226587
    14  C    0.108185
    15  C   -0.233269
    16  C   -0.171250
 Electronic spatial extent (au):  <R**2>=           4315.3177
 Charge=              0.0000 electrons
 Dipole moment (field-independent basis, Debye):
    X=             -2.6068    Y=              1.8638    Z=             -0.1379  Tot=              3.2075
 Quadrupole moment (field-independent basis, Debye-Ang):
   XX=            -94.4408   YY=            -97.1795   ZZ=           -104.1938
   XY=             -2.6118   XZ=              0.4391   YZ=              0.2734
 Traceless Quadrupole moment (field-independent basis, Debye-Ang):
   XX=              4.1639   YY=              1.4252   ZZ=             -5.5891
   XY=             -2.6118   XZ=              0.4391   YZ=              0.2734
 Octapole moment (field-independent basis, Debye-Ang**2):
  XXX=            -37.9340  YYY=             40.2261  ZZZ=             -0.2302  XYY=             -3.5033
  XXY=            -15.6291  XXZ=             -2.0439  XZZ=             -3.9103  YZZ=              0.0919
  YYZ=             -0.7620  XYZ=             -0.5158
 Hexadecapole moment (field-independent basis, Debye-Ang**3):
 XXXX=          -4277.5001 YYYY=          -1054.0759 ZZZZ=           -480.4081 XXXY=             37.6193
 XXXZ=              4.9080 YYYX=             32.5052 YYYZ=              1.2591 ZZZX=              0.2817
 ZZZY=              0.0414 XXYY=           -921.1015 XXZZ=           -832.7968 YYZZ=           -273.1099
 XXYZ=              2.3835 YYXZ=              1.9535 ZZXY=              5.9780
 N-N= 1.181398655082D+03 E-N=-3.983827111518D+03  KE= 6.938078606948D+02
 R6APFD:  NTU= -4 IXU= 1 FactS= 1.050
 Calling FoFJK, ICntrl=      2127 FMM=F ISym2X=0 I1Cent= 0 IOpClX= 0 NMat=1 NMatS=1 NMatT=0.
 ***** Axes restored to original set *****
 -------------------------------------------------------------------
 Center     Atomic                   Forces (Hartrees/Bohr)
 Number     Number              X              Y              Z
 -------------------------------------------------------------------
      1        8          -0.001349163    0.011921133    0.000706069
      2        8          -0.012477036   -0.016237217    0.000084860
      3        6          -0.009480776   -0.000625389   -0.002336366
      4        6           0.040176313   -0.001058795   -0.002712502
      5        6          -0.056959878   -0.009058665    0.004923988
      6        6           0.001888154    0.009795136    0.005109581
      7        6           0.032697962    0.012241195   -0.000268006
      8        6           0.007380260    0.005084824    0.000713385
      9        6           0.038293742   -0.003056183   -0.000258427
     10        6          -0.017599893   -0.010806803    0.000087506
     11        6          -0.012781930    0.003707807   -0.003269723
     12        6          -0.002301904   -0.004783065   -0.006266863
     13        6           0.007697702    0.000429208    0.005299362
     14        6           0.007201273   -0.008723102   -0.002916851
     15        6           0.000640515    0.015370403   -0.007279301
     16        6          -0.008053320    0.013197459    0.006275819
     17        1          -0.005138245    0.001357202    0.000261898
     18        1           0.006165963    0.000404819    0.000120898
     19        1           0.003355311    0.000895772   -0.000561347
     20        1           0.003440650    0.000275526    0.000707357
     21        1          -0.001021641    0.003471376    0.000175987
     22        1           0.003872918    0.000050157    0.003718181
     23        1          -0.001469284   -0.002534088    0.001698041
     24        1           0.001116166   -0.001331754   -0.000719342
     25        1           0.002965052    0.000822738   -0.002748011
     26        1           0.000274344   -0.001649506    0.001330081
     27        1          -0.000548223   -0.002762338   -0.002816602
     28        1           0.000332656   -0.003749335    0.000168236
     29        1          -0.003103146   -0.000697946    0.000451078
     30        1          -0.002905714   -0.001128946   -0.000241471
     31        1          -0.001110510   -0.000440024   -0.000370505
     32        1           0.000669337    0.001488412    0.002329358
     33        1          -0.003287206   -0.002893183    0.002141492
     34        1          -0.000572459    0.001419552   -0.003296888
     35        1          -0.000390633   -0.000380175    0.001103542
     36        1          -0.002743159   -0.004903746   -0.001609501
     37        1          -0.008490260   -0.012185651    0.000100587
     38        1          -0.006383939    0.007073192    0.000164397
 -------------------------------------------------------------------
 Cartesian Forces:  Max     0.056959878 RMS     0.009652627

 GradGradGradGradGradGradGradGradGradGradGradGradGradGradGradGradGradGrad
 Berny optimization.
 FormGI is forming the generalized inverse of G from B-inverse, IUseBI=4.
 Internal  Forces:  Max     0.027430846 RMS     0.006165086
 Search for a local minimum.
 Step number   1 out of a maximum of  210
 All quantities printed in internal units (Hartrees-Bohrs-Radians)
 Mixed Optimization -- RFO/linear search
 Second derivative matrix not updated -- first step.
 ITU=  0
     Eigenvalues ---    0.00230   0.00230   0.00230   0.00230   0.00230
     Eigenvalues ---    0.00230   0.00267   0.00857   0.01578   0.01672
     Eigenvalues ---    0.02156   0.02157   0.02161   0.02184   0.02188
     Eigenvalues ---    0.02213   0.02281   0.02320   0.02409   0.04674
     Eigenvalues ---    0.04772   0.04776   0.04776   0.04969   0.05001
     Eigenvalues ---    0.05087   0.05088   0.05135   0.05196   0.05335
[...]
 0.00000616,0.00002095,0.00000286,-0.00001006,0.00001672,-0.00000372,-0
 .00000859,-0.00004120,0.00000889,0.00001823,0.00055957,0.00069575,-0.0
 0016619,0.00045690,-0.00000975,0.00000131,-0.00010596,0.00000974,-0.00
 013947,0.00036948,0.00006987,0.00002636,0.00041397,-0.00017848,-0.0006
 9412,-0.00005346,0.00007378,-0.00003737,0.33185509,-0.00001929,0.00005
 277,-0.00000703,-0.00131502,0.00051473,-0.00107066,-0.00001909,-0.0000
 1760,0.00000183,0.01254820,-0.00008542,-0.00017411,0.00008577,-0.00012
 308,-0.00000808,0.00084435,-0.00059018,0.00231080,0.00019083,0.0000762
 9,-0.00020944,0.00109969,-0.00157311,0.00015656,-0.00023913,0.00008543
 ,-0.00000594,0.00014630,0.00029109,0.00003232,0.00000443,-0.00001247,0
 .00000475,0.00002129,0.00001447,-0.00000949,0.00002253,0.00001491,0.00
 001499,0.00139004,0.00042542,-0.00009468,-0.00026738,0.00000035,-0.000
 59106,-0.02516950,-0.04833990,0.00031584,0.00004669,0.00001239,0.00001
 339,0.00005554,-0.00000885,0.00010369,0.00000062,0.00000136,-0.0000043
 3,0.00000003,0.00000132,0.00000301,0.00000101,0.00000495,-0.00000034,-
 0.00000031,0.00000135,-0.00000034,0.00000754,-0.00000556,0.00000620,-0
 .00000256,-0.00000002,-0.00000216,-0.00000130,0.00000041,0.00000026,-0
 .00000178,0.00000092,0.00000008,0.00000814,-0.00000534,-0.00000784,-0.
 00018484,-0.00066095,0.00081623,-0.00021654,0.00013171,-0.00023851,0.0
 0005588,-0.00005420,-0.00009285,0.00005906,-0.00013817,-0.00009929,-0.
 00017612,0.00026363,-0.00010488,-0.00015511,-0.00004468,-0.00003242,0.
 02624655,0.04991333,-0.00012989,0.00008728,0.00005107,0.00043991,-0.00
 050619,-0.00009440,0.00005039,0.00003647,-0.00001357,-0.02787636,-0.00
 221708,-0.00129492,-0.00010158,0.00027323,-0.00004837,-0.00106876,0.00
 303720,-0.00392971,-0.00032230,-0.00008072,0.00031072,-0.00070875,0.00
 051236,0.00016757,0.00029437,-0.00006916,0.00015881,-0.00078725,-0.000
 47104,-0.00004928,-0.00002389,0.00001850,-0.00000420,-0.00004604,-0.00
 002084,0.00002462,-0.00004103,-0.00002112,-0.00003299,-0.00058360,-0.0
 0124160,0.00067838,-0.00120755,-0.00045642,0.00163262,0.00793903,0.000
 32539,-0.04546095,-0.00002677,-0.00002533,-0.00002132,-0.00001799,0.00
 005311,-0.00019554,0.00000446,-0.00000209,0.00000146,0.00000506,0.0000
 0073,0.00000072,-0.00001112,-0.00000610,0.00000048,0.00000817,-0.00000
 144,0.00000514,-0.00002118,0.00000702,-0.00001418,0.00000761,-0.000002
 82,0.00000448,0.00000736,0.00000364,-0.00000645,0.00000427,-0.00000876
 ,0.00000151,-0.00001791,0.00000825,0.00001732,0.00044762,0.00060782,-0
 .00000802,0.00015926,-0.00035822,0.00002829,0.00021969,0.00008912,-0.0
 0006163,0.00028159,0.00006813,0.00035784,0.00069551,0.00010173,-0.0006
 7714,0.00008502,-0.00004913,-0.00009945,-0.00528271,-0.00358896,0.0496
 4337,0.00007950,-0.00010958,-0.00000364,-0.00060917,0.00001441,-0.0001
 5359,-0.00003686,-0.00001938,0.00000497,0.00349053,-0.00664349,-0.0117
 5581,0.00001102,-0.00005398,-0.00002266,0.00099445,-0.00072477,-0.0004
 0167,-0.00008679,0.00013183,0.00004599,0.00038930,-0.00045616,0.000250
 54,-0.00013933,0.00001499,0.00000311,0.00017398,0.00025466,0.00030927,
 0.00001446,-0.00000812,-0.00000213,0.00002412,0.00001416,-0.00001477,0
 .00002185,0.00001662,0.00000514,0.00000167,-0.00053506,0.00024682,-0.0
 0096090,0.00124972,-0.00198003,-0.07882263,0.04596656,0.07594184,0.000
 00519,0.00000701,-0.00000611,0.00002750,0.00000829,-0.00005129,-0.0000
 0482,-0.00000352,0.00000160,-0.00000452,-0.00000105,-0.00000050,0.0000
 1114,0.00000282,0.00000136,-0.00000921,-0.00000097,-0.00000338,0.00001
 543,-0.00000304,0.00000780,-0.00000513,0.00000128,-0.00000124,-0.00000
 671,0.00000100,0.00000187,-0.00000882,-0.00000201,0.00000753,0.0000172
 1,-0.00000183,-0.00000266,-0.00009222,0.00018395,0.00016930,-0.0001171
 0,-0.00021911,-0.00008872,0.00028415,-0.00007377,0.00026449,0.00079924
 ,-0.00015322,-0.00064592,0.00036970,0.00005807,-0.00028185,-0.00011043
 ,0.00009762,0.00017740,-0.00915132,0.01596453,0.02491535,0.08109052,-0
 .00006178,0.00006179,0.00002868,-0.00093597,0.00010514,-0.00040152,0.0
 0002262,0.00000554,0.00000194,-0.00476987,0.00521129,0.01078013,-0.000
 03047,-0.00006405,0.00001642,-0.00060666,0.00032019,-0.00030931,0.0000
 9963,0.00000876,-0.00003913,0.00045696,-0.00072053,-0.00005266,-0.0002
 4719,0.00012852,0.00002486,-0.00023823,0.00000199,-0.00015900,-0.00000
 994,0.00000646,-0.00000644,-0.00000967,-0.00000017,0.00000448,-0.00001
 595,0.00000674,-0.00002260,-0.00038642,0.00108938,0.00130774,0.0008140
 2,-0.00096633,0.00247515,0.04619012,-0.10906632,-0.10552176,0.00002706
 ,0.00000056,-0.00002670,0.00002940,-0.00002096,0.00001872,0.00000327,-
 0.00000352,-0.00000024,0.00000277,0.00000183,0.00000836,-0.00000614,-0
 .00000096,0.00000051,0.00000458,-0.00000120,0.00000168,-0.00000626,-0.
 00000067,-0.00000288,0.00000192,-0.00000053,0.00000563,0.00000554,0.00
 000405,-0.00000273,-0.00000016,-0.00001249,0.00000714,-0.00000452,0.00
 000035,0.00000898,-0.00011965,-0.00000626,-0.00008914,-0.00010232,0.00
 014062,-0.00017753,0.00033862,-0.00049210,0.00015928,-0.00015168,0.000
 60259,0.00070597,0.00006983,-0.00013802,-0.00006645,0.00007848,0.00013
 074,0.00022191,-0.00171894,0.00105271,0.00414863,-0.05105359,0.1170164
 9,0.00000348,-0.00002733,0.00001748,-0.00020506,0.00035899,0.00005191,
 -0.00002258,-0.00000927,-0.00000711,0.00943300,-0.01276080,-0.02280373
 ,0.00000661,-0.00003964,-0.00001465,0.00159743,-0.00004753,0.00070671,
 -0.00001980,0.00017683,-0.00008224,0.00011690,-0.00067661,0.00018972,-
 0.00006737,-0.00004888,0.00003095,-0.00043222,0.00016448,0.00021262,0.
 00000945,-0.00000597,-0.00000182,0.00001378,0.00000600,-0.00001035,0.0
 0001508,0.00000939,0.00000372,0.00044320,-0.00175267,0.00070516,-0.003
 35987,0.00367595,-0.00356693,0.07503347,-0.10404259,-0.21387655,-0.000
 00752,0.00000512,-0.00000842,-0.00002478,0.00004842,-0.00004922,-0.000
 00315,-0.00000298,0.00000068,-0.00000234,0.00000174,0.00000312,0.00000
 601,0.00000252,0.00000091,-0.00000509,-0.00000120,-0.00000442,0.000007
 87,-0.00000192,0.00000484,-0.00000278,0.00000450,0.00000262,-0.0000063
 8,0.00000267,-0.00000046,-0.00000623,-0.00000369,0.00000686,0.00001047
 ,-0.00000065,-0.00000102,-0.00006873,0.00005805,-0.00007030,-0.0002416
 1,-0.00004302,0.00047777,-0.00007627,0.00126050,0.00017725,0.00064838,
 -0.00071322,-0.00155420,-0.00002653,0.00010095,0.00035743,-0.00006816,
 -0.00010030,0.00018277,-0.00087543,0.00081892,0.00020065,-0.08020084,0
 .11090860,0.23581045,0.00013070,-0.00025222,-0.00000508,-0.00140939,-0
 .00193723,-0.00112269,-0.00003962,-0.00002402,-0.00000251,0.00221152,0
 .01345800,0.00067746,-0.00004418,-0.00022008,0.00002486,0.00105607,0.0
 0008110,0.00073765,0.00011644,0.00025302,-0.00007148,-0.00075187,0.000
 79094,-0.00024599,-0.00012057,0.00002848,0.00005528,-0.00016932,0.0000
 8275,0.00014412,0.00002154,0.00000153,-0.00000225,0.00002423,0.0000094
 7,-0.00001174,0.00002191,0.00001029,0.00000769,-0.00106214,0.00081949,
 -0.00223427,-0.00010971,-0.00032155,0.00070900,-0.05862823,-0.05842127
 ,0.00583995,-0.00001419,-0.00000288,-0.00001382,0.00007517,-0.00004633
 ,-0.00001176,-0.00001120,-0.00000431,0.00000892,-0.00000790,-0.0000033
 4,-0.00000370,0.00001696,-0.00000212,0.00000075,-0.00001020,-0.0000027
 4,-0.00000448,0.00001753,-0.00000113,0.00000592,-0.00000786,0.00000266
 ,-0.00000210,-0.00000985,-0.00000220,0.00000640,-0.00000803,0.00000007
 ,0.00000655,0.00001790,-0.00000140,-0.00000452,0.00048086,0.00027581,-
 0.00013177,0.00075839,0.00080031,-0.00030922,-0.00012582,-0.00028367,-
 0.00011253,-0.00011029,0.00007887,0.00006760,-0.00005339,-0.00015541,-
 0.00008440,0.00025760,-0.00014337,0.00000201,-0.00554893,-0.03079839,0
 .00281459,0.00211835,0.01149874,-0.00160467,0.06095935,-0.00004694,0.0
 0018157,-0.00001282,-0.00402693,-0.00065898,-0.00340426,-0.00000516,0.
 00002313,-0.00002725,-0.00272438,-0.00986977,-0.00126971,0.00007641,-0
 .00009151,-0.00000889,-0.00036764,0.00018875,0.00009321,0.00003863,-0.
 00002012,0.00001870,0.00174113,-0.00214182,0.00027696,-0.00027019,0.00
 035522,0.00015355,0.00010036,0.00004506,-0.00005062,0.00000483,-0.0000
 0826,0.00000748,-0.00000563,-0.00000088,0.00000480,0.00000779,-0.00000
 125,0.00000766,0.00196087,-0.00016396,0.00318563,0.00009209,0.00043388
 ,-0.00031457,-0.05689236,-0.29374760,0.02983814,0.00009639,0.00001714,
 0.00002898,-0.00013899,0.00010767,0.00000214,0.00000479,0.00000382,-0.
 00001199,0.00000498,0.00000195,0.00000730,-0.00000611,0.00000610,-0.00
 000086,-0.00000162,0.00000555,-0.00000117,-0.00000195,0.00000072,-0.00
 000335,0.00000023,-0.00000367,0.00000012,-0.00000293,0.00000420,0.0000
 0017,0.00000149,0.00000049,-0.00000571,-0.00000100,-0.00000117,-0.0000
 0239,0.00003744,0.00026313,-0.00018147,-0.00032744,-0.00080636,0.00022
 911,-0.00005365,0.00044542,-0.00009135,0.00009697,0.00013027,0.0001004
 7,0.00007382,-0.00004439,0.00004900,-0.00014385,0.00029422,0.00061831,
 0.00029730,-0.00171728,-0.00037079,-0.00433708,-0.01475675,0.00234292,
 0.06581828,0.32051293,0.00007992,-0.00017660,-0.00001003,-0.00017079,-
 0.00179088,-0.00067656,-0.00002306,-0.00002947,0.00000218,0.00849801,0
 .02480085,-0.00061862,-0.00001300,-0.00011162,-0.00002231,0.00115185,-
 0.00097893,0.00077578,0.00007269,0.00014190,-0.00001949,-0.00104915,0.
 00157503,0.00002771,0.00006754,-0.00021929,-0.00001826,-0.00011541,0.0
 0006465,0.00013454,0.00001245,-0.00000279,0.00001010,0.00001659,0.0000
 0762,-0.00000748,0.00001543,0.00000266,0.00001700,-0.00252438,0.001528
 08,-0.00478106,0.00036522,0.00022996,0.00221023,0.00581832,0.03131189,
 -0.05036040,-0.00005251,-0.00000541,0.00002027,0.00010181,-0.00005264,
 -0.00004942,-0.00000565,0.00000142,0.00000394,-0.00000571,-0.00000209,
 -0.00000826,0.00000964,-0.00000102,-0.00000126,-0.00000502,-0.00000066
 ,-0.00000326,0.00001030,-0.00000150,0.00000557,-0.00000380,0.00000151,
 -0.00000402,-0.00000494,-0.00000157,0.00000006,-0.00000362,0.00000173,
 -0.00000132,0.00000955,-0.00000119,-0.00000640,-0.00003341,-0.00027355
 ,-0.00014874,0.00023578,0.00190396,0.00019437,-0.00021272,0.00025161,0
 .00021201,-0.00017807,-0.00022174,0.00018300,0.00003703,0.00003210,-0.
 00009972,-0.00000109,-0.00062051,-0.00025030,0.00026967,0.00058625,-0.
 00125019,-0.00701121,-0.02485564,0.00322052,-0.00204585,-0.03089859,0.
 05532180,-0.22714584,-0.26481352,0.00038652,-0.00033575,0.00014986,-0.
 00000045,-0.00013656,0.00056850,-0.00000099,-0.00006186,0.00006975,-0.
 00000006,-0.00280580,0.00499953,-0.00001052,-0.00081944,0.00044349,-0.
 00000083,0.01470704,0.02419090,-0.00003651,-0.00023190,-0.00068168,0.0
 0000100,0.00099045,0.00017845,-0.00000027,0.00180544,0.00504281,-0.000
 00781,-0.00003597,-0.00001412,0.00000005,-0.00021926,0.00015806,-0.000
 31768,-0.00021983,0.00015928,0.00031728,0.00007857,0.00003776,-0.00000
 011,0.00003641,-0.00001470,0.00004857,0.00003649,-0.00001490,-0.000048
 51,-0.00013851,0.00023410,-0.00000041,0.00245523,-0.00311485,0.0000060
 5,-0.00000223,-0.00000417,0.00000244,-0.00000223,-0.00000415,-0.000002
 43,-0.00000331,-0.00000119,0.,0.00000089,-0.00057446,0.00027648,-0.000
 06901,-0.00019035,-0.00003568,-0.00004789,-0.00011872,-0.00004358,0.00
 000099,-0.00057581,-0.00027460,-0.00004796,-0.00011870,0.00004399,-0.0
 0006903,-0.00019032,0.00003634,0.00008899,-0.00008805,0.00000021,-0.00
 006541,-0.00001312,0.00013376,-0.00006525,-0.00001356,-0.00013373,-0.0
 0000657,0.00001340,0.00001404,0.00001836,-0.00000906,-0.00001462,0.000
 01284,-0.00004441,-0.00001917,0.00001835,-0.00000902,0.00001468,-0.000
 00656,0.00001336,-0.00001407,0.00001284,-0.00004433,0.00001934,0.21224
 584,-0.21379868,-0.35755117,0.00054970,-0.00054685,0.00092226,-0.00000
 200,0.00008795,0.00003810,-0.00000037,0.00019504,0.00026349,-0.0000006
 5,0.00545528,-0.00200530,0.00000825,-0.00000188,-0.00082105,-0.0000001
 1,-0.02148876,-0.03756212,0.00005392,0.00070827,0.00001326,0.00000071,
 -0.00193990,-0.00084586,0.00000274,-0.00302460,0.00459618,-0.00000986,
 0.00005348,-0.00002497,-0.00000013,0.00024126,0.00029381,0.00004917,0.
 00024239,0.00029340,-0.00005133,-0.00014279,-0.00000788,0.00000024,-0.
 00010778,-0.00003776,-0.00005410,-0.00010798,-0.00003751,0.00005426,0.
 00029178,-0.00022764,0.00000036,0.00018550,0.00102859,-0.00000006,-0.0
 0001518,0.00000680,-0.00000024,-0.00001518,0.00000667,0.00000018,0.000
 03148,0.00001151,-0.00000002,-0.00046347,-0.00018333,-0.00032602,0.000
 11096,0.00008610,0.00002011,-0.00001729,0.00002369,0.00001312,-0.00046
 307,-0.00018066,0.00032700,-0.00001709,0.00002418,-0.00001336,0.000110
 94,0.00008631,-0.00002047,-0.00008489,0.00001580,-0.00000013,0.0000400
 4,0.00003610,-0.00000773,0.00003987,0.00003613,0.00000750,0.00003187,-
 0.00000643,-0.00000836,-0.00007197,0.00000932,0.00003072,0.00003128,-0
 .00001357,-0.00001886,-0.00007196,0.00000924,-0.00003086,0.00003187,-0
 .00000644,0.00000832,0.00003129,-0.00001347,0.00001891,0.23431236,0.39
 174922,0.00029612,0.00053164,-0.00250074,0.00000081,-0.00000163,-0.000
 05507,-0.00000013,-0.00000019,-0.00019525,-0.00000029,-0.00000070,-0.0
 0016116,-0.00001120,0.00000804,0.00152227,0.00000005,0.00000020,-0.000
 80019,0.00004457,0.00007011,-0.00248898,-0.00000144,0.00000011,0.00024
 780,0.00000337,0.00000345,0.00113739,0.00000625,-0.00000676,-0.0003896
 7,-0.00000008,-0.00000015,-0.00010627,-0.00030221,0.00008125,-0.000366
 24,0.00030157,-0.00008351,-0.00036530,0.00000020,0.00000032,0.00017253
 ,0.00004200,-0.00002419,0.00003341,-0.00004161,0.00002441,0.00003305,-
 0.00000053,0.00000032,-0.00008881,0.00000022,-0.00000148,0.00091379,0.
 00000196,0.00003637,-0.00000659,-0.00000190,-0.00003641,-0.00000647,-0
 .00000006,-0.00000004,-0.00000591,-0.00019882,-0.00044178,0.00019032,0
 .00001074,-0.00007756,-0.00003920,-0.00005608,-0.00015404,-0.00004157,
 0.00020031,0.00044270,0.00018753,0.00005611,0.00015372,-0.00004199,-0.
 00001116,0.00007699,-0.00003937,0.00000021,-0.00000013,-0.00003898,0.0
 0004662,0.00000023,-0.00004591,-0.00004677,-0.00000051,-0.00004611,-0.
 00000317,0.00001310,-0.00002139,0.00000310,-0.00000614,-0.00001387,0.0
 0000066,-0.00000646,-0.00000934,-0.00000282,0.00000606,-0.00001377,0.0
 0000307,-0.00001314,-0.00002139,-0.00000075,0.00000644,-0.00000941,-0.
 00033866,-0.00060072,0.00347254,0.00071708,-0.00107955,0.00000223,-0.5
 3103782,-0.06256869,0.00010071,-0.00006750,0.00016550,-0.00000033,0.00
 231979,0.00038521,-0.00000112,-0.00088198,-0.00056922,0.,0.00297800,-0
 .00240228,0.00000464,-0.00050394,0.00037782,-0.00000086,-0.02458458,-0
 .00009143,-0.00000234,0.00091770,0.00314572,-0.00000480,-0.00050110,-0
 .00062020,0.00000058,0.00004009,0.00001660,0.,-0.00000291,-0.00000496,
 -0.00000725,-0.00000291,-0.00000493,0.00000725,-0.00055434,0.00030858,
 0.00000009,-0.00242308,-0.00212394,-0.00003832,-0.00242181,-0.00211819
 ,0.00004157,0.00021233,0.00015558,0.00000018,0.00029957,-0.00035660,0.
 00000072,-0.00002640,-0.00001631,0.00003084,-0.00002638,-0.00001642,-0
 .00003080,0.00004317,-0.00000449,0.00000002,-0.00004023,-0.00000706,-0
 .00001938,0.00003812,0.00001134,-0.00000140,-0.00001742,0.00000896,-0.
 00001278,-0.00004025,-0.00000699,0.00001937,-0.00001743,0.00000900,0.0
 0001274,0.00003812,0.00001134,0.00000139,-0.00013819,-0.00008822,0.000
 00002,0.00007073,0.00014406,-0.00009963,0.00007063,0.00014490,0.000099
 33,0.00023382,0.00082018,0.00000129,-0.00032122,-0.00022181,0.00011959
 ,-0.00006015,-0.00104493,0.00334122,-0.00032161,-0.00022365,-0.0001192
 7,0.00023322,0.00081850,-0.00000363,-0.00005466,-0.00105562,-0.0033317
 6,0.00002744,0.00014639,-0.00000024,0.55580609,0.00001436,-0.00019412,
 0.00000018,-0.11333102,-0.06154403,0.00011201,0.00004777,-0.00029615,0
 .00000042,-0.00031671,-0.00369802,0.00000912,0.00130718,0.00161248,0.0
 0000106,0.00070907,0.00029819,0.00000035,-0.00086005,-0.00033486,0.000
 00032,0.04364898,0.00580678,-0.00001475,0.00320059,-0.00667876,0.00001
 515,0.00093363,-0.00016435,0.00000011,-0.00001940,-0.00002117,0.000000
 03,0.00001412,-0.00002122,-0.00000772,0.00001417,-0.00002123,0.0000079
 2,-0.00003625,-0.00001582,-0.00000201,-0.00105255,-0.00117503,0.000837
 27,-0.00105244,-0.00118819,-0.00083053,0.00024410,0.00010656,-0.000001
 58,-0.00001897,0.00011284,-0.00000021,0.00001043,0.00000102,-0.0000090
 3,0.00001039,0.00000102,0.00000900,-0.00000705,0.00000358,0.,0.0000130
 2,-0.00000719,0.00000593,-0.00001093,0.00000147,0.00001068,0.00000562,
 0.00000553,0.00000875,0.00001304,-0.00000722,-0.00000591,0.00000563,0.
 00000552,-0.00000882,-0.00001095,0.00000142,-0.00001071,0.00001457,0.0
 0012862,-0.00000001,0.00003747,0.00019004,-0.00006515,0.00003752,0.000
 18906,0.00006421,0.00037995,0.00035791,-0.00032525,0.00023223,0.000504
 40,-0.00015186,-0.00141083,0.00103570,0.00219841,0.00023304,0.00050803
 ,0.00015004,0.00038035,0.00036158,0.00032340,-0.00141744,0.00102602,-0
 .00221444,0.00008159,-0.00002501,0.00000010,0.06795578,0.06313457,0.00
 000067,-0.00000074,-0.00007496,0.00020003,0.00011240,0.00261418,-0.000
 00011,0.00000060,-0.00008731,-0.00000003,0.00000910,0.00273966,-0.0000
 0444,0.00000027,0.00161730,-0.00000061,-0.00000055,0.00011819,0.000000
 44,0.00000053,0.00010338,-0.00008851,-0.00001492,-0.00372133,-0.000006
 37,0.00001688,0.00133165,-0.00000031,-0.00000051,-0.00056036,0.0000000
 5,0.00000006,-0.00000556,-0.00002218,0.00000473,0.00002835,0.00002199,
 -0.00000461,0.00002828,0.00000056,-0.00000224,-0.00134787,0.00010809,0
 .00358282,0.00120872,-0.00010830,-0.00357370,0.00122387,0.00000014,-0.
 00000150,-0.00076474,0.00000006,-0.00000021,-0.00002608,0.00000670,0.0
 0000911,-0.00000734,-0.00000673,-0.00000917,-0.00000734,0.00000002,0.,
 0.00000513,-0.00000303,0.00000388,-0.00000089,0.00000483,0.00000515,-0
 .00000710,-0.00000175,-0.00000712,-0.00001487,0.00000292,-0.00000385,-
 0.00000082,0.00000173,0.00000704,-0.00001484,-0.00000479,-0.00000514,-
 0.00000700,-0.00000012,-0.00000002,0.00012642,-0.00003744,0.00039820,-
 0.00011517,0.00003746,-0.00039902,-0.00011393,-0.00027133,-0.00091324,
 -0.00028747,-0.00032883,-0.00115384,-0.00000465,0.00309381,0.00029796,
 -0.00399610,0.00032796,0.00115122,-0.00000897,0.00027056,0.00091203,-0
 .00029133,-0.00308318,-0.00031531,-0.00399258,-0.00000007,0.00000015,0
 .00000834,-0.00010989,-0.00010647,0.00430514\\0.00000244,-0.00000246,0
 .00000034,0.00000138,-0.00000147,0.00000030,0.00000327,-0.00000026,-0.
 00000083,0.00000277,0.00000014,0.00000124,0.00000091,-0.00000009,-0.00
 000011,-0.00000222,-0.00000566,-0.00000054,0.00000035,0.00000290,-0.00
 000023,0.00000112,0.00000240,0.00000007,-0.00000416,0.00000142,0.00000
 021,-0.00000244,0.00000311,-0.00000039,-0.00000058,0.00000029,-0.00000
 014,-0.00000069,0.00000001,0.00000035,-0.00000075,0.00000003,0.0000006
 0,0.00000001,-0.00000051,0.,-0.00000359,0.00000170,-0.00000021,-0.0000
 0273,0.00000082,-0.00000157,0.00000029,0.00000003,-0.00000021,-0.00000
 214,-0.00000077,0.00000062,-0.00000053,0.00000064,0.00000005,-0.000000
 08,0.00000051,0.00000029,-0.00000022,0.00000074,-0.00000018,-0.0000004
 9,-0.00000018,-0.00000025,0.00000015,0.00000056,0.00000008,0.00000005,
 0.00000003,-0.00000023,-0.00000021,0.00000019,-0.00000014,0.00000007,0
 .00000020,0.00000009,-0.00000012,0.00000077,0.00000027,0.00000008,-0.0
 0000065,-0.00000011,0.00000191,-0.00000026,-0.00000043,0.00000089,-0.0
 0000032,0.00000058,0.00000077,-0.00000037,0.00000056,0.00000121,-0.000
 00139,-0.00000038,0.00000091,-0.00000133,0.00000113,0.00000066,-0.0000
 0097,0.00000019,0.00000071,-0.00000038,0.00000007,0.00000110,-0.000000
 44,0.00000005,0.00000037,0.00000047,-0.00000020,-0.00000046,0.00000052
 ,-0.00000097\\\@


 A CHEMICAL PHYSICIST MAKES PRECISE MEASUREMENTS ON IMPURE COMPOUNDS.
 A THEORETICAL PHYSICAL CHEMIST MAKES IMPRECISE
     MEASUREMENTS ON PURE COMPOUNDS.
 AN EXPERIMENTAL PHYSICAL CHEMIST MAKES IMPRECISE
     MEASUREMENTS ON IMPURE COMPOUNDS.
 Job cpu time:       0 days 14 hours 15 minutes 42.2 seconds.
 Elapsed time:       0 days  0 hours 53 minutes 41.8 seconds.
 File lengths (MBytes):  RWF=    804 Int=      0 D2E=      0 Chk=     25 Scr=      1
 Normal termination of Gaussian 16 at Fri Sep 19 08:41:06 2025.
