 Entering Gaussian System, Link 0=g16
 Input=DIYN0100.gjf
 Output=DIYN0100.log
 Initial command:
 /usr/local/g16/l1.exe "/dados_01/scratch/Gau-2024163.inp" -scrdir="/dados_01/scratch/"
 Entering Link 1 = /usr/local/g16/l1.exe PID=   2024164.
  
 Copyright (c) 1988-2017, Gaussian, Inc.  All Rights Reserved.
  
 This is part of the Gaussian(R) 16 program.  It is based on
 the Gaussian(R) 09 system (copyright 2009, Gaussian, Inc.),
 the Gaussian(R) 03 system (copyright 2003, Gaussian, Inc.),
 the Gaussian(R) 98 system (copyright 1998, Gaussian, Inc.),
 the Gaussian(R) 94 system (copyright 1995, Gaussian, Inc.),
 the Gaussian 92(TM) system (copyright 1992, Gaussian, Inc.),
 the Gaussian 90(TM) system (copyright 1990, Gaussian, Inc.),
 the Gaussian 88(TM) system (copyright 1988, Gaussian, Inc.),
 the Gaussian 86(TM) system (copyright 1986, Carnegie Mellon
 University), and the Gaussian 82(TM) system (copyright 1983,
 Carnegie Mellon University). Gaussian is a federally registered
 trademark of Gaussian, Inc.
  
 This software contains proprietary and confidential information,
 including trade secrets, belonging to Gaussian, Inc.
  
 This software is provided under written license and may be
 used, copied, transmitted, or stored only in accord with that
 written license.
  
 The following legend is applicable only to US Government
 contracts under FAR:
  
                    RESTRICTED RIGHTS LEGEND
  
 Use, reproduction and disclosure by the US Government is
 subject to restrictions as set forth in subparagraphs (a)
 and (c) of the Commercial Computer Software - Restricted
 Rights clause in FAR 52.227-19.
  
 Gaussian, Inc.
 340 Quinnipiac St., Bldg. 40, Wallingford CT 06492
  
  
 ---------------------------------------------------------------
 Warning -- This program may not be used in any manner that
 competes with the business of Gaussian, Inc. or will provide
 assistance to any competitor of Gaussian, Inc.  The licensee
 of this program is prohibited from giving any competitor of
 Gaussian, Inc. access to this program.  By using this program,
 the user acknowledges that Gaussian, Inc. is engaged in the
 business of creating and licensing software in the field of
 computational chemistry and represents and warrants to the
 licensee that it is not a competitor of Gaussian, Inc. and that
 it will not use this program in any manner prohibited above.
 ---------------------------------------------------------------
  

 Cite this work as:
 Gaussian 16, Revision B.01,
 M. J. Frisch, G. W. Trucks, H. B. Schlegel, G. E. Scuseria, 
 M. A. Robb, J. R. Cheeseman, G. Scalmani, V. Barone, 
 G. A. Petersson, H. Nakatsuji, X. Li, M. Caricato, A. V. Marenich, 
 J. Bloino, B. G. Janesko, R. Gomperts, B. Mennucci, H. P. Hratchian, 
 J. V. Ortiz, A. F. Izmaylov, J. L. Sonnenberg, D. Williams-Young, 
 F. Ding, F. Lipparini, F. Egidi, J. Goings, B. Peng, A. Petrone, 
 T. Henderson, D. Ranasinghe, V. G. Zakrzewski, J. Gao, N. Rega, 
 G. Zheng, W. Liang, M. Hada, M. Ehara, K. Toyota, R. Fukuda, 
 J. Hasegawa, M. Ishida, T. Nakajima, Y. Honda, O. Kitao, H. Nakai, 
 T. Vreven, K. Throssell, J. A. Montgomery, Jr., J. E. Peralta, 
 F. Ogliaro, M. J. Bearpark, J. J. Heyd, E. N. Brothers, K. N. Kudin, 
 V. N. Staroverov, T. A. Keith, R. Kobayashi, J. Normand, 
 K. Raghavachari, A. P. Rendell, J. C. Burant, S. S. Iyengar, 
 J. Tomasi, M. Cossi, J. M. Millam, M. Klene, C. Adamo, R. Cammi, 
 J. W. Ochterski, R. L. Martin, K. Morokuma, O. Farkas, 
 J. B. Foresman, and D. J. Fox, Gaussian, Inc., Wallingford CT, 2016.
 
 ******************************************
 Gaussian 16:  ES64L-G16RevB.01 20-Dec-2017
                19-Sep-2025 
 ******************************************
 %nprocs=16
 Will use up to   16 processors via shared memory.
 %mem=40GB
 %chk=DIYN0100.chk
 ----------------------------------------------------------------------
 # opt freq=noraman M08HX/6-311++G** scf=xqc Empiricaldispersion=pfd In
 t(Grid=ultraFine)
 ----------------------------------------------------------------------
 1/18=20,19=15,26=4,38=1/1,3;
 2/9=110,12=2,17=6,18=5,40=1/2;
 3/5=4,6=6,7=1111,11=2,25=1,30=1,71=1,74=-74,75=-5,124=11/1,2,3;
 4//1;
 5/5=2,8=3,13=1,38=5/2,8;
 6/7=2,8=2,9=2,10=2,28=1/1;
 7//1,2,3,16;
 1/18=20,19=15,26=4/3(2);
 2/9=110/2;
 99//99;
 2/9=110/2;
 3/5=4,6=6,7=1111,11=2,25=1,30=1,71=1,74=-74,75=-5,124=11/1,2,3;
 4/5=5,16=3,69=1/1;
 5/5=2,8=3,13=1,38=5/2,8;
 7//1,2,3,16;
 1/18=20,19=15,26=4/3(-5);
 2/9=110/2;
 6/7=2,8=2,9=2,10=2,19=2,28=1/1;
 99/9=1/99;
 --------
 DIYN0100
 --------
 Symbolic Z-matrix:
 Charge =  0 Multiplicity = 1
 O                     2.3342   -1.1953   -0.1446 
 O                     3.0165    1.058    -0.013 
 C                    -4.2302    0.6932   -0.1636 
 C                    -2.7842    0.2401    0.0659 
 C                    -5.2214   -0.4116    0.2035 
 C                    -1.7581    1.308    -0.318 
 C                    -6.6567    0.0215   -0.0501 
 C                     2.1093    0.0689    0.4884 
 C                    -0.3815    0.8832   -0.0305 
 C                     0.741     0.525     0.2023 
 C                     1.4384   -2.2049    0.3041 
 C                     4.3763    0.7102    0.215 
 C                     1.7517   -3.4983   -0.4174 
 C                     5.2648    1.802    -0.3419 
 H                    -4.4342    1.5882    0.4366 
 H                    -4.3619    0.9717   -1.2161 
 H                    -2.5907   -0.6729   -0.5123 
 H                    -2.6546   -0.0287    1.1224 
 H                    -5.1065   -0.6788    1.2604 
 H                    -5.01     -1.3127   -0.384 
 H                    -1.9709    2.2337    0.2297 
 H                    -1.8535    1.5409   -1.385 
 H                    -7.3486   -0.7825    0.2201 
 H                    -6.9113    0.9035    0.5462 
 H                    -6.8128    0.2635   -1.1062 
 H                     2.2601   -0.0312    1.5704 
 H                     1.5555   -2.3466    1.3843 
 H                     0.3976   -1.9441    0.0896 
 H                     4.5535    0.6006    1.2906 
 H                     4.6163   -0.2352   -0.2833 
 H                     1.0848   -4.3009   -0.09 
 H                     1.6466   -3.3712   -1.5 
 H                     2.7873   -3.8021   -0.2318 
 H                     6.3207    1.5672   -0.1811 
 H                     5.0909    1.9306   -1.4154 
 H                     5.04      2.7622    0.1341 
 

 GradGradGradGradGradGradGradGradGradGradGradGradGradGradGradGradGradGrad
 Berny optimization.
 Initialization pass.
                           ----------------------------
                           !    Initial Parameters    !
                           ! (Angstroms and Degrees)  !
 --------------------------                            --------------------------
 ! Name  Definition              Value          Derivative Info.                !
 --------------------------------------------------------------------------------
 ! R1    R(1,8)                  1.4316         estimate D2E/DX2                !
 ! R2    R(1,11)                 1.4224         estimate D2E/DX2                !
 ! R3    R(2,8)                  1.4327         estimate D2E/DX2                !
 ! R4    R(2,12)                 1.422          estimate D2E/DX2                !
 ! R5    R(3,4)                  1.5326         estimate D2E/DX2                !
 ! R6    R(3,5)                  1.529          estimate D2E/DX2                !
 ! R7    R(3,15)                 1.0968         estimate D2E/DX2                !
 ! R8    R(3,16)                 1.0967         estimate D2E/DX2                !
 ! R9    R(4,6)                  1.5299         estimate D2E/DX2                !
 ! R10   R(4,17)                 1.0979         estimate D2E/DX2                !
 ! R11   R(4,18)                 1.0978         estimate D2E/DX2                !
 ! R12   R(5,7)                  1.5205         estimate D2E/DX2                !
 ! R13   R(5,19)                 1.0962         estimate D2E/DX2                !
 ! R14   R(5,20)                 1.0963         estimate D2E/DX2                !
 ! R15   R(6,9)                  1.4691         estimate D2E/DX2                !
 ! R16   R(6,21)                 1.0964         estimate D2E/DX2                !
 ! R17   R(6,22)                 1.0963         estimate D2E/DX2                !
 ! R18   R(7,23)                 1.0946         estimate D2E/DX2                !
 ! R19   R(7,24)                 1.0947         estimate D2E/DX2                !
 ! R20   R(7,25)                 1.0947         estimate D2E/DX2                !
 ! R21   R(8,10)                 1.4704         estimate D2E/DX2                !
 ! R22   R(8,26)                 1.097          estimate D2E/DX2                !
 ! R23   R(9,10)                 1.201          estimate D2E/DX2                !
 ! R24   R(11,13)                1.5138         estimate D2E/DX2                !
 ! R25   R(11,27)                1.0957         estimate D2E/DX2                !
 ! R26   R(11,28)                1.0942         estimate D2E/DX2                !
 ! R27   R(12,14)                1.5138         estimate D2E/DX2                !
 ! R28   R(12,29)                1.0956         estimate D2E/DX2                !
 ! R29   R(12,30)                1.0953         estimate D2E/DX2                !
 ! R30   R(13,31)                1.0937         estimate D2E/DX2                !
 ! R31   R(13,32)                1.0951         estimate D2E/DX2                !
 ! R32   R(13,33)                1.0951         estimate D2E/DX2                !
 ! R33   R(14,34)                1.0936         estimate D2E/DX2                !
 ! R34   R(14,35)                1.0951         estimate D2E/DX2                !
 ! R35   R(14,36)                1.095          estimate D2E/DX2                !
 ! A1    A(8,1,11)             112.8541         estimate D2E/DX2                !
 ! A2    A(8,2,12)             112.3673         estimate D2E/DX2                !
 ! A3    A(4,3,5)              111.227          estimate D2E/DX2                !
 ! A4    A(4,3,15)             109.5603         estimate D2E/DX2                !
 ! A5    A(4,3,16)             109.3962         estimate D2E/DX2                !
 ! A6    A(5,3,15)             109.7352         estimate D2E/DX2                !
 ! A7    A(5,3,16)             109.6376         estimate D2E/DX2                !
 ! A8    A(15,3,16)            107.1958         estimate D2E/DX2                !
 ! A9    A(3,4,6)              112.8831         estimate D2E/DX2                !
 ! A10   A(3,4,17)             109.4681         estimate D2E/DX2                !
 ! A11   A(3,4,18)             109.1397         estimate D2E/DX2                !
 ! A12   A(6,4,17)             109.2754         estimate D2E/DX2                !
 ! A13   A(6,4,18)             109.4637         estimate D2E/DX2                !
 ! A14   A(17,4,18)            106.4037         estimate D2E/DX2                !
 ! A15   A(3,5,7)              111.474          estimate D2E/DX2                !
 ! A16   A(3,5,19)             109.8564         estimate D2E/DX2                !
 ! A17   A(3,5,20)             109.892          estimate D2E/DX2                !
 ! A18   A(7,5,19)             109.219          estimate D2E/DX2                !
 ! A19   A(7,5,20)             109.0729         estimate D2E/DX2                !
 ! A20   A(19,5,20)            107.2251         estimate D2E/DX2                !
 ! A21   A(4,6,9)              112.1806         estimate D2E/DX2                !
 ! A22   A(4,6,21)             109.4996         estimate D2E/DX2                !
 ! A23   A(4,6,22)             109.5208         estimate D2E/DX2                !
 ! A24   A(9,6,21)             109.1622         estimate D2E/DX2                !
 ! A25   A(9,6,22)             109.4784         estimate D2E/DX2                !
 ! A26   A(21,6,22)            106.8538         estimate D2E/DX2                !
 ! A27   A(5,7,23)             110.2605         estimate D2E/DX2                !
 ! A28   A(5,7,24)             110.9891         estimate D2E/DX2                !
 ! A29   A(5,7,25)             111.0075         estimate D2E/DX2                !
 ! A30   A(23,7,24)            108.0792         estimate D2E/DX2                !
 ! A31   A(23,7,25)            108.0831         estimate D2E/DX2                !
 ! A32   A(24,7,25)            108.3155         estimate D2E/DX2                !
 ! A33   A(1,8,2)              110.8193         estimate D2E/DX2                !
 ! A34   A(1,8,10)             109.516          estimate D2E/DX2                !
 ! A35   A(1,8,26)             109.5076         estimate D2E/DX2                !
 ! A36   A(2,8,10)             107.878          estimate D2E/DX2                !
 ! A37   A(2,8,26)             108.7304         estimate D2E/DX2                !
 ! A38   A(10,8,26)            110.3725         estimate D2E/DX2                !
 ! A39   A(1,11,13)            109.012          estimate D2E/DX2                !
 ! A40   A(1,11,27)            109.6017         estimate D2E/DX2                !
 ! A41   A(1,11,28)            111.5948         estimate D2E/DX2                !
 ! A42   A(13,11,27)           109.7094         estimate D2E/DX2                !
 ! A43   A(13,11,28)           107.8829         estimate D2E/DX2                !
 ! A44   A(27,11,28)           109.0098         estimate D2E/DX2                !
 ! A45   A(2,12,14)            109.0188         estimate D2E/DX2                !
 ! A46   A(2,12,29)            109.6668         estimate D2E/DX2                !
 ! A47   A(2,12,30)            110.3471         estimate D2E/DX2                !
 ! A48   A(14,12,29)           109.7787         estimate D2E/DX2                !
 ! A49   A(14,12,30)           109.0596         estimate D2E/DX2                !
 ! A50   A(29,12,30)           108.9568         estimate D2E/DX2                !
 ! A51   A(11,13,31)           110.9855         estimate D2E/DX2                !
 ! A52   A(11,13,32)           110.6189         estimate D2E/DX2                !
 ! A53   A(11,13,33)           110.6079         estimate D2E/DX2                !
 ! A54   A(31,13,32)           108.82           estimate D2E/DX2                !
 ! A55   A(31,13,33)           108.8041         estimate D2E/DX2                !
 ! A56   A(32,13,33)           106.8885         estimate D2E/DX2                !
 ! A57   A(12,14,34)           110.9629         estimate D2E/DX2                !
 ! A58   A(12,14,35)           110.6174         estimate D2E/DX2                !
 ! A59   A(12,14,36)           110.6108         estimate D2E/DX2                !
 ! A60   A(34,14,35)           108.8256         estimate D2E/DX2                !
 ! A61   A(34,14,36)           108.8185         estimate D2E/DX2                !
 ! A62   A(35,14,36)           106.891          estimate D2E/DX2                !
 ! A63   L(6,9,10,31,-1)       179.4517         estimate D2E/DX2                !
 ! A64   L(8,10,9,28,-1)       179.2832         estimate D2E/DX2                !
 ! A65   L(6,9,10,31,-2)       179.9605         estimate D2E/DX2                !
 ! A66   L(8,10,9,28,-2)       179.8981         estimate D2E/DX2                !
 ! D1    D(11,1,8,2)          -178.8977         estimate D2E/DX2                !
 ! D2    D(11,1,8,10)          -60.0014         estimate D2E/DX2                !
 ! D3    D(11,1,8,26)           61.1565         estimate D2E/DX2                !
 ! D4    D(8,1,11,13)          179.9985         estimate D2E/DX2                !
 ! D5    D(8,1,11,27)          -59.9118         estimate D2E/DX2                !
 ! D6    D(8,1,11,28)           60.9407         estimate D2E/DX2                !
 ! D7    D(12,2,8,1)           -60.1237         estimate D2E/DX2                !
 ! D8    D(12,2,8,10)          179.9957         estimate D2E/DX2                !
 ! D9    D(12,2,8,26)           60.2854         estimate D2E/DX2                !
 ! D10   D(8,2,12,14)         -179.9987         estimate D2E/DX2                !
 ! D11   D(8,2,12,29)          -59.7806         estimate D2E/DX2                !
 ! D12   D(8,2,12,30)           60.251          estimate D2E/DX2                !
 ! D13   D(5,3,4,6)            178.7827         estimate D2E/DX2                !
 ! D14   D(5,3,4,17)            56.829          estimate D2E/DX2                !
 ! D15   D(5,3,4,18)           -59.258          estimate D2E/DX2                !
 ! D16   D(15,3,4,6)           -59.7211         estimate D2E/DX2                !
 ! D17   D(15,3,4,17)          178.3253         estimate D2E/DX2                !
 ! D18   D(15,3,4,18)           62.2382         estimate D2E/DX2                !
 ! D19   D(16,3,4,6)            57.5189         estimate D2E/DX2                !
 ! D20   D(16,3,4,17)          -64.4347         estimate D2E/DX2                !
 ! D21   D(16,3,4,18)          179.4782         estimate D2E/DX2                !
 ! D22   D(4,3,5,7)           -178.7871         estimate D2E/DX2                !
 ! D23   D(4,3,5,19)            60.0039         estimate D2E/DX2                !
 ! D24   D(4,3,5,20)           -57.7383         estimate D2E/DX2                !
 ! D25   D(15,3,5,7)            59.8188         estimate D2E/DX2                !
 ! D26   D(15,3,5,19)          -61.3902         estimate D2E/DX2                !
 ! D27   D(15,3,5,20)         -179.1324         estimate D2E/DX2                !
 ! D28   D(16,3,5,7)           -57.6647         estimate D2E/DX2                !
 ! D29   D(16,3,5,19)         -178.8736         estimate D2E/DX2                !
 ! D30   D(16,3,5,20)           63.3842         estimate D2E/DX2                !
 ! D31   D(3,4,6,9)            177.1944         estimate D2E/DX2                !
 ! D32   D(3,4,6,21)            55.8344         estimate D2E/DX2                !
 ! D33   D(3,4,6,22)           -61.0294         estimate D2E/DX2                !
 ! D34   D(17,4,6,9)           -60.7435         estimate D2E/DX2                !
 ! D35   D(17,4,6,21)          177.8965         estimate D2E/DX2                !
 ! D36   D(17,4,6,22)           61.0326         estimate D2E/DX2                !
 ! D37   D(18,4,6,9)            55.4177         estimate D2E/DX2                !
 ! D38   D(18,4,6,21)          -65.9424         estimate D2E/DX2                !
 ! D39   D(18,4,6,22)          177.1938         estimate D2E/DX2                !
 ! D40   D(3,5,7,23)          -179.9335         estimate D2E/DX2                !
 ! D41   D(3,5,7,24)           -60.203          estimate D2E/DX2                !
 ! D42   D(3,5,7,25)            60.3192         estimate D2E/DX2                !
 ! D43   D(19,5,7,23)          -58.3539         estimate D2E/DX2                !
 ! D44   D(19,5,7,24)           61.3767         estimate D2E/DX2                !
 ! D45   D(19,5,7,25)         -178.1011         estimate D2E/DX2                !
 ! D46   D(20,5,7,23)           58.5408         estimate D2E/DX2                !
 ! D47   D(20,5,7,24)          178.2714         estimate D2E/DX2                !
 ! D48   D(20,5,7,25)          -61.2064         estimate D2E/DX2                !
 ! D49   D(4,6,8,1)             53.7468         estimate D2E/DX2                !
 ! D50   D(4,6,8,2)            174.4706         estimate D2E/DX2                !
 ! D51   D(4,6,8,26)           -66.5209         estimate D2E/DX2                !
 ! D52   D(21,6,8,1)           175.2927         estimate D2E/DX2                !
 ! D53   D(21,6,8,2)           -63.9835         estimate D2E/DX2                !
 ! D54   D(21,6,8,26)           55.0249         estimate D2E/DX2                !
 ! D55   D(22,6,8,1)           -67.7327         estimate D2E/DX2                !
 ! D56   D(22,6,8,2)            52.9911         estimate D2E/DX2                !
 ! D57   D(22,6,8,26)          171.9995         estimate D2E/DX2                !
 ! D58   D(1,11,13,31)         179.5595         estimate D2E/DX2                !
 ! D59   D(1,11,13,32)         -59.5445         estimate D2E/DX2                !
 ! D60   D(1,11,13,33)          58.6909         estimate D2E/DX2                !
 ! D61   D(27,11,13,31)         59.5363         estimate D2E/DX2                !
 ! D62   D(27,11,13,32)       -179.5677         estimate D2E/DX2                !
 ! D63   D(27,11,13,33)        -61.3323         estimate D2E/DX2                !
 ! D64   D(28,11,13,31)        -59.0939         estimate D2E/DX2                !
 ! D65   D(28,11,13,32)         61.8021         estimate D2E/DX2                !
 ! D66   D(28,11,13,33)       -179.9625         estimate D2E/DX2                !
 ! D67   D(2,12,14,34)         179.8699         estimate D2E/DX2                !
 ! D68   D(2,12,14,35)         -59.243          estimate D2E/DX2                !
 ! D69   D(2,12,14,36)          58.9963         estimate D2E/DX2                !
 ! D70   D(29,12,14,34)         59.7208         estimate D2E/DX2                !
 ! D71   D(29,12,14,35)       -179.3922         estimate D2E/DX2                !
 ! D72   D(29,12,14,36)        -61.1528         estimate D2E/DX2                !
 ! D73   D(30,12,14,34)        -59.5857         estimate D2E/DX2                !
 ! D74   D(30,12,14,35)         61.3013         estimate D2E/DX2                !
 ! D75   D(30,12,14,36)        179.5407         estimate D2E/DX2                !
 --------------------------------------------------------------------------------
 Trust Radius=3.00D-01 FncErr=1.00D-07 GrdErr=1.00D-06 EigMax=2.50D+02 EigMin=1.00D-04
 Number of steps in this run=    186 maximum allowed number of steps=    216.
 GradGradGradGradGradGradGradGradGradGradGradGradGradGradGradGradGradGrad

                          Input orientation:                          
 ---------------------------------------------------------------------
 Center     Atomic      Atomic             Coordinates (Angstroms)
 Number     Number       Type             X           Y           Z
 ---------------------------------------------------------------------
      1          8           0        2.334200   -1.195300   -0.144600
      2          8           0        3.016500    1.058000   -0.013000
      3          6           0       -4.230200    0.693200   -0.163600
      4          6           0       -2.784200    0.240100    0.065900
      5          6           0       -5.221400   -0.411600    0.203500
      6          6           0       -1.758100    1.308000   -0.318000
      7          6           0       -6.656700    0.021500   -0.050100
      8          6           0        2.109300    0.068900    0.488400
      9          6           0       -0.381500    0.883200   -0.030500
     10          6           0        0.741000    0.525000    0.202300
     11          6           0        1.438400   -2.204900    0.304100
     12          6           0        4.376300    0.710200    0.215000
     13          6           0        1.751700   -3.498300   -0.417400
     14          6           0        5.264800    1.802000   -0.341900
     15          1           0       -4.434200    1.588200    0.436600
     16          1           0       -4.361900    0.971700   -1.216100
     17          1           0       -2.590700   -0.672900   -0.512300
     18          1           0       -2.654600   -0.028700    1.122400
     19          1           0       -5.106500   -0.678800    1.260400
     20          1           0       -5.010000   -1.312700   -0.384000
     21          1           0       -1.970900    2.233700    0.229700
     22          1           0       -1.853500    1.540900   -1.385000
     23          1           0       -7.348600   -0.782500    0.220100
     24          1           0       -6.911300    0.903500    0.546200
     25          1           0       -6.812800    0.263500   -1.106200
     26          1           0        2.260100   -0.031200    1.570400
     27          1           0        1.555500   -2.346600    1.384300
     28          1           0        0.397600   -1.944100    0.089600
     29          1           0        4.553500    0.600600    1.290600
     30          1           0        4.616300   -0.235200   -0.283300
     31          1           0        1.084800   -4.300900   -0.090000
     32          1           0        1.646600   -3.371200   -1.500000
     33          1           0        2.787300   -3.802100   -0.231800
     34          1           0        6.320700    1.567200   -0.181100
     35          1           0        5.090900    1.930600   -1.415400
     36          1           0        5.040000    2.762200    0.134100
 ---------------------------------------------------------------------
                    Distance matrix (angstroms):
                    1          2          3          4          5
     1  O    0.000000
     2  O    2.358010   0.000000
     3  C    6.830676   7.257439   0.000000
     4  C    5.320028   5.858610   1.532608   0.000000
     5  C    7.604107   8.370758   1.528994   2.526577   0.000000
     6  C    4.800364   4.790859   2.552077   1.529925   3.901722
     7  C    9.073357   9.728644   2.520311   3.880399   1.520518
     8  C    1.431597   1.432736   6.403446   4.914688   7.351953
     9  C    3.421726   3.402538   3.855685   2.489144   5.015565
    10  C    2.370244   2.346986   4.987485   3.539323   6.035514
    11  C    1.422351   3.638333   6.383632   4.885193   6.897752
    12  C    2.816099   1.421972   8.614840   7.177464   9.663044
    13  C    2.391137   4.745854   7.308640   5.897762   7.650971
    14  C    4.196564   2.390934   9.561185   8.209277  10.731164
    15  H    7.341451   7.483060   1.096759   2.162705   2.161763
    16  H    7.119112   7.476342   1.096660   2.160532   2.160445
    17  H    4.966160   5.889483   2.162355   1.097874   2.738837
    18  H    5.277724   5.884847   2.158113   1.097835   2.753080
    19  H    7.589784   8.403639   2.162883   2.768444   1.096191
    20  H    7.349039   8.377503   2.163400   2.750960   1.096279
    21  H    5.516523   5.129847   2.762655   2.159335   4.190948
    22  H    5.153854   5.082566   2.803412   2.159489   4.204562
    23  H    9.698455  10.529818   3.471215   4.680089   2.159357
    24  H    9.505863   9.944737   2.781428   4.207581   2.168569
    25  H    9.312378   9.921767   2.782617   4.195710   2.168785
    26  H    2.074089   2.065346   6.756886   5.270872   7.614851
    27  H    2.066253   3.959579   6.716450   5.221321   7.145970
    28  H    2.089491   3.985194   5.332541   3.859423   5.825349
    29  H    3.195364   2.066629   8.903744   7.447932   9.887113
    30  H    2.479720   2.074798   8.895888   7.423965   9.851316
    31  H    3.347945   5.696947   7.293537   5.967759   7.414914
    32  H    2.654137   4.868840   7.269257   5.926679   7.670109
    33  H    2.647321   4.870419   8.334127   6.889820   8.707712
    34  H    4.850250   3.347429  10.587052   9.204423  11.716810
    35  H    4.357244   2.651658   9.485835   8.189581  10.698143
    36  H    4.802170   2.649620   9.502947   8.220933  10.741236
                    6          7          8          9         10
     6  C    0.000000
     7  C    5.071798   0.000000
     8  C    4.140342   8.782653   0.000000
     9  C    1.469061   6.334118   2.671409   0.000000
    10  C    2.670075   7.419109   1.470417   1.201045   0.000000
    11  C    4.790103   8.403152   2.377865   3.600049   2.819412
    12  C    6.186462  11.057652   2.371772   4.767270   3.640037
    13  C    5.952235   9.122779   3.697738   4.888535   4.194340
    14  C    7.040293  12.057259   3.694620   5.729037   4.731982
    15  H    2.794538   2.762414   6.717764   4.139998   5.288477
    16  H    2.774789   2.743819   6.752540   4.154162   5.315166
    17  H    2.157531   4.150684   4.862270   2.744839   3.611903
    18  H    2.159915   4.170621   4.806893   2.706977   3.561357
    19  H    4.201250   2.147312   7.295396   5.141196   6.063165
    20  H    4.176994   2.145507   7.304405   5.135168   6.065879
    21  H    1.096440   5.189300   4.626156   2.101844   3.205434
    22  H    1.096281   5.211647   4.623872   2.105712   3.206712
    23  H    5.992782   1.094600   9.499934   7.167834   8.194602
    24  H    5.240795   1.094678   9.059311   6.555249   7.669369
    25  H    5.221325   1.094659   9.065566   6.550021   7.670753
    26  H    4.637396   9.063008   1.097034   3.221344   2.118660
    27  H    5.218608   8.666350   2.635142   4.023088   3.210393
    28  H    3.922924   7.324360   2.672289   2.935140   2.495412
    29  H    6.551664  11.304929   2.626850   5.116580   3.965510
    30  H    6.558631  11.278333   2.640653   5.127644   3.978902
    31  H    6.292362   8.866541   4.525406   5.387807   4.846953
    32  H    5.906269   9.086111   4.000264   4.936855   4.347219
    33  H    6.839679  10.190293   3.995374   5.659846   4.806202
    34  H    8.084116  13.069784   4.519848   6.738696   5.689132
    35  H    6.964246  11.979767   3.997539   5.741268   4.849154
    36  H    6.966581  12.014914   3.996048   5.740244   4.846763
                   11         12         13         14         15
    11  C    0.000000
    12  C    4.139686   0.000000
    13  C    1.513804   4.999993   0.000000
    14  C    5.577984   1.513802   6.359304   0.000000
    15  H    6.992324   8.856913   8.054015   9.732542   0.000000
    16  H    6.785667   8.858474   7.615440   9.701906   1.765423
    17  H    4.387161   7.140099   5.181537   8.237903   3.067813
    18  H    4.707240   7.127616   5.815891   8.259088   2.500333
    19  H    6.788167   9.640834   7.602598  10.783580   2.503981
    20  H    6.546095   9.620476   7.106233  10.736603   3.069226
    21  H    5.597324   6.527497   6.865298   7.271069   2.554863
    22  H    5.265043   6.485404   6.271145   7.199057   3.159189
    23  H    8.901778  11.819537   9.518269  12.887721   3.763086
    24  H    8.912814  11.294112   9.764832  12.241464   2.572324
    25  H    8.727213  11.275685   9.379565  12.199162   3.129345
    26  H    2.646446   2.620131   4.028722   4.005713   6.980087
    27  H    1.095730   4.320671   2.147331   5.826625   7.228921
    28  H    1.094208   4.784463   2.122775   6.157036   5.995318
    29  H    4.306723   1.095595   5.250555   2.148108   9.082038
    30  H    3.784680   1.095301   4.344161   2.138731   9.260378
    31  H    2.161843   6.003176   1.093670   7.401435   8.088150
    32  H    2.158328   5.200992   1.095090   6.418299   8.082215
    33  H    2.158186   4.804727   1.095084   6.128300   9.036158
    34  H    6.188781   2.161489   6.825752   1.093578  10.772644
    35  H    5.779256   2.158294   6.451296   1.095071   9.709514
    36  H    6.137793   2.158181   7.093020   1.095032   9.551453
                   16         17         18         19         20
    16  H    0.000000
    17  H    2.517378   0.000000
    18  H    3.063373   1.758215   0.000000
    19  H    3.067838   3.077621   2.540372   0.000000
    20  H    2.516129   2.505757   3.076655   1.764991   0.000000
    21  H    3.065920   3.063175   2.526423   4.401930   4.710595
    22  H    2.577710   2.491180   3.064712   4.744177   4.371330
    23  H    3.749702   4.815188   4.839008   2.473861   2.472873
    24  H    3.099967   4.719433   4.395509   2.504208   3.064597
    25  H    2.553534   4.365282   4.726803   3.065972   2.501213
    26  H    7.254052   5.317864   4.935077   7.401505   7.636509
    27  H    7.265591   4.856886   4.813127   6.868708   6.877618
    28  H    5.732328   3.302752   3.748514   5.767744   5.464897
    29  H    9.268528   7.477422   7.237473   9.744402   9.895733
    30  H    9.106854   7.223910   7.408416   9.854574   9.686940
    31  H    7.663873   5.181701   5.805577   7.298999   6.794289
    32  H    7.419127   5.119676   6.045627   7.776451   7.056430
    33  H    8.652692   6.228439   6.759192   8.619382   8.186462
    34  H   10.749130   9.194607   9.208801  11.734707  11.692722
    35  H    9.503401   8.160930   8.382843  10.860748  10.658844
    36  H    9.665643   8.393171   8.244558  10.773138  10.857059
                   21         22         23         24         25
    21  H    0.000000
    22  H    1.760969   0.000000
    23  H    6.165810   6.178241   0.000000
    24  H    5.126125   5.451344   1.772052   0.000000
    25  H    5.395397   5.128756   1.772081   1.774747   0.000000
    26  H    4.982831   5.303545   9.732157   9.275625   9.464066
    27  H    5.894722   5.865404   9.115085   9.107813   9.112829
    28  H    4.804522   4.403081   7.833898   7.857311   7.635005
    29  H    6.808841   7.006615  12.029918  11.492933  11.621147
    30  H    7.053357   6.799014  11.987985  11.613366  11.469533
    31  H    7.220838   6.666128   9.143169   9.561807   9.178153
    32  H    6.891522   6.032632   9.517023   9.782517   9.215616
    33  H    7.699632   7.170394  10.585777  10.807904  10.462103
    34  H    8.328482   8.262422  13.875583  13.268583  13.230430
    35  H    7.257220   6.955392  12.836547  12.204737  12.023847
    36  H    7.031442   7.163769  12.886027  12.101990  12.176646
                   26         27         28         29         30
    26  H    0.000000
    27  H    2.427380   0.000000
    28  H    3.053009   1.782971   0.000000
    29  H    2.395233   4.205089   5.018905   0.000000
    30  H    3.004912   4.075217   4.566927   1.783162   0.000000
    31  H    4.729545   2.492871   2.461505   6.161383   5.388764
    32  H    4.578137   3.062236   2.474559   5.657978   4.487090
    33  H    4.212547   2.499518   3.044032   4.982061   4.008824
    34  H    4.702245   6.362031   6.890981   2.494637   2.482755
    35  H    4.558189   6.215450   6.269401   3.062701   2.489495
    36  H    4.194507   6.309087   6.610833   2.499338   3.055839
                   31         32         33         34         35
    31  H    0.000000
    32  H    1.779905   0.000000
    33  H    1.779723   1.759319   0.000000
    34  H    7.864957   6.926363   6.427820   0.000000
    35  H    7.525763   6.322930   6.290575   1.779878   0.000000
    36  H    8.098223   7.197502   6.949718   1.779766   1.759290
                   36
    36  H    0.000000
 Stoichiometry    C12H22O2
 Framework group  C1[X(C12H22O2)]
 Deg. of freedom   102
 Full point group                 C1      NOp   1
 Largest Abelian subgroup         C1      NOp   1
 Largest concise Abelian subgroup C1      NOp   1
                         Standard orientation:                         
 ---------------------------------------------------------------------
 Center     Atomic      Atomic             Coordinates (Angstroms)
 Number     Number       Type             X           Y           Z
 ---------------------------------------------------------------------
      1          8           0       -2.359877    1.148793   -0.145682
      2          8           0       -3.045292   -1.103101   -0.006432
      3          6           0        4.201917   -0.748801   -0.157636
      4          6           0        2.756523   -0.292927    0.070184
      5          6           0        5.194607    0.355883    0.205769
      6          6           0        1.728985   -1.360720   -0.310150
      7          6           0        6.629330   -0.080059   -0.046220
      8          6           0       -2.136772   -0.113542    0.491661
      9          6           0        0.352947   -0.933043   -0.024228
     10          6           0       -0.769078   -0.572502    0.207245
     11          6           0       -1.462725    2.158688    0.299640
     12          6           0       -4.404630   -0.752651    0.220256
     13          6           0       -1.774182    3.450041   -0.426311
     14          6           0       -5.294587   -1.845125   -0.332983
     15          1           0        4.404633   -1.642021    0.445642
     16          1           0        4.333321   -1.031082   -1.209165
     17          1           0        2.564330    0.618355   -0.511155
     18          1           0        2.627205   -0.020334    1.125746
     19          1           0        5.079986    0.626857    1.261738
     20          1           0        4.984498    1.255257   -0.384830
     21          1           0        1.940463   -2.284832    0.240734
     22          1           0        1.824154   -1.597402   -1.376338
     23          1           0        7.322314    0.723907    0.221288
     24          1           0        6.882665   -0.960363    0.553118
     25          1           0        6.785185   -0.325887   -1.101472
     26          1           0       -2.287525   -0.009531    1.573299
     27          1           0       -1.579720    2.304245    1.379338
     28          1           0       -0.422267    1.895722    0.086126
     29          1           0       -4.581770   -0.639126    1.295459
     30          1           0       -4.643286    0.191368   -0.281298
     31          1           0       -1.106204    4.252838   -0.101600
     32          1           0       -1.669166    3.319092   -1.508460
     33          1           0       -2.809378    3.755901   -0.241843
     34          1           0       -6.350176   -1.608322   -0.173081
     35          1           0       -5.120774   -1.977638   -1.406021
     36          1           0       -5.071150   -2.803999    0.146321
 ---------------------------------------------------------------------
 Rotational constants (GHZ):           1.1328973           0.1968707           0.1711424
 Standard basis: 6-311++G(d,p) (5D, 7F)
 There are   476 symmetry adapted cartesian basis functions of A   symmetry.
 There are   462 symmetry adapted basis functions of A   symmetry.
   462 basis functions,   702 primitive gaussians,   476 cartesian basis functions
    55 alpha electrons       55 beta electrons
       nuclear repulsion energy       861.8786262065 Hartrees.
 NAtoms=   36 NActive=   36 NUniq=   36 SFac= 1.00D+00 NAtFMM=   60 NAOKFM=F Big=F
 Integral buffers will be    131072 words long.
 Raffenetti 2 integral format.
 Two-electron integral symmetry is turned on.
 R6APFD:  NTU= -4 IXU= 1 FactS= 1.050
 Nuclear repulsion after empirical dispersion term =      861.8561443695 Hartrees.
 One-electron integrals computed using PRISM.
 NBasis=   462 RedAO= T EigKep=  2.17D-06  NBF=   462
 NBsUse=   460 1.00D-06 EigRej=  2.64D-07 NBFU=   460
 ExpMin= 3.60D-02 ExpMax= 8.59D+03 ExpMxC= 1.30D+03 IAcc=3 IRadAn=         5 AccDes= 0.00D+00
 Harris functional with IExCor= 1009 and IRadAn=       5 diagonalized for initial guess.
 HarFok:  IExCor= 1009 AccDes= 0.00D+00 IRadAn=         5 IDoV= 1 UseB2=F ITyADJ=14
 ICtDFT=  3500011 ScaDFX=  1.000000  1.000000  1.000000  1.000000
 FoFCou: FMM=F IPFlag=           0 FMFlag=      100000 FMFlg1=           0
         NFxFlg=           0 DoJE=T BraDBF=F KetDBF=T FulRan=T
         wScrn=  0.000000 ICntrl=       500 IOpCl=  0 I1Cent=   200000004 NGrid=           0
         NMat0=    1 NMatS0=      1 NMatT0=    0 NMatD0=    1 NMtDS0=    0 NMtDT0=    0
 Petite list used in FoFCou.
 Requested convergence on RMS density matrix=1.00D-08 within  32 cycles.
 Requested convergence on MAX density matrix=1.00D-06.
 Requested convergence on             energy=1.00D-06.
 No special actions if energy rises.
 SCF Done:  E(RM08HX) =  -620.908356418     A.U. after   14 cycles
            NFock= 14  Conv=0.23D-08     -V/T= 2.0051
 QCSCF skips out because SCF is already converged.

 **********************************************************************

            Population analysis using the SCF Density.

 **********************************************************************

 Orbital symmetries:
       Occupied  (A) (A) (A) (A) (A) (A) (A) (A) (A) (A) (A) (A)
                 (A) (A) (A) (A) (A) (A) (A) (A) (A) (A) (A) (A)
                 (A) (A) (A) (A) (A) (A) (A) (A) (A) (A) (A) (A)
                 (A) (A) (A) (A) (A) (A) (A) (A) (A) (A) (A) (A)
                 (A) (A) (A) (A) (A) (A) (A)
       Virtual   (A) (A) (A) (A) (A) (A) (A) (A) (A) (A) (A) (A)
                 (A) (A) (A) (A) (A) (A) (A) (A) (A) (A) (A) (A)
                 (A) (A) (A) (A) (A) (A) (A) (A) (A) (A) (A) (A)
                 (A) (A) (A) (A) (A) (A) (A) (A) (A) (A) (A) (A)
                 (A) (A) (A) (A) (A) (A) (A) (A) (A) (A) (A) (A)
                 (A) (A) (A) (A) (A) (A) (A) (A) (A) (A) (A) (A)
                 (A) (A) (A) (A) (A) (A) (A) (A) (A) (A) (A) (A)
                 (A) (A) (A) (A) (A) (A) (A) (A) (A) (A) (A) (A)
                 (A) (A) (A) (A) (A) (A) (A) (A) (A) (A) (A) (A)
                 (A) (A) (A) (A) (A) (A) (A) (A) (A) (A) (A) (A)
                 (A) (A) (A) (A) (A) (A) (A) (A) (A) (A) (A) (A)
                 (A) (A) (A) (A) (A) (A) (A) (A) (A) (A) (A) (A)
                 (A) (A) (A) (A) (A) (A) (A) (A) (A) (A) (A) (A)
                 (A) (A) (A) (A) (A) (A) (A) (A) (A) (A) (A) (A)
                 (A) (A) (A) (A) (A) (A) (A) (A) (A) (A) (A) (A)
                 (A) (A) (A) (A) (A) (A) (A) (A) (A) (A) (A) (A)
                 (A) (A) (A) (A) (A) (A) (A) (A) (A) (A) (A) (A)
                 (A) (A) (A) (A) (A) (A) (A) (A) (A) (A) (A) (A)
                 (A) (A) (A) (A) (A) (A) (A) (A) (A) (A) (A) (A)
                 (A) (A) (A) (A) (A) (A) (A) (A) (A) (A) (A) (A)
                 (A) (A) (A) (A) (A) (A) (A) (A) (A) (A) (A) (A)
                 (A) (A) (A) (A) (A) (A) (A) (A) (A) (A) (A) (A)
                 (A) (A) (A) (A) (A) (A) (A) (A) (A) (A) (A) (A)
                 (A) (A) (A) (A) (A) (A) (A) (A) (A) (A) (A) (A)
                 (A) (A) (A) (A) (A) (A) (A) (A) (A) (A) (A) (A)
                 (A) (A) (A) (A) (A) (A) (A) (A) (A) (A) (A) (A)
                 (A) (A) (A) (A) (A) (A) (A) (A) (A) (A) (A) (A)
                 (A) (A) (A) (A) (A) (A) (A) (A) (A) (A) (A) (A)
                 (A) (A) (A) (A) (A) (A) (A) (A) (A) (A) (A) (A)
                 (A) (A) (A) (A) (A) (A) (A) (A) (A) (A) (A) (A)
                 (A) (A) (A) (A) (A) (A) (A) (A) (A) (A) (A) (A)
                 (A) (A) (A) (A) (A) (A) (A) (A) (A) (A) (A) (A)
                 (A) (A) (A) (A) (A) (A) (A) (A) (A) (A) (A) (A)
                 (A) (A) (A) (A) (A) (A) (A) (A) (A)
 The electronic state is 1-A.
 Alpha  occ. eigenvalues --  -19.62009 -19.62008 -10.65591 -10.57574 -10.56946
 Alpha  occ. eigenvalues --  -10.55360 -10.53377 -10.53254 -10.52839 -10.52640
 Alpha  occ. eigenvalues --  -10.52158 -10.51751 -10.51606 -10.51281  -1.19051
 Alpha  occ. eigenvalues --   -1.13123  -0.93041  -0.89765  -0.88113  -0.85169
 Alpha  occ. eigenvalues --   -0.84087  -0.79532  -0.75734  -0.70971  -0.70098
 Alpha  occ. eigenvalues --   -0.69109  -0.67111  -0.60662  -0.59712  -0.58702
 Alpha  occ. eigenvalues --   -0.56507  -0.54994  -0.53971  -0.52432  -0.52229
 Alpha  occ. eigenvalues --   -0.49467  -0.49026  -0.48152  -0.46908  -0.46338
 Alpha  occ. eigenvalues --   -0.45434  -0.44638  -0.43533  -0.43237  -0.42156
 Alpha  occ. eigenvalues --   -0.41246  -0.40813  -0.40188  -0.39726  -0.39508
 Alpha  occ. eigenvalues --   -0.39348  -0.34768  -0.34531  -0.32884  -0.32597
 Alpha virt. eigenvalues --   -0.03137  -0.02380  -0.01876  -0.01581  -0.01219
 Alpha virt. eigenvalues --   -0.00793  -0.00551   0.00571   0.00831   0.01037
 Alpha virt. eigenvalues --    0.01392   0.01757   0.02032   0.02587   0.02876
 Alpha virt. eigenvalues --    0.03376   0.03754   0.04051   0.04614   0.04703
 Alpha virt. eigenvalues --    0.04784   0.05674   0.05987   0.06505   0.06709
 Alpha virt. eigenvalues --    0.06963   0.07369   0.07736   0.08345   0.08829
 Alpha virt. eigenvalues --    0.09317   0.09938   0.10094   0.10493   0.11041
 Alpha virt. eigenvalues --    0.11220   0.11684   0.11973   0.12171   0.12252
 Alpha virt. eigenvalues --    0.12345   0.12662   0.13026   0.13169   0.13495
 Alpha virt. eigenvalues --    0.13885   0.14130   0.14306   0.14677   0.14890
 Alpha virt. eigenvalues --    0.15007   0.15159   0.15732   0.16083   0.16817
 Alpha virt. eigenvalues --    0.17153   0.17239   0.17706   0.18176   0.18621
 Alpha virt. eigenvalues --    0.18778   0.19011   0.19170   0.19403   0.19853
 Alpha virt. eigenvalues --    0.20131   0.20698   0.21571   0.21942   0.22041
 Alpha virt. eigenvalues --    0.22266   0.22713   0.23370   0.23656   0.24019
 Alpha virt. eigenvalues --    0.24696   0.25041   0.25252   0.25561   0.26853
 Alpha virt. eigenvalues --    0.27233   0.27450   0.27606   0.27933   0.28657
 Alpha virt. eigenvalues --    0.29358   0.29498   0.29843   0.30218   0.30748
 Alpha virt. eigenvalues --    0.31685   0.31875   0.32419   0.32642   0.33004
 Alpha virt. eigenvalues --    0.33683   0.34014   0.34546   0.34662   0.35007
 Alpha virt. eigenvalues --    0.35416   0.35942   0.36460   0.37316   0.37934
 Alpha virt. eigenvalues --    0.38679   0.39695   0.40794   0.41505   0.43392
 Alpha virt. eigenvalues --    0.44674   0.45139   0.46170   0.46401   0.47400
 Alpha virt. eigenvalues --    0.48490   0.48949   0.49506   0.51016   0.53039
 Alpha virt. eigenvalues --    0.53436   0.53781   0.54930   0.55914   0.57421
 Alpha virt. eigenvalues --    0.57830   0.59780   0.60360   0.60478   0.64315
 Alpha virt. eigenvalues --    0.64544   0.65436   0.66132   0.66716   0.67227
 Alpha virt. eigenvalues --    0.67493   0.67782   0.68268   0.68562   0.69125
 Alpha virt. eigenvalues --    0.69352   0.69642   0.70202   0.70329   0.70768
 Alpha virt. eigenvalues --    0.71191   0.71687   0.72172   0.72601   0.73089
 Alpha virt. eigenvalues --    0.73463   0.74208   0.74606   0.75505   0.75877
 Alpha virt. eigenvalues --    0.76659   0.77138   0.77384   0.77907   0.78457
 Alpha virt. eigenvalues --    0.78951   0.79229   0.80203   0.80647   0.81177
 Alpha virt. eigenvalues --    0.81440   0.84114   0.86116   0.87077   0.88966
 Alpha virt. eigenvalues --    0.90863   0.92329   0.95365   0.96223   0.98513
 Alpha virt. eigenvalues --    1.00478   1.00860   1.03033   1.03851   1.04525
 Alpha virt. eigenvalues --    1.05714   1.06834   1.08412   1.10651   1.11092
 Alpha virt. eigenvalues --    1.14821   1.15407   1.18125   1.19734   1.22240
 Alpha virt. eigenvalues --    1.24192   1.24696   1.27510   1.28453   1.29296
 Alpha virt. eigenvalues --    1.30256   1.30689   1.31017   1.31938   1.32510
 Alpha virt. eigenvalues --    1.34058   1.34977   1.36308   1.37289   1.39413
 Alpha virt. eigenvalues --    1.43004   1.47550   1.48408   1.49240   1.49569
 Alpha virt. eigenvalues --    1.50027   1.50338   1.52177   1.53294   1.55353
 Alpha virt. eigenvalues --    1.57738   1.58387   1.58474   1.59341   1.60231
 Alpha virt. eigenvalues --    1.60609   1.61182   1.61281   1.61641   1.62106
 Alpha virt. eigenvalues --    1.62600   1.63002   1.64473   1.65337   1.65829
 Alpha virt. eigenvalues --    1.66378   1.67408   1.67821   1.68416   1.69194
 Alpha virt. eigenvalues --    1.69456   1.70643   1.70845   1.72198   1.72992
 Alpha virt. eigenvalues --    1.74223   1.74600   1.75855   1.76279   1.77823
 Alpha virt. eigenvalues --    1.78272   1.78957   1.79363   1.80258   1.81671
 Alpha virt. eigenvalues --    1.84226   1.84897   1.85782   1.86061   1.87422
 Alpha virt. eigenvalues --    1.89050   1.89290   1.90397   1.91556   1.92927
 Alpha virt. eigenvalues --    1.96176   1.99157   2.00837   2.01670   2.03677
 Alpha virt. eigenvalues --    2.04927   2.06009   2.08736   2.10028   2.12556
 Alpha virt. eigenvalues --    2.13451   2.14579   2.14950   2.16755   2.18964
 Alpha virt. eigenvalues --    2.21224   2.22987   2.24526   2.25113   2.25716
 Alpha virt. eigenvalues --    2.25884   2.29132   2.31353   2.32293   2.32927
 Alpha virt. eigenvalues --    2.36452   2.38712   2.40172   2.41226   2.42132
 Alpha virt. eigenvalues --    2.43883   2.46712   2.47972   2.49094   2.49343
 Alpha virt. eigenvalues --    2.51038   2.51321   2.51815   2.52395   2.54066
 Alpha virt. eigenvalues --    2.54276   2.55750   2.56574   2.56858   2.57552
 Alpha virt. eigenvalues --    2.58463   2.60165   2.60359   2.61338   2.61768
 Alpha virt. eigenvalues --    2.62628   2.63743   2.64221   2.64626   2.65006
 Alpha virt. eigenvalues --    2.65973   2.67536   2.67634   2.67866   2.68160
 Alpha virt. eigenvalues --    2.70016   2.72181   2.73733   2.74948   2.76468
 Alpha virt. eigenvalues --    2.77679   2.79442   2.80223   2.81485   2.82507
 Alpha virt. eigenvalues --    2.83284   2.83919   2.84732   2.88962   2.90701
 Alpha virt. eigenvalues --    2.92212   2.92630   2.94381   2.95298   2.95948
 Alpha virt. eigenvalues --    2.99036   3.00661   3.02810   3.04382   3.09329
 Alpha virt. eigenvalues --    3.11739   3.15219   3.19013   3.19631   3.21356
 Alpha virt. eigenvalues --    3.25590   3.27728   3.28542   3.31771   3.33281
 Alpha virt. eigenvalues --    3.35758   3.39944   3.43555   3.45339   3.50970
 Alpha virt. eigenvalues --    3.66553   3.79725   3.81048   3.81485   3.82085
 Alpha virt. eigenvalues --    3.82489   3.84556   3.84604   3.85178   3.85601
 Alpha virt. eigenvalues --    3.87492   3.87716   3.88264   3.93728   4.01541
 Alpha virt. eigenvalues --    4.09835   4.12540   4.14379   4.20780   4.22329
 Alpha virt. eigenvalues --    4.31571   4.33790   4.34693   4.41256   4.45542
 Alpha virt. eigenvalues --    5.24268   5.26881   5.46640   5.54676   5.74094
 Alpha virt. eigenvalues --    5.86211  23.56027  23.84102  23.92988  23.93825
 Alpha virt. eigenvalues --   23.94019  23.95480  23.97014  23.98832  24.03835
 Alpha virt. eigenvalues --   24.03898  24.04555  25.15694  49.94380  49.99263
          Condensed to atoms (all electrons):
               1          2          3          4          5          6
     1  O    8.110770  -0.060310   0.001589  -0.001191   0.000274   0.050010
     2  O   -0.060310   8.240872   0.000044  -0.001580  -0.000109   0.090540
     3  C    0.001589   0.000044   9.567241  -2.785081  -1.117312   1.118893
     4  C   -0.001191  -0.001580  -2.785081   8.735628   0.057141  -2.109388
     5  C    0.000274  -0.000109  -1.117312   0.057141   7.215566   0.017401
     6  C    0.050010   0.090540   1.118893  -2.109388   0.017401  14.652336
     7  C    0.000014  -0.000011   0.362277  -0.246850  -0.396690  -0.109145
     8  C    0.249146  -0.478192  -0.115998   0.228948  -0.037300  -3.672834
     9  C   -0.033501  -0.028639  -0.434616   0.631312  -0.287152  -3.631618
    10  C   -0.169230   0.267546  -0.222925   0.167709  -0.077908   0.321572
    11  C    0.110974   0.008374   0.028468  -0.040900  -0.001945   0.050595
    12  C   -0.006687   0.239594   0.004610  -0.001245   0.000016   0.048900
    13  C   -0.047772  -0.004917   0.002862  -0.004121  -0.000513  -0.020591
    14  C    0.019968  -0.164885  -0.000317   0.000658  -0.000047  -0.045354
    15  H   -0.000016   0.000024   0.379618   0.014757  -0.054671  -0.023562
    16  H   -0.000018   0.000037   0.433538  -0.036095  -0.057746   0.002973
    17  H    0.000912  -0.000061  -0.022211   0.416716   0.016782   0.062748
    18  H   -0.000266   0.000197  -0.115814   0.533113   0.012335  -0.057746
    19  H   -0.000032   0.000005  -0.079617   0.021659   0.467410   0.000404
    20  H    0.000020   0.000008  -0.080738   0.031969   0.451808  -0.015143
    21  H   -0.000126  -0.000092  -0.014896  -0.023398   0.004394   0.450640
    22  H    0.000252  -0.000525  -0.015723  -0.029314  -0.004337   0.353951
    23  H    0.000001  -0.000000   0.049424   0.006377  -0.063523   0.000534
    24  H    0.000001  -0.000000  -0.027378  -0.019349  -0.007660   0.001325
    25  H   -0.000002  -0.000000  -0.044102  -0.013778   0.002471   0.001243
    26  H   -0.066590  -0.044500   0.003827   0.000215  -0.000245   0.030644
    27  H   -0.065704   0.003074   0.000539  -0.005014   0.000109   0.034184
    28  H   -0.100775  -0.006797  -0.075420   0.122421   0.004665  -0.211555
    29  H   -0.013783  -0.062368   0.000028  -0.000028   0.000011   0.005703
    30  H    0.015033  -0.045637  -0.000162   0.000300   0.000000  -0.001698
    31  H    0.020889   0.000369   0.001221  -0.000975  -0.000143   0.001556
    32  H   -0.012934   0.001298   0.000427   0.000416  -0.000008   0.003680
    33  H   -0.009836  -0.000667   0.000148  -0.000746  -0.000041  -0.001749
    34  H    0.001128   0.024274   0.000006  -0.000004  -0.000001   0.000345
    35  H   -0.002460  -0.011040  -0.000006  -0.000107   0.000003   0.001317
    36  H   -0.000415  -0.009899  -0.000002  -0.000010  -0.000001  -0.000135
               7          8          9         10         11         12
     1  O    0.000014   0.249146  -0.033501  -0.169230   0.110974  -0.006687
     2  O   -0.000011  -0.478192  -0.028639   0.267546   0.008374   0.239594
     3  C    0.362277  -0.115998  -0.434616  -0.222925   0.028468   0.004610
     4  C   -0.246850   0.228948   0.631312   0.167709  -0.040900  -0.001245
     5  C   -0.396690  -0.037300  -0.287152  -0.077908  -0.001945   0.000016
     6  C   -0.109145  -3.672834  -3.631618   0.321572   0.050595   0.048900
     7  C    6.206719   0.001160   0.012732  -0.009313   0.000455   0.000024
     8  C    0.001160  13.173256   0.451294  -2.903258  -0.248784  -0.652935
     9  C    0.012732   0.451294   7.999224   0.825815  -0.009758  -0.056918
    10  C   -0.009313  -2.903258   0.825815   7.494475   0.092503   0.104509
    11  C    0.000455  -0.248784  -0.009758   0.092503   5.993659  -0.017534
    12  C    0.000024  -0.652935  -0.056918   0.104509  -0.017534   5.934409
    13  C    0.000300  -0.000855   0.017739  -0.111255  -0.309304  -0.003775
    14  C    0.000001   0.355791  -0.051188  -0.239294   0.001687  -0.197799
    15  H   -0.000639   0.002416   0.013631   0.006276   0.000164  -0.000012
    16  H   -0.000094   0.001699   0.005307   0.001621  -0.000756   0.000044
    17  H   -0.005228  -0.026392  -0.014639   0.000855   0.015790  -0.000208
    18  H   -0.002220  -0.004014  -0.000669   0.011629  -0.000442  -0.000112
    19  H   -0.066055   0.000965   0.003240   0.000358  -0.000446   0.000008
    20  H   -0.061760   0.001316   0.008883   0.001971  -0.000431  -0.000013
    21  H   -0.000325  -0.016552  -0.063993   0.004568  -0.000731  -0.000157
    22  H    0.000304   0.018476  -0.006553   0.011524  -0.001170   0.000722
    23  H    0.366503  -0.000143  -0.001451  -0.000708   0.000010   0.000001
    24  H    0.412994  -0.000093  -0.001697  -0.000099  -0.000003  -0.000001
    25  H    0.413707  -0.000133  -0.002656  -0.000230  -0.000011  -0.000001
    26  H    0.000064   0.168524   0.002358   0.041001  -0.001935   0.023163
    27  H   -0.000063  -0.127838   0.014833   0.066829   0.445720  -0.015974
    28  H   -0.000771   0.296890   0.047358  -0.109270   0.316614   0.003017
    29  H   -0.000001  -0.051643   0.009748   0.044821   0.003788   0.435537
    30  H   -0.000001  -0.005406   0.001888   0.001865  -0.015403   0.394713
    31  H   -0.000018   0.004083   0.001135  -0.005989  -0.050660   0.001417
    32  H    0.000014  -0.019988   0.000338   0.012565  -0.022040  -0.000311
    33  H    0.000005   0.009875  -0.002356   0.001174  -0.029028   0.001454
    34  H    0.000000  -0.008106   0.000065  -0.000101  -0.000364  -0.057490
    35  H   -0.000000  -0.004916   0.001112   0.006390   0.001716  -0.025572
    36  H   -0.000000  -0.009350   0.000519   0.006726  -0.001035  -0.021829
              13         14         15         16         17         18
     1  O   -0.047772   0.019968  -0.000016  -0.000018   0.000912  -0.000266
     2  O   -0.004917  -0.164885   0.000024   0.000037  -0.000061   0.000197
     3  C    0.002862  -0.000317   0.379618   0.433538  -0.022211  -0.115814
     4  C   -0.004121   0.000658   0.014757  -0.036095   0.416716   0.533113
     5  C   -0.000513  -0.000047  -0.054671  -0.057746   0.016782   0.012335
     6  C   -0.020591  -0.045354  -0.023562   0.002973   0.062748  -0.057746
     7  C    0.000300   0.000001  -0.000639  -0.000094  -0.005228  -0.002220
     8  C   -0.000855   0.355791   0.002416   0.001699  -0.026392  -0.004014
     9  C    0.017739  -0.051188   0.013631   0.005307  -0.014639  -0.000669
    10  C   -0.111255  -0.239294   0.006276   0.001621   0.000855   0.011629
    11  C   -0.309304   0.001687   0.000164  -0.000756   0.015790  -0.000442
    12  C   -0.003775  -0.197799  -0.000012   0.000044  -0.000208  -0.000112
    13  C    6.180319   0.013342   0.000148   0.000153  -0.004445   0.000893
    14  C    0.013342   6.069612   0.000016  -0.000007   0.000188  -0.000113
    15  H    0.000148   0.000016   0.572671  -0.090952   0.006289  -0.020444
    16  H    0.000153  -0.000007  -0.090952   0.570988  -0.026584   0.009251
    17  H   -0.004445   0.000188   0.006289  -0.026584   0.548849  -0.074637
    18  H    0.000893  -0.000113  -0.020444   0.009251  -0.074637   0.516524
    19  H   -0.000289  -0.000001  -0.023317   0.014462  -0.003068   0.000950
    20  H    0.000413   0.000002   0.014192  -0.021743  -0.000224   0.001015
    21  H   -0.001026  -0.000165  -0.006829   0.006993  -0.003991  -0.005850
    22  H    0.000596   0.000130   0.007963  -0.008247  -0.014471   0.002520
    23  H    0.000003  -0.000000  -0.001563  -0.001741   0.000754   0.000052
    24  H    0.000002  -0.000000   0.003235  -0.000892   0.000659   0.000836
    25  H   -0.000025  -0.000000   0.000265   0.004551   0.000524   0.000274
    26  H   -0.011095   0.009139   0.000107  -0.000076   0.001729  -0.001611
    27  H   -0.046972   0.000587  -0.000015  -0.000070   0.004420  -0.002167
    28  H   -0.105199  -0.004508   0.000885   0.001212  -0.030145   0.002225
    29  H   -0.007241  -0.088862  -0.000005   0.000004   0.000006   0.000023
    30  H    0.009763  -0.028128   0.000000   0.000001   0.000061  -0.000092
    31  H    0.412134   0.000061  -0.000019   0.000021   0.000753  -0.000110
    32  H    0.396861  -0.000089  -0.000006   0.000006  -0.000324   0.000128
    33  H    0.380252  -0.000488   0.000003  -0.000003   0.000017   0.000191
    34  H    0.000742   0.408654   0.000000   0.000000   0.000008  -0.000005
    35  H   -0.000965   0.385141  -0.000000  -0.000001  -0.000025   0.000015
    36  H   -0.000193   0.392303  -0.000001   0.000001  -0.000017   0.000008
              19         20         21         22         23         24
     1  O   -0.000032   0.000020  -0.000126   0.000252   0.000001   0.000001
     2  O    0.000005   0.000008  -0.000092  -0.000525  -0.000000  -0.000000
     3  C   -0.079617  -0.080738  -0.014896  -0.015723   0.049424  -0.027378
     4  C    0.021659   0.031969  -0.023398  -0.029314   0.006377  -0.019349
     5  C    0.467410   0.451808   0.004394  -0.004337  -0.063523  -0.007660
     6  C    0.000404  -0.015143   0.450640   0.353951   0.000534   0.001325
     7  C   -0.066055  -0.061760  -0.000325   0.000304   0.366503   0.412994
     8  C    0.000965   0.001316  -0.016552   0.018476  -0.000143  -0.000093
     9  C    0.003240   0.008883  -0.063993  -0.006553  -0.001451  -0.001697
    10  C    0.000358   0.001971   0.004568   0.011524  -0.000708  -0.000099
    11  C   -0.000446  -0.000431  -0.000731  -0.001170   0.000010  -0.000003
    12  C    0.000008  -0.000013  -0.000157   0.000722   0.000001  -0.000001
    13  C   -0.000289   0.000413  -0.001026   0.000596   0.000003   0.000002
    14  C   -0.000001   0.000002  -0.000165   0.000130  -0.000000  -0.000000
    15  H   -0.023317   0.014192  -0.006829   0.007963  -0.001563   0.003235
    16  H    0.014462  -0.021743   0.006993  -0.008247  -0.001741  -0.000892
    17  H   -0.003068  -0.000224  -0.003991  -0.014471   0.000754   0.000659
    18  H    0.000950   0.001015  -0.005850   0.002520   0.000052   0.000836
    19  H    0.553872  -0.077446   0.001848  -0.001034  -0.001984  -0.023642
    20  H   -0.077446   0.557202  -0.000427   0.002786  -0.004116   0.012996
    21  H    0.001848  -0.000427   0.477376  -0.048369   0.000045   0.000084
    22  H   -0.001034   0.002786  -0.048369   0.480220  -0.000045  -0.000024
    23  H   -0.001984  -0.004116   0.000045  -0.000045   0.483637  -0.024072
    24  H   -0.023642   0.012996   0.000084  -0.000024  -0.024072   0.557173
    25  H    0.012642  -0.023248  -0.000036   0.000048  -0.022190  -0.069634
    26  H   -0.000000  -0.000000   0.000793  -0.000523   0.000000   0.000001
    27  H    0.000075  -0.000140   0.000585  -0.000824  -0.000000  -0.000001
    28  H    0.000896   0.001069   0.001834   0.003328  -0.000029  -0.000022
    29  H    0.000003  -0.000002  -0.000008  -0.000032   0.000000  -0.000000
    30  H    0.000001   0.000002   0.000072  -0.000091  -0.000000   0.000000
    31  H    0.000028  -0.000096  -0.000041   0.000003   0.000001   0.000001
    32  H   -0.000003   0.000008   0.000043  -0.000004  -0.000000  -0.000000
    33  H   -0.000011   0.000007  -0.000016  -0.000018  -0.000000  -0.000000
    34  H    0.000000  -0.000000  -0.000002  -0.000007  -0.000000  -0.000000
    35  H   -0.000000   0.000000  -0.000019   0.000053   0.000000   0.000000
    36  H    0.000000   0.000000  -0.000001   0.000001  -0.000000  -0.000000
              25         26         27         28         29         30
     1  O   -0.000002  -0.066590  -0.065704  -0.100775  -0.013783   0.015033
     2  O   -0.000000  -0.044500   0.003074  -0.006797  -0.062368  -0.045637
     3  C   -0.044102   0.003827   0.000539  -0.075420   0.000028  -0.000162
     4  C   -0.013778   0.000215  -0.005014   0.122421  -0.000028   0.000300
     5  C    0.002471  -0.000245   0.000109   0.004665   0.000011   0.000000
     6  C    0.001243   0.030644   0.034184  -0.211555   0.005703  -0.001698
     7  C    0.413707   0.000064  -0.000063  -0.000771  -0.000001  -0.000001
     8  C   -0.000133   0.168524  -0.127838   0.296890  -0.051643  -0.005406
     9  C   -0.002656   0.002358   0.014833   0.047358   0.009748   0.001888
    10  C   -0.000230   0.041001   0.066829  -0.109270   0.044821   0.001865
    11  C   -0.000011  -0.001935   0.445720   0.316614   0.003788  -0.015403
    12  C   -0.000001   0.023163  -0.015974   0.003017   0.435537   0.394713
    13  C   -0.000025  -0.011095  -0.046972  -0.105199  -0.007241   0.009763
    14  C   -0.000000   0.009139   0.000587  -0.004508  -0.088862  -0.028128
    15  H    0.000265   0.000107  -0.000015   0.000885  -0.000005   0.000000
    16  H    0.004551  -0.000076  -0.000070   0.001212   0.000004   0.000001
    17  H    0.000524   0.001729   0.004420  -0.030145   0.000006   0.000061
    18  H    0.000274  -0.001611  -0.002167   0.002225   0.000023  -0.000092
    19  H    0.012642  -0.000000   0.000075   0.000896   0.000003   0.000001
    20  H   -0.023248  -0.000000  -0.000140   0.001069  -0.000002   0.000002
    21  H   -0.000036   0.000793   0.000585   0.001834  -0.000008   0.000072
    22  H    0.000048  -0.000523  -0.000824   0.003328  -0.000032  -0.000091
    23  H   -0.022190   0.000000  -0.000000  -0.000029   0.000000  -0.000000
    24  H   -0.069634   0.000001  -0.000001  -0.000022  -0.000000   0.000000
    25  H    0.553643  -0.000000   0.000002   0.000103   0.000000  -0.000000
    26  H   -0.000000   0.586784   0.021980  -0.029187   0.021653  -0.010268
    27  H    0.000002   0.021980   0.619556  -0.140245   0.001420   0.002888
    28  H    0.000103  -0.029187  -0.140245   0.849723  -0.001924  -0.000472
    29  H    0.000000   0.021653   0.001420  -0.001924   0.623072  -0.095939
    30  H   -0.000000  -0.010268   0.002888  -0.000472  -0.095939   0.575265
    31  H   -0.000002   0.002409  -0.007021  -0.016850   0.000133   0.000226
    32  H    0.000001   0.000750   0.012610  -0.026024   0.000114  -0.000870
    33  H   -0.000000  -0.001643  -0.020661   0.014862   0.000567  -0.004075
    34  H   -0.000000   0.002304  -0.000018  -0.000236  -0.003967  -0.006780
    35  H   -0.000000   0.000186  -0.000237   0.000456   0.011276  -0.016517
    36  H    0.000000  -0.002986  -0.000118   0.000310  -0.018445   0.010103
              31         32         33         34         35         36
     1  O    0.020889  -0.012934  -0.009836   0.001128  -0.002460  -0.000415
     2  O    0.000369   0.001298  -0.000667   0.024274  -0.011040  -0.009899
     3  C    0.001221   0.000427   0.000148   0.000006  -0.000006  -0.000002
     4  C   -0.000975   0.000416  -0.000746  -0.000004  -0.000107  -0.000010
     5  C   -0.000143  -0.000008  -0.000041  -0.000001   0.000003  -0.000001
     6  C    0.001556   0.003680  -0.001749   0.000345   0.001317  -0.000135
     7  C   -0.000018   0.000014   0.000005   0.000000  -0.000000  -0.000000
     8  C    0.004083  -0.019988   0.009875  -0.008106  -0.004916  -0.009350
     9  C    0.001135   0.000338  -0.002356   0.000065   0.001112   0.000519
    10  C   -0.005989   0.012565   0.001174  -0.000101   0.006390   0.006726
    11  C   -0.050660  -0.022040  -0.029028  -0.000364   0.001716  -0.001035
    12  C    0.001417  -0.000311   0.001454  -0.057490  -0.025572  -0.021829
    13  C    0.412134   0.396861   0.380252   0.000742  -0.000965  -0.000193
    14  C    0.000061  -0.000089  -0.000488   0.408654   0.385141   0.392303
    15  H   -0.000019  -0.000006   0.000003   0.000000  -0.000000  -0.000001
    16  H    0.000021   0.000006  -0.000003   0.000000  -0.000001   0.000001
    17  H    0.000753  -0.000324   0.000017   0.000008  -0.000025  -0.000017
    18  H   -0.000110   0.000128   0.000191  -0.000005   0.000015   0.000008
    19  H    0.000028  -0.000003  -0.000011   0.000000  -0.000000   0.000000
    20  H   -0.000096   0.000008   0.000007  -0.000000   0.000000   0.000000
    21  H   -0.000041   0.000043  -0.000016  -0.000002  -0.000019  -0.000001
    22  H    0.000003  -0.000004  -0.000018  -0.000007   0.000053   0.000001
    23  H    0.000001  -0.000000  -0.000000  -0.000000   0.000000  -0.000000
    24  H    0.000001  -0.000000  -0.000000  -0.000000   0.000000  -0.000000
    25  H   -0.000002   0.000001  -0.000000  -0.000000  -0.000000   0.000000
    26  H    0.002409   0.000750  -0.001643   0.002304   0.000186  -0.002986
    27  H   -0.007021   0.012610  -0.020661  -0.000018  -0.000237  -0.000118
    28  H   -0.016850  -0.026024   0.014862  -0.000236   0.000456   0.000310
    29  H    0.000133   0.000114   0.000567  -0.003967   0.011276  -0.018445
    30  H    0.000226  -0.000870  -0.004075  -0.006780  -0.016517   0.010103
    31  H    0.522138  -0.034443  -0.038198   0.000029  -0.000028  -0.000008
    32  H   -0.034443   0.512916  -0.046960   0.000017   0.000040  -0.000016
    33  H   -0.038198  -0.046960   0.541372  -0.000109   0.000098   0.000033
    34  H    0.000029   0.000017  -0.000109   0.524980  -0.034175  -0.038467
    35  H   -0.000028   0.000040   0.000098  -0.034175   0.518961  -0.049217
    36  H   -0.000008  -0.000016   0.000033  -0.038467  -0.049217   0.532349
 Mulliken charges:
               1
     1  O    0.010665
     2  O    0.043973
     3  C   -0.802439
     4  C    0.349834
     5  C   -0.143032
     6  C   -1.400978
     7  C   -0.878090
     8  C   -0.579112
     9  C    0.578874
    10  C    0.355276
    11  C   -0.317840
    12  C   -0.133567
    13  C   -0.735967
    14  C   -0.836034
    15  H    0.199393
    16  H    0.192164
    17  H    0.148612
    18  H    0.194130
    19  H    0.198121
    20  H    0.199860
    21  H    0.237772
    22  H    0.248435
    23  H    0.214225
    24  H    0.185261
    25  H    0.186575
    26  H    0.253032
    27  H    0.203671
    28  H    0.191559
    29  H    0.186340
    30  H    0.219360
    31  H    0.185994
    32  H    0.221790
    33  H    0.206550
    34  H    0.187278
    35  H    0.218521
    36  H    0.209792
 Sum of Mulliken charges =  -0.00000
 Mulliken charges with hydrogens summed into heavy atoms:
               1
     1  O    0.010665
     2  O    0.043973
     3  C   -0.410882
     4  C    0.692576
     5  C    0.254949
     6  C   -0.914770
     7  C   -0.292029
     8  C   -0.326080
     9  C    0.578874
    10  C    0.355276
    11  C    0.077390
    12  C    0.272134
    13  C   -0.121633
    14  C   -0.220444
 Electronic spatial extent (au):  <R**2>=           6429.1280
 Charge=              0.0000 electrons
 Dipole moment (field-independent basis, Debye):
    X=              1.4724    Y=              1.1247    Z=              1.2075  Tot=              2.2116
 Quadrupole moment (field-independent basis, Debye-Ang):
   XX=            -81.8563   YY=            -88.8224   ZZ=            -89.2535
   XY=             -2.0419   XZ=             -4.1363   YZ=              0.4740
 Traceless Quadrupole moment (field-independent basis, Debye-Ang):
   XX=              4.7878   YY=             -2.1783   ZZ=             -2.6094
   XY=             -2.0419   XZ=             -4.1363   YZ=              0.4740
 Octapole moment (field-independent basis, Debye-Ang**2):
  XXX=            -61.7865  YYY=             13.5736  ZZZ=             -1.2328  XYY=             -2.0964
  XXY=             -5.6888  XXZ=             10.3280  XZZ=             -6.7538  YZZ=              0.1860
  YYZ=              0.9346  XYZ=             -1.2315
 Hexadecapole moment (field-independent basis, Debye-Ang**3):
 XXXX=          -7206.9473 YYYY=          -1298.7386 ZZZZ=           -207.3223 XXXY=             72.6356
 XXXZ=             -3.6693 YYYX=            -18.1082 YYYZ=             -1.9573 ZZZX=             -5.5573
 ZZZY=              2.6650 XXYY=          -1454.5295 XXZZ=          -1252.6438 YYZZ=           -255.6858
 XXYZ=             -3.9955 YYXZ=              1.6687 ZZXY=             -1.8472
 N-N= 8.618561443695D+02 E-N=-3.167553213640D+03  KE= 6.177505878423D+02
 R6APFD:  NTU= -4 IXU= 1 FactS= 1.050
 Calling FoFJK, ICntrl=      2127 FMM=F ISym2X=0 I1Cent= 0 IOpClX= 0 NMat=1 NMatS=1 NMatT=0.
 ***** Axes restored to original set *****
 -------------------------------------------------------------------
 Center     Atomic                   Forces (Hartrees/Bohr)
 Number     Number              X              Y              Z
 -------------------------------------------------------------------
      1        8           0.000630049    0.011626497    0.004856908
      2        8          -0.014130467   -0.023962489    0.005062546
      3        6           0.007480179   -0.007660337    0.002194036
      4        6          -0.004072941   -0.000741202    0.000999242
      5        6          -0.000810830    0.005865893   -0.002353525
      6        6           0.004152502   -0.002302932    0.001863026
      7        6          -0.002643352   -0.003279395    0.001392517
      8        6           0.007375725    0.008388647   -0.021187426
      9        6          -0.003867182    0.002210881   -0.001476912
     10        6           0.000963955    0.005116090    0.001769561
     11        6           0.004130085   -0.004321837   -0.003578792
     12        6           0.002238064    0.000037673   -0.003935914
     13        6           0.008480668   -0.000001574   -0.004116318
     14        6          -0.004558850    0.006929760   -0.001991328
     15        1          -0.001186431    0.002854428    0.000840675
     16        1          -0.001286491    0.001682186   -0.002817652
     17        1           0.000681370   -0.001321387   -0.000616550
     18        1           0.001082627   -0.000456842    0.001297977
     19        1           0.002421542   -0.001399181    0.002129463
     20        1           0.002730826   -0.002240754   -0.000435777
     21        1           0.000205977    0.002228031    0.000698301
     22        1           0.000685433    0.001121635   -0.001928781
     23        1          -0.003205530    0.000536330   -0.000375202
     24        1          -0.001003293    0.001843788    0.000317128
     25        1          -0.000812461    0.001076830   -0.001557391
     26        1           0.001795719   -0.003239345    0.006311101
     27        1          -0.001137716    0.001806335    0.005895668
     28        1          -0.003345678    0.007397906    0.001595005
     29        1          -0.000638949   -0.002841842    0.005673092
     30        1          -0.002467343   -0.004106674    0.001113163
     31        1          -0.001052843   -0.000417540    0.000795517
     32        1          -0.001727134    0.000465731   -0.000560121
     33        1           0.000628920   -0.001376826    0.001225767
     34        1           0.001017215   -0.000844323    0.000449355
     35        1           0.000468343   -0.001495223   -0.001029374
     36        1           0.000778291    0.000821064    0.001481015
 -------------------------------------------------------------------
 Cartesian Forces:  Max     0.023962489 RMS     0.004681805

 GradGradGradGradGradGradGradGradGradGradGradGradGradGradGradGradGradGrad
 Berny optimization.
 FormGI is forming the generalized inverse of G from B-inverse, IUseBI=4.
 Internal  Forces:  Max     0.030912795 RMS     0.003588197
 Search for a local minimum.
 Step number   1 out of a maximum of  186
 All quantities printed in internal units (Hartrees-Bohrs-Radians)
 Mixed Optimization -- RFO/linear search
 Second derivative matrix not updated -- first step.
 ITU=  0
     Eigenvalues ---    0.00230   0.00335   0.00370   0.00382   0.00495
     Eigenvalues ---    0.00583   0.00583   0.01259   0.01274   0.01396
     Eigenvalues ---    0.01401   0.02556   0.02733   0.03494   0.03677
     Eigenvalues ---    0.03719   0.03936   0.04192   0.04816   0.04859
     Eigenvalues ---    0.04876   0.04925   0.05375   0.05394   0.05439
     Eigenvalues ---    0.05606   0.05647   0.05650   0.05702   0.05783
     Eigenvalues ---    0.05783   0.06067   0.06163   0.07042   0.07417
     Eigenvalues ---    0.08081   0.08162   0.08374   0.09189   0.09419
     Eigenvalues ---    0.11108   0.11201   0.12016   0.12064   0.12235
     Eigenvalues ---    0.12666   0.13685   0.13698   0.16000   0.16000
     Eigenvalues ---    0.16000   0.16000   0.16000   0.16000   0.16000
     Eigenvalues ---    0.16000   0.16000   0.18754   0.20532   0.21898
     Eigenvalues ---    0.21906   0.21906   0.21915   0.22045   0.22052
     Eigenvalues ---    0.25000   0.25000   0.29184   0.29430   0.29517
     Eigenvalues ---    0.30317   0.30971   0.30971   0.33918   0.33923
     Eigenvalues ---    0.34012   0.34043   0.34054   0.34079   0.34097
     Eigenvalues ---    0.34097   0.34107   0.34159   0.34174   0.34207
     Eigenvalues ---    0.34231   0.34232   0.34233   0.34238   0.34278
     Eigenvalues ---    0.34280   0.34286   0.34331   0.34392   0.34402
     Eigenvalues ---    0.35690   0.35853   0.40599   0.40761   0.42108
     Eigenvalues ---    0.42165   1.04300
 RFO step:  Lambda=-8.85808379D-03 EMin= 2.30000000D-03
 Linear search not attempted -- first point.
 Iteration  1 RMS(Cart)=  0.08364139 RMS(Int)=  0.00112177
 Iteration  2 RMS(Cart)=  0.00325151 RMS(Int)=  0.00025515
 Iteration  3 RMS(Cart)=  0.00000161 RMS(Int)=  0.00025515
 Iteration  4 RMS(Cart)=  0.00000000 RMS(Int)=  0.00025515
 Variable       Old X    -DE/DX   Delta X   Delta X   Delta X     New X
                                 (Linear)    (Quad)   (Total)
    R1        2.70533  -0.01507   0.00000  -0.03619  -0.03619   2.66914
    R2        2.68785  -0.00588   0.00000  -0.01369  -0.01370   2.67416
    R3        2.70748  -0.03091   0.00000  -0.07452  -0.07452   2.63296
    R4        2.68714  -0.00238   0.00000  -0.00552  -0.00552   2.68162
    R5        2.89621  -0.00170   0.00000  -0.00566  -0.00566   2.89054
    R6        2.88938   0.00021   0.00000   0.00068   0.00068   2.89006
    R7        2.07257   0.00301   0.00000   0.00862   0.00862   2.08119
    R8        2.07239   0.00329   0.00000   0.00940   0.00940   2.08179
    R9        2.89114   0.00294   0.00000   0.00969   0.00969   2.90083
   R10        2.07468   0.00154   0.00000   0.00444   0.00444   2.07912
   R11        2.07461   0.00149   0.00000   0.00428   0.00428   2.07889
   R12        2.87336   0.00732   0.00000   0.02347   0.02347   2.89683
   R13        2.07150   0.00265   0.00000   0.00757   0.00757   2.07907
   R14        2.07167   0.00260   0.00000   0.00744   0.00744   2.07910
   R15        2.77612  -0.00510   0.00000  -0.01388  -0.01388   2.76224
   R16        2.07197   0.00219   0.00000   0.00626   0.00626   2.07823
   R17        2.07167   0.00206   0.00000   0.00588   0.00588   2.07755
   R18        2.06849   0.00154   0.00000   0.00438   0.00438   2.07287
   R19        2.06864   0.00189   0.00000   0.00538   0.00538   2.07402
   R20        2.06861   0.00186   0.00000   0.00528   0.00528   2.07388
   R21        2.77868  -0.00020   0.00000  -0.00054  -0.00054   2.77815
   R22        2.07309   0.00677   0.00000   0.01939   0.01939   2.09248
   R23        2.26965  -0.00054   0.00000  -0.00052  -0.00052   2.26913
   R24        2.86068   0.00371   0.00000   0.01165   0.01165   2.87232
   R25        2.07063   0.00546   0.00000   0.01557   0.01557   2.08620
   R26        2.06775   0.00463   0.00000   0.01316   0.01315   2.08091
   R27        2.86067   0.00296   0.00000   0.00929   0.00929   2.86996
   R28        2.07037   0.00575   0.00000   0.01640   0.01640   2.08677
   R29        2.06982   0.00250   0.00000   0.00712   0.00712   2.07694
   R30        2.06674   0.00119   0.00000   0.00337   0.00336   2.07010
   R31        2.06942   0.00077   0.00000   0.00220   0.00220   2.07162
   R32        2.06941   0.00118   0.00000   0.00337   0.00337   2.07278
   R33        2.06656   0.00123   0.00000   0.00348   0.00348   2.07005
   R34        2.06939   0.00076   0.00000   0.00216   0.00216   2.07155
   R35        2.06931   0.00120   0.00000   0.00343   0.00343   2.07274
    A1        1.96968   0.00070   0.00000   0.00277   0.00280   1.97247
    A2        1.96118  -0.00351   0.00000  -0.01357  -0.01357   1.94761
    A3        1.94128   0.00328   0.00000   0.01777   0.01773   1.95901
    A4        1.91219  -0.00071   0.00000  -0.00087  -0.00084   1.91134
    A5        1.90932  -0.00032   0.00000   0.00438   0.00436   1.91368
    A6        1.91524  -0.00114   0.00000  -0.00643  -0.00648   1.90876
    A7        1.91354  -0.00119   0.00000  -0.00459  -0.00471   1.90883
    A8        1.87092  -0.00005   0.00000  -0.01133  -0.01137   1.85955
    A9        1.97018  -0.00283   0.00000  -0.01295  -0.01294   1.95724
   A10        1.91058   0.00090   0.00000   0.00402   0.00398   1.91456
   A11        1.90485   0.00162   0.00000   0.01127   0.01125   1.91609
   A12        1.90721   0.00076   0.00000   0.00060   0.00061   1.90782
   A13        1.91050   0.00026   0.00000  -0.00145  -0.00140   1.90910
   A14        1.85709  -0.00059   0.00000  -0.00079  -0.00083   1.85626
   A15        1.94559   0.00234   0.00000   0.01386   0.01386   1.95944
   A16        1.91736  -0.00158   0.00000  -0.01298  -0.01315   1.90420
   A17        1.91798  -0.00177   0.00000  -0.01375  -0.01395   1.90402
   A18        1.90623   0.00048   0.00000   0.01101   0.01107   1.91730
   A19        1.90368   0.00077   0.00000   0.01401   0.01408   1.91776
   A20        1.87143  -0.00031   0.00000  -0.01289  -0.01316   1.85827
   A21        1.95792  -0.00043   0.00000  -0.00191  -0.00183   1.95609
   A22        1.91113   0.00130   0.00000   0.00833   0.00864   1.91977
   A23        1.91150   0.00112   0.00000   0.00768   0.00754   1.91904
   A24        1.90524  -0.00031   0.00000  -0.00154  -0.00162   1.90362
   A25        1.91076  -0.00079   0.00000  -0.00750  -0.00756   1.90320
   A26        1.86495  -0.00093   0.00000  -0.00527  -0.00545   1.85950
   A27        1.92441   0.00412   0.00000   0.02786   0.02777   1.95218
   A28        1.93713   0.00018   0.00000  -0.00062  -0.00068   1.93645
   A29        1.93745   0.00005   0.00000  -0.00147  -0.00153   1.93592
   A30        1.88634  -0.00180   0.00000  -0.00728  -0.00737   1.87897
   A31        1.88641  -0.00174   0.00000  -0.00707  -0.00715   1.87926
   A32        1.89046  -0.00100   0.00000  -0.01241  -0.01243   1.87803
   A33        1.93416  -0.01039   0.00000  -0.05910  -0.06004   1.87412
   A34        1.91141   0.01203   0.00000   0.05930   0.05946   1.97087
   A35        1.91127  -0.00250   0.00000  -0.01994  -0.02056   1.89070
   A36        1.88283   0.00035   0.00000   0.00561   0.00613   1.88896
   A37        1.89770   0.00188   0.00000   0.00316   0.00228   1.89998
[...]
 0000455,0.00001015,-0.00000122,0.00000058,0.00000822,0.00000025,0.0000
 0192,-0.00001105,-0.00000279,-0.00000236,0.00000070,-0.00000337,-0.000
 00179,-0.00000191,-0.00000443,-0.00000029,0.00000023,0.00000253,-0.000
 00177,-0.00000201,0.00000163,-0.00000075,0.00000177,-0.00003226,0.0000
 8024,-0.00002280,-0.00040539,0.00074027,0.00005088,0.00014703,0.000678
 71,0.00045988,-0.00001386,0.00001168,0.00000283,-0.00002565,0.00002329
 ,-0.00000584,-0.06845687,-0.09346056,0.10357071,-0.00024029,-0.0002620
 0,-0.00050503,0.00001279,0.00003146,0.00001393,-0.00000874,-0.00001632
 ,-0.00001419,-0.00000798,0.00003717,0.00003604,-0.00000418,0.00000930,
 0.00001213,0.00001717,0.00000478,-0.00000691,-0.00000460,-0.00000398,-
 0.00000433,0.00005588,-0.00026350,0.00006884,-0.00003919,-0.00003742,-
 0.00000225,-0.00002526,0.00003212,-0.00000262,0.00160585,-0.00088055,0
 .00727153,-0.00002805,-0.00003771,-0.00004573,-0.06907592,0.00543156,-
 0.07357424,-0.00000161,0.00000784,0.00000560,0.00000880,-0.00000651,-0
 .00000627,0.00000335,-0.00000288,0.00000536,-0.00000334,0.00000717,-0.
 00003518,-0.00000335,0.00000178,0.00001903,-0.00000218,-0.00000114,0.0
 0000610,-0.00000300,-0.00000038,-0.00001299,-0.00000997,-0.00000638,-0
 .00000331,-0.00000597,-0.00000161,0.00000145,-0.00000010,0.00000185,0.
 00000070,0.00000353,-0.00000309,-0.00000265,0.00000161,-0.00000193,0.0
 0000237,-0.00004176,0.00003566,0.00002433,0.00082555,0.00147655,0.0006
 3218,0.00018212,-0.00061705,0.00051536,-0.00000232,0.00002316,0.000033
 31,-0.00003093,0.00000487,-0.00004294,0.00450601,0.00019376,0.01698139
 ,0.06962019,0.00055082,0.00304100,0.00106048,0.00006389,0.00005112,0.0
 0027262,0.00000468,-0.00000162,0.00001151,-0.00000587,-0.00000149,-0.0
 0003732,-0.00000171,0.00000701,0.00000008,0.00000368,-0.00001401,0.000
 00168,-0.00000079,-0.00000294,-0.00000026,-0.00005714,-0.00042765,-0.0
 0059978,0.00000343,-0.00000772,0.00002685,-0.00000646,0.00012844,0.000
 07217,-0.00931751,0.00051609,-0.03195984,-0.00001776,-0.00004446,-0.00
 008149,0.00538383,-0.04686628,0.01831404,-0.00000431,0.00000603,0.0000
 1132,-0.00000721,0.00000238,0.00000159,0.00000155,-0.00000166,-0.00000
 012,0.00001435,0.00000786,0.00001279,-0.00000384,-0.00000221,0.0000060
 3,-0.00000043,-0.00000086,0.00000333,0.00000267,0.00000186,-0.00000145
 ,-0.00000748,0.00000676,0.00000262,0.00000248,-0.00000550,-0.00000369,
 -0.00000431,-0.00000130,-0.00000014,0.00000003,0.00000048,-0.00000014,
 0.00000083,0.00000043,0.00000040,0.00006736,0.00006210,0.00040810,0.00
 090112,-0.00527432,-0.00240067,-0.00007239,0.00130748,0.00078160,0.000
 01544,0.00000841,0.00002413,-0.00001311,0.00000569,-0.00000330,0.00826
 066,-0.00107434,0.02194648,-0.00689927,0.05011071,-0.00006700,0.000326
 96,0.00144910,-0.00008365,-0.00018350,0.00011836,0.00000307,0.00001629
 ,0.00001778,0.00001230,-0.00003585,-0.00006035,0.00000627,-0.00001372,
 -0.00001783,-0.00001950,0.00001115,0.00000619,0.00000445,0.00000686,0.
 00000506,-0.00004336,0.00026825,0.00017421,-0.00000841,0.00000412,0.00
 002298,0.00003629,-0.00006871,0.00003816,-0.00402994,0.00133300,-0.016
 57000,0.00006341,-0.00002538,-0.00005319,-0.07304696,0.01567393,-0.291
 70661,-0.00000186,0.00000315,0.00000363,-0.00000796,0.00000750,0.00000
 585,0.00000268,-0.00000224,-0.00000171,0.00000670,-0.00000831,0.000029
 23,-0.00000894,-0.00000573,-0.00000419,0.00000071,-0.00000138,-0.00000
 376,0.00000212,0.00000221,0.00001452,0.00000990,0.00000810,0.00000110,
 0.00001621,-0.00000804,-0.00000032,0.00000368,-0.00000026,-0.00000130,
 -0.00000406,0.00000325,0.00000287,-0.00000073,-0.00000079,-0.00000108,
 0.00008565,0.00023636,0.00012605,0.00105078,-0.00285902,0.00014459,0.0
 0038529,0.00003150,0.00044706,0.00000201,0.00001515,0.00002546,-0.0000
 0623,0.00000420,-0.00001508,-0.00396037,-0.00024017,-0.01115779,0.0788
 6429,-0.01447009,0.31654091,0.00121209,0.00044967,-0.00040311,0.000259
 67,0.00019033,-0.00005470,0.00001281,0.00000519,0.00000048,-0.00000259
 ,-0.00001961,0.00000278,-0.00000068,0.00000142,-0.00000063,0.00000103,
 -0.00000765,-0.00000700,0.00000340,-0.00000226,0.00000028,0.00005004,-
 0.00037417,-0.00012189,0.00007830,-0.00001443,0.00000194,-0.00001982,-
 0.00002362,-0.00000405,-0.00577043,0.00033949,0.00020411,-0.00020718,0
 .00008763,0.00000942,-0.30042592,0.05901905,-0.01050917,0.00002824,-0.
 00001584,-0.00000804,-0.00000836,0.00000503,0.00000638,-0.00000772,0.0
 0000649,-0.00000651,0.00000837,-0.00000548,0.00002921,0.00001398,0.000
 00145,-0.00003068,0.00000433,0.00000145,-0.00000833,0.00000314,-0.0000
 0027,0.00000937,-0.00000626,0.00000495,0.00000697,-0.00000891,0.000007
 04,-0.00000536,-0.00000576,-0.00000407,-0.00000080,-0.00000217,0.00000
 376,0.00000322,-0.00000170,0.00000420,-0.00000285,-0.00001524,0.000013
 07,0.00001694,0.00055861,0.00026837,0.00049807,0.00137887,0.00049838,0
 .00089911,0.00001214,-0.00000165,0.00001232,0.00003301,-0.00000124,-0.
 00002004,-0.01363595,0.00419573,-0.00158853,-0.00730604,0.00114179,0.0
 0073877,0.32376652,-0.00049306,0.00309961,0.00060120,-0.00023106,0.000
 13022,0.00003803,-0.00001283,-0.00000084,0.00000709,0.00000360,0.00000
 353,-0.00002981,0.00000345,-0.00001427,-0.00000291,-0.00001229,0.00003
 776,0.00001435,0.00000186,0.00000747,0.00000112,0.00025394,-0.00015938
 ,-0.00029612,-0.00030358,-0.00008806,-0.00000611,0.00008361,-0.0000950
 0,0.00013789,0.03177178,-0.00853273,0.00091685,0.00016149,-0.00019243,
 -0.00007716,0.05668050,-0.05921468,0.00278829,-0.00005170,0.00004070,0
 .00002731,0.00000488,-0.00000077,-0.00000152,0.00000870,-0.00000394,0.
 00000316,-0.00001014,0.00000221,-0.00001242,-0.00002244,-0.00000295,0.
 00002079,-0.00000145,-0.00000080,-0.00000230,-0.00000123,0.00000016,0.
 00000364,0.00000335,-0.00000366,-0.00000385,0.00001585,-0.00001343,0.0
 0000023,0.00000621,0.00000144,0.00000040,-0.00000094,-0.00000071,-0.00
 000002,-0.00000037,-0.00000133,0.00000009,0.00001643,0.00004634,0.0000
 5324,-0.00067444,0.00123999,0.00038711,0.00010136,-0.00482829,-0.00293
 782,-0.00001024,0.00000303,-0.00001702,-0.00006791,-0.00003228,0.00008
 753,-0.02320980,0.00626254,-0.00216648,0.00175077,-0.00153595,-0.00001
 716,-0.06577756,0.06382693,-0.00089226,0.00132066,0.00020733,-0.000028
 62,0.00000563,-0.00005587,-0.00000485,0.00001281,0.00001276,0.00000922
 ,-0.00002288,-0.00004158,0.00000557,-0.00001355,-0.00000927,-0.0000157
 5,0.00002945,0.00001461,0.00000223,0.00000637,0.00000355,0.00012666,0.
 00025400,0.00000012,-0.00012518,-0.00005143,0.00001091,0.00008240,-0.0
 0011322,0.00000889,0.01827426,-0.00389943,-0.00004336,0.00001425,0.000
 05339,0.00010073,-0.01183589,0.00233484,-0.04764502,-0.00000472,-0.000
 01143,-0.00002550,-0.00000117,0.00000172,0.00000106,0.00000488,-0.0000
 0349,0.00000003,-0.00000147,0.,0.00000421,-0.00001572,0.00000079,0.000
 01092,-0.00000135,0.00000011,-0.00000089,0.00000088,0.00000168,0.00000
 633,0.00001068,-0.00000134,-0.00000018,0.00001440,-0.00001096,-0.00000
 053,0.00000459,0.00000071,-0.00000006,-0.00000177,0.00000026,0.0000006
 2,-0.00000010,-0.00000115,-0.00000052,0.00000485,-0.00003817,-0.000062
 12,0.00043703,0.00080088,0.00025304,0.00002916,-0.00332293,-0.00069637
 ,-0.00000213,-0.00002988,-0.00004681,0.00002748,-0.00000700,0.00001845
 ,0.01379459,-0.00439328,-0.00036686,-0.03024164,0.00659810,0.00041290,
 0.01033233,0.00049547,0.04792713,-0.00016400,-0.00056180,0.00009961,-0
 .00276424,-0.00432957,0.00282812,0.00000303,-0.00002990,-0.00000471,-0
 .00001278,0.00005474,0.00000679,-0.00000837,0.00001755,0.00000089,0.00
 002467,-0.00001226,-0.00002085,-0.00000171,-0.00001085,-0.00000098,0.0
 0032305,0.00123407,-0.00079985,-0.00002116,-0.00000128,0.00000688,-0.0
 0032052,-0.00016376,0.00012104,0.00013731,0.00013849,-0.00015763,-0.01
 474187,0.00872108,-0.00392390,-0.00004404,-0.00001968,0.00002767,-0.29
 724950,0.05934766,-0.01828418,-0.00000181,0.00000203,0.00000238,-0.000
 00124,0.00000203,-0.00000150,0.00000606,0.00000015,0.00000060,0.000006
 33,-0.00000115,0.00000084,0.00000100,-0.00000119,0.00000050,0.00000111
 ,-0.00000088,-0.00000032,-0.00002435,0.00000426,0.00000509,-0.00002894
 ,0.00000733,-0.00000374,-0.00000881,-0.00000330,-0.00000091,0.00000041
 ,0.00000270,0.00000156,0.00000070,0.00000281,-0.00000093,-0.00005841,-
 0.00010058,0.00013389,-0.00001291,-0.00001025,0.00002462,-0.00001816,-
 0.00000901,0.00001299,0.00018595,-0.00007851,0.00066633,0.00022674,-0.
 00058290,-0.00035534,-0.00000007,-0.00002911,-0.00000584,0.00000225,0.
 00000354,-0.00000609,0.00001436,-0.00000511,-0.00000241,0.32326357,0.0
 0016559,-0.00009617,-0.00003429,-0.00454922,-0.00408934,0.00299759,0.0
 0000070,-0.00001040,-0.00000153,-0.00000760,0.00002252,0.00000523,-0.0
 0000374,0.00000484,0.00000076,0.00001008,0.00000823,-0.00002103,-0.000
 00041,-0.00000290,-0.00000018,-0.00117687,0.00103154,-0.00026733,-0.00
 008969,0.00005880,-0.00001966,-0.00029666,-0.00031217,0.00025268,0.000
 03958,0.00001745,-0.00003411,-0.02176438,0.00855798,-0.00459186,-0.000
 02189,-0.00000150,0.00000990,0.06191507,-0.06263751,0.00560685,-0.0000
 0017,0.00000028,0.00000052,-0.00000166,0.00000108,-0.00000115,0.000002
 31,-0.00000059,-0.00000056,0.00000401,0.00000173,0.00000026,0.00000033
 ,0.00000012,-0.00000014,0.00000031,-0.00000053,-0.00000054,-0.00001211
 ,0.00000017,0.00000281,-0.00002981,0.00000602,-0.00000257,-0.00000174,
 0.00000004,-0.00000005,0.00000006,0.00000014,0.00000006,-0.00000015,0.
 00000055,-0.00000036,-0.00000456,-0.00004029,0.00006889,-0.00000830,0.
 00000121,0.00000447,0.00000631,0.00000771,0.00000006,0.00058279,0.0006
 3637,0.00022554,0.00063986,0.00020731,-0.00088502,0.00000495,-0.000007
 90,-0.00000432,-0.00000045,-0.00000105,-0.00000191,0.00000667,-0.00001
 041,0.00000093,-0.06467939,0.06392289,0.00006008,0.00018929,-0.0000952
 8,0.00248855,0.00266456,-0.00103606,-0.00000031,0.00000661,0.00000020,
 0.00000457,-0.00001319,-0.00000133,0.00000200,-0.00000301,0.00000021,-
 0.00000532,0.00000105,0.00001181,0.00000025,0.00000202,0.00000020,0.00
 051736,-0.00033849,0.00084151,0.00003822,-0.00004032,-0.00000727,0.000
 18736,0.00018377,-0.00008779,-0.00002357,0.00000428,0.00006061,0.01180
 039,-0.00579189,0.00012229,0.00000861,0.00000974,-0.00001508,-0.019510
 72,0.00568750,-0.04733146,0.00000027,-0.00000048,-0.00000047,0.0000008
 8,-0.00000073,0.00000056,-0.00000089,0.00000118,-0.00000029,-0.0000024
 3,-0.00000034,0.00000053,-0.00000029,0.00000008,0.00000019,-0.00000003
 ,0.00000033,-0.00000025,0.00000488,-0.00000185,-0.00000002,0.00001477,
 -0.00000418,-0.00000004,0.00000093,0.00000005,0.00000018,0.00000006,-0
 .00000033,-0.00000028,0.00000013,-0.00000025,0.00000019,-0.00006869,-0
 .00004160,-0.00003423,0.00000370,0.00000267,-0.00001113,0.00000281,-0.
 00000314,-0.00000586,-0.00032071,-0.00043175,-0.00022559,-0.00037753,-
 0.00013079,0.00033662,0.00000077,0.00000724,0.00000250,-0.00000343,-0.
 00000037,-0.00000107,-0.00000108,0.00000073,0.00000642,0.01964138,-0.0
 0675074,0.04702722,0.00007039,0.00025230,-0.00011132,0.00213957,0.0007
 5669,-0.00064294,-0.00000164,0.00000917,0.00000005,0.00000222,-0.00001
 506,0.00000011,0.00000235,-0.00000628,-0.00000059,-0.00001081,0.000005
 43,0.00001837,0.00000050,0.00000363,0.00000077,-0.00029400,-0.00043510
 ,0.00049033,-0.00001016,0.00002276,-0.00002207,0.00000348,0.00003575,-
 0.00012869,-0.00001635,-0.00002361,0.00005999,0.00344113,-0.00296001,0
 .02079893,0.00001466,0.00001061,-0.00001139,-0.06026434,0.00823444,-0.
 06119395,0.00000127,-0.00000084,-0.00000117,-0.00000071,0.00000003,-0.
 00000015,-0.00000201,-0.00000181,-0.00000013,-0.00000045,0.00000174,-0
 .00000198,-0.00000009,0.00000083,-0.00000062,-0.00000055,-0.00000015,0
 .00000019,0.00000355,-0.00000082,-0.00000255,0.00000064,-0.00000120,0.
 00000156,0.00000351,0.00000152,0.00000036,-0.00000015,-0.00000114,-0.0
 0000063,-0.00000059,-0.00000102,0.00000021,-0.00010526,0.00010749,-0.0
 0028562,0.00000758,0.00000950,-0.00001919,-0.00000094,0.00000100,-0.00
 000395,-0.00190396,-0.00285207,0.00152438,0.00052508,0.00075247,-0.000
 66510,-0.00000156,0.00000936,0.00000022,-0.00000131,-0.00000489,-0.000
 00047,-0.00000600,0.00000532,0.00000080,-0.00547162,0.00292432,-0.0301
 3993,0.06148464,-0.00001141,-0.00007933,-0.00015922,0.00109533,0.00093
 020,-0.00154503,0.00000017,-0.00000625,-0.00000069,-0.00000114,0.00001
 181,0.00000551,-0.00000174,0.00000428,0.00000190,0.00000554,0.00000531
 ,0.00000196,-0.00000052,-0.00000222,-0.00000089,0.00016333,0.00000248,
 0.00019038,-0.00000887,-0.00001181,-0.00000951,-0.00005725,0.00002913,
 -0.00008757,0.00003550,0.00002757,0.00001729,0.00675653,-0.00407666,0.
 02725428,-0.00000171,0.00000314,0.00000402,0.00684106,-0.05070022,0.02
 907335,0.00000044,-0.00000025,-0.00000044,0.00000008,0.00000055,0.0000
 0066,0.00000041,-0.00000076,-0.00000181,0.00000064,-0.00000078,0.00000
 049,0.00000013,-0.00000048,0.00000034,0.00000013,-0.00000067,-0.000001
 09,-0.00000848,-0.00000063,-0.00000002,-0.00000207,0.00000128,0.000000
 46,-0.00000203,-0.00000078,-0.00000004,0.00000043,0.00000032,-0.000000
 12,0.00000018,0.00000069,0.00000021,0.00004941,0.00006377,-0.00022702,
 0.00000673,0.00000772,-0.00002712,-0.00000371,-0.00000208,-0.00000678,
 -0.00359250,-0.00295436,0.00166721,0.00090804,0.00055724,-0.00019980,0
 .00000122,-0.00000307,-0.00000660,-0.00001440,-0.00000747,-0.00000887,
 0.00000491,-0.00000051,0.00001204,0.00100639,-0.00237049,0.00703863,-0
 .00579102,0.05422704,0.00013198,-0.00000747,0.00007777,0.00002694,-0.0
 0060854,0.00084325,-0.00000008,0.00000444,-0.00000231,0.00000510,-0.00
 000827,-0.00000289,0.00000167,-0.00000151,-0.00000104,-0.00000129,0.00
 000475,-0.00001178,0.00000018,0.00000137,-0.00000049,-0.00004199,-0.00
 005477,0.00013046,0.00002189,-0.00002226,0.00001562,0.00008982,0.00002
 813,0.00005127,-0.00004445,-0.00004638,-0.00001850,-0.00335809,0.00206
 525,-0.01352083,-0.00000700,0.00000109,-0.00000148,-0.05941309,0.03064
 227,-0.29712394,-0.00000044,0.00000050,0.00000038,0.00000222,-0.000002
 31,0.00000243,-0.00000114,0.00000290,-0.00000058,-0.00000354,-0.000003
 38,0.00000363,-0.00000041,-0.00000142,0.00000158,-0.00000019,0.0000011
 6,0.00000011,0.00000523,-0.00000054,0.00000015,0.00001498,-0.00000278,
 0.00000245,0.00000057,0.00000006,-0.00000021,-0.00000017,0.00000032,0.
 00000012,0.00000055,-0.00000105,0.00000098,-0.00016018,-0.00012201,0.0
 0016854,-0.00000419,-0.00000161,0.00001695,0.00001950,0.00000911,-0.00
 000095,0.00143885,0.00202958,0.00069929,0.00020822,0.00015386,0.000786
 87,0.00000268,0.00000339,0.00000082,0.00000558,0.00000341,0.00000749,0
 .00000198,-0.00000930,-0.00000546,0.00052884,-0.00045280,-0.00001139,0
 .06413269,-0.03635975,0.32114839,-0.00024102,0.00026371,0.00004135,0.0
 0223942,0.00098091,-0.00066903,-0.00000055,0.00001363,0.00000097,0.000
 00317,-0.00002413,-0.00000237,0.00000328,-0.00000811,-0.00000041,-0.00
 001432,0.00000693,0.00000594,0.00000102,0.00000464,0.00000073,-0.00013
 045,-0.00064311,0.00019515,-0.00001006,0.00001744,-0.00000251,0.000079
 55,0.00008447,0.00000602,-0.00004461,0.00010629,0.00001366,0.00210120,
 -0.01854831,-0.01011164,0.00002234,0.00000596,-0.00001120,-0.05341586,
 0.03957174,0.02145825,0.00000005,-0.00000066,-0.00000037,-0.00000055,-
 0.00000042,-0.00000049,-0.00000074,0.00000042,0.00000199,-0.00000017,0
 .00000195,-0.00000252,-0.00000016,0.00000098,-0.00000091,-0.00000026,0
 .00000047,0.00000069,0.00000415,-0.00000243,-0.00000034,0.00000364,-0.
 00000376,-0.00000093,0.00000391,0.00000152,0.00000046,-0.00000040,-0.0
 0000120,-0.00000054,-0.00000057,-0.00000107,0.00000010,0.00004023,0.00
 003623,-0.00005294,0.00000679,-0.00000486,0.00000464,-0.00002768,-0.00
 003178,0.00001307,0.00049082,0.00101800,-0.00019631,-0.00181663,-0.002
 72277,0.00174294,-0.00000483,0.00000844,0.00000321,0.00000098,0.000002
 33,0.00000095,-0.00000819,0.00001308,-0.00000124,-0.00324199,0.0263458
 9,0.01567697,0.00039194,-0.00737972,-0.00360322,0.05356655,-0.00041923
 ,0.00016270,0.00011842,0.00072342,0.00226895,-0.00000408,0.00000228,-0
 .00000355,-0.00000002,-0.00000565,0.00000467,-0.00000058,-0.00000145,0
 .00000136,-0.00000071,0.00000010,-0.00000857,-0.00000756,0.00000042,-0
 .00000160,-0.00000021,0.00022523,-0.00034107,-0.00007084,-0.00002460,0
 .00003420,0.00001139,-0.00006142,0.00000487,0.00001216,0.00006806,0.00
 024072,-0.00007016,0.00515321,-0.02389269,-0.01278216,0.00002804,-0.00
 001196,0.00000270,0.03719553,-0.24337075,-0.11115377,-0.00000252,0.000
 00144,0.00000267,-0.00000155,0.00000104,-0.00000202,0.00000375,0.00000
 117,0.00000566,0.00000430,0.00000078,-0.00000414,0.00000069,0.00000022
 ,-0.00000157,0.00000032,0.00000055,0.00000219,-0.00001280,0.00000095,0
 .00000332,-0.00001134,0.00000073,-0.00000438,-0.00000113,-0.00000036,-
 0.00000024,-0.00000063,0.00000085,0.00000128,-0.00000027,0.00000061,-0
 .00000090,0.00001940,-0.00002432,0.00002638,0.00000690,-0.00001966,0.0
 0002459,-0.00005932,-0.00003943,0.00002721,0.00039285,0.00072987,0.000
 36033,-0.00312737,-0.00189702,0.00293255,-0.00001738,-0.00000589,0.000
 00830,0.00000674,0.00000695,-0.00000083,-0.00000820,0.00003049,-0.0000
 0971,0.00008567,-0.00490573,-0.00224626,-0.00104934,0.00434629,0.00275
 456,-0.03911272,0.26668319,0.00022726,0.00008906,-0.00005631,-0.001266
 20,-0.00095510,0.00004979,-0.00000021,0.00000037,0.00000138,-0.0000021
 1,-0.00000115,-0.00000306,-0.00000014,-0.00000168,-0.00000085,0.000000
 28,0.00000074,0.00000874,0.00000017,0.00000042,0.00000056,-0.00023564,
 0.00017920,0.00004173,-0.00001831,0.00001121,-0.00001662,-0.00003208,-
 0.00001321,0.00000294,0.00002960,-0.00007881,0.00004083,-0.00262549,0.
 01437594,0.00743073,-0.00000796,0.00000379,-0.00000789,0.02136977,-0.1
 1297342,-0.11091645,-0.00000025,-0.00000008,0.00000083,-0.00000089,0.0
 0000039,-0.00000195,0.00000096,0.00000077,0.00000116,0.00000148,0.0000
 0303,-0.00000105,0.00000010,0.00000099,-0.00000078,0.00000005,0.000000
 28,0.00000081,-0.00000362,-0.00000090,0.00000211,-0.00000965,-0.000001
 69,-0.00000463,0.00000079,0.00000046,0.00000006,-0.00000026,-0.0000002
 6,0.00000040,-0.00000030,-0.00000005,-0.00000077,0.00000062,0.00002624
 ,-0.00005186,-0.00000176,0.00000687,-0.00000843,0.00001579,0.00001956,
 -0.00001604,-0.00089099,-0.00014156,0.00079158,0.00229090,0.00211847,-
 0.00028006,0.00000226,0.00000163,0.00000210,0.00000420,-0.00000067,0.0
 0000074,-0.00000092,-0.00000453,0.00000039,-0.00054084,0.00389359,0.00
 045366,0.00620347,-0.02662633,-0.01325672,-0.02451008,0.12006642,0.115
 79291\\0.00000067,-0.00000833,-0.00000087,-0.00000175,0.00000057,0.000
 00143,0.00000027,-0.00000446,0.00000083,0.00000299,0.00000448,-0.00000
 302,0.00000105,0.00000329,-0.00000043,-0.00000237,-0.00000333,0.000001
 58,-0.00000040,-0.00000257,0.00000207,-0.00000794,0.00000917,0.0000001
 0,-0.00000032,0.00000054,0.00000101,0.00000517,-0.00000148,-0.00000057
 ,0.00000207,0.00000346,-0.00000111,-0.00000022,-0.00000142,0.,0.000000
 34,-0.00000037,0.00000115,-0.00000084,-0.00000080,-0.00000273,-0.00000
 115,0.00000107,-0.00000037,-0.00000043,0.00000135,0.00000034,-0.000001
 39,-0.00000226,0.00000041,0.00000090,-0.00000077,0.00000110,0.00000064
 ,-0.00000116,0.00000090,0.00000013,-0.00000071,0.00000022,0.00000072,0
 .00000137,0.00000007,0.00000017,-0.00000043,0.00000002,-0.00000011,-0.
 00000025,-0.00000015,0.00000044,0.00000106,-0.00000054,-0.00000145,-0.
 00000012,-0.00000066,0.00000129,-0.00000044,-0.00000105,-0.00000015,0.
 00000006,0.00000060,-0.00000147,-0.00000037,0.00000038,0.00000158,0.00
 000010,0.00000014,-0.00000025,0.00000200,-0.00000056,0.,-0.00000035,0.
 00000049,0.00000050,0.00000019,-0.00000045,0.00000051,-0.00000052,-0.0
 0000003,0.00000088,0.00000010,0.00000065,0.00000109,0.00000050,-0.0000
 0046,-0.00000115,0.00000084,-0.00000047\\\@


 MANHOOD BEGINS BY TRYING TO SHAVE FACE,
 AND ENDS BY TRYING TO SAVE FACE.
 Job cpu time:       0 days  9 hours 22 minutes 44.4 seconds.
 Elapsed time:       0 days  0 hours 35 minutes 19.8 seconds.
 File lengths (MBytes):  RWF=    638 Int=      0 D2E=      0 Chk=     19 Scr=      1
 Normal termination of Gaussian 16 at Fri Sep 19 11:12:26 2025.
