 Entering Gaussian System, Link 0=g16
 Input=DLML0101.gjf
 Output=DLML0101.log
 Initial command:
 /usr/local/g16/l1.exe "/dados_01/scratch/Gau-2038840.inp" -scrdir="/dados_01/scratch/"
 Entering Link 1 = /usr/local/g16/l1.exe PID=   2038841.
  
 Copyright (c) 1988-2017, Gaussian, Inc.  All Rights Reserved.
  
 This is part of the Gaussian(R) 16 program.  It is based on
 the Gaussian(R) 09 system (copyright 2009, Gaussian, Inc.),
 the Gaussian(R) 03 system (copyright 2003, Gaussian, Inc.),
 the Gaussian(R) 98 system (copyright 1998, Gaussian, Inc.),
 the Gaussian(R) 94 system (copyright 1995, Gaussian, Inc.),
 the Gaussian 92(TM) system (copyright 1992, Gaussian, Inc.),
 the Gaussian 90(TM) system (copyright 1990, Gaussian, Inc.),
 the Gaussian 88(TM) system (copyright 1988, Gaussian, Inc.),
 the Gaussian 86(TM) system (copyright 1986, Carnegie Mellon
 University), and the Gaussian 82(TM) system (copyright 1983,
 Carnegie Mellon University). Gaussian is a federally registered
 trademark of Gaussian, Inc.
  
 This software contains proprietary and confidential information,
 including trade secrets, belonging to Gaussian, Inc.
  
 This software is provided under written license and may be
 used, copied, transmitted, or stored only in accord with that
 written license.
  
 The following legend is applicable only to US Government
 contracts under FAR:
  
                    RESTRICTED RIGHTS LEGEND
  
 Use, reproduction and disclosure by the US Government is
 subject to restrictions as set forth in subparagraphs (a)
 and (c) of the Commercial Computer Software - Restricted
 Rights clause in FAR 52.227-19.
  
 Gaussian, Inc.
 340 Quinnipiac St., Bldg. 40, Wallingford CT 06492
  
  
 ---------------------------------------------------------------
 Warning -- This program may not be used in any manner that
 competes with the business of Gaussian, Inc. or will provide
 assistance to any competitor of Gaussian, Inc.  The licensee
 of this program is prohibited from giving any competitor of
 Gaussian, Inc. access to this program.  By using this program,
 the user acknowledges that Gaussian, Inc. is engaged in the
 business of creating and licensing software in the field of
 computational chemistry and represents and warrants to the
 licensee that it is not a competitor of Gaussian, Inc. and that
 it will not use this program in any manner prohibited above.
 ---------------------------------------------------------------
  

 Cite this work as:
 Gaussian 16, Revision B.01,
 M. J. Frisch, G. W. Trucks, H. B. Schlegel, G. E. Scuseria, 
 M. A. Robb, J. R. Cheeseman, G. Scalmani, V. Barone, 
 G. A. Petersson, H. Nakatsuji, X. Li, M. Caricato, A. V. Marenich, 
 J. Bloino, B. G. Janesko, R. Gomperts, B. Mennucci, H. P. Hratchian, 
 J. V. Ortiz, A. F. Izmaylov, J. L. Sonnenberg, D. Williams-Young, 
 F. Ding, F. Lipparini, F. Egidi, J. Goings, B. Peng, A. Petrone, 
 T. Henderson, D. Ranasinghe, V. G. Zakrzewski, J. Gao, N. Rega, 
 G. Zheng, W. Liang, M. Hada, M. Ehara, K. Toyota, R. Fukuda, 
 J. Hasegawa, M. Ishida, T. Nakajima, Y. Honda, O. Kitao, H. Nakai, 
 T. Vreven, K. Throssell, J. A. Montgomery, Jr., J. E. Peralta, 
 F. Ogliaro, M. J. Bearpark, J. J. Heyd, E. N. Brothers, K. N. Kudin, 
 V. N. Staroverov, T. A. Keith, R. Kobayashi, J. Normand, 
 K. Raghavachari, A. P. Rendell, J. C. Burant, S. S. Iyengar, 
 J. Tomasi, M. Cossi, J. M. Millam, M. Klene, C. Adamo, R. Cammi, 
 J. W. Ochterski, R. L. Martin, K. Morokuma, O. Farkas, 
 J. B. Foresman, and D. J. Fox, Gaussian, Inc., Wallingford CT, 2016.
 
 ******************************************
 Gaussian 16:  ES64L-G16RevB.01 20-Dec-2017
                19-Sep-2025 
 ******************************************
 %nprocs=16
 Will use up to   16 processors via shared memory.
 %mem=40GB
 %chk=DLML0101.chk
 ----------------------------------------------------------------------
 # opt freq=noraman M08HX/6-311++G** scf=xqc Empiricaldispersion=pfd In
 t(Grid=ultraFine)
 ----------------------------------------------------------------------
 1/18=20,19=15,26=4,38=1/1,3;
 2/9=110,12=2,17=6,18=5,40=1/2;
 3/5=4,6=6,7=1111,11=2,25=1,30=1,71=1,74=-74,75=-5,124=11/1,2,3;
 4//1;
 5/5=2,8=3,13=1,38=5/2,8;
 6/7=2,8=2,9=2,10=2,28=1/1;
 7//1,2,3,16;
 1/18=20,19=15,26=4/3(2);
 2/9=110/2;
 99//99;
 2/9=110/2;
 3/5=4,6=6,7=1111,11=2,25=1,30=1,71=1,74=-74,75=-5,124=11/1,2,3;
 4/5=5,16=3,69=1/1;
 5/5=2,8=3,13=1,38=5/2,8;
 7//1,2,3,16;
 1/18=20,19=15,26=4/3(-5);
 2/9=110/2;
 6/7=2,8=2,9=2,10=2,19=2,28=1/1;
 99/9=1/99;
 --------
 DLML0101
 --------
 Symbolic Z-matrix:
 Charge =  0 Multiplicity = 1
 O                     0.1034    2.2511   -0.8727 
 C                     0.0327    1.2783    0.1837 
 C                    -1.2396    0.5007    0.148 
 C                     1.2837    0.414     0.087 
 C                    -1.7873    0.0049    1.3314 
 C                     1.2484   -0.7224   -0.6936 
 C                    -1.8822    0.2698   -1.0683 
 C                     2.4116    0.7956    0.7829 
 C                    -2.9772   -0.7221    1.2981 
 C                     2.3937   -1.5137   -0.7824 
 C                    -3.0722   -0.4571   -1.1013 
 C                     3.5569    0.0043    0.6939 
 C                    -3.6197   -0.953     0.082 
 C                     3.5479   -1.1504   -0.0887 
 H                     0.0623    1.8526    1.1191 
 H                    -1.296     0.1763    2.2855 
 H                     0.384    -1.0348   -1.2658 
 H                    -1.4749    0.6399   -2.0053 
 H                     2.4276    1.6939    1.3925 
 H                    -3.4033   -1.1088    2.2193 
 H                     2.3889   -2.4104   -1.3952 
 H                    -3.572    -0.6385   -2.0484 
 H                     4.4561    0.2876    1.2333 
 H                    -0.717     2.7733   -0.8502 
 H                    -4.546    -1.5195    0.0561 
 H                     4.4401   -1.7657   -0.1589 
 

 GradGradGradGradGradGradGradGradGradGradGradGradGradGradGradGradGradGrad
 Berny optimization.
 Initialization pass.
                           ----------------------------
                           !    Initial Parameters    !
                           ! (Angstroms and Degrees)  !
 --------------------------                            --------------------------
 ! Name  Definition              Value          Derivative Info.                !
 --------------------------------------------------------------------------------
 ! R1    R(1,2)                  1.4378         estimate D2E/DX2                !
 ! R2    R(1,24)                 0.9728         estimate D2E/DX2                !
 ! R3    R(2,3)                  1.4915         estimate D2E/DX2                !
 ! R4    R(2,4)                  1.5236         estimate D2E/DX2                !
 ! R5    R(2,15)                 1.098          estimate D2E/DX2                !
 ! R6    R(3,5)                  1.3951         estimate D2E/DX2                !
 ! R7    R(3,7)                  1.3949         estimate D2E/DX2                !
 ! R8    R(4,6)                  1.3791         estimate D2E/DX2                !
 ! R9    R(4,8)                  1.3791         estimate D2E/DX2                !
 ! R10   R(5,9)                  1.3948         estimate D2E/DX2                !
 ! R11   R(5,16)                 1.0868         estimate D2E/DX2                !
 ! R12   R(6,10)                 1.3949         estimate D2E/DX2                !
 ! R13   R(6,17)                 1.0827         estimate D2E/DX2                !
 ! R14   R(7,11)                 1.3948         estimate D2E/DX2                !
 ! R15   R(7,18)                 1.0867         estimate D2E/DX2                !
 ! R16   R(8,12)                 1.3949         estimate D2E/DX2                !
 ! R17   R(8,19)                 1.0857         estimate D2E/DX2                !
 ! R18   R(9,13)                 1.3946         estimate D2E/DX2                !
 ! R19   R(9,20)                 1.0861         estimate D2E/DX2                !
 ! R20   R(10,14)                1.3948         estimate D2E/DX2                !
 ! R21   R(10,21)                1.0861         estimate D2E/DX2                !
 ! R22   R(11,13)                1.3949         estimate D2E/DX2                !
 ! R23   R(11,22)                1.0861         estimate D2E/DX2                !
 ! R24   R(12,14)                1.3949         estimate D2E/DX2                !
 ! R25   R(12,23)                1.0862         estimate D2E/DX2                !
 ! R26   R(13,25)                1.0861         estimate D2E/DX2                !
 ! R27   R(14,26)                1.0861         estimate D2E/DX2                !
 ! A1    A(2,1,24)             107.7426         estimate D2E/DX2                !
 ! A2    A(1,2,3)              112.1534         estimate D2E/DX2                !
 ! A3    A(1,2,4)              107.2656         estimate D2E/DX2                !
 ! A4    A(1,2,15)             105.7064         estimate D2E/DX2                !
 ! A5    A(3,2,4)              113.7739         estimate D2E/DX2                !
 ! A6    A(3,2,15)             108.4249         estimate D2E/DX2                !
 ! A7    A(4,2,15)             109.1858         estimate D2E/DX2                !
 ! A8    A(2,3,5)              119.9912         estimate D2E/DX2                !
 ! A9    A(2,3,7)              120.0098         estimate D2E/DX2                !
 ! A10   A(5,3,7)              119.999          estimate D2E/DX2                !
 ! A11   A(2,4,6)              118.8384         estimate D2E/DX2                !
 ! A12   A(2,4,8)              118.8496         estimate D2E/DX2                !
 ! A13   A(6,4,8)              122.312          estimate D2E/DX2                !
 ! A14   A(3,5,9)              119.9937         estimate D2E/DX2                !
 ! A15   A(3,5,16)             120.7428         estimate D2E/DX2                !
 ! A16   A(9,5,16)             119.2634         estimate D2E/DX2                !
 ! A17   A(4,6,10)             118.8459         estimate D2E/DX2                !
 ! A18   A(4,6,17)             123.8716         estimate D2E/DX2                !
 ! A19   A(10,6,17)            117.2708         estimate D2E/DX2                !
 ! A20   A(3,7,11)             119.9956         estimate D2E/DX2                !
 ! A21   A(3,7,18)             121.5227         estimate D2E/DX2                !
 ! A22   A(11,7,18)            118.4808         estimate D2E/DX2                !
 ! A23   A(4,8,12)             118.8371         estimate D2E/DX2                !
 ! A24   A(4,8,19)             121.6202         estimate D2E/DX2                !
 ! A25   A(12,8,19)            119.5425         estimate D2E/DX2                !
 ! A26   A(5,9,13)             120.0082         estimate D2E/DX2                !
 ! A27   A(5,9,20)             119.9995         estimate D2E/DX2                !
 ! A28   A(13,9,20)            119.9923         estimate D2E/DX2                !
 ! A29   A(6,10,14)            120.0014         estimate D2E/DX2                !
 ! A30   A(6,10,21)            120.0426         estimate D2E/DX2                !
 ! A31   A(14,10,21)           119.9554         estimate D2E/DX2                !
 ! A32   A(7,11,13)            120.0029         estimate D2E/DX2                !
 ! A33   A(7,11,22)            120.0166         estimate D2E/DX2                !
 ! A34   A(13,11,22)           119.9805         estimate D2E/DX2                !
 ! A35   A(8,12,14)            120.0048         estimate D2E/DX2                !
 ! A36   A(8,12,23)            120.0049         estimate D2E/DX2                !
 ! A37   A(14,12,23)           119.9903         estimate D2E/DX2                !
 ! A38   A(9,13,11)            120.0005         estimate D2E/DX2                !
 ! A39   A(9,13,25)            120.0038         estimate D2E/DX2                !
 ! A40   A(11,13,25)           119.9957         estimate D2E/DX2                !
 ! A41   A(10,14,12)           119.9988         estimate D2E/DX2                !
 ! A42   A(10,14,26)           120.0058         estimate D2E/DX2                !
 ! A43   A(12,14,26)           119.9953         estimate D2E/DX2                !
 ! D1    D(24,1,2,3)            51.1033         estimate D2E/DX2                !
 ! D2    D(24,1,2,4)           176.7188         estimate D2E/DX2                !
 ! D3    D(24,1,2,15)          -66.8649         estimate D2E/DX2                !
 ! D4    D(1,2,3,5)           -149.9735         estimate D2E/DX2                !
 ! D5    D(1,2,3,7)             29.9924         estimate D2E/DX2                !
 ! D6    D(4,2,3,5)             88.0532         estimate D2E/DX2                !
 ! D7    D(4,2,3,7)            -91.9809         estimate D2E/DX2                !
 ! D8    D(15,2,3,5)           -33.6325         estimate D2E/DX2                !
 ! D9    D(15,2,3,7)           146.3334         estimate D2E/DX2                !
 ! D10   D(1,2,4,6)            -89.9822         estimate D2E/DX2                !
 ! D11   D(1,2,4,8)             90.0071         estimate D2E/DX2                !
 ! D12   D(3,2,4,6)             34.6573         estimate D2E/DX2                !
 ! D13   D(3,2,4,8)           -145.3535         estimate D2E/DX2                !
 ! D14   D(15,2,4,6)           155.9196         estimate D2E/DX2                !
 ! D15   D(15,2,4,8)           -24.0911         estimate D2E/DX2                !
 ! D16   D(2,3,5,9)            179.9899         estimate D2E/DX2                !
 ! D17   D(2,3,5,16)            -0.1317         estimate D2E/DX2                !
 ! D18   D(7,3,5,9)              0.0241         estimate D2E/DX2                !
 ! D19   D(7,3,5,16)           179.9025         estimate D2E/DX2                !
 ! D20   D(2,3,7,11)          -179.9818         estimate D2E/DX2                !
 ! D21   D(2,3,7,18)             0.3627         estimate D2E/DX2                !
 ! D22   D(5,3,7,11)            -0.016          estimate D2E/DX2                !
 ! D23   D(5,3,7,18)          -179.6714         estimate D2E/DX2                !
 ! D24   D(2,4,6,10)           179.9907         estimate D2E/DX2                !
 ! D25   D(2,4,6,17)             1.267          estimate D2E/DX2                !
 ! D26   D(8,4,6,10)             0.0018         estimate D2E/DX2                !
 ! D27   D(8,4,6,17)          -178.7219         estimate D2E/DX2                !
 ! D28   D(2,4,8,12)          -179.9833         estimate D2E/DX2                !
 ! D29   D(2,4,8,19)            -0.1268         estimate D2E/DX2                !
 ! D30   D(6,4,8,12)             0.0056         estimate D2E/DX2                !
 ! D31   D(6,4,8,19)           179.8621         estimate D2E/DX2                !
 ! D32   D(3,5,9,13)            -0.0227         estimate D2E/DX2                !
 ! D33   D(3,5,9,20)           179.9533         estimate D2E/DX2                !
 ! D34   D(16,5,9,13)         -179.9029         estimate D2E/DX2                !
 ! D35   D(16,5,9,20)            0.0732         estimate D2E/DX2                !
 ! D36   D(4,6,10,14)           -0.0045         estimate D2E/DX2                !
 ! D37   D(4,6,10,21)         -179.7205         estimate D2E/DX2                !
 ! D38   D(17,6,10,14)         178.8033         estimate D2E/DX2                !
 ! D39   D(17,6,10,21)          -0.9127         estimate D2E/DX2                !
 ! D40   D(3,7,11,13)            0.0065         estimate D2E/DX2                !
 ! D41   D(3,7,11,22)         -179.899          estimate D2E/DX2                !
 ! D42   D(18,7,11,13)         179.6723         estimate D2E/DX2                !
 ! D43   D(18,7,11,22)          -0.2332         estimate D2E/DX2                !
 ! D44   D(4,8,12,14)           -0.0103         estimate D2E/DX2                !
 ! D45   D(4,8,12,23)          179.9389         estimate D2E/DX2                !
 ! D46   D(19,8,12,14)        -179.8698         estimate D2E/DX2                !
 ! D47   D(19,8,12,23)           0.0794         estimate D2E/DX2                !
 ! D48   D(5,9,13,11)            0.0132         estimate D2E/DX2                !
 ! D49   D(5,9,13,25)          179.9716         estimate D2E/DX2                !
 ! D50   D(20,9,13,11)        -179.9628         estimate D2E/DX2                !
 ! D51   D(20,9,13,25)          -0.0044         estimate D2E/DX2                !
 ! D52   D(6,10,14,12)          -0.0002         estimate D2E/DX2                !
 ! D53   D(6,10,14,26)        -179.9141         estimate D2E/DX2                !
 ! D54   D(21,10,14,12)        179.716          estimate D2E/DX2                !
 ! D55   D(21,10,14,26)         -0.1978         estimate D2E/DX2                !
 ! D56   D(7,11,13,9)           -0.0051         estimate D2E/DX2                !
 ! D57   D(7,11,13,25)        -179.9635         estimate D2E/DX2                !
 ! D58   D(22,11,13,9)         179.9005         estimate D2E/DX2                !
 ! D59   D(22,11,13,25)         -0.058          estimate D2E/DX2                !
 ! D60   D(8,12,14,10)           0.0077         estimate D2E/DX2                !
 ! D61   D(8,12,14,26)         179.9216         estimate D2E/DX2                !
 ! D62   D(23,12,14,10)       -179.9415         estimate D2E/DX2                !
 ! D63   D(23,12,14,26)         -0.0276         estimate D2E/DX2                !
 --------------------------------------------------------------------------------
 Trust Radius=3.00D-01 FncErr=1.00D-07 GrdErr=1.00D-06 EigMax=2.50D+02 EigMin=1.00D-04
 Number of steps in this run=    143 maximum allowed number of steps=    156.
 GradGradGradGradGradGradGradGradGradGradGradGradGradGradGradGradGradGrad

                          Input orientation:                          
 ---------------------------------------------------------------------
 Center     Atomic      Atomic             Coordinates (Angstroms)
 Number     Number       Type             X           Y           Z
 ---------------------------------------------------------------------
      1          8           0        0.103400    2.251100   -0.872700
      2          6           0        0.032700    1.278300    0.183700
      3          6           0       -1.239600    0.500700    0.148000
      4          6           0        1.283700    0.414000    0.087000
      5          6           0       -1.787300    0.004900    1.331400
      6          6           0        1.248400   -0.722400   -0.693600
      7          6           0       -1.882200    0.269800   -1.068300
      8          6           0        2.411600    0.795600    0.782900
      9          6           0       -2.977200   -0.722100    1.298100
     10          6           0        2.393700   -1.513700   -0.782400
     11          6           0       -3.072200   -0.457100   -1.101300
     12          6           0        3.556900    0.004300    0.693900
     13          6           0       -3.619700   -0.953000    0.082000
     14          6           0        3.547900   -1.150400   -0.088700
     15          1           0        0.062300    1.852600    1.119100
     16          1           0       -1.296000    0.176300    2.285500
     17          1           0        0.384000   -1.034800   -1.265800
     18          1           0       -1.474900    0.639900   -2.005300
     19          1           0        2.427600    1.693900    1.392500
     20          1           0       -3.403300   -1.108800    2.219300
     21          1           0        2.388900   -2.410400   -1.395200
     22          1           0       -3.572000   -0.638500   -2.048400
     23          1           0        4.456100    0.287600    1.233300
     24          1           0       -0.717000    2.773300   -0.850200
     25          1           0       -4.546000   -1.519500    0.056100
     26          1           0        4.440100   -1.765700   -0.158900
 ---------------------------------------------------------------------
                    Distance matrix (angstroms):
                    1          2          3          4          5
     1  O    0.000000
     2  C    1.437818   0.000000
     3  C    2.430921   1.491537   0.000000
     4  C    2.385177   1.523603   2.525526   0.000000
     5  C    3.671269   2.500233   1.395073   3.338703   0.000000
     6  C    3.191364   2.500076   2.897311   1.379126   3.720896
     7  C    2.811835   2.500284   1.394860   3.373194   2.416141
     8  C    3.191752   2.500241   3.717704   1.379150   4.307763
     9  C    4.800249   3.781929   2.416035   4.573047   1.394812
    10  C    4.407646   3.781922   4.257267   2.388301   4.924942
    11  C    4.179837   3.781963   2.415896   4.598341   2.789703
    12  C    4.407835   3.781979   4.852920   2.388225   5.382089
    13  C    5.003917   4.281246   2.789709   5.090388   2.415836
    14  C    4.904023   4.281287   5.069745   2.757684   5.640546
    15  H    2.031689   1.098030   2.113200   2.150958   2.622992
    16  H    4.029559   2.719818   2.162712   3.397757   1.086766
    17  H    3.321205   2.752252   2.644365   2.176821   3.541323
    18  H    2.523842   2.733520   2.170586   3.469672   3.410922
    19  H    3.292948   2.714676   4.052266   2.156613   4.541127
    20  H    5.757286   4.652742   3.400349   5.369692   2.154101
    21  H    5.217863   4.653075   4.901222   3.375740   5.541540
    22  H    4.820853   4.652983   3.400300   5.407912   3.875844
    23  H    5.218866   4.652915   5.802093   3.375515   6.250567
    24  H    0.972757   1.966221   2.536577   3.232250   3.683607
    25  H    6.057806   5.367351   3.875814   6.142050   3.400090
    26  H    5.954088   5.367354   6.122887   3.843751   6.643533
                    6          7          8          9         10
     6  C    0.000000
     7  C    3.305377   0.000000
     8  C    2.416073   4.705329   0.000000
     9  C    4.671463   2.789756   5.622100   0.000000
    10  C    1.394903   4.641760   2.789866   5.813921   0.000000
    11  C    4.347895   1.394838   5.932245   2.415858   5.576214
    12  C    2.789699   5.723604   1.394915   6.602059   2.415951
    13  C    4.934889   2.416058   6.318658   1.394640   6.101029
    14  C    2.415945   5.697593   2.416150   6.684578   1.394770
    15  H    3.365017   3.327319   2.597978   3.987440   4.514765
    16  H    4.019536   3.405928   4.048165   2.146745   5.087435
    17  H    1.082679   2.622337   3.414484   4.238989   2.121772
    18  H    3.315536   1.086663   4.785727   3.876132   4.593424
    19  H    3.403062   5.163136   1.085731   5.920965   3.875569
    20  H    5.502055   3.875899   6.285145   1.086143   6.540593
    21  H    2.154606   5.052982   3.875961   6.236926   1.086102
    22  H    5.007872   2.154305   6.773210   3.399976   6.161031
    23  H    3.875872   6.743273   2.154276   7.501843   3.400180
    24  H    4.013383   2.769977   4.045547   4.684177   5.297114
    25  H    5.896820   3.400250   7.368590   2.153960   6.990175
    26  H    3.400195   6.703861   3.400303   7.630746   2.154068
                   11         12         13         14         15
    11  C    0.000000
    12  C    6.883357   0.000000
    13  C    1.394945   7.265978   0.000000
    14  C    6.732886   1.394947   7.172349   0.000000
    15  H    4.482185   3.976083   4.743848   4.756700   0.000000
    16  H    3.876402   5.110128   3.395631   5.555207   2.452641
    17  H    3.508007   3.871362   4.225266   3.377749   3.758765
    18  H    2.138222   5.745318   3.390327   5.666308   3.687208
    19  H    6.410432   2.148979   6.730032   3.396920   2.386331
    20  H    3.400107   7.211811   2.153870   7.324464   4.689426
    21  H    5.807355   3.399903   6.356840   2.153561   5.468815
    22  H    1.086142   7.665156   2.154017   7.402394   5.426488
    23  H    7.917085   1.086173   8.251250   2.154148   4.665592
    24  H    4.005684   5.321450   4.814559   5.845056   2.309359
    25  H    2.154148   8.269567   1.086105   8.103605   5.808395
    26  H    7.683437   2.154115   8.104251   1.086068   5.821556
                   16         17         18         19         20
    16  H    0.000000
    17  H    4.111070   0.000000
    18  H    4.319479   2.609021   0.000000
    19  H    4.118951   4.323039   5.280669   0.000000
    20  H    2.469125   5.147333   4.962250   6.522125   0.000000
    21  H    5.815244   2.434881   4.960393   4.961658   6.950421
    22  H    4.962536   4.052092   2.456419   7.298978   4.296848
    23  H    5.848604   4.957443   6.766787   2.473426   8.043152
    24  H    4.112452   3.985794   2.541666   4.010401   5.631051
    25  H    4.290508   5.127110   4.282994   7.793780   2.480700
    26  H    6.530643   4.267480   6.647054   4.292532   8.222304
                   21         22         23         24         25
    21  H    0.000000
    22  H    6.252890   0.000000
    23  H    4.296689   8.722248   0.000000
    24  H    6.067486   4.607286   6.105787   0.000000
    25  H    7.140925   2.480677   9.256847   5.823294   0.000000
    26  H    2.480221   8.308702   2.480830   6.904788   8.992043
                   26
    26  H    0.000000
 Stoichiometry    C13H12O
 Framework group  C1[X(C13H12O)]
 Deg. of freedom    72
 Full point group                 C1      NOp   1
 Largest Abelian subgroup         C1      NOp   1
 Largest concise Abelian subgroup C1      NOp   1
                         Standard orientation:                         
 ---------------------------------------------------------------------
 Center     Atomic      Atomic             Coordinates (Angstroms)
 Number     Number       Type             X           Y           Z
 ---------------------------------------------------------------------
      1          8           0        0.111176    2.183500   -0.939875
      2          6           0        0.045884    1.249091    0.150967
      3          6           0       -1.229744    0.476143    0.153854
      4          6           0        1.292563    0.376582    0.074246
      5          6           0       -1.769016    0.024967    1.358783
      6          6           0        1.245937   -0.786629   -0.665182
      7          6           0       -1.883877    0.204989   -1.047903
      8          6           0        2.428013    0.777814    0.746422
      9          6           0       -2.962027   -0.697679    1.361562
     10          6           0        2.387278   -1.585454   -0.735690
     11          6           0       -3.076985   -0.517547   -1.044827
     12          6           0        3.569353   -0.021018    0.675714
     13          6           0       -3.616059   -0.968827    0.160004
     14          6           0        3.548936   -1.202700   -0.065290
     15          1           0        0.085944    1.856076    1.065098
     16          1           0       -1.268707    0.228004    2.301930
     17          1           0        0.375332   -1.115441   -1.218465
     18          1           0       -1.483337    0.539883   -2.000925
     19          1           0        2.452901    1.697094    1.323583
     20          1           0       -3.381570   -1.049643    2.299546
     21          1           0        2.373568   -2.503296   -1.316203
     22          1           0       -3.585772   -0.730293   -1.980550
     23          1           0        4.474354    0.277401    1.196953
     24          1           0       -0.706924    2.709661   -0.928866
     25          1           0       -4.544782   -1.531937    0.162210
     26          1           0        4.438047   -1.823899   -0.121279
 ---------------------------------------------------------------------
 Rotational constants (GHZ):           1.4502742           0.4231645           0.3980494
 Standard basis: 6-311++G(d,p) (5D, 7F)
 There are   406 symmetry adapted cartesian basis functions of A   symmetry.
 There are   392 symmetry adapted basis functions of A   symmetry.
   392 basis functions,   612 primitive gaussians,   406 cartesian basis functions
    49 alpha electrons       49 beta electrons
       nuclear repulsion energy       812.8134348684 Hartrees.
 NAtoms=   26 NActive=   26 NUniq=   26 SFac= 1.00D+00 NAtFMM=   60 NAOKFM=F Big=F
 Integral buffers will be    131072 words long.
 Raffenetti 2 integral format.
 Two-electron integral symmetry is turned on.
 R6APFD:  NTU= -4 IXU= 1 FactS= 1.050
 Nuclear repulsion after empirical dispersion term =      812.7949527573 Hartrees.
 One-electron integrals computed using PRISM.
 NBasis=   392 RedAO= T EigKep=  1.06D-06  NBF=   392
 NBsUse=   390 1.00D-06 EigRej=  6.52D-07 NBFU=   390
 ExpMin= 3.60D-02 ExpMax= 8.59D+03 ExpMxC= 1.30D+03 IAcc=3 IRadAn=         5 AccDes= 0.00D+00
 Harris functional with IExCor= 1009 and IRadAn=       5 diagonalized for initial guess.
 HarFok:  IExCor= 1009 AccDes= 0.00D+00 IRadAn=         5 IDoV= 1 UseB2=F ITyADJ=14
 ICtDFT=  3500011 ScaDFX=  1.000000  1.000000  1.000000  1.000000
 FoFCou: FMM=F IPFlag=           0 FMFlag=      100000 FMFlg1=           0
         NFxFlg=           0 DoJE=T BraDBF=F KetDBF=T FulRan=T
         wScrn=  0.000000 ICntrl=       500 IOpCl=  0 I1Cent=   200000004 NGrid=           0
         NMat0=    1 NMatS0=      1 NMatT0=    0 NMatD0=    1 NMtDS0=    0 NMtDT0=    0
 Petite list used in FoFCou.
 Requested convergence on RMS density matrix=1.00D-08 within  32 cycles.
 Requested convergence on MAX density matrix=1.00D-06.
 Requested convergence on             energy=1.00D-06.
 No special actions if energy rises.
 SCF Done:  E(RM08HX) =  -577.828365910     A.U. after   15 cycles
            NFock= 15  Conv=0.55D-08     -V/T= 2.0048
 QCSCF skips out because SCF is already converged.

 **********************************************************************

            Population analysis using the SCF Density.

 **********************************************************************

 Orbital symmetries:
       Occupied  (A) (A) (A) (A) (A) (A) (A) (A) (A) (A) (A) (A)
                 (A) (A) (A) (A) (A) (A) (A) (A) (A) (A) (A) (A)
                 (A) (A) (A) (A) (A) (A) (A) (A) (A) (A) (A) (A)
                 (A) (A) (A) (A) (A) (A) (A) (A) (A) (A) (A) (A)
                 (A)
       Virtual   (A) (A) (A) (A) (A) (A) (A) (A) (A) (A) (A) (A)
                 (A) (A) (A) (A) (A) (A) (A) (A) (A) (A) (A) (A)
                 (A) (A) (A) (A) (A) (A) (A) (A) (A) (A) (A) (A)
                 (A) (A) (A) (A) (A) (A) (A) (A) (A) (A) (A) (A)
                 (A) (A) (A) (A) (A) (A) (A) (A) (A) (A) (A) (A)
                 (A) (A) (A) (A) (A) (A) (A) (A) (A) (A) (A) (A)
                 (A) (A) (A) (A) (A) (A) (A) (A) (A) (A) (A) (A)
                 (A) (A) (A) (A) (A) (A) (A) (A) (A) (A) (A) (A)
                 (A) (A) (A) (A) (A) (A) (A) (A) (A) (A) (A) (A)
                 (A) (A) (A) (A) (A) (A) (A) (A) (A) (A) (A) (A)
                 (A) (A) (A) (A) (A) (A) (A) (A) (A) (A) (A) (A)
                 (A) (A) (A) (A) (A) (A) (A) (A) (A) (A) (A) (A)
                 (A) (A) (A) (A) (A) (A) (A) (A) (A) (A) (A) (A)
                 (A) (A) (A) (A) (A) (A) (A) (A) (A) (A) (A) (A)
                 (A) (A) (A) (A) (A) (A) (A) (A) (A) (A) (A) (A)
                 (A) (A) (A) (A) (A) (A) (A) (A) (A) (A) (A) (A)
                 (A) (A) (A) (A) (A) (A) (A) (A) (A) (A) (A) (A)
                 (A) (A) (A) (A) (A) (A) (A) (A) (A) (A) (A) (A)
                 (A) (A) (A) (A) (A) (A) (A) (A) (A) (A) (A) (A)
                 (A) (A) (A) (A) (A) (A) (A) (A) (A) (A) (A) (A)
                 (A) (A) (A) (A) (A) (A) (A) (A) (A) (A) (A) (A)
                 (A) (A) (A) (A) (A) (A) (A) (A) (A) (A) (A) (A)
                 (A) (A) (A) (A) (A) (A) (A) (A) (A) (A) (A) (A)
                 (A) (A) (A) (A) (A) (A) (A) (A) (A) (A) (A) (A)
                 (A) (A) (A) (A) (A) (A) (A) (A) (A) (A) (A) (A)
                 (A) (A) (A) (A) (A) (A) (A) (A) (A) (A) (A) (A)
                 (A) (A) (A) (A) (A) (A) (A) (A) (A) (A) (A) (A)
                 (A) (A) (A) (A) (A) (A) (A) (A) (A) (A) (A) (A)
                 (A) (A) (A) (A) (A)
 The electronic state is 1-A.
 Alpha  occ. eigenvalues --  -19.61152 -10.59301 -10.54880 -10.54341 -10.54310
 Alpha  occ. eigenvalues --  -10.54267 -10.54255 -10.54075 -10.54012 -10.53708
 Alpha  occ. eigenvalues --  -10.53611 -10.53585 -10.53518 -10.53304  -1.14461
 Alpha  occ. eigenvalues --   -0.98280  -0.97260  -0.89313  -0.85784  -0.85522
 Alpha  occ. eigenvalues --   -0.85044  -0.77415  -0.70773  -0.69862  -0.69202
 Alpha  occ. eigenvalues --   -0.66377  -0.61534  -0.59548  -0.58301  -0.55388
 Alpha  occ. eigenvalues --   -0.53716  -0.52535  -0.52205  -0.50302  -0.49856
 Alpha  occ. eigenvalues --   -0.49352  -0.48630  -0.44739  -0.44404  -0.44018
 Alpha  occ. eigenvalues --   -0.42336  -0.41252  -0.41115  -0.38974  -0.36326
 Alpha  occ. eigenvalues --   -0.32107  -0.31761  -0.31208  -0.30161
 Alpha virt. eigenvalues --   -0.03095  -0.01966  -0.01747  -0.01468  -0.00604
 Alpha virt. eigenvalues --   -0.00222  -0.00031   0.00057   0.00690   0.01104
 Alpha virt. eigenvalues --    0.01117   0.01752   0.02627   0.03140   0.03479
 Alpha virt. eigenvalues --    0.03807   0.04326   0.05202   0.06145   0.06446
 Alpha virt. eigenvalues --    0.07282   0.07543   0.08670   0.08853   0.09776
 Alpha virt. eigenvalues --    0.10024   0.10140   0.10620   0.10959   0.11200
 Alpha virt. eigenvalues --    0.11360   0.11684   0.11815   0.12068   0.12251
 Alpha virt. eigenvalues --    0.12572   0.12608   0.13072   0.13454   0.13756
 Alpha virt. eigenvalues --    0.13928   0.14369   0.15076   0.15672   0.16060
 Alpha virt. eigenvalues --    0.16428   0.16535   0.16694   0.17341   0.17681
 Alpha virt. eigenvalues --    0.18522   0.18825   0.19494   0.20076   0.20450
 Alpha virt. eigenvalues --    0.20765   0.21527   0.21842   0.22104   0.22775
 Alpha virt. eigenvalues --    0.23208   0.23594   0.24442   0.24814   0.25080
 Alpha virt. eigenvalues --    0.25274   0.26038   0.26327   0.26823   0.28224
 Alpha virt. eigenvalues --    0.28922   0.29322   0.29604   0.30436   0.30634
 Alpha virt. eigenvalues --    0.31308   0.31582   0.31829   0.32043   0.33190
 Alpha virt. eigenvalues --    0.33740   0.34253   0.35453   0.36110   0.37360
 Alpha virt. eigenvalues --    0.37956   0.38299   0.38343   0.38619   0.39717
 Alpha virt. eigenvalues --    0.41187   0.42007   0.43385   0.44809   0.46718
 Alpha virt. eigenvalues --    0.50451   0.51498   0.53415   0.55894   0.56331
 Alpha virt. eigenvalues --    0.56887   0.57292   0.57668   0.58246   0.58673
 Alpha virt. eigenvalues --    0.59459   0.59988   0.60079   0.60955   0.62052
 Alpha virt. eigenvalues --    0.62378   0.62935   0.63178   0.64234   0.64942
 Alpha virt. eigenvalues --    0.66011   0.66796   0.67137   0.68967   0.69604
 Alpha virt. eigenvalues --    0.70968   0.71614   0.72174   0.72641   0.73946
 Alpha virt. eigenvalues --    0.75138   0.75393   0.76544   0.77047   0.77309
 Alpha virt. eigenvalues --    0.77453   0.78063   0.78973   0.79880   0.80348
 Alpha virt. eigenvalues --    0.81725   0.83791   0.83946   0.86310   0.87240
 Alpha virt. eigenvalues --    0.87540   0.88058   0.88674   0.88700   0.90015
 Alpha virt. eigenvalues --    0.90807   0.91534   0.92347   0.92693   0.93888
 Alpha virt. eigenvalues --    0.95810   0.96756   0.97446   0.97928   0.99339
 Alpha virt. eigenvalues --    1.02974   1.04119   1.05249   1.06599   1.07482
 Alpha virt. eigenvalues --    1.08637   1.09733   1.12046   1.12444   1.13437
 Alpha virt. eigenvalues --    1.14468   1.15199   1.17560   1.19898   1.20847
 Alpha virt. eigenvalues --    1.21092   1.25185   1.26501   1.28481   1.32655
 Alpha virt. eigenvalues --    1.33525   1.36076   1.40405   1.41708   1.48947
 Alpha virt. eigenvalues --    1.49151   1.51132   1.53794   1.54469   1.55971
 Alpha virt. eigenvalues --    1.56645   1.56898   1.57413   1.58419   1.59098
 Alpha virt. eigenvalues --    1.60517   1.60739   1.61702   1.62369   1.64082
 Alpha virt. eigenvalues --    1.64306   1.67068   1.67573   1.68469   1.69206
 Alpha virt. eigenvalues --    1.70655   1.71800   1.72331   1.74688   1.75971
 Alpha virt. eigenvalues --    1.77839   1.78456   1.81131   1.81919   1.82204
 Alpha virt. eigenvalues --    1.83408   1.85402   1.86550   1.88638   1.90602
 Alpha virt. eigenvalues --    1.91387   1.94113   1.95561   1.96721   1.96808
 Alpha virt. eigenvalues --    1.97839   1.98442   1.98859   1.99654   2.00469
 Alpha virt. eigenvalues --    2.01403   2.01806   2.03234   2.04735   2.06429
 Alpha virt. eigenvalues --    2.07751   2.09945   2.11448   2.12886   2.12987
 Alpha virt. eigenvalues --    2.14256   2.17786   2.18568   2.22115   2.25403
 Alpha virt. eigenvalues --    2.27435   2.35232   2.38052   2.39871   2.41434
 Alpha virt. eigenvalues --    2.44110   2.44978   2.45514   2.47052   2.47422
 Alpha virt. eigenvalues --    2.48068   2.48279   2.49042   2.55649   2.62614
 Alpha virt. eigenvalues --    2.64179   2.65606   2.66783   2.68145   2.69191
 Alpha virt. eigenvalues --    2.69642   2.70785   2.71053   2.71692   2.71907
 Alpha virt. eigenvalues --    2.73082   2.74196   2.74964   2.75751   2.76863
 Alpha virt. eigenvalues --    2.78964   2.82010   2.83647   2.87506   2.88748
 Alpha virt. eigenvalues --    2.89433   2.89773   2.91240   2.91849   2.93711
 Alpha virt. eigenvalues --    2.94753   2.96161   2.96701   2.98970   3.00992
 Alpha virt. eigenvalues --    3.02003   3.04150   3.08409   3.10822   3.18345
 Alpha virt. eigenvalues --    3.18888   3.21450   3.26940   3.26974   3.29415
 Alpha virt. eigenvalues --    3.32215   3.39552   3.43333   3.45982   3.46258
 Alpha virt. eigenvalues --    3.47393   3.48600   3.55170   3.56982   3.60784
 Alpha virt. eigenvalues --    3.61237   3.64438   3.67516   3.77759   3.79753
 Alpha virt. eigenvalues --    3.93952   4.02463   4.04414   4.07093   4.08589
 Alpha virt. eigenvalues --    4.09577   4.20539   4.21921   4.22752   4.23215
 Alpha virt. eigenvalues --    4.36698   4.46852   4.92398   4.93905   5.28812
 Alpha virt. eigenvalues --    5.56119   5.75496  23.67308  23.70339  23.91357
 Alpha virt. eigenvalues --   24.02982  24.03291  24.03500  24.05406  24.14734
 Alpha virt. eigenvalues --   24.15086  24.16549  24.17369  24.24524  24.27225
 Alpha virt. eigenvalues --   49.97436
          Condensed to atoms (all electrons):
               1          2          3          4          5          6
     1  O    7.828555   0.068913  -0.449171  -0.010840   0.057231   0.154292
     2  C    0.068913  38.060697  -4.051559 -15.722292  -1.864272   1.386482
     3  C   -0.449171  -4.051559  20.293823  -1.077695  -4.868812   2.155914
     4  C   -0.010840 -15.722292  -1.077695  26.918813   1.903035  -8.666980
     5  C    0.057231  -1.864272  -4.868812   1.903035  21.810408  -2.652613
     6  C    0.154292   1.386482   2.155914  -8.666980  -2.652613  33.161371
     7  C    0.222615  -9.352388  -1.226309   4.225475  -9.463612   0.753464
     8  C   -0.050183  -0.134888  -2.136243  -0.125553   1.581440 -16.972079
     9  C   -0.028840   2.766964  -1.287151  -1.174410  -1.665985  -0.076284
    10  C   -0.092595  -0.126044   0.256013  -1.729537   0.067142  -6.724000
    11  C    0.189062  -0.794001  -1.599946  -1.040194   1.492517   1.588789
    12  C    0.006067  -1.824325  -0.061283   0.264418  -0.183054   1.531757
    13  C    0.043291  -2.035090  -0.882146   1.122704   0.111721  -0.379941
    14  C    0.008805   0.630385   0.141319  -0.044648  -0.049968   0.404967
    15  H   -0.025356   0.676069   0.104863  -0.274596  -0.742000   0.596763
    16  H    0.000120  -0.235099  -0.090401   0.138328   0.671423  -0.083249
    17  H    0.005343  -0.048667   0.030690  -0.074730  -0.019844   0.889783
    18  H    0.006546  -0.396664  -0.139179   0.148074  -0.022786  -0.028434
    19  H   -0.001904  -0.037247  -0.010526  -0.049055   0.030470  -0.099324
    20  H   -0.000502   0.059503   0.048551  -0.035415  -0.186877   0.011477
    21  H   -0.001147  -0.025408  -0.014958   0.067378   0.005854  -0.254026
    22  H   -0.000400   0.060302   0.039769  -0.030904   0.034603   0.013057
    23  H   -0.000041  -0.058620   0.005860   0.032673  -0.007058   0.065344
    24  H    0.224201  -0.083630   0.062628   0.086458   0.106329  -0.000640
    25  H    0.000399  -0.071107   0.017379   0.027930   0.050850  -0.008669
    26  H   -0.000034   0.007140   0.002416   0.039921  -0.002977  -0.036879
               7          8          9         10         11         12
     1  O    0.222615  -0.050183  -0.028840  -0.092595   0.189062   0.006067
     2  C   -9.352388  -0.134888   2.766964  -0.126044  -0.794001  -1.824325
     3  C   -1.226309  -2.136243  -1.287151   0.256013  -1.599946  -0.061283
     4  C    4.225475  -0.125553  -1.174410  -1.729537  -1.040194   0.264418
     5  C   -9.463612   1.581440  -1.665985   0.067142   1.492517  -0.183054
     6  C    0.753464 -16.972079  -0.076284  -6.724000   1.588789   1.531757
     7  C   23.175759  -0.700365   0.045461  -0.328405  -2.124553   0.487786
     8  C   -0.700365  22.293356   0.373253   5.147221  -0.760832   0.038978
     9  C    0.045461   0.373253   8.848040   0.078696  -0.696571  -0.027761
    10  C   -0.328405   5.147221   0.078696  11.475912  -0.381174  -1.265865
    11  C   -2.124553  -0.760832  -0.696571  -0.381174   9.590471   0.021452
    12  C    0.487786   0.038978  -0.027761  -1.265865   0.021452   7.811830
    13  C   -0.248707   0.150617  -0.862980   0.010889   0.335706   0.017877
    14  C   -0.104802  -2.164961   0.031720  -0.097466   0.032230  -0.572674
    15  H    0.437280  -0.739474   0.024213  -0.201352   0.102509   0.099461
    16  H   -0.038874   0.039551  -0.192669   0.012171   0.047194  -0.006485
    17  H   -0.046094  -0.257071  -0.022482  -0.270846   0.100841   0.051289
    18  H    0.735002   0.008934   0.021778   0.018784  -0.086124   0.003626
    19  H   -0.017563   0.580440  -0.008176   0.097581  -0.004184  -0.118389
    20  H    0.040728  -0.005972   0.471613  -0.004142   0.007702   0.000348
    21  H    0.008573   0.149246  -0.002064   0.443815  -0.014834   0.017219
    22  H   -0.102946  -0.005805   0.026025  -0.006657   0.396566   0.000482
    23  H    0.012015  -0.078327  -0.001916  -0.022768   0.000134   0.447565
    24  H   -0.139466  -0.008347  -0.032789  -0.002513   0.040353   0.001549
    25  H   -0.001046   0.001234  -0.110169   0.000649  -0.084571   0.000398
    26  H   -0.000010  -0.035593   0.000394  -0.060560  -0.000432  -0.106288
              13         14         15         16         17         18
     1  O    0.043291   0.008805  -0.025356   0.000120   0.005343   0.006546
     2  C   -2.035090   0.630385   0.676069  -0.235099  -0.048667  -0.396664
     3  C   -0.882146   0.141319   0.104863  -0.090401   0.030690  -0.139179
     4  C    1.122704  -0.044648  -0.274596   0.138328  -0.074730   0.148074
     5  C    0.111721  -0.049968  -0.742000   0.671423  -0.019844  -0.022786
     6  C   -0.379941   0.404967   0.596763  -0.083249   0.889783  -0.028434
     7  C   -0.248707  -0.104802   0.437280  -0.038874  -0.046094   0.735002
     8  C    0.150617  -2.164961  -0.739474   0.039551  -0.257071   0.008934
     9  C   -0.862980   0.031720   0.024213  -0.192669  -0.022482   0.021778
    10  C    0.010889  -0.097466  -0.201352   0.012171  -0.270846   0.018784
    11  C    0.335706   0.032230   0.102509   0.047194   0.100841  -0.086124
    12  C    0.017877  -0.572674   0.099461  -0.006485   0.051289   0.003626
    13  C    8.855792  -0.020126  -0.068348   0.038521   0.049236   0.027628
    14  C   -0.020126   7.953388   0.041811   0.002911  -0.013791   0.005929
    15  H   -0.068348   0.041811   0.821399  -0.037340   0.004067  -0.000946
    16  H    0.038521   0.002911  -0.037340   0.437487  -0.001721   0.001935
    17  H    0.049236  -0.013791   0.004067  -0.001721   0.463822  -0.002907
    18  H    0.027628   0.005929  -0.000946   0.001935  -0.002907   0.403771
    19  H    0.003377  -0.033446  -0.048779   0.003452   0.000421  -0.000363
    20  H   -0.110092   0.000648   0.007044  -0.012705  -0.001099   0.001406
    21  H    0.002081  -0.099714  -0.002697   0.000022  -0.010864   0.000063
    22  H   -0.136027   0.000445   0.002495   0.000374  -0.004345  -0.005617
    23  H    0.000514  -0.095718   0.002716  -0.000422   0.001396   0.000138
    24  H    0.019076  -0.005607  -0.046173   0.003938   0.006495  -0.010379
    25  H    0.496727  -0.000258  -0.001989   0.002997   0.000506   0.001524
    26  H    0.000112   0.520244   0.000476   0.000043   0.000305   0.000110
              19         20         21         22         23         24
     1  O   -0.001904  -0.000502  -0.001147  -0.000400  -0.000041   0.224201
     2  C   -0.037247   0.059503  -0.025408   0.060302  -0.058620  -0.083630
     3  C   -0.010526   0.048551  -0.014958   0.039769   0.005860   0.062628
     4  C   -0.049055  -0.035415   0.067378  -0.030904   0.032673   0.086458
     5  C    0.030470  -0.186877   0.005854   0.034603  -0.007058   0.106329
     6  C   -0.099324   0.011477  -0.254026   0.013057   0.065344  -0.000640
     7  C   -0.017563   0.040728   0.008573  -0.102946   0.012015  -0.139466
     8  C    0.580440  -0.005972   0.149246  -0.005805  -0.078327  -0.008347
     9  C   -0.008176   0.471613  -0.002064   0.026025  -0.001916  -0.032789
    10  C    0.097581  -0.004142   0.443815  -0.006657  -0.022768  -0.002513
    11  C   -0.004184   0.007702  -0.014834   0.396566   0.000134   0.040353
    12  C   -0.118389   0.000348   0.017219   0.000482   0.447565   0.001549
    13  C    0.003377  -0.110092   0.002081  -0.136027   0.000514   0.019076
    14  C   -0.033446   0.000648  -0.099714   0.000445  -0.095718  -0.005607
    15  H   -0.048779   0.007044  -0.002697   0.002495   0.002716  -0.046173
    16  H    0.003452  -0.012705   0.000022   0.000374  -0.000422   0.003938
    17  H    0.000421  -0.001099  -0.010864  -0.004345   0.001396   0.006495
    18  H   -0.000363   0.001406   0.000063  -0.005617   0.000138  -0.010379
    19  H    0.444873  -0.000459   0.001874  -0.000222  -0.008542   0.004650
    20  H   -0.000459   0.416498  -0.000140   0.001785  -0.000009  -0.000809
    21  H    0.001874  -0.000140   0.419254  -0.000076   0.001562   0.000003
    22  H   -0.000222   0.001785  -0.000076   0.415540  -0.000002  -0.001098
    23  H   -0.008542  -0.000009   0.001562  -0.000002   0.421046   0.000141
    24  H    0.004650  -0.000809   0.000003  -0.001098   0.000141   0.492736
    25  H    0.000053  -0.010661   0.000087  -0.009193   0.000013   0.000464
    26  H   -0.000005  -0.000001  -0.011099  -0.000029  -0.011629  -0.000109
              25         26
     1  O    0.000399  -0.000034
     2  C   -0.071107   0.007140
     3  C    0.017379   0.002416
     4  C    0.027930   0.039921
     5  C    0.050850  -0.002977
     6  C   -0.008669  -0.036879
     7  C   -0.001046  -0.000010
     8  C    0.001234  -0.035593
     9  C   -0.110169   0.000394
    10  C    0.000649  -0.060560
    11  C   -0.084571  -0.000432
    12  C    0.000398  -0.106288
    13  C    0.496727   0.000112
    14  C   -0.000258   0.520244
    15  H   -0.001989   0.000476
    16  H    0.002997   0.000043
    17  H    0.000506   0.000305
    18  H    0.001524   0.000110
    19  H    0.000053  -0.000005
    20  H   -0.010661  -0.000001
    21  H    0.000087  -0.011099
    22  H   -0.009193  -0.000029
    23  H    0.000013  -0.011629
    24  H    0.000464  -0.000109
    25  H    0.424559   0.000002
    26  H    0.000002   0.438230
 Mulliken charges:
               1
     1  O   -0.154425
     2  C   -0.855155
     3  C    0.736156
     4  C    1.081642
     5  C   -0.193166
     6  C   -0.730344
     7  C   -0.249016
     8  C   -0.188577
     9  C   -0.497907
    10  C   -0.294949
    11  C   -0.358109
    12  C   -0.635977
    13  C   -0.542413
    14  C   -0.471623
    15  H    0.267883
    16  H    0.298498
    17  H    0.170266
    18  H    0.308151
    19  H    0.270992
    20  H    0.301581
    21  H    0.319994
    22  H    0.311880
    23  H    0.293936
    24  H    0.282538
    25  H    0.271891
    26  H    0.256252
 Sum of Mulliken charges =  -0.00000
 Mulliken charges with hydrogens summed into heavy atoms:
               1
     1  O    0.128113
     2  C   -0.587272
     3  C    0.736156
     4  C    1.081642
     5  C    0.105332
     6  C   -0.560078
     7  C    0.059135
     8  C    0.082416
     9  C   -0.196326
    10  C    0.025045
    11  C   -0.046229
    12  C   -0.342041
    13  C   -0.270522
    14  C   -0.215371
 Electronic spatial extent (au):  <R**2>=           2965.3709
 Charge=             -0.0000 electrons
 Dipole moment (field-independent basis, Debye):
    X=             -1.2121    Y=             -0.4208    Z=              0.9803  Tot=              1.6146
 Quadrupole moment (field-independent basis, Debye-Ang):
   XX=            -76.0038   YY=            -81.5482   ZZ=            -80.5104
   XY=             -1.3727   XZ=              3.7425   YZ=              4.7905
 Traceless Quadrupole moment (field-independent basis, Debye-Ang):
   XX=              3.3504   YY=             -2.1941   ZZ=             -1.1563
   XY=             -1.3727   XZ=              3.7425   YZ=              4.7905
 Octapole moment (field-independent basis, Debye-Ang**2):
  XXX=             11.6023  YYY=             16.3662  ZZZ=             -0.1733  XYY=             -3.0425
  XXY=            -20.1472  XXZ=              6.2284  XZZ=            -15.6565  YZZ=              0.5813
  YYZ=             -2.4325  XYZ=             14.4766
 Hexadecapole moment (field-independent basis, Debye-Ang**3):
 XXXX=          -2841.5131 YYYY=           -624.8964 ZZZZ=           -470.0303 XXXY=             50.4143
 XXXZ=             56.3924 YYYX=            -46.4480 YYYZ=              7.8150 ZZZX=              2.7082
 ZZZY=             -3.8143 XXYY=           -584.8133 XXZZ=           -567.1240 YYZZ=           -188.1161
 XXYZ=             10.7476 YYXZ=              4.2422 ZZXY=             13.1451
 N-N= 8.127949527573D+02 E-N=-2.968167986143D+03  KE= 5.750742928094D+02
 R6APFD:  NTU= -4 IXU= 1 FactS= 1.050
 Calling FoFJK, ICntrl=      2127 FMM=F ISym2X=0 I1Cent= 0 IOpClX= 0 NMat=1 NMatS=1 NMatT=0.
 ***** Axes restored to original set *****
 -------------------------------------------------------------------
 Center     Atomic                   Forces (Hartrees/Bohr)
 Number     Number              X              Y              Z
 -------------------------------------------------------------------
      1        8          -0.008666619   -0.000064539   -0.001146357
      2        6           0.011436910    0.019199936   -0.004208875
      3        6          -0.007394235   -0.003315197   -0.001304109
      4        6          -0.029398553    0.014504075    0.002577695
      5        6          -0.006114790   -0.004052769   -0.003501700
      6        6           0.018152212   -0.015905434   -0.006778471
      7        6          -0.008375282   -0.005200948   -0.000296195
      8        6           0.015581451   -0.007592103    0.000968729
      9        6           0.002734905    0.001094921   -0.003148628
     10        6           0.002146338    0.003160591    0.001531671
     11        6           0.001189028   -0.000478831    0.005511729
     12        6          -0.000598127   -0.000579023   -0.001299864
     13        6           0.001482325    0.000819127   -0.000913028
     14        6          -0.001714672    0.001310328    0.000556302
     15        1           0.002081235   -0.003456425    0.007006806
     16        1           0.002856518    0.001879037    0.000809904
     17        1          -0.007139893    0.003711135    0.002048167
     18        1           0.004299850    0.002995041    0.001002608
     19        1          -0.003027187    0.002346517    0.000509407
     20        1          -0.000716552   -0.000407768    0.001601274
     21        1           0.000014140   -0.001656283   -0.001014456
     22        1          -0.000753788   -0.000201378   -0.001673617
     23        1           0.001685854    0.000297476    0.000903668
     24        1           0.010352406   -0.006488837   -0.000047883
     25        1          -0.001679955   -0.000804832    0.000091199
     26        1           0.001566482   -0.001113818    0.000214023
 -------------------------------------------------------------------
 Cartesian Forces:  Max     0.029398553 RMS     0.006479484

 GradGradGradGradGradGradGradGradGradGradGradGradGradGradGradGradGradGrad
 Berny optimization.
 FormGI is forming the generalized inverse of G from B-inverse, IUseBI=4.
 Internal  Forces:  Max     0.014687606 RMS     0.003193946
 Search for a local minimum.
 Step number   1 out of a maximum of  143
 All quantities printed in internal units (Hartrees-Bohrs-Radians)
 Mixed Optimization -- RFO/linear search
 Second derivative matrix not updated -- first step.
 ITU=  0
     Eigenvalues ---    0.00454   0.00878   0.01192   0.01618   0.01645
     Eigenvalues ---    0.02155   0.02156   0.02156   0.02156   0.02157
     Eigenvalues ---    0.02157   0.02157   0.02157   0.02157   0.02158
     Eigenvalues ---    0.02158   0.02159   0.02198   0.02257   0.02276
     Eigenvalues ---    0.02342   0.05446   0.06221   0.08612   0.15996
     Eigenvalues ---    0.16000   0.16000   0.16000   0.16000   0.16000
     Eigenvalues ---    0.16000   0.16000   0.16000   0.16000   0.16000
     Eigenvalues ---    0.18903   0.20237   0.22000   0.22000   0.22000
     Eigenvalues ---    0.22000   0.23486   0.23510   0.25000   0.25000
     Eigenvalues ---    0.30022   0.33282   0.33901   0.35189   0.35201
     Eigenvalues ---    0.35259   0.35262   0.35262   0.35267   0.35267
     Eigenvalues ---    0.35271   0.35311   0.35673   0.39886   0.42138
     Eigenvalues ---    0.42325   0.42400   0.43052   0.46456   0.46475
     Eigenvalues ---    0.46479   0.46482   0.46489   0.46507   0.48184
     Eigenvalues ---    0.48955   0.52818
 RFO step:  Lambda=-5.74803051D-03 EMin= 4.53723877D-03
 Linear search not attempted -- first point.
 Iteration  1 RMS(Cart)=  0.03255492 RMS(Int)=  0.00051151
 Iteration  2 RMS(Cart)=  0.00096397 RMS(Int)=  0.00018581
 Iteration  3 RMS(Cart)=  0.00000036 RMS(Int)=  0.00018581
 Variable       Old X    -DE/DX   Delta X   Delta X   Delta X     New X
                                 (Linear)    (Quad)   (Total)
    R1        2.71708  -0.00347   0.00000  -0.00858  -0.00858   2.70850
    R2        1.83824  -0.01222   0.00000  -0.02288  -0.02288   1.81537
    R3        2.81860   0.01469   0.00000   0.04338   0.04338   2.86198
    R4        2.87919  -0.00140   0.00000  -0.00458  -0.00458   2.87461
    R5        2.07498   0.00422   0.00000   0.01223   0.01223   2.08721
    R6        2.63631  -0.00125   0.00000  -0.00274  -0.00272   2.63358
    R7        2.63590   0.00009   0.00000   0.00024   0.00026   2.63616
    R8        2.60617   0.01178   0.00000   0.02468   0.02479   2.63095
    R9        2.60622   0.01111   0.00000   0.02325   0.02335   2.62956
   R10        2.63581  -0.00180   0.00000  -0.00397  -0.00397   2.63185
   R11        2.05369   0.00230   0.00000   0.00643   0.00643   2.06012
   R12        2.63598   0.00121   0.00000   0.00268   0.00269   2.63867
   R13        2.04597   0.00355   0.00000   0.00978   0.00978   2.05575
   R14        2.63586  -0.00016   0.00000  -0.00021  -0.00021   2.63565
   R15        2.05350   0.00177   0.00000   0.00494   0.00494   2.05843
   R16        2.63601   0.00047   0.00000   0.00089   0.00088   2.63689
   R17        2.05173   0.00218   0.00000   0.00609   0.00609   2.05782
   R18        2.63549  -0.00109   0.00000  -0.00237  -0.00239   2.63310
   R19        2.05251   0.00178   0.00000   0.00498   0.00498   2.05749
   R20        2.63573  -0.00060   0.00000  -0.00226  -0.00236   2.63337
   R21        2.05244   0.00194   0.00000   0.00541   0.00541   2.05784
   R22        2.63606  -0.00195   0.00000  -0.00407  -0.00409   2.63198
   R23        2.05251   0.00184   0.00000   0.00513   0.00513   2.05765
   R24        2.63607  -0.00152   0.00000  -0.00433  -0.00444   2.63163
   R25        2.05257   0.00192   0.00000   0.00537   0.00537   2.05794
   R26        2.05244   0.00185   0.00000   0.00516   0.00516   2.05761
   R27        2.05237   0.00190   0.00000   0.00531   0.00531   2.05768
    A1        1.88046  -0.00024   0.00000  -0.00142  -0.00142   1.87904
    A2        1.95745   0.00034   0.00000   0.00097   0.00053   1.95797
    A3        1.87214  -0.00262   0.00000  -0.01892  -0.01890   1.85324
    A4        1.84492   0.00469   0.00000   0.06337   0.06322   1.90815
    A5        1.98573   0.00045   0.00000  -0.01232  -0.01259   1.97314
    A6        1.89237  -0.00015   0.00000   0.00172   0.00095   1.89332
    A7        1.90565  -0.00248   0.00000  -0.03010  -0.03005   1.87560
    A8        2.09424  -0.00043   0.00000  -0.00154  -0.00166   2.09258
    A9        2.09457   0.00347   0.00000   0.01371   0.01358   2.10814
   A10        2.09438  -0.00304   0.00000  -0.01216  -0.01221   2.08217
   A11        2.07412   0.01010   0.00000   0.03799   0.03770   2.11182
   A12        2.07432   0.00164   0.00000   0.00493   0.00465   2.07897
   A13        2.13475  -0.01174   0.00000  -0.04292  -0.04281   2.09194
   A14        2.09429   0.00212   0.00000   0.00867   0.00871   2.10299
   A15        2.10736  -0.00378   0.00000  -0.02076  -0.02078   2.08658
   A16        2.08154   0.00166   0.00000   0.01208   0.01206   2.09360
   A17        2.07425   0.00387   0.00000   0.01883   0.01890   2.09316
   A18        2.16197  -0.00935   0.00000  -0.05396  -0.05411   2.10786
   A19        2.04676   0.00549   0.00000   0.03557   0.03541   2.08217
   A20        2.09432   0.00117   0.00000   0.00530   0.00533   2.09965
   A21        2.12097  -0.00573   0.00000  -0.03370  -0.03372   2.08725
   A22        2.06788   0.00456   0.00000   0.02841   0.02839   2.09627
   A23        2.07410   0.00535   0.00000   0.02463   0.02475   2.09885
   A24        2.12267  -0.00595   0.00000  -0.03205  -0.03212   2.09056
   A25        2.08641   0.00060   0.00000   0.00741   0.00735   2.09376
   A26        2.09454   0.00046   0.00000   0.00136   0.00136   2.09589
   A27        2.09439  -0.00036   0.00000  -0.00145  -0.00145   2.09293
   A28        2.09426  -0.00010   0.00000   0.00009   0.00008   2.09434
   A29        2.09442   0.00147   0.00000   0.00372   0.00364   2.09806
   A30        2.09514  -0.00068   0.00000  -0.00150  -0.00150   2.09364
   A31        2.09362  -0.00079   0.00000  -0.00216  -0.00216   2.09146
   A32        2.09445   0.00059   0.00000   0.00280   0.00280   2.09724
   A33        2.09468  -0.00045   0.00000  -0.00234  -0.00234   2.09235
   A34        2.09405  -0.00014   0.00000  -0.00046  -0.00046   2.09359
   A35        2.09448   0.00066   0.00000  -0.00055  -0.00063   2.09385
   A36        2.09448  -0.00010   0.00000   0.00166   0.00171   2.09619
   A37        2.09423  -0.00056   0.00000  -0.00111  -0.00107   2.09315
   A38        2.09440  -0.00130   0.00000  -0.00596  -0.00598   2.08842
   A39        2.09446   0.00053   0.00000   0.00228   0.00228   2.09674
   A40        2.09432   0.00077   0.00000   0.00369   0.00370   2.09802
   A41        2.09437   0.00038   0.00000  -0.00370  -0.00387   2.09050
   A42        2.09450   0.00000   0.00000   0.00301   0.00310   2.09760
   A43        2.09431  -0.00038   0.00000   0.00069   0.00077   2.09509
    D1        0.89192   0.00144   0.00000   0.03027   0.03060   0.92252
    D2        3.08432   0.00036   0.00000   0.00155   0.00175   3.08608
    D3       -1.16701  -0.00143   0.00000  -0.01100  -0.01154  -1.17855
    D4       -2.61753  -0.00361   0.00000  -0.07914  -0.07924  -2.69678
    D5        0.52347  -0.00302   0.00000  -0.05236  -0.05230   0.47117
    D6        1.53682  -0.00074   0.00000  -0.04546  -0.04552   1.49130
    D7       -1.60537  -0.00015   0.00000  -0.01868  -0.01858  -1.62395
    D8       -0.58700   0.00223   0.00000  -0.00005  -0.00013  -0.58713
    D9        2.55400   0.00282   0.00000   0.02673   0.02682   2.58082
   D10       -1.57049   0.00165   0.00000   0.03351   0.03380  -1.53668
   D11        1.57092   0.00096   0.00000   0.00185   0.00136   1.57228
   D12        0.60488   0.00044   0.00000   0.01217   0.01251   0.61740
   D13       -2.53690  -0.00025   0.00000  -0.01950  -0.01993  -2.55682
   D14        2.72131  -0.00124   0.00000  -0.01581  -0.01528   2.70603
   D15       -0.42047  -0.00193   0.00000  -0.04747  -0.04772  -0.46819
   D16        3.14142   0.00071   0.00000   0.02882   0.02864  -3.11313
   D17       -0.00230   0.00058   0.00000   0.02431   0.02418   0.02188
   D18        0.00042   0.00012   0.00000   0.00203   0.00209   0.00251
   D19        3.13989  -0.00001   0.00000  -0.00248  -0.00238   3.13751
   D20       -3.14128  -0.00067   0.00000  -0.02720  -0.02724   3.11467
   D21        0.00633  -0.00069   0.00000  -0.02768  -0.02769  -0.02135
   D22       -0.00028  -0.00007   0.00000  -0.00042  -0.00045  -0.00073
   D23       -3.13586  -0.00009   0.00000  -0.00089  -0.00089  -3.13675
   D24        3.14143  -0.00077   0.00000  -0.03110  -0.03124   3.11019
   D25        0.02211  -0.00153   0.00000  -0.05538  -0.05484  -0.03272
   D26        0.00003  -0.00005   0.00000   0.00171   0.00143   0.00146
   D27       -3.11929  -0.00081   0.00000  -0.02257  -0.02216  -3.14145
   D28       -3.14130   0.00070   0.00000   0.02865   0.02827  -3.11303
   D29       -0.00221   0.00058   0.00000   0.02442   0.02403   0.02181
   D30        0.00010  -0.00002   0.00000  -0.00416  -0.00378  -0.00368
   D31        3.13919  -0.00014   0.00000  -0.00839  -0.00803   3.13116
   D32       -0.00040  -0.00011   0.00000  -0.00309  -0.00314  -0.00354
   D33        3.14078   0.00006   0.00000   0.00293   0.00289  -3.13952
   D34       -3.13990   0.00002   0.00000   0.00140   0.00138  -3.13852
   D35        0.00128   0.00019   0.00000   0.00741   0.00741   0.00869
   D36       -0.00008   0.00016   0.00000   0.00425   0.00422   0.00414
   D37       -3.13671  -0.00021   0.00000  -0.00906  -0.00917   3.13730
   D38        3.12071   0.00068   0.00000   0.02580   0.02632  -3.13616
   D39       -0.01593   0.00031   0.00000   0.01248   0.01293  -0.00300
   D40        0.00011   0.00002   0.00000  -0.00014  -0.00013  -0.00002
   D41       -3.13983  -0.00003   0.00000  -0.00196  -0.00195   3.14140
   D42        3.13587   0.00001   0.00000   0.00011   0.00010   3.13597
   D43       -0.00407  -0.00005   0.00000  -0.00171  -0.00172  -0.00579
   D44       -0.00018  -0.00002   0.00000   0.00066   0.00049   0.00031
   D45        3.14053   0.00006   0.00000   0.00301   0.00291  -3.13975
   D46       -3.13932   0.00011   0.00000   0.00485   0.00480  -3.13452
   D47        0.00139   0.00018   0.00000   0.00721   0.00723   0.00861
   D48        0.00023   0.00006   0.00000   0.00253   0.00253   0.00276
   D49        3.14110   0.00017   0.00000   0.00605   0.00606  -3.13602
   D50       -3.14094  -0.00011   0.00000  -0.00349  -0.00351   3.13873
   D51       -0.00008  -0.00000   0.00000   0.00004   0.00002  -0.00005
   D52       -0.00000  -0.00020   0.00000  -0.00767  -0.00750  -0.00750
   D53       -3.14009  -0.00027   0.00000  -0.00978  -0.00976   3.13334
   D54        3.13664   0.00017   0.00000   0.00564   0.00588  -3.14067
   D55       -0.00345   0.00010   0.00000   0.00352   0.00362   0.00017
   D56       -0.00009  -0.00002   0.00000  -0.00092  -0.00090  -0.00099
   D57       -3.14096  -0.00013   0.00000  -0.00444  -0.00444   3.13779
   D58        3.13986   0.00004   0.00000   0.00090   0.00092   3.14077
   D59       -0.00101  -0.00007   0.00000  -0.00262  -0.00262  -0.00363
   D60        0.00013   0.00013   0.00000   0.00518   0.00514   0.00528
   D61        3.14022   0.00020   0.00000   0.00730   0.00740  -3.13556
   D62       -3.14057   0.00005   0.00000   0.00283   0.00272  -3.13786
   D63       -0.00048   0.00013   0.00000   0.00494   0.00497   0.00449
         Item               Value     Threshold  Converged?
 Maximum Force            0.014688     0.000450     NO 
 RMS     Force            0.003194     0.000300     NO 
 Maximum Displacement     0.130908     0.001800     NO 
 RMS     Displacement     0.032462     0.001200     NO 
 Predicted change in Energy=-3.018456D-03
 GradGradGradGradGradGradGradGradGradGradGradGradGradGradGradGradGradGrad

                          Input orientation:                          
 ---------------------------------------------------------------------
 Center     Atomic      Atomic             Coordinates (Angstroms)
 Number     Number       Type             X           Y           Z
 ---------------------------------------------------------------------
      1          8           0        0.137102    2.235567   -0.904189
      2          6           0        0.030768    1.304348    0.180159
      3          6           0       -1.267785    0.525980    0.140219
      4          6           0        1.261553    0.414285    0.096854
      5          6           0       -1.797362   -0.002404    1.316046
      6          6           0        1.260452   -0.739794   -0.681886
      7          6           0       -1.929306    0.302227   -1.067399
      8          6           0        2.414192    0.786896    0.781593
      9          6           0       -2.972788   -0.748915    1.288794
     10          6           0        2.414647   -1.520449   -0.772106
     11          6           0       -3.107695   -0.443294   -1.096640
     12          6           0        3.567310    0.006020    0.694190
     13          6           0       -3.632111   -0.969828    0.081321
     14          6           0        3.566912   -1.150863   -0.081022
     15          1           0        0.081627    1.851509    1.138256
     16          1           0       -1.281724    0.166694    2.261556
     17          1           0        0.367710   -1.044879   -1.223520
     18          1           0       -1.517154    0.709174   -1.989921
     19          1           0        2.416578    1.695039    1.382497
     20          1           0       -3.379270   -1.155691    2.213318
     21          1           0        2.413079   -2.425376   -1.377868
     22          1           0       -3.618549   -0.613614   -2.043019
     23          1           0        4.467486    0.299037    1.232496
     24          1           0       -0.656240    2.777279   -0.902006
     25          1           0       -4.553911   -1.548957    0.059819
     26          1           0        4.464378   -1.764089   -0.145544
 ---------------------------------------------------------------------
                    Distance matrix (angstroms):
                    1          2          3          4          5
     1  O    0.000000
     2  C    1.433278   0.000000
     3  C    2.446872   1.514494   0.000000
     4  C    2.362953   1.521178   2.532175   0.000000
     5  C    3.698663   2.517916   1.393632   3.319189   0.000000
     6  C    3.188120   2.536486   2.944491   1.392241   3.726353
     7  C    2.834516   2.530324   1.394997   3.398474   2.406453
     8  C    3.182082   2.512008   3.746517   1.391504   4.318080
     9  C    4.836085   3.803460   2.419012   4.550099   1.392713
    10  C    4.394577   3.816957   4.310512   2.414107   4.940228
    11  C    4.212130   3.812403   2.419624   4.609794   2.780721
    12  C    4.392268   3.802238   4.894424   2.416611   5.400600
    13  C    5.045072   4.312578   2.798383   5.085662   2.413868
    14  C    4.889694   4.312839   5.122016   2.792133   5.660935
    15  H    2.078981   1.104501   2.138695   2.131281   2.645600
    16  H    4.039213   2.710924   2.151592   3.348954   1.090167
    17  H    3.304009   2.757301   2.646172   2.161365   3.496238
    18  H    2.499050   2.731216   2.152497   3.487521   3.393270
    19  H    3.273700   2.700064   4.060109   2.151114   4.543459
    20  H    5.795201   4.670534   3.403546   5.336804   2.153509
    21  H    5.208534   4.691875   4.956193   3.400660   5.554797
    22  H    4.849709   4.683867   3.404599   5.426880   3.869576
    23  H    5.202672   4.669317   5.842765   3.403082   6.272652
    24  H    0.960650   1.952585   2.555106   3.203029   3.734776
    25  H    6.103895   5.401399   3.887216   6.138022   3.401249
    26  H    5.941221   5.401692   6.179302   3.880999   6.667020
                    6          7          8          9         10
     6  C    0.000000
     7  C    3.377719   0.000000
     8  C    2.409081   4.745487   0.000000
     9  C    4.669474   2.783056   5.624546   0.000000
    10  C    1.396326   4.720093   2.781694   5.819539   0.000000
    11  C    4.397800   1.394725   5.960903   2.408713   5.635765
    12  C    2.787727   5.779596   1.395381   6.610323   2.410137
    13  C    4.957073   2.416035   6.335159   1.393377   6.131460
    14  C    2.418630   5.769993   2.414079   6.693701   1.393522
    15  H    3.378965   3.362892   2.588720   4.014264   4.523557
    16  H    3.993524   3.394064   4.029235   2.155064   5.070771
    17  H    1.087857   2.667461   3.400583   4.190256   2.149394
    18  H    3.394931   1.089276   4.810697   3.872321   4.681170
    19  H    3.395102   5.179635   1.088951   5.918358   3.870617
    20  H    5.484724   3.871824   6.275960   1.088779   6.528038
    21  H    2.157342   5.137365   3.870654   6.239325   1.088964
    22  H    5.066878   2.155027   6.806895   3.396511   6.231936
    23  H    3.876738   6.797681   2.158086   7.513924   3.397514
    24  H    4.011479   2.788178   4.027863   4.753950   5.283719
    25  H    5.917068   3.403829   7.384553   2.156478   7.018099
    26  H    3.406168   6.782232   3.401525   7.641946   2.157159
                   11         12         13         14         15
    11  C    0.000000
    12  C    6.925652   0.000000
    13  C    1.392782   7.291060   0.000000
    14  C    6.788410   1.392599   7.203128   0.000000
    15  H    4.520249   3.969007   4.782144   4.759001   0.000000
    16  H    3.870883   5.098587   3.401385   5.543726   2.441133
    17  H    3.529369   3.875493   4.207946   3.398739   3.748185
    18  H    2.157766   5.792293   3.403253   5.740327   3.694120
    19  H    6.421540   2.156556   6.736558   3.400634   2.352899
    20  H    3.396629   7.205019   2.154968   7.315289   4.709227
    21  H    5.872537   3.396669   6.386875   2.153490   5.482545
    22  H    1.088859   7.714456   2.154041   7.467859   5.467051
    23  H    7.959855   1.089012   8.278810   2.153735   4.653473
    24  H    4.052111   5.297744   4.885033   5.825747   2.358848
    25  H    2.156717   8.293046   1.088838   8.131794   5.849308
    26  H    7.745022   2.154802   8.138516   1.088878   5.824878
                   16         17         18         19         20
    16  H    0.000000
    17  H    4.041570   0.000000
    18  H    4.292408   2.686407   0.000000
    19  H    4.097075   4.300736   5.274408   0.000000
    20  H    2.480066   5.085665   4.961091   6.512202   0.000000
    21  H    5.797913   2.472475   5.064261   4.959581   6.932534
    22  H    4.959737   4.092411   2.483636   7.313467   4.297384
    23  H    5.842080   4.964502   6.809413   2.485467   8.040511
    24  H    4.149037   3.969979   2.490340   3.978996   5.708624
    25  H    4.300966   5.111106   4.303775   7.801327   2.484351
    26  H    6.522250   4.296741   6.730340   4.300460   8.213232
                   21         22         23         24         25
    21  H    0.000000
    22  H    6.332886   0.000000
    23  H    4.296162   8.771881   0.000000
    24  H    6.059272   4.644927   6.078680   0.000000
    25  H    7.167566   2.484289   9.283095   5.901971   0.000000
    26  H    2.482690   8.381987   2.481027   6.885999   9.023192
                   26
    26  H    0.000000
 Stoichiometry    C13H12O
 Framework group  C1[X(C13H12O)]
 Deg. of freedom    72
 Full point group                 C1      NOp   1
 Largest Abelian subgroup         C1      NOp   1
 Largest concise Abelian subgroup C1      NOp   1
                         Standard orientation:                         
 ---------------------------------------------------------------------
 Center     Atomic      Atomic             Coordinates (Angstroms)
 Number     Number       Type             X           Y           Z
 ---------------------------------------------------------------------
      1          8           0        0.145240    2.205659   -0.878201
      2          6           0        0.046878    1.268069    0.201399
      3          6           0       -1.255304    0.495358    0.170860
      4          6           0        1.272914    0.373456    0.099004
      5          6           0       -1.774180   -0.038231    1.349105
      6          6           0        1.258413   -0.775675   -0.686887
      7          6           0       -1.930961    0.281967   -1.030792
      8          6           0        2.434550    0.736962    0.773354
      9          6           0       -2.952969   -0.779677    1.330099
     10          6           0        2.408250   -1.560522   -0.794669
     11          6           0       -3.112731   -0.458464   -1.051748
     12          6           0        3.583340   -0.048120    0.668398
     13          6           0       -3.626415   -0.990237    0.128585
     14          6           0        3.569569   -1.200080   -0.113990
     15          1           0        0.110541    1.808963    1.162286
     16          1           0       -1.247500    0.122763    2.289931
     17          1           0        0.358509   -1.073635   -1.220576
     18          1           0       -1.527236    0.693012   -1.955223
     19          1           0        2.447350    1.641280    1.379868
     20          1           0       -3.351001   -1.190587    2.256470
     21          1           0        2.396228   -2.461597   -1.406030
     22          1           0       -3.634642   -0.620695   -1.993504
     23          1           0        4.490590    0.237763    1.198603
     24          1           0       -0.645741    2.750630   -0.863909
     25          1           0       -4.550827   -1.565393    0.113589
     26          1           0        4.463682   -1.816602   -0.192208
 ---------------------------------------------------------------------
 Rotational constants (GHZ):           1.4463691           0.4196072           0.3939708
 Standard basis: 6-311++G(d,p) (5D, 7F)
 There are   406 symmetry adapted cartesian basis functions of A   symmetry.
 There are   392 symmetry adapted basis functions of A   symmetry.
   392 basis functions,   612 primitive gaussians,   406 cartesian basis functions
    49 alpha electrons       49 beta electrons
       nuclear repulsion energy       810.5726851536 Hartrees.
 NAtoms=   26 NActive=   26 NUniq=   26 SFac= 1.00D+00 NAtFMM=   60 NAOKFM=F Big=F
 Integral buffers will be    131072 words long.
 Raffenetti 2 integral format.
 Two-electron integral symmetry is turned on.
 R6APFD:  NTU= -4 IXU= 1 FactS= 1.050
 Nuclear repulsion after empirical dispersion term =      810.5542217121 Hartrees.
 One-electron integrals computed using PRISM.
 NBasis=   392 RedAO= T EigKep=  1.18D-06  NBF=   392
 NBsUse=   390 1.00D-06 EigRej=  6.68D-07 NBFU=   390
 Initial guess from the checkpoint file:  "DLML0101.chk"
 B after Tr=     0.000000    0.000000    0.000000
         Rot=    0.999801   -0.019957   -0.000692    0.000388 Ang=  -2.29 deg.
 ExpMin= 3.60D-02 ExpMax= 8.59D+03 ExpMxC= 1.30D+03 IAcc=3 IRadAn=         5 AccDes= 0.00D+00
 Harris functional with IExCor= 1009 and IRadAn=       5 diagonalized for initial guess.
 HarFok:  IExCor= 1009 AccDes= 0.00D+00 IRadAn=         5 IDoV= 1 UseB2=F ITyADJ=14
 ICtDFT=  3500011 ScaDFX=  1.000000  1.000000  1.000000  1.000000
 FoFCou: FMM=F IPFlag=           0 FMFlag=      100000 FMFlg1=           0
         NFxFlg=           0 DoJE=T BraDBF=F KetDBF=T FulRan=T
         wScrn=  0.000000 ICntrl=       500 IOpCl=  0 I1Cent=   200000004 NGrid=           0
         NMat0=    1 NMatS0=      1 NMatT0=    0 NMatD0=    1 NMtDS0=    0 NMtDT0=    0
 Petite list used in FoFCou.
 Requested convergence on RMS density matrix=1.00D-08 within  32 cycles.
 Requested convergence on MAX density matrix=1.00D-06.
 Requested convergence on             energy=1.00D-06.
 No special actions if energy rises.
 SCF Done:  E(RM08HX) =  -577.831565709     A.U. after   14 cycles
            NFock= 14  Conv=0.55D-08     -V/T= 2.0050
 QCSCF skips out because SCF is already converged.
 R6APFD:  NTU= -4 IXU= 1 FactS= 1.050
 Calling FoFJK, ICntrl=      2127 FMM=F ISym2X=0 I1Cent= 0 IOpClX= 0 NMat=1 NMatS=1 NMatT=0.
 ***** Axes restored to original set *****
 -------------------------------------------------------------------
 Center     Atomic                   Forces (Hartrees/Bohr)
 Number     Number              X              Y              Z
 -------------------------------------------------------------------
      1        8          -0.001526868   -0.004289611    0.004523370
      2        6           0.004686552    0.004262440   -0.004800198
      3        6          -0.000722283   -0.000118971   -0.001131688
      4        6          -0.006657813    0.001576355    0.000677893
      5        6          -0.000892402   -0.001548129    0.000854505
      6        6           0.006360186   -0.004389620   -0.001420228
      7        6          -0.001601196   -0.000734380   -0.000928596
      8        6           0.004310710   -0.002679905   -0.000358443
      9        6           0.001011551    0.000568223    0.000534730
     10        6          -0.001932781    0.001441839    0.000502151
     11        6           0.000453547    0.000202627    0.000613113
     12        6          -0.001201487    0.001407320    0.000458310
     13        6           0.000109390    0.000013476   -0.000607542
     14        6          -0.000546575    0.000298585   -0.000186667
     15        1          -0.000672224    0.000071377    0.000052723
     16        1           0.000442997    0.000332533    0.000141721
     17        1          -0.001932904    0.001134455    0.000833247
     18        1           0.000953699    0.000398420    0.000268393
     19        1          -0.000680134    0.000649740    0.000355772
     20        1           0.000118856    0.000085133    0.000107192
     21        1          -0.000375506    0.000217653   -0.000170063
     22        1           0.000168909    0.000143199   -0.000147816
     23        1          -0.000319608    0.000266792    0.000115288
     24        1           0.000387779    0.000668873   -0.000168777
     25        1           0.000159775    0.000041730   -0.000040416
     26        1          -0.000102170   -0.000020156   -0.000077974
 -------------------------------------------------------------------
 Cartesian Forces:  Max     0.006657813 RMS     0.001865918

 GradGradGradGradGradGradGradGradGradGradGradGradGradGradGradGradGradGrad
 Berny optimization.
 Using GEDIIS/GDIIS optimizer.
 FormGI is forming the generalized inverse of G from B-inverse, IUseBI=4.
 Internal  Forces:  Max     0.005733900 RMS     0.000850744
 Search for a local minimum.
 Step number   2 out of a maximum of  143
 All quantities printed in internal units (Hartrees-Bohrs-Radians)
 Mixed Optimization -- En-DIIS/RFO-DIIS
 Update second derivatives using D2CorX and points    1    2
 DE= -3.20D-03 DEPred=-3.02D-03 R= 1.06D+00
 TightC=F SS=  1.41D+00  RLast= 2.24D-01 DXNew= 5.0454D-01 6.7134D-01
 Trust test= 1.06D+00 RLast= 2.24D-01 DXMaxT set to 5.05D-01
 ITU=  1  0
 Use linear search instead of GDIIS.
     Eigenvalues ---    0.00453   0.00877   0.01188   0.01592   0.01630
     Eigenvalues ---    0.02151   0.02156   0.02156   0.02156   0.02157
     Eigenvalues ---    0.02157   0.02157   0.02157   0.02158   0.02158
     Eigenvalues ---    0.02159   0.02166   0.02199   0.02250   0.02270
     Eigenvalues ---    0.02329   0.05746   0.06320   0.08442   0.14290
     Eigenvalues ---    0.16000   0.16000   0.16000   0.16000   0.16000
     Eigenvalues ---    0.16000   0.16000   0.16000   0.16000   0.16108
[...]
 52341,-0.00007697,-0.00004119,0.00026707,-0.05475035,0.02920040,0.0012
 4912,0.00004273,-0.00002432,-0.00002305,-0.00139515,-0.00016914,0.0001
 6953,0.00003987,0.00004161,-0.00010883,0.00232082,0.02285683,-0.006815
 42,0.00002289,0.00003392,0.00002999,-0.00152146,0.00329315,0.00465969,
 0.00049701,0.00013390,-0.00029950,0.00000739,-0.00002751,-0.00001540,0
 .00016656,-0.00119869,0.00039511,0.00000376,-0.00009246,-0.00015843,0.
 05273370,0.00298763,-0.00045991,-0.00197805,0.00045666,-0.00180384,-0.
 00077430,-0.00010291,0.00007332,0.00027429,0.00136664,-0.00930017,0.00
 334918,-0.00006698,-0.00000922,-0.00006944,-0.00119783,0.00094363,0.00
 265097,-0.00009122,-0.00009884,0.00012840,0.02776407,-0.31977029,0.071
 67085,0.00001446,-0.00000863,-0.00000926,-0.00028522,0.00070093,-0.000
 46035,0.00004652,0.00003471,-0.00007688,-0.00109611,-0.00909287,0.0046
 4128,-0.00000374,0.00000534,0.00001515,0.00335679,0.00098149,-0.000048
 80,-0.00001238,-0.00012625,0.00005186,0.00001191,0.00000024,-0.0000210
 7,0.00026223,-0.00046534,0.00002406,-0.00022603,-0.00006561,-0.0000689
 2,-0.03298677,0.33866001,0.00073331,-0.00065153,-0.00099731,-0.0019899
 0,0.00048896,-0.00266836,-0.00045136,0.00015500,0.00049160,-0.00244101
 ,0.01745008,0.00037223,-0.00006083,-0.00000390,-0.00015348,0.00559004,
 0.00255275,0.00260032,-0.00011131,-0.00013301,0.00008836,0.00156044,0.
 07014551,-0.06192465,-0.00002237,-0.00005391,-0.00003548,0.00022641,-0
 .00049519,-0.00114273,0.00009465,-0.00000649,-0.00005183,0.00080605,-0
 .01042488,0.00595046,-0.00005983,-0.00000221,0.00004211,0.00459720,-0.
 00000484,0.00457159,0.00049307,-0.00034147,-0.00002379,0.00000333,0.00
 001489,-0.00000293,-0.00010344,0.00096347,-0.00014657,-0.00007151,0.00
 003817,-0.00002265,-0.00601163,-0.07783584,0.05572957,-0.00036461,-0.0
 0059491,-0.00009328,-0.00000223,0.00003002,0.00109488,-0.00156664,-0.0
 0485522,-0.00342930,0.00002029,-0.00021532,-0.00013018,-0.01135841,-0.
 01006614,0.01793276,-0.00008798,-0.00000992,0.00007102,-0.00041343,0.0
 0063326,-0.00096745,-0.00005514,0.00007965,0.00000798,-0.17331303,-0.0
 8882891,0.11143712,0.00001581,0.00000709,-0.00001150,0.00289536,-0.002
 63791,-0.00176014,0.00000103,0.00000773,0.00001697,0.00688501,0.002328
 29,-0.00491979,-0.00003115,0.00000991,0.00001392,-0.00001796,0.0000058
 5,-0.00002466,-0.00054339,0.00197063,-0.00017666,0.00002223,-0.0000326
 8,-0.00001094,-0.00027578,0.00044363,0.00013173,0.00001751,-0.00000507
 ,-0.00001812,0.17864091,-0.00007423,-0.00008286,0.00005859,-0.00016639
 ,0.00003917,0.00054995,-0.00482592,0.00462213,-0.00138641,-0.00007493,
 -0.00009857,-0.00016419,-0.00766958,-0.00199233,0.00969638,-0.00000884
 ,0.00005028,-0.00004611,0.00056751,-0.00094405,-0.00063834,-0.00002246
 ,0.00001899,0.00003246,-0.08891322,-0.09618944,0.07581755,0.00001033,-
 0.00000784,0.00002272,-0.00240839,0.00626599,0.00017970,0.00001161,0.0
 0000428,0.00001080,-0.00023342,0.00361137,-0.00108691,-0.00001853,0.00
 001363,0.00000926,0.00003316,-0.00000066,-0.00003233,0.00186200,-0.002
 73520,-0.00051930,-0.00002393,-0.00000435,0.00001089,0.00043511,-0.000
 80701,-0.00002038,0.00000037,-0.00000317,-0.00000669,0.09947266,0.0910
 7374,-0.00006402,-0.00009119,-0.00001855,-0.00038734,-0.00021300,0.000
 41121,-0.00294033,-0.00101983,0.00044350,-0.00000819,-0.00002972,-0.00
 007600,-0.00890385,-0.00578788,0.01086334,0.00000201,0.00000815,-0.000
 00918,-0.00095750,-0.00062993,-0.00067370,-0.00000008,-0.00000508,0.00
 002409,0.11129696,0.07585059,-0.16362712,0.00000339,0.00001052,0.00000
 627,-0.00228623,-0.00010382,-0.00541037,0.00000691,-0.00000017,0.00000
 754,0.02211246,0.01427796,-0.01261801,-0.00000166,0.00000668,0.0000011
 7,0.00001869,-0.00000318,-0.00001541,0.00056160,-0.00008421,0.00053497
 ,-0.00000841,0.00001291,-0.00000052,0.00011884,-0.00003495,0.00003647,
 -0.00000540,-0.00000565,-0.00000768,-0.11945509,-0.08230917,0.17039623
 ,-0.00049185,0.00033892,0.00000556,0.00072078,0.00080199,-0.00047332,0
 .00007241,0.00005501,0.00002599,-0.00182508,0.00351221,0.00493394,-0.0
 0001570,-0.00004542,-0.00003312,0.00252932,0.02395838,-0.00704454,-0.0
 0002287,-0.00000962,0.00000289,-0.00147951,-0.00015802,0.00026079,-0.0
 0000197,-0.00002387,0.00001146,-0.05546657,0.02633526,0.00286996,0.000
 00370,-0.00001873,-0.00001040,-0.00089203,-0.00118047,0.00551357,-0.00
 002303,-0.00002836,-0.00001944,0.00662058,-0.02142592,0.00483125,0.000
 03574,-0.00002479,0.00003661,-0.00000130,0.00002258,0.00000491,-0.0006
 0165,-0.00095209,-0.00197453,0.00000720,0.00000818,0.00001748,-0.00020
 727,-0.00010162,-0.00046953,-0.00001718,0.00000319,0.00000157,0.051527
 62,0.00034739,-0.00033296,-0.00005595,-0.00055284,-0.00030346,0.000472
 32,-0.00012199,-0.00007149,-0.00006090,0.00390678,0.00096054,-0.000205
 51,0.00002346,0.00001991,0.00004696,-0.00127901,-0.01141676,0.00555987
 ,0.00004269,0.00001976,0.00001810,-0.00016463,0.00070978,-0.00048727,0
 .00000437,0.00001971,0.00000020,0.02651350,-0.31535630,0.07157860,-0.0
 0001407,-0.00000395,-0.00000116,-0.00161075,0.00128949,0.00289116,0.00
 002842,0.00002286,0.00000281,0.00390118,-0.00854989,0.00134617,0.00007
 063,-0.00002908,-0.00004921,-0.00000859,-0.00001334,-0.00000080,-0.000
 28827,0.00028412,-0.00127929,-0.00001025,-0.00000152,-0.00002260,-0.00
 012587,-0.00014885,-0.00018861,0.00001719,0.00000443,-0.00000140,-0.02
 991162,0.33324303,0.00009053,-0.00023442,-0.00010276,-0.00001874,-0.00
 029656,0.00039904,-0.00015604,0.00002202,-0.00000695,0.00479360,0.0001
 3449,0.00487854,-0.00000370,0.00002583,0.00001101,0.00107734,-0.010512
 88,0.00610989,0.00000506,0.00003043,0.00001869,0.00017884,-0.00050152,
 -0.00107111,0.00000890,0.00001147,0.00000229,0.00257557,0.07159733,-0.
 06237445,-0.00000109,-0.00002739,-0.00000831,0.00572999,0.00253221,0.0
 0277916,0.00000035,-0.00001811,-0.00001101,-0.00314422,0.01750403,-0.0
 0011914,0.00004255,-0.00000832,-0.00004280,0.00000419,-0.00000734,-0.0
 0001213,-0.00205179,-0.00079081,-0.00269471,0.00000618,0.00000875,-0.0
 0000798,-0.00045945,-0.00020210,-0.00065150,0.00000570,0.00000025,0.00
 000052,-0.00678211,-0.07892787,0.05546244,0.00007373,-0.00003989,0.000
 15461,0.00029271,0.00032835,-0.00128087,-0.00214913,-0.00557308,-0.002
 00877,0.00014851,-0.00006836,-0.00002544,-0.00147979,-0.00023035,0.000
 36694,-0.00003249,0.00002004,0.00001537,0.00103517,0.00058546,-0.02595
 924,-0.00002490,0.00003863,0.00002450,-0.00057902,-0.00479976,0.002644
 47,0.00001063,0.00000842,0.00001889,-0.06058388,-0.00892806,-0.0441338
 2,0.00000274,-0.00000292,0.00002020,0.00764954,0.00054918,0.02080155,-
 0.00003560,0.00002855,0.00002125,-0.00038571,-0.00011761,-0.00016816,-
 0.00019523,0.00049541,-0.00000025,-0.00000205,-0.00002045,-0.00000759,
 -0.00053749,0.00204880,0.00055517,0.00000200,-0.00000905,-0.00001633,0
 .00019497,-0.00003682,0.00107547,-0.00001120,0.00000764,-0.00000636,0.
 05716902,0.00000741,-0.00028755,0.00011960,0.00008161,0.00042680,-0.00
 079284,-0.00574957,0.00494072,-0.00033254,0.00024211,-0.00006860,-0.00
 005598,-0.00009289,-0.00118601,-0.00003520,-0.00000565,0.00004196,0.00
 003567,-0.00181547,0.00401753,-0.01403050,-0.00001202,0.00001870,0.000
 04630,-0.00494145,0.00420282,0.00205835,-0.00000068,-0.00001167,-0.000
 03830,-0.00863839,-0.04377253,0.00020459,-0.00000593,0.00000093,0.0000
 1353,0.00282477,0.00391252,0.01386006,-0.00000122,-0.00001023,-0.00000
 626,-0.00013604,-0.00019669,-0.00012795,0.00048765,-0.00075207,-0.0000
 8825,0.00000136,-0.00000577,0.00001943,0.00209863,-0.00304510,-0.00005
 752,-0.00000377,-0.00000889,-0.00001088,0.00010258,0.00005313,0.000705
 22,0.00000444,0.00000049,0.00000959,0.01373891,0.03439918,-0.00007643,
 -0.00024890,0.00005814,0.00041570,0.00040531,-0.00051224,-0.00233267,-
 0.00072219,0.00141075,0.00009691,-0.00010900,-0.00003668,0.00035255,0.
 00003195,0.00090195,-0.00003048,0.00002306,0.00000902,0.00068198,0.001
 38629,-0.00725700,-0.00002770,0.00003954,0.00000371,0.00300605,0.00239
 716,-0.00033628,0.00000952,-0.00000281,-0.00000118,-0.04417014,0.00036
 229,-0.32980600,0.00000097,0.00000012,0.00001199,-0.00592112,-0.001883
 42,-0.01368898,-0.00002623,0.00001436,0.00002303,-0.00018884,-0.000095
 47,-0.00007595,0.00000230,-0.00008130,-0.00010599,0.00000783,-0.000017
 47,0.00000278,-0.00011367,-0.00049871,0.00056086,0.00001043,-0.0000021
 5,-0.00000996,-0.00030830,-0.00008821,-0.00079568,-0.00000663,0.000008
 83,-0.00000344,0.04811309,-0.00093975,0.34909908,0.00004032,0.00015718
 ,-0.00017731,-0.00021041,-0.00103912,0.00060423,0.00000722,0.00020380,
 0.00017972,-0.00116113,0.00431895,0.00392421,-0.00005213,-0.00004404,-
 0.00007471,-0.00030209,0.00081741,-0.00085206,-0.00007105,-0.00006368,
 0.00003520,-0.01173063,-0.01290730,0.01390015,0.00000321,-0.00002724,-
 0.00001229,0.00327779,0.00177215,0.00219450,0.00001471,-0.00000093,-0.
 00000652,-0.18472153,-0.08113974,0.11883046,-0.00003425,-0.00000907,-0
 .00000503,0.00557804,0.00317232,-0.00224162,-0.00024053,0.00017501,0.0
 0008354,0.00000626,0.00001871,-0.00001224,-0.00030294,-0.00022378,-0.0
 0042489,0.00001702,0.00001644,0.00002842,-0.00058115,-0.00031608,-0.00
 208600,-0.00001294,-0.00000778,-0.00000227,0.00014362,0.00022394,-0.00
 010616,-0.00001819,-0.00000798,-0.00001338,0.19099402,-0.00015990,-0.0
 0003015,0.00009767,0.00051007,0.00059351,-0.00044224,0.00000266,-0.000
 14510,-0.00006672,0.00431132,-0.00035833,-0.00021475,0.00002648,0.0000
 4149,-0.00000389,0.00074414,-0.00106799,-0.00054267,0.00000904,-0.0000
 1220,0.00002630,0.01214159,0.01091334,-0.01007078,-0.00001769,0.000021
 97,-0.00000039,0.00227020,-0.00496360,0.00262338,-0.00000529,0.0000172
 5,0.00000268,-0.08104767,-0.11026519,0.07431627,0.00001284,0.00000560,
 0.00001085,-0.02230672,-0.00722632,0.01756413,0.00007625,-0.00005259,-
 0.00004203,0.00001024,-0.00001633,-0.00000162,-0.00020800,-0.00000233,
 -0.00020317,0.00001733,0.00000131,0.00000577,-0.00097602,0.00024973,-0
 .00075767,0.00000566,-0.00000062,-0.00000083,-0.00108630,-0.00054975,0
 .00089860,-0.00000098,0.00000063,0.00000110,0.08593778,0.11261552,-0.0
 0001833,-0.00009246,0.00001764,0.00005274,0.00053189,-0.00012749,0.000
 04126,-0.00015852,-0.00003985,0.00402073,-0.00031335,0.00492042,0.0000
 3354,0.00002168,0.00001082,-0.00084688,-0.00061601,-0.00048487,0.00003
 094,-0.00003763,0.00004719,0.00579308,0.00579215,-0.00190653,-0.000014
 43,0.00001788,0.00000611,0.00197433,0.00296124,0.00542441,-0.00001303,
 0.00001571,-0.00001310,0.11879693,0.07430106,-0.13734791,0.00001977,0.
 00001678,0.00000620,0.00600944,0.00155839,-0.00067965,0.00006442,0.000
 02052,-0.00003617,0.00000237,-0.00001308,-0.00000055,-0.00039405,-0.00
 019106,-0.00076989,0.00001538,0.00000543,-0.00001200,-0.00187468,-0.00
 116452,-0.00246524,0.00000710,0.00000505,-0.00000223,0.00033133,0.0000
 7331,-0.00012989,-0.00000086,0.00000145,0.00000533,-0.13194584,-0.0819
 9169,0.13610265,-0.43809800,0.21407051,0.07049570,0.00365768,-0.007071
 69,0.00049081,0.00235324,-0.00152659,0.00054996,0.00021405,-0.00150175
 ,0.00005253,-0.00043943,-0.00003094,0.00037531,0.00065468,-0.00037665,
 -0.00004635,-0.00016120,0.00035011,-0.00047685,-0.00006041,-0.00022780
 ,0.00020042,-0.00023021,0.00025415,0.00005198,-0.00008595,-0.00008503,
 0.00005373,-0.00021641,0.00016523,-0.00006215,0.00016416,0.00016158,-0
 .00009975,-0.00003719,-0.00006250,-0.00003303,-0.00000122,0.00007228,-
 0.00003646,-0.00023031,-0.00057395,0.00034904,0.00017374,-0.00015485,-
 0.00002585,0.00001893,0.00006925,0.00004435,0.00018573,-0.00003479,0.0
 0004935,0.00014044,0.00032425,-0.00033863,-0.00001575,-0.00000179,-0.0
 0000159,0.00002160,-0.00005739,-0.00003650,0.00001376,-0.00004090,-0.0
 0001446,0.00003486,-0.00000208,0.00001809,0.43191394,0.16636254,-0.126
 51334,-0.01397327,0.03766364,-0.02347300,-0.00619612,0.00042210,0.0011
 8637,-0.00088465,-0.00184439,-0.00661946,0.00337473,-0.00054223,0.0000
 7009,0.00073045,0.00170401,-0.00039411,-0.00090545,-0.00013095,0.00027
 582,-0.00064846,-0.00112297,0.00012480,0.00064066,0.00037306,-0.000136
 75,0.00023089,-0.00021545,-0.00048867,0.00025942,-0.00025290,-0.000192
 85,-0.00015324,0.00019549,0.00016724,-0.00005516,0.00038218,0.00020433
 ,-0.00016692,-0.00009819,0.00011855,-0.00002902,0.00022480,0.00046411,
 0.00048054,-0.00004237,0.00007260,-0.00003844,-0.00000811,-0.00003412,
 0.00006201,-0.00000364,-0.00014542,-0.00016811,0.00033728,0.00019082,-
 0.00039187,0.00010828,0.00005867,-0.00000390,0.00012694,-0.00007304,-0
 .00005337,0.00005169,0.00003127,0.00008800,-0.00001291,0.00001075,0.00
 002544,-0.20369625,0.15499746,0.08252242,-0.02758330,-0.01875793,-0.01
 226663,0.00868986,0.00064169,0.00097468,-0.00037643,0.00045131,0.00109
 989,0.00082016,-0.00083854,-0.00053021,-0.00029184,0.00037087,-0.00007
 404,0.00034095,0.00048043,-0.00019740,0.00050859,0.00019922,0.00053755
 ,-0.00014238,-0.00034499,0.00064310,0.00019325,0.00017745,-0.00002056,
 0.00001608,-0.00005392,-0.00076887,-0.00018460,-0.00018042,-0.00008896
 ,-0.00022804,0.00016914,0.00012921,0.00012445,-0.00055368,0.00009895,-
 0.00005648,-0.00005990,-0.00068845,0.00112032,-0.00061433,-0.00000866,
 0.00017493,-0.00029220,0.00001979,-0.00002992,0.00011596,0.00039817,-0
 .00050953,-0.00044836,-0.00033781,-0.00033612,0.00023161,0.00003529,0.
 00003834,0.00000601,-0.00004566,-0.00001517,-0.00004779,0.00001173,-0.
 00003294,0.00000195,0.00004943,0.00000858,0.00002207,-0.07154246,0.017
 77690,0.01935722,0.00000845,0.00002165,-0.00015332,-0.00031694,0.00039
 775,0.00003071,0.00022456,0.00062739,0.00077852,0.00002120,-0.00008841
 ,0.00003044,0.00335269,-0.00241811,-0.00112007,-0.00001402,0.00000147,
 0.00000818,0.00025830,-0.00429035,0.00318672,-0.00003428,0.00003438,0.
 00000021,-0.00034008,-0.00230119,0.00072590,0.00001242,0.00000035,0.00
 000899,-0.01156009,-0.00768950,-0.01038272,-0.00000037,-0.00001069,-0.
 00000977,-0.23956649,-0.10898483,-0.08596827,-0.00000830,0.00000897,0.
 00000955,-0.00001984,-0.00001524,0.00001502,-0.00010322,-0.00015216,0.
 00009186,0.00001024,-0.00001418,-0.00000853,-0.00063945,-0.00033513,-0
 .00050296,0.00001994,0.00000979,0.00000039,-0.00061400,0.00209671,-0.0
 0017620,-0.00000926,0.00000870,-0.00000625,-0.00054895,0.00185817,0.00
 054146,-0.00000440,0.00000253,0.00000717,0.00002442,0.00002645,0.00004
 277,0.24985518,-0.00010599,-0.00016480,0.00007742,0.00056859,-0.000719
 11,-0.00008647,0.00052293,-0.00062829,0.00054758,0.00004816,0.00015247
 ,-0.00006588,-0.00247828,0.00619756,0.00059562,0.00000440,-0.00002486,
 -0.00002904,-0.00412505,0.00450217,0.00277574,0.00001609,-0.00002831,-
 0.00003442,0.00026812,0.00349142,0.00125897,-0.00003388,-0.00001299,0.
 00000950,-0.01024219,-0.00204739,-0.00672270,0.00003296,-0.00001295,-0
 .00001990,-0.10906108,-0.09678484,-0.04438546,0.00000335,0.00002776,-0
 .00000957,-0.00001978,-0.00000311,-0.00006834,-0.00004476,0.00012441,0
 .00008486,-0.00000039,0.00000009,0.00001835,-0.00046990,-0.00019901,-0
 .00038014,0.00000590,0.00000398,0.00000978,0.00201992,-0.00294993,-0.0
 0054710,0.00000494,0.00000051,0.00000414,0.00192517,-0.00270205,-0.000
 07107,-0.00000130,-0.00000518,-0.00000294,-0.00004198,0.00005286,0.000
 01362,0.12120309,0.09172683,-0.00001845,-0.00010199,0.00015355,0.00002
 672,-0.00001889,-0.00004850,0.00066076,0.00043508,-0.00133117,0.000023
 80,-0.00001302,0.00001360,-0.00060209,0.00090826,-0.00571407,0.0000117
 3,0.00004777,-0.00000915,0.00279734,0.00243160,-0.00166947,-0.00000061
 ,0.00001093,0.00001959,-0.02623219,-0.01432700,-0.00564910,-0.00000354
 ,-0.00001963,0.00000407,0.01644363,0.00886517,0.01129918,-0.00001240,0
 .00000226,0.00000797,-0.08587575,-0.04430499,-0.09719258,-0.00000886,0
 .00000047,0.00000366,0.00006552,0.00002945,0.00008837,-0.00129073,-0.0
 0070161,-0.00048161,0.00001013,-0.00002764,0.00000365,0.00083470,0.000
 41899,0.00038219,-0.00000653,-0.00000795,-0.00000547,0.00054961,-0.000
 13139,0.00052646,-0.00000125,0.00000141,-0.00000110,-0.00021174,-0.000
 52933,0.00054100,-0.00000312,0.00000012,0.00000008,-0.00000567,0.00000
 979,-0.00004554,0.09285075,0.04702309,0.09910113,-0.00010650,0.0001084
 1,-0.00005811,-0.00017517,-0.00008778,-0.00035946,0.00001622,0.0000006
 3,0.00005813,0.00005533,-0.00093034,-0.00034070,-0.00002739,0.00000113
 ,-0.00001898,0.00007961,-0.00210833,0.00510584,-0.00002217,-0.00000993
 ,-0.00000076,0.00344638,0.00115547,0.00223418,0.00000367,0.00000927,-0
 .00000189,-0.01185314,0.01361681,0.00509275,0.00001059,-0.00000419,0.0
 0000262,0.00126681,-0.00080808,0.00154744,-0.00000904,-0.00001401,-0.0
 0000122,-0.22389724,0.11803854,0.08032477,0.00006982,-0.00001778,-0.00
 007968,0.00001654,-0.00000635,-0.00001421,-0.00067529,0.00066056,0.000
 30863,0.00000909,0.00000570,0.00001140,-0.00002492,-0.00009995,0.00014
 690,-0.00000352,-0.00000640,0.00000025,-0.00061613,-0.00095064,-0.0017
 4639,-0.00000915,0.00000431,-0.00000874,-0.00067369,-0.00026747,-0.002
 11054,0.00000484,-0.00000811,0.00000673,-0.00000773,0.00000097,-0.0000
 0176,0.23312217,0.00014817,0.00002031,-0.00011604,-0.00015933,-0.00014
 893,-0.00011502,-0.00003277,-0.00000434,0.00000294,-0.00091225,-0.0009
 3446,0.00059611,-0.00000098,0.00001796,0.00001238,-0.00162042,0.000289
 97,0.00320192,-0.00000624,-0.00000447,0.00002637,0.00057279,-0.0048531
 5,0.00363191,0.00000441,0.00000200,-0.00000220,-0.01179786,0.01080821,
 0.00501531,0.00000610,0.00000248,-0.00002025,0.02472786,-0.00974789,-0
 .01147688,0.00000751,0.00000406,0.00000653,0.11799320,-0.13485950,-0.0
 4347838,0.00004612,0.00001516,-0.00007356,0.00000460,-0.00000565,-0.00
 000495,-0.00062047,0.00036254,0.00031841,-0.00001858,-0.00000458,-0.00
 002352,0.00113175,-0.00048231,-0.00050962,0.00000373,0.00000021,-0.000
 00099,-0.00020521,0.00027578,-0.00119842,0.00000107,0.00000048,0.00000
 244,-0.00101275,0.00022458,-0.00076670,0.00001957,0.00004502,-0.000039
 25,0.00000240,0.00000277,-0.00000092,-0.12828243,0.13897377,-0.0000195
 8,-0.00009044,-0.00005266,-0.00041631,-0.00013188,-0.00052240,-0.00002
 712,-0.00001025,0.00009091,-0.00033303,0.00061966,-0.00091532,0.000013
 33,-0.00003897,0.00000054,0.00491055,0.00357439,0.00282994,-0.00001337
 ,-0.00003780,-0.00004187,0.00239068,0.00328133,0.00499312,-0.00003524,
 -0.00003099,-0.00001897,0.01325990,-0.01113677,-0.00180473,0.00003257,
 0.00001751,-0.00000608,-0.00670484,0.00464340,0.00597150,-0.00001018,-
 0.00000799,0.00003609,0.08039519,-0.04352514,-0.07402014,0.00006683,0.
 00003217,-0.00006965,-0.00001074,0.00001733,0.00001343,0.00071345,-0.0
 0052787,-0.00016987,0.00000091,0.00001001,0.00000460,-0.00024807,0.000
 25536,0.00023177,0.00000133,-0.00000250,-0.00000331,-0.00198675,-0.000
 70396,-0.00237650,-0.00000382,0.00000447,-0.00000020,-0.00186642,-0.00
 121701,-0.00254756,-0.00001151,-0.00001082,0.00001267,-0.00000056,0.00
 000436,0.00000328,-0.09009720,0.04501239,0.06836141\\-0.00000101,0.000
 00134,-0.00000077,0.00000161,-0.00000417,0.00000228,-0.00000089,0.0000
 0005,-0.00000163,-0.00000503,0.00000364,0.00000101,0.00000063,0.000001
 79,-0.00000149,0.00000193,-0.00000204,0.00000078,0.00000116,-0.0000008
 1,-0.00000235,0.00000120,0.00000025,0.00000210,-0.00000162,-0.00000139
 ,-0.00000496,-0.00000206,0.00000074,0.00000330,0.00000195,-0.00000005,
 -0.00000205,0.00000053,-0.00000076,0.00000330,0.00000013,-0.00000105,-
 0.00000074,0.00000234,0.00000172,0.00000295,-0.00000254,0.00000141,-0.
 00000070,-0.00000234,-0.00000011,-0.00000172,-0.00000114,0.00000067,0.
 00000120,0.00000101,-0.00000041,-0.00000072,0.00000025,0.00000009,0.00
 000082,-0.00000058,-0.00000037,-0.00000272,0.00000031,0.00000044,0.000
 00284,0.00000245,-0.00000121,-0.00000251,0.00000101,0.00000108,0.00000
 343,-0.00000137,-0.00000027,-0.00000166,0.00000130,-0.00000087,-0.0000
 0412,0.00000077,0.00000028,0.00000413\\\@


 ONE THORN OF EXPERIENCE IS WORTH A WHOLE WILDERNESS OF
 WARNING....  LOWELL - AMONG MY BOOKS
 Job cpu time:       0 days  5 hours 39 minutes  6.8 seconds.
 Elapsed time:       0 days  0 hours 21 minutes 17.4 seconds.
 File lengths (MBytes):  RWF=    350 Int=      0 D2E=      0 Chk=     14 Scr=      1
 Normal termination of Gaussian 16 at Fri Sep 19 13:05:29 2025.
