 Entering Gaussian System, Link 0=g16
 Input=DMXE0102.gjf
 Output=DMXE0102.log
 Initial command:
 /usr/local/g16/l1.exe "/dados_01/scratch/Gau-2051594.inp" -scrdir="/dados_01/scratch/"
 Entering Link 1 = /usr/local/g16/l1.exe PID=   2051595.
  
 Copyright (c) 1988-2017, Gaussian, Inc.  All Rights Reserved.
  
 This is part of the Gaussian(R) 16 program.  It is based on
 the Gaussian(R) 09 system (copyright 2009, Gaussian, Inc.),
 the Gaussian(R) 03 system (copyright 2003, Gaussian, Inc.),
 the Gaussian(R) 98 system (copyright 1998, Gaussian, Inc.),
 the Gaussian(R) 94 system (copyright 1995, Gaussian, Inc.),
 the Gaussian 92(TM) system (copyright 1992, Gaussian, Inc.),
 the Gaussian 90(TM) system (copyright 1990, Gaussian, Inc.),
 the Gaussian 88(TM) system (copyright 1988, Gaussian, Inc.),
 the Gaussian 86(TM) system (copyright 1986, Carnegie Mellon
 University), and the Gaussian 82(TM) system (copyright 1983,
 Carnegie Mellon University). Gaussian is a federally registered
 trademark of Gaussian, Inc.
  
 This software contains proprietary and confidential information,
 including trade secrets, belonging to Gaussian, Inc.
  
 This software is provided under written license and may be
 used, copied, transmitted, or stored only in accord with that
 written license.
  
 The following legend is applicable only to US Government
 contracts under FAR:
  
                    RESTRICTED RIGHTS LEGEND
  
 Use, reproduction and disclosure by the US Government is
 subject to restrictions as set forth in subparagraphs (a)
 and (c) of the Commercial Computer Software - Restricted
 Rights clause in FAR 52.227-19.
  
 Gaussian, Inc.
 340 Quinnipiac St., Bldg. 40, Wallingford CT 06492
  
  
 ---------------------------------------------------------------
 Warning -- This program may not be used in any manner that
 competes with the business of Gaussian, Inc. or will provide
 assistance to any competitor of Gaussian, Inc.  The licensee
 of this program is prohibited from giving any competitor of
 Gaussian, Inc. access to this program.  By using this program,
 the user acknowledges that Gaussian, Inc. is engaged in the
 business of creating and licensing software in the field of
 computational chemistry and represents and warrants to the
 licensee that it is not a competitor of Gaussian, Inc. and that
 it will not use this program in any manner prohibited above.
 ---------------------------------------------------------------
  

 Cite this work as:
 Gaussian 16, Revision B.01,
 M. J. Frisch, G. W. Trucks, H. B. Schlegel, G. E. Scuseria, 
 M. A. Robb, J. R. Cheeseman, G. Scalmani, V. Barone, 
 G. A. Petersson, H. Nakatsuji, X. Li, M. Caricato, A. V. Marenich, 
 J. Bloino, B. G. Janesko, R. Gomperts, B. Mennucci, H. P. Hratchian, 
 J. V. Ortiz, A. F. Izmaylov, J. L. Sonnenberg, D. Williams-Young, 
 F. Ding, F. Lipparini, F. Egidi, J. Goings, B. Peng, A. Petrone, 
 T. Henderson, D. Ranasinghe, V. G. Zakrzewski, J. Gao, N. Rega, 
 G. Zheng, W. Liang, M. Hada, M. Ehara, K. Toyota, R. Fukuda, 
 J. Hasegawa, M. Ishida, T. Nakajima, Y. Honda, O. Kitao, H. Nakai, 
 T. Vreven, K. Throssell, J. A. Montgomery, Jr., J. E. Peralta, 
 F. Ogliaro, M. J. Bearpark, J. J. Heyd, E. N. Brothers, K. N. Kudin, 
 V. N. Staroverov, T. A. Keith, R. Kobayashi, J. Normand, 
 K. Raghavachari, A. P. Rendell, J. C. Burant, S. S. Iyengar, 
 J. Tomasi, M. Cossi, J. M. Millam, M. Klene, C. Adamo, R. Cammi, 
 J. W. Ochterski, R. L. Martin, K. Morokuma, O. Farkas, 
 J. B. Foresman, and D. J. Fox, Gaussian, Inc., Wallingford CT, 2016.
 
 ******************************************
 Gaussian 16:  ES64L-G16RevB.01 20-Dec-2017
                19-Sep-2025 
 ******************************************
 %nprocs=16
 Will use up to   16 processors via shared memory.
 %mem=40GB
 %chk=DMXE0102.chk
 ----------------------------------------------------------------------
 # opt freq=noraman M08HX/6-311++G** scf=xqc Empiricaldispersion=pfd In
 t(Grid=ultraFine)
 ----------------------------------------------------------------------
 1/18=20,19=15,26=4,38=1/1,3;
 2/9=110,12=2,17=6,18=5,40=1/2;
 3/5=4,6=6,7=1111,11=2,25=1,30=1,71=1,74=-74,75=-5,124=11/1,2,3;
 4//1;
 5/5=2,8=3,13=1,38=5/2,8;
 6/7=2,8=2,9=2,10=2,28=1/1;
 7//1,2,3,16;
 1/18=20,19=15,26=4/3(2);
 2/9=110/2;
 99//99;
 2/9=110/2;
 3/5=4,6=6,7=1111,11=2,25=1,30=1,71=1,74=-74,75=-5,124=11/1,2,3;
 4/5=5,16=3,69=1/1;
 5/5=2,8=3,13=1,38=5/2,8;
 7//1,2,3,16;
 1/18=20,19=15,26=4/3(-5);
 2/9=110/2;
 6/7=2,8=2,9=2,10=2,19=2,28=1/1;
 99/9=1/99;
 --------
 DMXE0102
 --------
 Symbolic Z-matrix:
 Charge =  0 Multiplicity = 1
 O                    -0.7147    0.7476   -0.3022 
 O                     1.353    -0.388    -0.1745 
 C                     0.0059   -0.3239    0.3115 
 C                    -0.6552   -1.6475   -0.0513 
 C                    -2.0725    0.8124    0.1122 
 C                     2.0834    0.7993    0.1043 
 H                     0.027    -0.1926    1.4005 
 H                    -0.8027   -1.7246   -1.1346 
 H                    -1.6307   -1.7692    0.4285 
 H                    -0.024    -2.4897    0.2524 
 H                    -2.4663    1.79     -0.1807 
 H                    -2.163     0.7184    1.1989 
 H                    -2.6723    0.0514   -0.3945 
 H                     2.0877    1.0064    1.1788 
 H                     1.6668    1.6497   -0.4434 
 H                     3.1154    0.651    -0.2252 
 

 GradGradGradGradGradGradGradGradGradGradGradGradGradGradGradGradGradGrad
 Berny optimization.
 Initialization pass.
                           ----------------------------
                           !    Initial Parameters    !
                           ! (Angstroms and Degrees)  !
 --------------------------                            --------------------------
 ! Name  Definition              Value          Derivative Info.                !
 --------------------------------------------------------------------------------
 ! R1    R(1,3)                  1.4297         estimate D2E/DX2                !
 ! R2    R(1,5)                  1.4211         estimate D2E/DX2                !
 ! R3    R(2,3)                  1.4335         estimate D2E/DX2                !
 ! R4    R(2,6)                  1.4216         estimate D2E/DX2                !
 ! R5    R(3,4)                  1.5233         estimate D2E/DX2                !
 ! R6    R(3,7)                  1.0971         estimate D2E/DX2                !
 ! R7    R(4,8)                  1.096          estimate D2E/DX2                !
 ! R8    R(4,9)                  1.0939         estimate D2E/DX2                !
 ! R9    R(4,10)                 1.0954         estimate D2E/DX2                !
 ! R10   R(5,11)                 1.0939         estimate D2E/DX2                !
 ! R11   R(5,12)                 1.0945         estimate D2E/DX2                !
 ! R12   R(5,13)                 1.0934         estimate D2E/DX2                !
 ! R13   R(6,14)                 1.0943         estimate D2E/DX2                !
 ! R14   R(6,15)                 1.0939         estimate D2E/DX2                !
 ! R15   R(6,16)                 1.0934         estimate D2E/DX2                !
 ! A1    A(3,1,5)              112.9903         estimate D2E/DX2                !
 ! A2    A(3,2,6)              112.2708         estimate D2E/DX2                !
 ! A3    A(1,3,2)              111.2            estimate D2E/DX2                !
 ! A4    A(1,3,4)              109.2824         estimate D2E/DX2                !
 ! A5    A(1,3,7)              110.2482         estimate D2E/DX2                !
 ! A6    A(2,3,4)              106.7515         estimate D2E/DX2                !
 ! A7    A(2,3,7)              108.8931         estimate D2E/DX2                !
 ! A8    A(4,3,7)              110.4101         estimate D2E/DX2                !
 ! A9    A(3,4,8)              110.7888         estimate D2E/DX2                !
 ! A10   A(3,4,9)              112.2848         estimate D2E/DX2                !
 ! A11   A(3,4,10)             110.6053         estimate D2E/DX2                !
 ! A12   A(8,4,9)              107.7996         estimate D2E/DX2                !
 ! A13   A(8,4,10)             107.307          estimate D2E/DX2                !
 ! A14   A(9,4,10)             107.861          estimate D2E/DX2                !
 ! A15   A(1,5,11)             107.8566         estimate D2E/DX2                !
 ! A16   A(1,5,12)             111.3836         estimate D2E/DX2                !
 ! A17   A(1,5,13)             110.9309         estimate D2E/DX2                !
 ! A18   A(11,5,12)            108.2305         estimate D2E/DX2                !
 ! A19   A(11,5,13)            107.4832         estimate D2E/DX2                !
 ! A20   A(12,5,13)            110.7912         estimate D2E/DX2                !
 ! A21   A(2,6,14)             110.65           estimate D2E/DX2                !
 ! A22   A(2,6,15)             110.8181         estimate D2E/DX2                !
 ! A23   A(2,6,16)             108.2131         estimate D2E/DX2                !
 ! A24   A(14,6,15)            110.2421         estimate D2E/DX2                !
 ! A25   A(14,6,16)            108.5334         estimate D2E/DX2                !
 ! A26   A(15,6,16)            108.2998         estimate D2E/DX2                !
 ! D1    D(5,1,3,2)            177.5878         estimate D2E/DX2                !
 ! D2    D(5,1,3,4)             59.9931         estimate D2E/DX2                !
 ! D3    D(5,1,3,7)            -61.5306         estimate D2E/DX2                !
 ! D4    D(3,1,5,11)           165.0138         estimate D2E/DX2                !
 ! D5    D(3,1,5,12)            46.3861         estimate D2E/DX2                !
 ! D6    D(3,1,5,13)           -77.5249         estimate D2E/DX2                !
 ! D7    D(6,2,3,1)             60.8809         estimate D2E/DX2                !
 ! D8    D(6,2,3,4)           -179.9992         estimate D2E/DX2                !
 ! D9    D(6,2,3,7)            -60.7937         estimate D2E/DX2                !
 ! D10   D(3,2,6,14)            57.0246         estimate D2E/DX2                !
 ! D11   D(3,2,6,15)           -65.5818         estimate D2E/DX2                !
 ! D12   D(3,2,6,16)           175.8146         estimate D2E/DX2                !
 ! D13   D(1,3,4,8)             50.8958         estimate D2E/DX2                !
 ! D14   D(1,3,4,9)            -69.6983         estimate D2E/DX2                !
 ! D15   D(1,3,4,10)           169.7573         estimate D2E/DX2                !
 ! D16   D(2,3,4,8)            -69.462          estimate D2E/DX2                !
 ! D17   D(2,3,4,9)            169.9439         estimate D2E/DX2                !
 ! D18   D(2,3,4,10)            49.3996         estimate D2E/DX2                !
 ! D19   D(7,3,4,8)            172.3216         estimate D2E/DX2                !
 ! D20   D(7,3,4,9)             51.7275         estimate D2E/DX2                !
 ! D21   D(7,3,4,10)           -68.8169         estimate D2E/DX2                !
 --------------------------------------------------------------------------------
 Trust Radius=3.00D-01 FncErr=1.00D-07 GrdErr=1.00D-06 EigMax=2.50D+02 EigMin=1.00D-04
 Number of steps in this run=     72 maximum allowed number of steps=    100.
 GradGradGradGradGradGradGradGradGradGradGradGradGradGradGradGradGradGrad

                          Input orientation:                          
 ---------------------------------------------------------------------
 Center     Atomic      Atomic             Coordinates (Angstroms)
 Number     Number       Type             X           Y           Z
 ---------------------------------------------------------------------
      1          8           0       -0.714700    0.747600   -0.302200
      2          8           0        1.353000   -0.388000   -0.174500
      3          6           0        0.005900   -0.323900    0.311500
      4          6           0       -0.655200   -1.647500   -0.051300
      5          6           0       -2.072500    0.812400    0.112200
      6          6           0        2.083400    0.799300    0.104300
      7          1           0        0.027000   -0.192600    1.400500
      8          1           0       -0.802700   -1.724600   -1.134600
      9          1           0       -1.630700   -1.769200    0.428500
     10          1           0       -0.024000   -2.489700    0.252400
     11          1           0       -2.466300    1.790000   -0.180700
     12          1           0       -2.163000    0.718400    1.198900
     13          1           0       -2.672300    0.051400   -0.394500
     14          1           0        2.087700    1.006400    1.178800
     15          1           0        1.666800    1.649700   -0.443400
     16          1           0        3.115400    0.651000   -0.225200
 ---------------------------------------------------------------------
                    Distance matrix (angstroms):
                    1          2          3          4          5
     1  O    0.000000
     2  O    2.362473   0.000000
     3  C    1.429687   1.433521   0.000000
     4  C    2.408941   2.373686   1.523350   0.000000
     5  C    1.421108   3.641045   2.377108   2.843691   0.000000
     6  C    2.827946   1.421582   2.370763   3.675727   4.155928
     7  H    2.081654   2.068111   1.097090   2.165607   2.660384
     8  H    2.610059   2.712072   2.169562   1.096011   3.098915
     9  H    2.776195   3.342722   2.186559   1.093901   2.638161
    10  H    3.356301   2.548630   2.166813   1.095421   3.888428
    11  H    2.041926   4.396678   3.289773   3.887574   1.093879
    12  H    2.086079   3.933523   2.564760   3.071473   1.094506
    13  H    2.079762   4.055183   2.795003   2.659462   1.093447
    14  H    3.180218   2.077392   2.618358   4.009967   4.299132
    15  H    2.550542   2.079182   2.687668   4.051784   3.871967
    16  H    3.832092   2.046496   3.302645   4.419363   5.201365
                    6          7          8          9         10
     6  C    0.000000
     7  H    2.625411   0.000000
     8  H    4.029208   3.076062   0.000000
     9  H    4.527343   2.485643   1.769422   0.000000
    10  H    3.909039   2.568541   1.765084   1.769637   0.000000
    11  H    4.665028   3.556324   4.003736   3.706381   4.946538
    12  H    4.385956   2.380475   3.641962   2.658009   3.970276
    13  H    4.839921   3.250812   2.682784   2.253185   3.726817
    14  H    1.094285   2.394418   4.600499   4.700362   4.188103
    15  H    1.093943   3.079445   4.238170   4.829347   4.525215
    16  H    1.093429   3.590651   4.671401   5.367509   4.466311
                   11         12         13         14         15
    11  H    0.000000
    12  H    1.773024   0.000000
    13  H    1.763768   1.800888   0.000000
    14  H    4.816761   4.260493   5.103420   0.000000
    15  H    4.143816   4.269876   4.624364   1.795139   0.000000
    16  H    5.696901   5.467551   5.821139   1.775864   1.772979
                   16
    16  H    0.000000
 Stoichiometry    C4H10O2
 Framework group  C1[X(C4H10O2)]
 Deg. of freedom    42
 Full point group                 C1      NOp   1
 Largest Abelian subgroup         C1      NOp   1
 Largest concise Abelian subgroup C1      NOp   1
                         Standard orientation:                         
 ---------------------------------------------------------------------
 Center     Atomic      Atomic             Coordinates (Angstroms)
 Number     Number       Type             X           Y           Z
 ---------------------------------------------------------------------
      1          8           0        0.646378   -0.765931   -0.337925
      2          8           0       -1.363129    0.467590   -0.191012
      3          6           0       -0.021798    0.328042    0.295137
      4          6           0        0.704420    1.624044   -0.041879
      5          6           0        1.998505   -0.905358    0.076635
      6          6           0       -2.151681   -0.687306    0.064519
      7          1           0       -0.051522    0.177470    1.381438
      8          1           0        0.857709    1.714154   -1.123369
      9          1           0        1.683767    1.688468    0.441183
     10          1           0        0.114862    2.490464    0.277002
     11          1           0        2.344261   -1.895493   -0.234262
     12          1           0        2.091347   -0.836400    1.165013
     13          1           0        2.636075   -0.165443   -0.414951
     14          1           0       -2.168330   -0.914127    1.134909
     15          1           0       -1.776377   -1.546746   -0.498704
     16          1           0       -3.174461   -0.482150   -0.263229
 ---------------------------------------------------------------------
 Rotational constants (GHZ):           5.5318712           2.5940931           1.9019863
 Standard basis: 6-311++G(d,p) (5D, 7F)
 There are   208 symmetry adapted cartesian basis functions of A   symmetry.
 There are   202 symmetry adapted basis functions of A   symmetry.
   202 basis functions,   306 primitive gaussians,   208 cartesian basis functions
    25 alpha electrons       25 beta electrons
       nuclear repulsion energy       266.8889092150 Hartrees.
 NAtoms=   16 NActive=   16 NUniq=   16 SFac= 1.00D+00 NAtFMM=   60 NAOKFM=F Big=F
 Integral buffers will be    131072 words long.
 Raffenetti 2 integral format.
 Two-electron integral symmetry is turned on.
 R6APFD:  NTU= -4 IXU= 1 FactS= 1.050
 Nuclear repulsion after empirical dispersion term =      266.8808079720 Hartrees.
 One-electron integrals computed using PRISM.
 NBasis=   202 RedAO= T EigKep=  4.52D-05  NBF=   202
 NBsUse=   202 1.00D-06 EigRej= -1.00D+00 NBFU=   202
 ExpMin= 3.60D-02 ExpMax= 8.59D+03 ExpMxC= 1.30D+03 IAcc=3 IRadAn=         5 AccDes= 0.00D+00
 Harris functional with IExCor= 1009 and IRadAn=       5 diagonalized for initial guess.
 HarFok:  IExCor= 1009 AccDes= 0.00D+00 IRadAn=         5 IDoV= 1 UseB2=F ITyADJ=14
 ICtDFT=  3500011 ScaDFX=  1.000000  1.000000  1.000000  1.000000
 FoFCou: FMM=F IPFlag=           0 FMFlag=      100000 FMFlg1=           0
         NFxFlg=           0 DoJE=T BraDBF=F KetDBF=T FulRan=T
         wScrn=  0.000000 ICntrl=       500 IOpCl=  0 I1Cent=   200000004 NGrid=           0
         NMat0=    1 NMatS0=      1 NMatT0=    0 NMatD0=    1 NMtDS0=    0 NMtDT0=    0
 Petite list used in FoFCou.
 Requested convergence on RMS density matrix=1.00D-08 within  32 cycles.
 Requested convergence on MAX density matrix=1.00D-06.
 Requested convergence on             energy=1.00D-06.
 No special actions if energy rises.
 SCF Done:  E(RM08HX) =  -308.859368943     A.U. after   12 cycles
            NFock= 12  Conv=0.45D-08     -V/T= 2.0048
 QCSCF skips out because SCF is already converged.

 **********************************************************************

            Population analysis using the SCF Density.

 **********************************************************************

 Orbital symmetries:
       Occupied  (A) (A) (A) (A) (A) (A) (A) (A) (A) (A) (A) (A)
                 (A) (A) (A) (A) (A) (A) (A) (A) (A) (A) (A) (A)
                 (A)
       Virtual   (A) (A) (A) (A) (A) (A) (A) (A) (A) (A) (A) (A)
                 (A) (A) (A) (A) (A) (A) (A) (A) (A) (A) (A) (A)
                 (A) (A) (A) (A) (A) (A) (A) (A) (A) (A) (A) (A)
                 (A) (A) (A) (A) (A) (A) (A) (A) (A) (A) (A) (A)
                 (A) (A) (A) (A) (A) (A) (A) (A) (A) (A) (A) (A)
                 (A) (A) (A) (A) (A) (A) (A) (A) (A) (A) (A) (A)
                 (A) (A) (A) (A) (A) (A) (A) (A) (A) (A) (A) (A)
                 (A) (A) (A) (A) (A) (A) (A) (A) (A) (A) (A) (A)
                 (A) (A) (A) (A) (A) (A) (A) (A) (A) (A) (A) (A)
                 (A) (A) (A) (A) (A) (A) (A) (A) (A) (A) (A) (A)
                 (A) (A) (A) (A) (A) (A) (A) (A) (A) (A) (A) (A)
                 (A) (A) (A) (A) (A) (A) (A) (A) (A) (A) (A) (A)
                 (A) (A) (A) (A) (A) (A) (A) (A) (A) (A) (A) (A)
                 (A) (A) (A) (A) (A) (A) (A) (A) (A) (A) (A) (A)
                 (A) (A) (A) (A) (A) (A) (A) (A) (A)
 The electronic state is 1-A.
 Alpha  occ. eigenvalues --  -19.61820 -19.61767 -10.63592 -10.57586 -10.56278
 Alpha  occ. eigenvalues --  -10.51928  -1.18535  -1.12699  -0.86533  -0.79414
 Alpha  occ. eigenvalues --   -0.76857  -0.68550  -0.59057  -0.58482  -0.55449
 Alpha  occ. eigenvalues --   -0.52502  -0.50222  -0.49479  -0.46415  -0.45093
 Alpha  occ. eigenvalues --   -0.44135  -0.40267  -0.40184  -0.34936  -0.33844
 Alpha virt. eigenvalues --   -0.02764  -0.01384  -0.00659  -0.00464   0.01487
 Alpha virt. eigenvalues --    0.01995   0.02265   0.02718   0.03373   0.05204
 Alpha virt. eigenvalues --    0.05611   0.05901   0.07044   0.07973   0.08655
 Alpha virt. eigenvalues --    0.09578   0.11027   0.11232   0.12030   0.13101
 Alpha virt. eigenvalues --    0.13372   0.13720   0.13937   0.14619   0.15495
 Alpha virt. eigenvalues --    0.15774   0.18875   0.19572   0.20016   0.20844
 Alpha virt. eigenvalues --    0.21945   0.22282   0.23318   0.24938   0.25926
 Alpha virt. eigenvalues --    0.26680   0.27798   0.29336   0.29444   0.30919
 Alpha virt. eigenvalues --    0.31342   0.32299   0.32759   0.33681   0.34427
 Alpha virt. eigenvalues --    0.35764   0.38345   0.39271   0.40947   0.45354
 Alpha virt. eigenvalues --    0.46906   0.47345   0.49706   0.50525   0.55342
 Alpha virt. eigenvalues --    0.59534   0.62906   0.63332   0.64319   0.65147
 Alpha virt. eigenvalues --    0.66099   0.68027   0.68966   0.69135   0.70700
 Alpha virt. eigenvalues --    0.71351   0.72572   0.74067   0.74370   0.76542
 Alpha virt. eigenvalues --    0.77132   0.88218   0.94722   0.97631   1.01493
 Alpha virt. eigenvalues --    1.02590   1.05872   1.07545   1.13264   1.15961
 Alpha virt. eigenvalues --    1.19716   1.26320   1.27977   1.29438   1.32867
 Alpha virt. eigenvalues --    1.36157   1.39934   1.43786   1.46811   1.49606
 Alpha virt. eigenvalues --    1.50030   1.51574   1.56781   1.57135   1.59584
 Alpha virt. eigenvalues --    1.59865   1.60979   1.63523   1.64943   1.65480
 Alpha virt. eigenvalues --    1.69338   1.69891   1.72002   1.72823   1.75020
 Alpha virt. eigenvalues --    1.76081   1.79789   1.81248   1.82235   1.86992
 Alpha virt. eigenvalues --    1.92821   1.95080   2.00963   2.06093   2.06530
 Alpha virt. eigenvalues --    2.08905   2.15707   2.16926   2.20472   2.20936
 Alpha virt. eigenvalues --    2.23609   2.32769   2.35266   2.44077   2.45612
 Alpha virt. eigenvalues --    2.48881   2.49869   2.51031   2.52175   2.55210
 Alpha virt. eigenvalues --    2.56026   2.56808   2.57886   2.58775   2.61485
 Alpha virt. eigenvalues --    2.62734   2.65355   2.66300   2.69482   2.77494
 Alpha virt. eigenvalues --    2.83823   2.88152   2.90120   2.92782   3.02853
 Alpha virt. eigenvalues --    3.05277   3.07949   3.14936   3.20621   3.23889
 Alpha virt. eigenvalues --    3.27358   3.33384   3.39594   3.42003   3.79833
 Alpha virt. eigenvalues --    3.80970   3.83205   3.83622   3.84035   3.85175
 Alpha virt. eigenvalues --    4.01561   4.10800   4.13456   4.18943   4.33663
 Alpha virt. eigenvalues --    5.21837   5.24225   5.44110   5.51372   5.70593
 Alpha virt. eigenvalues --    5.83703  23.79156  23.98225  23.98775  24.02983
 Alpha virt. eigenvalues --   49.92406  49.96262
          Condensed to atoms (all electrons):
               1          2          3          4          5          6
     1  O    8.163572  -0.059545   0.210846  -0.119164   0.132099   0.009335
     2  O   -0.059545   8.099603   0.189508  -0.107232   0.002289   0.161179
     3  C    0.210846   0.189508   6.138443  -0.278702  -0.125916  -0.217344
     4  C   -0.119164  -0.107232  -0.278702   6.300349  -0.009263  -0.027518
     5  C    0.132099   0.002289  -0.125916  -0.009263   5.332267   0.000321
     6  C    0.009335   0.161179  -0.217344  -0.027518   0.000321   5.334974
     7  H   -0.084655  -0.054574   0.431756  -0.167187  -0.012578   0.007643
     8  H   -0.004828  -0.011014  -0.085079   0.448775  -0.016621   0.003926
     9  H   -0.020831   0.025997  -0.010090   0.344133   0.003014   0.004559
    10  H    0.013252  -0.009546  -0.068750   0.438937  -0.004917  -0.006515
    11  H   -0.053070  -0.001926   0.020248   0.001345   0.409378   0.000141
    12  H   -0.032823   0.004116  -0.023960   0.012852   0.369075  -0.001401
    13  H   -0.063365  -0.001429   0.013496  -0.033934   0.414322   0.000929
    14  H   -0.016569  -0.054870   0.002361  -0.014493   0.002401   0.386122
    15  H    0.007699  -0.043078  -0.015923   0.006542  -0.007881   0.402799
    16  H    0.004735  -0.053737   0.024241  -0.007752   0.000369   0.392138
               7          8          9         10         11         12
     1  O   -0.084655  -0.004828  -0.020831   0.013252  -0.053070  -0.032823
     2  O   -0.054574  -0.011014   0.025997  -0.009546  -0.001926   0.004116
     3  C    0.431756  -0.085079  -0.010090  -0.068750   0.020248  -0.023960
     4  C   -0.167187   0.448775   0.344133   0.438937   0.001345   0.012852
     5  C   -0.012578  -0.016621   0.003014  -0.004917   0.409378   0.369075
     6  C    0.007643   0.003926   0.004559  -0.006515   0.000141  -0.001401
     7  H    0.635051  -0.008256  -0.007820   0.000799  -0.003858   0.013532
     8  H   -0.008256   0.453892  -0.041801  -0.018697  -0.003196   0.003452
     9  H   -0.007820  -0.041801   0.559993  -0.037058   0.004404  -0.012814
    10  H    0.000799  -0.018697  -0.037058   0.472044  -0.000145   0.002443
    11  H   -0.003858  -0.003196   0.004404  -0.000145   0.472733  -0.027924
    12  H    0.013532   0.003452  -0.012814   0.002443  -0.027924   0.584381
    13  H   -0.004013   0.000581  -0.007417  -0.001063  -0.030247  -0.075669
    14  H    0.021470   0.000736  -0.000246   0.000193  -0.000161   0.000089
    15  H   -0.003049  -0.000013  -0.000651   0.001100  -0.001877   0.000875
    16  H   -0.000916  -0.000172   0.000583  -0.001188   0.000266   0.000085
              13         14         15         16
     1  O   -0.063365  -0.016569   0.007699   0.004735
     2  O   -0.001429  -0.054870  -0.043078  -0.053737
     3  C    0.013496   0.002361  -0.015923   0.024241
     4  C   -0.033934  -0.014493   0.006542  -0.007752
     5  C    0.414322   0.002401  -0.007881   0.000369
     6  C    0.000929   0.386122   0.402799   0.392138
     7  H   -0.004013   0.021470  -0.003049  -0.000916
     8  H    0.000581   0.000736  -0.000013  -0.000172
     9  H   -0.007417  -0.000246  -0.000651   0.000583
    10  H   -0.001063   0.000193   0.001100  -0.001188
    11  H   -0.030247  -0.000161  -0.001877   0.000266
    12  H   -0.075669   0.000089   0.000875   0.000085
    13  H    0.594737   0.000123  -0.000316  -0.000204
    14  H    0.000123   0.615363  -0.080465  -0.030108
    15  H   -0.000316  -0.080465   0.551393  -0.027539
    16  H   -0.000204  -0.030108  -0.027539   0.493911
 Mulliken charges:
               1
     1  O   -0.086688
     2  O   -0.085742
     3  C   -0.205135
     4  C   -0.787689
     5  C   -0.488361
     6  C   -0.451289
     7  H    0.236655
     8  H    0.278315
     9  H    0.196046
    10  H    0.219110
    11  H    0.213888
    12  H    0.183690
    13  H    0.193471
    14  H    0.168055
    15  H    0.210384
    16  H    0.205290
 Sum of Mulliken charges =  -0.00000
 Mulliken charges with hydrogens summed into heavy atoms:
               1
     1  O   -0.086688
     2  O   -0.085742
     3  C    0.031520
     4  C   -0.094218
     5  C    0.102689
     6  C    0.132440
 Electronic spatial extent (au):  <R**2>=            691.4529
 Charge=              0.0000 electrons
 Dipole moment (field-independent basis, Debye):
    X=              1.2752    Y=             -0.3481    Z=              1.4994  Tot=              1.9989
 Quadrupole moment (field-independent basis, Debye-Ang):
   XX=            -34.3436   YY=            -38.9207   ZZ=            -39.4070
   XY=              1.8057   XZ=             -0.3614   YZ=             -0.2928
 Traceless Quadrupole moment (field-independent basis, Debye-Ang):
   XX=              3.2135   YY=             -1.3636   ZZ=             -1.8499
   XY=              1.8057   XZ=             -0.3614   YZ=             -0.2928
 Octapole moment (field-independent basis, Debye-Ang**2):
  XXX=             -3.0300  YYY=             -1.5162  ZZZ=             -0.4592  XYY=              2.1507
  XXY=             -9.0510  XXZ=             -1.1236  XZZ=             -0.4190  YZZ=             -0.3351
  YYZ=             -1.0702  XYZ=             -1.0619
 Hexadecapole moment (field-independent basis, Debye-Ang**3):
 XXXX=           -530.3929 YYYY=           -277.3325 ZZZZ=            -79.3306 XXXY=             -2.5305
 XXXZ=              2.1851 YYYX=            -10.4676 YYYZ=              3.9230 ZZZX=             -1.0630
 ZZZY=             -1.8249 XXYY=           -138.3394 XXZZ=           -108.7265 YYZZ=            -61.0510
 XXYZ=              1.5552 YYXZ=             -1.5588 ZZXY=             -0.1628
 N-N= 2.668808079720D+02 E-N=-1.255602825550D+03  KE= 3.073807173532D+02
 R6APFD:  NTU= -4 IXU= 1 FactS= 1.050
 Calling FoFJK, ICntrl=      2127 FMM=F ISym2X=0 I1Cent= 0 IOpClX= 0 NMat=1 NMatS=1 NMatT=0.
 ***** Axes restored to original set *****
 -------------------------------------------------------------------
 Center     Atomic                   Forces (Hartrees/Bohr)
 Number     Number              X              Y              Z
 -------------------------------------------------------------------
      1        8           0.009643679    0.000749641    0.007502508
      2        8          -0.026032045    0.012032586    0.007276940
      3        6           0.006685098   -0.012719092   -0.023828122
      4        6           0.004788429   -0.009041326    0.000689424
      5        6           0.008942542    0.005178934   -0.006652276
      6        6          -0.002027364   -0.004389723   -0.005077006
      7        1          -0.000024923    0.006254318    0.006902532
      8        1           0.001456968    0.003616435   -0.000744038
      9        1          -0.000103003    0.001114924    0.002168167
     10        1           0.000811510    0.001305928    0.001633351
     11        1           0.002723426    0.001091591   -0.000277108
     12        1          -0.000980366   -0.002487917    0.004405630
     13        1          -0.002311629   -0.003777693    0.001143523
     14        1          -0.001006400    0.002067314    0.004364531
     15        1          -0.002092908    0.002289444    0.000880827
     16        1          -0.000473014   -0.003285362   -0.000388882
 -------------------------------------------------------------------
 Cartesian Forces:  Max     0.026032045 RMS     0.006952851

 GradGradGradGradGradGradGradGradGradGradGradGradGradGradGradGradGradGrad
 Berny optimization.
 FormGI is forming the generalized inverse of G from B-inverse, IUseBI=4.
 Internal  Forces:  Max     0.032509287 RMS     0.006320590
 Search for a local minimum.
 Step number   1 out of a maximum of   72
 All quantities printed in internal units (Hartrees-Bohrs-Radians)
 Mixed Optimization -- RFO/linear search
 Second derivative matrix not updated -- first step.
 ITU=  0
     Eigenvalues ---    0.00457   0.01248   0.01299   0.01406   0.01413
     Eigenvalues ---    0.05438   0.05645   0.05754   0.06517   0.09078
     Eigenvalues ---    0.10004   0.10117   0.10487   0.10527   0.16000
     Eigenvalues ---    0.16000   0.16000   0.16000   0.16000   0.16000
     Eigenvalues ---    0.16000   0.16000   0.16000   0.18101   0.20501
     Eigenvalues ---    0.25000   0.25000   0.30046   0.34006   0.34127
     Eigenvalues ---    0.34194   0.34297   0.34322   0.34361   0.34366
     Eigenvalues ---    0.34368   0.34417   0.34419   0.40488   0.41034
     Eigenvalues ---    0.42223   0.42294
 RFO step:  Lambda=-1.01814491D-02 EMin= 4.57077055D-03
 Linear search not attempted -- first point.
 Iteration  1 RMS(Cart)=  0.13267802 RMS(Int)=  0.00350016
 Iteration  2 RMS(Cart)=  0.00658973 RMS(Int)=  0.00097978
 Iteration  3 RMS(Cart)=  0.00000846 RMS(Int)=  0.00097975
 Iteration  4 RMS(Cart)=  0.00000000 RMS(Int)=  0.00097975
 Variable       Old X    -DE/DX   Delta X   Delta X   Delta X     New X
                                 (Linear)    (Quad)   (Total)
    R1        2.70172  -0.01114   0.00000  -0.02649  -0.02649   2.67523
    R2        2.68550  -0.00841   0.00000  -0.01941  -0.01941   2.66610
    R3        2.70896  -0.03251   0.00000  -0.07832  -0.07832   2.63064
    R4        2.68640  -0.00569   0.00000  -0.01316  -0.01316   2.67324
    R5        2.87871  -0.00130   0.00000  -0.00419  -0.00419   2.87452
    R6        2.07320   0.00760   0.00000   0.02170   0.02170   2.09490
    R7        2.07116   0.00028   0.00000   0.00081   0.00081   2.07197
    R8        2.06717   0.00092   0.00000   0.00260   0.00260   2.06977
    R9        2.07005  -0.00008   0.00000  -0.00023  -0.00023   2.06981
   R10        2.06713   0.00007   0.00000   0.00020   0.00020   2.06733
   R11        2.06832   0.00467   0.00000   0.01321   0.01321   2.08153
   R12        2.06632   0.00337   0.00000   0.00951   0.00951   2.07582
   R13        2.06790   0.00467   0.00000   0.01323   0.01323   2.08112
   R14        2.06725   0.00214   0.00000   0.00604   0.00604   2.07329
   R15        2.06628   0.00012   0.00000   0.00033   0.00033   2.06661
    A1        1.97205   0.00241   0.00000   0.00925   0.00925   1.98131
    A2        1.95949  -0.00349   0.00000  -0.01341  -0.01341   1.94608
    A3        1.94081  -0.01470   0.00000  -0.08938  -0.09046   1.85035
    A4        1.90734   0.01925   0.00000   0.09990   0.09967   2.00700
    A5        1.92419  -0.00605   0.00000  -0.04057  -0.04497   1.87922
    A6        1.86317   0.00015   0.00000   0.00784   0.00979   1.87295
    A7        1.90054   0.00235   0.00000  -0.00717  -0.00955   1.89100
    A8        1.92702  -0.00091   0.00000   0.03094   0.03049   1.95751
    A9        1.93363  -0.00460   0.00000  -0.02591  -0.02603   1.90760
   A10        1.95974  -0.00145   0.00000  -0.00922  -0.00931   1.95043
   A11        1.93043  -0.00161   0.00000  -0.00990  -0.00999   1.92044
   A12        1.88146   0.00340   0.00000   0.02079   0.02068   1.90213
   A13        1.87286   0.00337   0.00000   0.02113   0.02101   1.89387
   A14        1.88253   0.00137   0.00000   0.00595   0.00588   1.88842
   A15        1.88245  -0.00368   0.00000  -0.01968  -0.01967   1.86278
   A16        1.94401   0.00011   0.00000  -0.00148  -0.00148   1.94253
   A17        1.93611   0.00223   0.00000   0.01315   0.01318   1.94929
   A18        1.88898   0.00157   0.00000   0.00888   0.00886   1.89784
   A19        1.87594   0.00260   0.00000   0.01956   0.01961   1.89555
   A20        1.93367  -0.00276   0.00000  -0.01970  -0.01968   1.91399
   A21        1.93121   0.00076   0.00000   0.00320   0.00320   1.93441
   A22        1.93414   0.00096   0.00000   0.00579   0.00581   1.93995
   A23        1.88868  -0.00446   0.00000  -0.02512  -0.02511   1.86357
   A24        1.92409  -0.00177   0.00000  -0.01241  -0.01240   1.91169
   A25        1.89426   0.00167   0.00000   0.00943   0.00942   1.90369
   A26        1.89019   0.00286   0.00000   0.01939   0.01943   1.90962
    D1        3.09949   0.00658   0.00000   0.11812   0.11442  -3.06927
    D2        1.04708   0.00324   0.00000   0.09990   0.10061   1.14769
    D3       -1.07391  -0.00425   0.00000   0.02265   0.02564  -1.04827
    D4        2.88003  -0.00100   0.00000  -0.01420  -0.01415   2.86589
    D5        0.80959  -0.00069   0.00000  -0.01194  -0.01198   0.79761
    D6       -1.35306   0.00118   0.00000   0.00506   0.00503  -1.34803
    D7        1.06257  -0.01037   0.00000  -0.07087  -0.06962   0.99295
    D8       -3.14158   0.00477   0.00000   0.00472   0.00440  -3.13718
    D9       -1.06105   0.00505   0.00000   0.04194   0.04100  -1.02005
   D10        0.99527  -0.00017   0.00000   0.00155   0.00154   0.99681
   D11       -1.14462   0.00089   0.00000   0.01114   0.01112  -1.13350
   D12        3.06854  -0.00042   0.00000  -0.00045  -0.00042   3.06813
   D13        0.88830  -0.00383   0.00000  -0.03103  -0.03155   0.85675
   D14       -1.21647  -0.00397   0.00000  -0.03316  -0.03369  -1.25016
   D15        2.96282  -0.00360   0.00000  -0.02759  -0.02810   2.93472
   D16       -1.21234   0.00300   0.00000   0.01594   0.01558  -1.19676
   D17        2.96608   0.00286   0.00000   0.01381   0.01344   2.97952
   D18        0.86218   0.00323   0.00000   0.01937   0.01903   0.88122
   D19        3.00758   0.00058   0.00000   0.00320   0.00407   3.01165
   D20        0.90281   0.00045   0.00000   0.00106   0.00193   0.90474
   D21       -1.20108   0.00081   0.00000   0.00663   0.00752  -1.19356
         Item               Value     Threshold  Converged?
 Maximum Force            0.032509     0.000450     NO 
 RMS     Force            0.006321     0.000300     NO 
 Maximum Displacement     0.401540     0.001800     NO 
 RMS     Displacement     0.134426     0.001200     NO 
 Predicted change in Energy=-5.377816D-03
 GradGradGradGradGradGradGradGradGradGradGradGradGradGradGradGradGradGrad

                          Input orientation:                          
 ---------------------------------------------------------------------
 Center     Atomic      Atomic             Coordinates (Angstroms)
 Number     Number       Type             X           Y           Z
 ---------------------------------------------------------------------
      1          8           0       -0.647984    0.705441   -0.320043
      2          8           0        1.296907   -0.402325   -0.179360
      3          6           0       -0.014666   -0.405568    0.287154
      4          6           0       -0.616082   -1.758337   -0.062355
      5          6           0       -1.973412    0.907376    0.119190
      6          6           0        1.945796    0.821823    0.106211
      7          1           0        0.003598   -0.226161    1.380961
      8          1           0       -0.734047   -1.832343   -1.149912
      9          1           0       -1.592285   -1.903456    0.412616
     10          1           0        0.049263   -2.562101    0.270746
     11          1           0       -2.253814    1.921151   -0.181529
     12          1           0       -2.047768    0.830158    1.215459
     13          1           0       -2.668854    0.197812   -0.349354
     14          1           0        1.930343    1.030396    1.187452
     15          1           0        1.477493    1.653678   -0.434548
     16          1           0        2.983313    0.713155   -0.221987
 ---------------------------------------------------------------------
                    Distance matrix (angstroms):
                    1          2          3          4          5
     1  O    0.000000
     2  O    2.242664   0.000000
     3  C    1.415670   1.392073   0.000000
     4  C    2.477423   2.347762   1.521132   0.000000
     5  C    1.410837   3.535454   2.364047   2.996886   0.000000
     6  C    2.631147   1.414619   2.320051   3.639899   3.920163
     7  H    2.045936   2.034277   1.108573   2.194249   2.604907
     8  H    2.671411   2.666776   2.149035   1.096437   3.263848
     9  H    2.869641   3.309269   2.179058   1.095276   2.851689
    10  H    3.392936   2.534530   2.157543   1.095298   4.018887
    11  H    2.018868   4.243368   3.262985   4.029268   1.093983
    12  H    2.081517   3.827713   2.553874   3.222241   1.101498
    13  H    2.083857   4.014514   2.795340   2.850045   1.098478
    14  H    3.004315   2.078968   2.579843   3.977855   4.049151
    15  H    2.330219   2.079635   2.643461   4.020378   3.573841
    16  H    3.632630   2.022394   3.240161   4.369142   4.972248
                    6          7          8          9         10
     6  C    0.000000
     7  H    2.548605   0.000000
     8  H    3.975424   3.086949   0.000000
     9  H    4.476499   2.509552   1.784132   0.000000
    10  H    3.882634   2.586750   1.778874   1.774435   0.000000
    11  H    4.350637   3.485432   4.163673   3.926608   5.060461
    12  H    4.144762   2.313288   3.796018   2.885249   4.098468
    13  H    4.678881   3.211813   2.916487   2.480912   3.922984
    14  H    1.101283   2.308403   4.556042   4.649383   4.157505
    15  H    1.097137   3.000372   4.189868   4.774351   4.506670
    16  H    1.093602   3.511475   4.599931   5.308999   4.424787
                   11         12         13         14         15
    11  H    0.000000
    12  H    1.784460   0.000000
    13  H    1.780540   1.798402   0.000000
    14  H    4.491628   3.983246   4.920120   0.000000
    15  H    3.749428   3.978464   4.395338   1.795673   0.000000
    16  H    5.374793   5.233710   5.677041   1.787711   1.788089
                   16
    16  H    0.000000
 Stoichiometry    C4H10O2
 Framework group  C1[X(C4H10O2)]
 Deg. of freedom    42
 Full point group                 C1      NOp   1
 Largest Abelian subgroup         C1      NOp   1
 Largest concise Abelian subgroup C1      NOp   1
                         Standard orientation:                         
 ---------------------------------------------------------------------
 Center     Atomic      Atomic             Coordinates (Angstroms)
 Number     Number       Type             X           Y           Z
 ---------------------------------------------------------------------
      1          8           0        0.585594   -0.729034   -0.355014
      2          8           0       -1.311771    0.454356   -0.184334
      3          6           0       -0.000945    0.391994    0.280115
      4          6           0        0.655695    1.726913   -0.037152
      5          6           0        1.901769   -0.996241    0.077128
      6          6           0       -2.010559   -0.748564    0.072231
      7          1           0       -0.026044    0.186775    1.369239
      8          1           0        0.776056    1.822580   -1.122756
      9          1           0        1.637307    1.819910    0.439731
     10          1           0        0.024315    2.549082    0.316506
     11          1           0        2.139871   -2.013070   -0.248702
     12          1           0        1.979819   -0.949018    1.174841
     13          1           0        2.625705   -0.304756   -0.375001
     14          1           0       -2.003182   -0.984000    1.148028
     15          1           0       -1.577321   -1.585569   -0.489408
     16          1           0       -3.042867   -0.589127   -0.251628
 ---------------------------------------------------------------------
 Rotational constants (GHZ):           5.0339852           2.8849144           1.9818400
 Standard basis: 6-311++G(d,p) (5D, 7F)
 There are   208 symmetry adapted cartesian basis functions of A   symmetry.
 There are   202 symmetry adapted basis functions of A   symmetry.
   202 basis functions,   306 primitive gaussians,   208 cartesian basis functions
    25 alpha electrons       25 beta electrons
       nuclear repulsion energy       269.9546835046 Hartrees.
 NAtoms=   16 NActive=   16 NUniq=   16 SFac= 1.00D+00 NAtFMM=   60 NAOKFM=F Big=F
 Integral buffers will be    131072 words long.
 Raffenetti 2 integral format.
 Two-electron integral symmetry is turned on.
 R6APFD:  NTU= -4 IXU= 1 FactS= 1.050
 Nuclear repulsion after empirical dispersion term =      269.9465937973 Hartrees.
 One-electron integrals computed using PRISM.
 NBasis=   202 RedAO= T EigKep=  4.56D-05  NBF=   202
 NBsUse=   202 1.00D-06 EigRej= -1.00D+00 NBFU=   202
 Initial guess from the checkpoint file:  "DMXE0102.chk"
 B after Tr=    -0.000000    0.000000   -0.000000
         Rot=    0.999990   -0.002900   -0.001857   -0.002747 Ang=  -0.50 deg.
 ExpMin= 3.60D-02 ExpMax= 8.59D+03 ExpMxC= 1.30D+03 IAcc=3 IRadAn=         5 AccDes= 0.00D+00
 Harris functional with IExCor= 1009 and IRadAn=       5 diagonalized for initial guess.
 HarFok:  IExCor= 1009 AccDes= 0.00D+00 IRadAn=         5 IDoV= 1 UseB2=F ITyADJ=14
 ICtDFT=  3500011 ScaDFX=  1.000000  1.000000  1.000000  1.000000
 FoFCou: FMM=F IPFlag=           0 FMFlag=      100000 FMFlg1=           0
         NFxFlg=           0 DoJE=T BraDBF=F KetDBF=T FulRan=T
         wScrn=  0.000000 ICntrl=       500 IOpCl=  0 I1Cent=   200000004 NGrid=           0
         NMat0=    1 NMatS0=      1 NMatT0=    0 NMatD0=    1 NMtDS0=    0 NMtDT0=    0
 Petite list used in FoFCou.
 Requested convergence on RMS density matrix=1.00D-08 within  32 cycles.
 Requested convergence on MAX density matrix=1.00D-06.
 Requested convergence on             energy=1.00D-06.
 No special actions if energy rises.
 SCF Done:  E(RM08HX) =  -308.862807490     A.U. after   11 cycles
            NFock= 11  Conv=0.42D-08     -V/T= 2.0044
 QCSCF skips out because SCF is already converged.
 R6APFD:  NTU= -4 IXU= 1 FactS= 1.050
 Calling FoFJK, ICntrl=      2127 FMM=F ISym2X=0 I1Cent= 0 IOpClX= 0 NMat=1 NMatS=1 NMatT=0.
 ***** Axes restored to original set *****
 -------------------------------------------------------------------
 Center     Atomic                   Forces (Hartrees/Bohr)
 Number     Number              X              Y              Z
 -------------------------------------------------------------------
      1        8          -0.010632250   -0.005648349    0.002224950
      2        8           0.000041027    0.000856366    0.002362399
      3        6           0.009863656    0.001210971   -0.005949787
      4        6          -0.003203439    0.001856887   -0.001156339
      5        6           0.003934643    0.002821756   -0.002501468
      6        6           0.005245448   -0.001092297   -0.003673471
      7        1          -0.003412244   -0.000817826    0.003197540
      8        1           0.000256519    0.000592685    0.000085208
      9        1          -0.000824526    0.000872687    0.000034389
     10        1           0.000635609    0.001970226    0.000784190
     11        1          -0.000972905   -0.000167576    0.000400341
     12        1          -0.000513330   -0.000702397    0.000638550
     13        1          -0.000683362   -0.001714196    0.000882430
     14        1          -0.000675439    0.000414925    0.000786768
     15        1           0.000835879   -0.000359143    0.001241891
     16        1           0.000104714   -0.000094718    0.000642409
 -------------------------------------------------------------------
 Cartesian Forces:  Max     0.010632250 RMS     0.002948027

 GradGradGradGradGradGradGradGradGradGradGradGradGradGradGradGradGradGrad
 Berny optimization.
 Using GEDIIS/GDIIS optimizer.
 FormGI is forming the generalized inverse of G from B-inverse, IUseBI=4.
 Internal  Forces:  Max     0.014068714 RMS     0.003237872
 Search for a local minimum.
 Step number   2 out of a maximum of   72
 All quantities printed in internal units (Hartrees-Bohrs-Radians)
 Mixed Optimization -- RFO/linear search
 Update second derivatives using D2CorX and points    1    2
 DE= -3.44D-03 DEPred=-5.38D-03 R= 6.39D-01
 TightC=F SS=  1.41D+00  RLast= 2.63D-01 DXNew= 5.0454D-01 7.8833D-01
 Trust test= 6.39D-01 RLast= 2.63D-01 DXMaxT set to 5.05D-01
 ITU=  1  0
 Use linear search instead of GDIIS.
     Eigenvalues ---    0.00457   0.01237   0.01319   0.01408   0.01420
     Eigenvalues ---    0.05235   0.05578   0.05818   0.06208   0.09835
     Eigenvalues ---    0.10103   0.10455   0.10563   0.10597   0.15370
     Eigenvalues ---    0.16000   0.16000   0.16000   0.16000   0.16000
     Eigenvalues ---    0.16000   0.16000   0.16078   0.20096   0.21725
     Eigenvalues ---    0.24980   0.29173   0.30079   0.33363   0.34128
     Eigenvalues ---    0.34188   0.34258   0.34310   0.34363   0.34368
     Eigenvalues ---    0.34400   0.34419   0.34448   0.40604   0.41775
     Eigenvalues ---    0.42147   0.43496
 RFO step:  Lambda=-1.69952292D-03 EMin= 4.57499946D-03
 Quartic linear search produced a step of -0.25008.
 Iteration  1 RMS(Cart)=  0.07110026 RMS(Int)=  0.00220124
 Iteration  2 RMS(Cart)=  0.00275250 RMS(Int)=  0.00019440
 Iteration  3 RMS(Cart)=  0.00000359 RMS(Int)=  0.00019439
 Iteration  4 RMS(Cart)=  0.00000000 RMS(Int)=  0.00019439
 Variable       Old X    -DE/DX   Delta X   Delta X   Delta X     New X
                                 (Linear)    (Quad)   (Total)
    R1        2.67523  -0.00098   0.00662  -0.01287  -0.00625   2.66898
    R2        2.66610  -0.00181   0.00485  -0.01129  -0.00644   2.65966
    R3        2.63064   0.00477   0.01959  -0.02403  -0.00444   2.62620
    R4        2.67324   0.00135   0.00329  -0.00313   0.00017   2.67341
    R5        2.87452  -0.00341   0.00105  -0.01020  -0.00916   2.86537
    R6        2.09490   0.00297  -0.00543   0.01563   0.01020   2.10510
    R7        2.07197  -0.00015  -0.00020   0.00001  -0.00019   2.07177
    R8        2.06977   0.00063  -0.00065   0.00246   0.00182   2.07159
    R9        2.06981  -0.00082   0.00006  -0.00188  -0.00183   2.06799
   R10        2.06733  -0.00002  -0.00005   0.00005  -0.00000   2.06733
   R11        2.08153   0.00072  -0.00330   0.00712   0.00382   2.08535
   R12        2.07582   0.00116  -0.00238   0.00652   0.00414   2.07996
   R13        2.08112   0.00086  -0.00331   0.00744   0.00413   2.08525
   R14        2.07329  -0.00124  -0.00151  -0.00015  -0.00166   2.07163
   R15        2.06661  -0.00008  -0.00008  -0.00005  -0.00013   2.06648
    A1        1.98131  -0.00206  -0.00231  -0.00217  -0.00448   1.97682
    A2        1.94608   0.01407   0.00335   0.03605   0.03941   1.98549
    A3        1.85035   0.01058   0.02262   0.01487   0.03783   1.88818
    A4        2.00700  -0.01067  -0.02492  -0.00064  -0.02583   1.98117
    A5        1.87922   0.00202   0.01125  -0.02285  -0.01133   1.86789
    A6        1.87295  -0.00180  -0.00245   0.00348   0.00080   1.87375
    A7        1.89100   0.00037   0.00239   0.01368   0.01667   1.90767
    A8        1.95751   0.00056  -0.00762  -0.00572  -0.01366   1.94385
    A9        1.90760  -0.00032   0.00651  -0.01260  -0.00609   1.90151
   A10        1.95043  -0.00047   0.00233  -0.00633  -0.00400   1.94643
   A11        1.92044  -0.00263   0.00250  -0.01692  -0.01444   1.90600
   A12        1.90213   0.00050  -0.00517   0.01192   0.00678   1.90891
   A13        1.89387   0.00145  -0.00525   0.01594   0.01067   1.90454
   A14        1.88842   0.00158  -0.00147   0.00915   0.00765   1.89607
   A15        1.86278   0.00217   0.00492   0.00362   0.00851   1.87129
   A16        1.94253  -0.00025   0.00037  -0.00322  -0.00288   1.93965
   A17        1.94929  -0.00023  -0.00330   0.00385   0.00051   1.94980
   A18        1.89784  -0.00024  -0.00222   0.00437   0.00214   1.89998
   A19        1.89555   0.00018  -0.00490   0.01218   0.00723   1.90278
   A20        1.91399  -0.00152   0.00492  -0.01951  -0.01463   1.89936
   A21        1.93441  -0.00073  -0.00080  -0.00288  -0.00368   1.93073
   A22        1.93995   0.00130  -0.00145   0.00875   0.00729   1.94724
   A23        1.86357   0.00028   0.00628  -0.00901  -0.00274   1.86082
   A24        1.91169  -0.00087   0.00310  -0.01069  -0.00759   1.90410
   A25        1.90369  -0.00009  -0.00236   0.00325   0.00088   1.90457
   A26        1.90962   0.00012  -0.00486   0.01095   0.00607   1.91569
    D1       -3.06927  -0.00231  -0.02861   0.07621   0.04838  -3.02089
    D2        1.14769  -0.00114  -0.02516   0.06205   0.03701   1.18470
    D3       -1.04827   0.00428  -0.00641   0.08847   0.08116  -0.96711
    D4        2.86589   0.00044   0.00354   0.01987   0.02338   2.88927
    D5        0.79761  -0.00044   0.00300   0.01418   0.01720   0.81482
    D6       -1.34803   0.00188  -0.00126   0.03903   0.03778  -1.31025
    D7        0.99295   0.00658   0.01741   0.06122   0.07848   1.07144
    D8       -3.13718  -0.00108  -0.00110   0.07074   0.06981  -3.06737
    D9       -1.02005  -0.00124  -0.01025   0.07366   0.06338  -0.95666
   D10        0.99681  -0.00076  -0.00039  -0.02918  -0.02957   0.96724
   D11       -1.13350  -0.00004  -0.00278  -0.01959  -0.02236  -1.15586
   D12        3.06813  -0.00110   0.00010  -0.03226  -0.03216   3.03596
   D13        0.85675   0.00391   0.00789   0.04171   0.04957   0.90632
   D14       -1.25016   0.00381   0.00843   0.03929   0.04771  -1.20245
   D15        2.93472   0.00390   0.00703   0.04330   0.05031   2.98503
   D16       -1.19676  -0.00175  -0.00390   0.02104   0.01723  -1.17953
   D17        2.97952  -0.00185  -0.00336   0.01862   0.01537   2.99489
   D18        0.88122  -0.00176  -0.00476   0.02264   0.01797   0.89919
   D19        3.01165  -0.00138  -0.00102   0.00537   0.00426   3.01592
   D20        0.90474  -0.00148  -0.00048   0.00295   0.00241   0.90715
   D21       -1.19356  -0.00139  -0.00188   0.00697   0.00501  -1.18855
         Item               Value     Threshold  Converged?
 Maximum Force            0.014069     0.000450     NO 
 RMS     Force            0.003238     0.000300     NO 
 Maximum Displacement     0.205990     0.001800     NO 
 RMS     Displacement     0.070517     0.001200     NO 
 Predicted change in Energy=-1.320011D-03
 GradGradGradGradGradGradGradGradGradGradGradGradGradGradGradGradGradGrad

                          Input orientation:                          
 ---------------------------------------------------------------------
 Center     Atomic      Atomic             Coordinates (Angstroms)
 Number     Number       Type             X           Y           Z
 ---------------------------------------------------------------------
      1          8           0       -0.710598    0.695414   -0.369466
      2          8           0        1.286072   -0.371224   -0.205691
      3          6           0       -0.027594   -0.375725    0.247737
      4          6           0       -0.614129   -1.735370   -0.078559
      5          6           0       -2.012324    0.886389    0.130430
      6          6           0        1.996161    0.809243    0.116283
      7          1           0       -0.039217   -0.181151    1.344521
      8          1           0       -0.702544   -1.833049   -1.166949
      9          1           0       -1.601047   -1.868126    0.379811
     10          1           0        0.054289   -2.515613    0.298268
     11          1           0       -2.348772    1.870168   -0.209833
     12          1           0       -2.021472    0.868175    1.233759
     13          1           0       -2.708541    0.120138   -0.243220
     14          1           0        1.968970    0.994774    1.203703
     15          1           0        1.586498    1.681286   -0.406695
     16          1           0        3.032048    0.645371   -0.193398
 ---------------------------------------------------------------------
                    Distance matrix (angstroms):
                    1          2          3          4          5
     1  O    0.000000
     2  O    2.269632   0.000000
     3  C    1.412364   1.389725   0.000000
     4  C    2.450030   2.342610   1.516287   0.000000
     5  C    1.407429   3.545981   2.354962   2.978631   0.000000
     6  C    2.752353   1.414706   2.348832   3.650566   4.009252
     7  H    2.038840   2.048335   1.113971   2.184326   2.550845
     8  H    2.651258   2.648687   2.140254   1.096335   3.285431
     9  H    2.815325   3.304388   2.172661   1.096236   2.796192
    10  H    3.367731   2.523821   2.142050   1.094331   3.984052
    11  H    2.022164   4.270357   3.262097   4.003264   1.093983
    12  H    2.078116   3.814181   2.548544   3.237475   1.103518
    13  H    2.082945   4.024895   2.770270   2.802960   1.100669
    14  H    3.121628   2.078146   2.603538   3.971182   4.124847
    15  H    2.499996   2.084096   2.695343   4.077251   3.724498
    16  H    3.747119   2.020408   3.255556   4.356113   5.060498
                    6          7          8          9         10
     6  C    0.000000
     7  H    2.575308   0.000000
     8  H    3.988909   3.078352   0.000000
     9  H    4.491954   2.493163   1.789135   0.000000
    10  H    3.854692   2.559903   1.784811   1.779332   0.000000
    11  H    4.484457   3.458030   4.164127   3.857670   5.026723
    12  H    4.170563   2.245593   3.847023   2.897124   4.078474
    13  H    4.768472   3.120415   2.948260   2.359641   3.856633
    14  H    1.103469   2.331404   4.555607   4.649732   4.099833
    15  H    1.096261   3.029584   4.262423   4.835014   4.523118
    16  H    1.093535   3.532846   4.586670   5.302056   4.370424
                   11         12         13         14         15
    11  H    0.000000
    12  H    1.787477   0.000000
    13  H    1.786939   1.792509   0.000000
    14  H    4.626803   3.992563   4.973699   0.000000
    15  H    3.944716   4.045947   4.572884   1.791917   0.000000
    16  H    5.518480   5.255900   5.764782   1.790002   1.791153
                   16
    16  H    0.000000
 Stoichiometry    C4H10O2
 Framework group  C1[X(C4H10O2)]
 Deg. of freedom    42
 Full point group                 C1      NOp   1
 Largest Abelian subgroup         C1      NOp   1
 Largest concise Abelian subgroup C1      NOp   1
                         Standard orientation:                         
 ---------------------------------------------------------------------
 Center     Atomic      Atomic             Coordinates (Angstroms)
 Number     Number       Type             X           Y           Z
 ---------------------------------------------------------------------
      1          8           0        0.640548   -0.710449   -0.395881
      2          8           0       -1.312825    0.427659   -0.195199
      3          6           0       -0.000419    0.365147    0.257592
      4          6           0        0.639386    1.710978   -0.022610
      5          6           0        1.933299   -0.969281    0.096721
      6          6           0       -2.069044   -0.734234    0.086814
      7          1           0        0.002528    0.133168    1.347137
      8          1           0        0.732584    1.841976   -1.107094
      9          1           0        1.630329    1.789220    0.439605
     10          1           0        0.001788    2.503652    0.380748
     11          1           0        2.231153   -1.953412   -0.276867
     12          1           0        1.942128   -0.988884    1.200030
     13          1           0        2.659432   -0.218747   -0.250989
     14          1           0       -2.050177   -0.957476    1.167300
     15          1           0       -1.693473   -1.603458   -0.465622
     16          1           0       -3.097404   -0.519369   -0.216710
 ---------------------------------------------------------------------
 Rotational constants (GHZ):           5.1747235           2.7766384           1.9566313
 Standard basis: 6-311++G(d,p) (5D, 7F)
 There are   208 symmetry adapted cartesian basis functions of A   symmetry.
 There are   202 symmetry adapted basis functions of A   symmetry.
   202 basis functions,   306 primitive gaussians,   208 cartesian basis functions
    25 alpha electrons       25 beta electrons
       nuclear repulsion energy       269.2323562120 Hartrees.
 NAtoms=   16 NActive=   16 NUniq=   16 SFac= 1.00D+00 NAtFMM=   60 NAOKFM=F Big=F
 Integral buffers will be    131072 words long.
 Raffenetti 2 integral format.
 Two-electron integral symmetry is turned on.
 R6APFD:  NTU= -4 IXU= 1 FactS= 1.050
 Nuclear repulsion after empirical dispersion term =      269.2242566127 Hartrees.
 One-electron integrals computed using PRISM.
 NBasis=   202 RedAO= T EigKep=  4.48D-05  NBF=   202
 NBsUse=   202 1.00D-06 EigRej= -1.00D+00 NBFU=   202
 Initial guess from the checkpoint file:  "DMXE0102.chk"
 B after Tr=    -0.000000   -0.000000   -0.000000
         Rot=    0.999989   -0.003545    0.001459   -0.002875 Ang=  -0.55 deg.
 ExpMin= 3.60D-02 ExpMax= 8.59D+03 ExpMxC= 1.30D+03 IAcc=3 IRadAn=         5 AccDes= 0.00D+00
 Harris functional with IExCor= 1009 and IRadAn=       5 diagonalized for initial guess.
 HarFok:  IExCor= 1009 AccDes= 0.00D+00 IRadAn=         5 IDoV= 1 UseB2=F ITyADJ=14
 ICtDFT=  3500011 ScaDFX=  1.000000  1.000000  1.000000  1.000000
 FoFCou: FMM=F IPFlag=           0 FMFlag=      100000 FMFlg1=           0
         NFxFlg=           0 DoJE=T BraDBF=F KetDBF=T FulRan=T
         wScrn=  0.000000 ICntrl=       500 IOpCl=  0 I1Cent=   200000004 NGrid=           0
         NMat0=    1 NMatS0=      1 NMatT0=    0 NMatD0=    1 NMtDS0=    0 NMtDT0=    0
 Petite list used in FoFCou.
 Requested convergence on RMS density matrix=1.00D-08 within  32 cycles.
 Requested convergence on MAX density matrix=1.00D-06.
 Requested convergence on             energy=1.00D-06.
 No special actions if energy rises.
 SCF Done:  E(RM08HX) =  -308.864003947     A.U. after   10 cycles
            NFock= 10  Conv=0.86D-08     -V/T= 2.0045
 QCSCF skips out because SCF is already converged.
 R6APFD:  NTU= -4 IXU= 1 FactS= 1.050
 Calling FoFJK, ICntrl=      2127 FMM=F ISym2X=0 I1Cent= 0 IOpClX= 0 NMat=1 NMatS=1 NMatT=0.
 ***** Axes restored to original set *****
 -------------------------------------------------------------------
 Center     Atomic                   Forces (Hartrees/Bohr)
 Number     Number              X              Y              Z
 -------------------------------------------------------------------
      1        8          -0.001832036    0.000045671   -0.001045983
      2        8          -0.000966135    0.000788399    0.000069624
      3        6           0.005466702    0.001683711    0.001460000
      4        6          -0.001417618   -0.000476747   -0.000563759
      5        6           0.001460538    0.000754598   -0.000572270
      6        6          -0.000374393   -0.001848605    0.000486470
      7        1          -0.000239843   -0.001121020    0.000549966
      8        1          -0.000024147   -0.000323818    0.000262395
      9        1           0.000206599    0.000205959   -0.000518159
     10        1          -0.000261683   -0.000092843    0.000043603
     11        1          -0.000506464   -0.000549614    0.000135109
     12        1          -0.000323805    0.000090214   -0.000071815
     13        1          -0.000213472    0.000206529    0.000330203
     14        1          -0.000117209    0.000052350   -0.000517240
     15        1          -0.000614252    0.000070990   -0.000297405
     16        1          -0.000242781    0.000514226    0.000249263
 -------------------------------------------------------------------
 Cartesian Forces:  Max     0.005466702 RMS     0.001065547

 GradGradGradGradGradGradGradGradGradGradGradGradGradGradGradGradGradGrad
 Berny optimization.
 Using GEDIIS/GDIIS optimizer.
 FormGI is forming the generalized inverse of G from B-inverse, IUseBI=4.
 Internal  Forces:  Max     0.003265894 RMS     0.000799238
 Search for a local minimum.
 Step number   3 out of a maximum of   72
 All quantities printed in internal units (Hartrees-Bohrs-Radians)
 Mixed Optimization -- En-DIIS/RFO-DIIS
 Update second derivatives using D2CorX and points    1    2    3
 DE= -1.20D-03 DEPred=-1.32D-03 R= 9.06D-01
 TightC=F SS=  1.41D+00  RLast= 2.09D-01 DXNew= 8.4853D-01 6.2791D-01
 Trust test= 9.06D-01 RLast= 2.09D-01 DXMaxT set to 6.28D-01
 ITU=  1  1  0
 Use linear search instead of GDIIS.
     Eigenvalues ---    0.00446   0.01127   0.01353   0.01413   0.01441
     Eigenvalues ---    0.05334   0.05653   0.05915   0.06287   0.09751
     Eigenvalues ---    0.10075   0.10151   0.10515   0.10609   0.15469
     Eigenvalues ---    0.16000   0.16000   0.16000   0.16000   0.16000
     Eigenvalues ---    0.16000   0.16068   0.16241   0.20416   0.22262
     Eigenvalues ---    0.24949   0.28982   0.30654   0.33372   0.34130
     Eigenvalues ---    0.34189   0.34272   0.34322   0.34364   0.34376
     Eigenvalues ---    0.34397   0.34419   0.34577   0.40707   0.41916
     Eigenvalues ---    0.42098   0.46778
 RFO step:  Lambda=-2.57702454D-04 EMin= 4.45545547D-03
 Quartic linear search produced a step of -0.02289.
 Iteration  1 RMS(Cart)=  0.03110618 RMS(Int)=  0.00048581
 Iteration  2 RMS(Cart)=  0.00053650 RMS(Int)=  0.00001115
 Iteration  3 RMS(Cart)=  0.00000014 RMS(Int)=  0.00001115
 Variable       Old X    -DE/DX   Delta X   Delta X   Delta X     New X
                                 (Linear)    (Quad)   (Total)
    R1        2.66898   0.00164   0.00014   0.00240   0.00254   2.67153
    R2        2.65966  -0.00038   0.00015  -0.00219  -0.00204   2.65761
    R3        2.62620  -0.00219   0.00010  -0.00717  -0.00707   2.61913
    R4        2.67341  -0.00170  -0.00000  -0.00406  -0.00406   2.66935
    R5        2.86537   0.00136   0.00021   0.00284   0.00305   2.86842
    R6        2.10510   0.00035  -0.00023   0.00292   0.00269   2.10779
    R7        2.07177  -0.00023   0.00000  -0.00066  -0.00066   2.07112
    R8        2.07159  -0.00043  -0.00004  -0.00086  -0.00090   2.07068
    R9        2.06799  -0.00008   0.00004  -0.00050  -0.00046   2.06752
   R10        2.06733  -0.00038   0.00000  -0.00105  -0.00105   2.06627
   R11        2.08535  -0.00007  -0.00009   0.00061   0.00053   2.08587
   R12        2.07996  -0.00012  -0.00009   0.00047   0.00037   2.08034
   R13        2.08525  -0.00050  -0.00009  -0.00052  -0.00062   2.08464
   R14        2.07163   0.00043   0.00004   0.00104   0.00107   2.07271
   R15        2.06648  -0.00038   0.00000  -0.00106  -0.00106   2.06542
    A1        1.97682   0.00074   0.00010   0.00227   0.00238   1.97920
    A2        1.98549  -0.00327  -0.00090  -0.00662  -0.00752   1.97797
    A3        1.88818  -0.00024  -0.00087   0.00162   0.00076   1.88894
    A4        1.98117  -0.00184   0.00059  -0.01333  -0.01275   1.96842
    A5        1.86789   0.00119   0.00026   0.00491   0.00513   1.87302
    A6        1.87375   0.00145  -0.00002   0.00563   0.00561   1.87936
    A7        1.90767  -0.00005  -0.00038   0.00755   0.00716   1.91483
    A8        1.94385  -0.00050   0.00031  -0.00557  -0.00528   1.93857
    A9        1.90151   0.00043   0.00014   0.00102   0.00116   1.90267
   A10        1.94643  -0.00015   0.00009  -0.00204  -0.00195   1.94448
   A11        1.90600   0.00029   0.00033  -0.00018   0.00015   1.90615
   A12        1.90891  -0.00027  -0.00016  -0.00118  -0.00134   1.90757
   A13        1.90454  -0.00026  -0.00024   0.00117   0.00093   1.90547
   A14        1.89607  -0.00005  -0.00018   0.00128   0.00110   1.89717
   A15        1.87129   0.00073  -0.00019   0.00547   0.00527   1.87657
   A16        1.93965   0.00030   0.00007   0.00136   0.00142   1.94108
   A17        1.94980   0.00033  -0.00001   0.00205   0.00204   1.95184
   A18        1.89998  -0.00032  -0.00005  -0.00097  -0.00103   1.89895
   A19        1.90278  -0.00060  -0.00017  -0.00228  -0.00245   1.90033
   A20        1.89936  -0.00046   0.00033  -0.00561  -0.00528   1.89408
   A21        1.93073   0.00006   0.00008  -0.00036  -0.00029   1.93044
   A22        1.94724  -0.00103  -0.00017  -0.00553  -0.00570   1.94154
   A23        1.86082   0.00102   0.00006   0.00598   0.00605   1.86687
   A24        1.90410  -0.00001   0.00017  -0.00282  -0.00265   1.90144
   A25        1.90457  -0.00007  -0.00002   0.00110   0.00107   1.90565
   A26        1.91569   0.00006  -0.00014   0.00195   0.00182   1.91751
    D1       -3.02089   0.00038  -0.00111   0.03042   0.02932  -2.99158
    D2        1.18470  -0.00015  -0.00085   0.03050   0.02963   1.21432
    D3       -0.96711   0.00083  -0.00186   0.04273   0.04089  -0.92622
    D4        2.88927   0.00039  -0.00054   0.02325   0.02271   2.91198
    D5        0.81482   0.00017  -0.00039   0.02030   0.01990   0.83472
    D6       -1.31025   0.00031  -0.00086   0.02511   0.02425  -1.28600
    D7        1.07144   0.00058  -0.00180  -0.00799  -0.00978   1.06166
    D8       -3.06737  -0.00091  -0.00160  -0.01975  -0.02137  -3.08875
    D9       -0.95666  -0.00068  -0.00145  -0.01878  -0.02022  -0.97688
   D10        0.96724  -0.00041   0.00068  -0.00820  -0.00752   0.95972
   D11       -1.15586   0.00026   0.00051  -0.00057  -0.00007  -1.15592
   D12        3.03596   0.00014   0.00074  -0.00354  -0.00279   3.03317
   D13        0.90632  -0.00004  -0.00113   0.03181   0.03066   0.93697
   D14       -1.20245   0.00011  -0.00109   0.03391   0.03280  -1.16965
   D15        2.98503   0.00007  -0.00115   0.03372   0.03255   3.01759
   D16       -1.17953   0.00039  -0.00039   0.03405   0.03366  -1.14587
   D17        2.99489   0.00053  -0.00035   0.03615   0.03580   3.03069
   D18        0.89919   0.00050  -0.00041   0.03597   0.03555   0.93474
   D19        3.01592  -0.00017  -0.00010   0.02455   0.02447   3.04038
   D20        0.90715  -0.00002  -0.00006   0.02664   0.02661   0.93376
   D21       -1.18855  -0.00006  -0.00011   0.02646   0.02636  -1.16219
         Item               Value     Threshold  Converged?
 Maximum Force            0.003266     0.000450     NO 
 RMS     Force            0.000799     0.000300     NO 
 Maximum Displacement     0.107246     0.001800     NO 
 RMS     Displacement     0.031151     0.001200     NO 
 Predicted change in Energy=-1.338289D-04
 GradGradGradGradGradGradGradGradGradGradGradGradGradGradGradGradGradGrad

                          Input orientation:                          
 ---------------------------------------------------------------------
 Center     Atomic      Atomic             Coordinates (Angstroms)
 Number     Number       Type             X           Y           Z
 ---------------------------------------------------------------------
      1          8           0       -0.705681    0.681642   -0.375981
      2          8           0        1.292080   -0.378238   -0.200076
      3          6           0       -0.020028   -0.386639    0.246298
      4          6           0       -0.613322   -1.742246   -0.091874
      5          6           0       -1.995838    0.894306    0.141788
      6          6           0        1.982955    0.812543    0.116233
      7          1           0       -0.044528   -0.201180    1.345894
      8          1           0       -0.667997   -1.846327   -1.181537
      9          1           0       -1.616519   -1.857228    0.333636
     10          1           0        0.031362   -2.528399    0.312319
     11          1           0       -2.342142    1.864239   -0.225473
     12          1           0       -1.984958    0.914996    1.245336
     13          1           0       -2.702093    0.116259   -0.186468
     14          1           0        1.938312    1.010988    1.200460
     15          1           0        1.561392    1.671123   -0.420572
     16          1           0        3.024804    0.664862   -0.179286
 ---------------------------------------------------------------------
                    Distance matrix (angstroms):
                    1          2          3          4          5
     1  O    0.000000
     2  O    2.268335   0.000000
     3  C    1.413710   1.385983   0.000000
     4  C    2.442229   2.345801   1.517903   0.000000
     5  C    1.406348   3.542124   2.357025   2.986194   0.000000
     6  C    2.736453   1.412558   2.338139   3.648412   3.979714
     7  H    2.044836   2.051315   1.115395   2.183023   2.541175
     8  H    2.653483   2.638267   2.142257   1.095987   3.320454
     9  H    2.789094   3.306389   2.172336   1.095757   2.784175
    10  H    3.364722   2.544631   2.143394   1.094086   3.981649
    11  H    2.024646   4.270471   3.268216   4.001676   1.093425
    12  H    2.078382   3.807972   2.559938   3.275737   1.103796
    13  H    2.083563   4.024691   2.762909   2.797491   1.100866
    14  H    3.095858   2.075829   2.588219   3.970045   4.075774
    15  H    2.474001   2.078709   2.679550   4.060605   3.684234
    16  H    3.735705   2.022578   3.249273   4.363229   5.036127
                    6          7          8          9         10
     6  C    0.000000
     7  H    2.578834   0.000000
     8  H    3.972574   3.079469   0.000000
     9  H    4.486775   2.497662   1.787613   0.000000
    10  H    3.874152   2.547545   1.784917   1.779448   0.000000
    11  H    4.464223   3.466148   4.181521   3.832552   5.021754
    12  H    4.126706   2.240810   3.904997   2.941458   4.097931
    13  H    4.746168   3.084081   2.996573   2.311629   3.835985
    14  H    1.103142   2.328552   4.542137   4.649179   4.117343
    15  H    1.096829   3.033958   4.233403   4.808036   4.529250
    16  H    1.092974   3.535110   4.576829   5.307156   4.404462
                   11         12         13         14         15
    11  H    0.000000
    12  H    1.786595   0.000000
    13  H    1.785084   1.789505   0.000000
    14  H    4.591689   3.924701   4.925187   0.000000
    15  H    3.913174   3.990436   4.544196   1.790417   0.000000
    16  H    5.499523   5.214387   5.753118   1.789963   1.792305
                   16
    16  H    0.000000
 Stoichiometry    C4H10O2
 Framework group  C1[X(C4H10O2)]
 Deg. of freedom    42
 Full point group                 C1      NOp   1
 Largest Abelian subgroup         C1      NOp   1
 Largest concise Abelian subgroup C1      NOp   1
                         Standard orientation:                         
 ---------------------------------------------------------------------
 Center     Atomic      Atomic             Coordinates (Angstroms)
 Number     Number       Type             X           Y           Z
 ---------------------------------------------------------------------
      1          8           0        0.638100   -0.697541   -0.406771
      2          8           0       -1.315962    0.432868   -0.185052
      3          6           0       -0.004625    0.370978    0.259374
      4          6           0        0.642156    1.714557   -0.024347
      5          6           0        1.918701   -0.982166    0.100047
      6          6           0       -2.053689   -0.741386    0.083659
      7          1           0        0.012314    0.140170    1.350495
      8          1           0        0.701093    1.860569   -1.108964
      9          1           0        1.649068    1.772200    0.404012
     10          1           0        0.029183    2.508636    0.412376
     11          1           0        2.226217   -1.949372   -0.306801
     12          1           0        1.906839   -1.047227    1.201859
     13          1           0        2.655386   -0.220105   -0.197382
     14          1           0       -2.017138   -0.985335    1.158868
     15          1           0       -1.666520   -1.593521   -0.488181
     16          1           0       -3.088798   -0.540535   -0.204094
 ---------------------------------------------------------------------
 Rotational constants (GHZ):           5.1387991           2.8021706           1.9654760
 Standard basis: 6-311++G(d,p) (5D, 7F)
 There are   208 symmetry adapted cartesian basis functions of A   symmetry.
 There are   202 symmetry adapted basis functions of A   symmetry.
   202 basis functions,   306 primitive gaussians,   208 cartesian basis functions
    25 alpha electrons       25 beta electrons
       nuclear repulsion energy       269.5150126225 Hartrees.
 NAtoms=   16 NActive=   16 NUniq=   16 SFac= 1.00D+00 NAtFMM=   60 NAOKFM=F Big=F
 Integral buffers will be    131072 words long.
 Raffenetti 2 integral format.
 Two-electron integral symmetry is turned on.
 R6APFD:  NTU= -4 IXU= 1 FactS= 1.050
 Nuclear repulsion after empirical dispersion term =      269.5069325984 Hartrees.
 One-electron integrals computed using PRISM.
 NBasis=   202 RedAO= T EigKep=  4.50D-05  NBF=   202
 NBsUse=   202 1.00D-06 EigRej= -1.00D+00 NBFU=   202
 Initial guess from the checkpoint file:  "DMXE0102.chk"
 B after Tr=     0.000000   -0.000000    0.000000
         Rot=    0.999996   -0.002728   -0.000498    0.000327 Ang=  -0.32 deg.
 ExpMin= 3.60D-02 ExpMax= 8.59D+03 ExpMxC= 1.30D+03 IAcc=3 IRadAn=         5 AccDes= 0.00D+00
 Harris functional with IExCor= 1009 and IRadAn=       5 diagonalized for initial guess.
 HarFok:  IExCor= 1009 AccDes= 0.00D+00 IRadAn=         5 IDoV= 1 UseB2=F ITyADJ=14
 ICtDFT=  3500011 ScaDFX=  1.000000  1.000000  1.000000  1.000000
 FoFCou: FMM=F IPFlag=           0 FMFlag=      100000 FMFlg1=           0
         NFxFlg=           0 DoJE=T BraDBF=F KetDBF=T FulRan=T
         wScrn=  0.000000 ICntrl=       500 IOpCl=  0 I1Cent=   200000004 NGrid=           0
         NMat0=    1 NMatS0=      1 NMatT0=    0 NMatD0=    1 NMtDS0=    0 NMtDT0=    0
 Petite list used in FoFCou.
 Requested convergence on RMS density matrix=1.00D-08 within  32 cycles.
 Requested convergence on MAX density matrix=1.00D-06.
 Requested convergence on             energy=1.00D-06.
 No special actions if energy rises.
 SCF Done:  E(RM08HX) =  -308.864166513     A.U. after   10 cycles
            NFock= 10  Conv=0.36D-08     -V/T= 2.0044
 QCSCF skips out because SCF is already converged.
 R6APFD:  NTU= -4 IXU= 1 FactS= 1.050
 Calling FoFJK, ICntrl=      2127 FMM=F ISym2X=0 I1Cent= 0 IOpClX= 0 NMat=1 NMatS=1 NMatT=0.
 ***** Axes restored to original set *****
 -------------------------------------------------------------------
 Center     Atomic                   Forces (Hartrees/Bohr)
 Number     Number              X              Y              Z
 -------------------------------------------------------------------
      1        8          -0.001267166    0.001023020   -0.000472347
      2        8          -0.000099639   -0.000199823   -0.000036368
      3        6           0.000547738   -0.000177556    0.000863108
      4        6           0.000098262   -0.000250659   -0.000017418
      5        6           0.000587003   -0.000148082    0.000356176
      6        6          -0.000101534    0.000185254    0.000395672
      7        1           0.000258396   -0.000365169   -0.000452296
      8        1           0.000083443   -0.000105168    0.000150321
      9        1           0.000214849   -0.000010905   -0.000165243
     10        1          -0.000235295   -0.000528024    0.000008092
     11        1          -0.000063281   -0.000150676   -0.000171723
     12        1          -0.000029656    0.000220402   -0.000169877
     13        1          -0.000156184    0.000361063   -0.000052464
     14        1           0.000095247    0.000010199   -0.000235113
     15        1           0.000112842   -0.000020867   -0.000056530
     16        1          -0.000045027    0.000156990    0.000056009
 -------------------------------------------------------------------
 Cartesian Forces:  Max     0.001267166 RMS     0.000354324

 GradGradGradGradGradGradGradGradGradGradGradGradGradGradGradGradGradGrad
 Berny optimization.
 Using GEDIIS/GDIIS optimizer.
 FormGI is forming the generalized inverse of G from B-inverse, IUseBI=4.
 Internal  Forces:  Max     0.001662145 RMS     0.000353085
 Search for a local minimum.
 Step number   4 out of a maximum of   72
 All quantities printed in internal units (Hartrees-Bohrs-Radians)
 Mixed Optimization -- En-DIIS/RFO-DIIS
 Swapping is turned off.
 Update second derivatives using D2CorX and points    1    2    3    4
 DE= -1.63D-04 DEPred=-1.34D-04 R= 1.21D+00
 TightC=F SS=  1.41D+00  RLast= 1.24D-01 DXNew= 1.0560D+00 3.7120D-01
 Trust test= 1.21D+00 RLast= 1.24D-01 DXMaxT set to 6.28D-01
 ITU=  1  1  1  0
     Eigenvalues ---    0.00357   0.00863   0.01345   0.01420   0.01438
     Eigenvalues ---    0.05602   0.05661   0.05902   0.06443   0.09816
     Eigenvalues ---    0.10132   0.10461   0.10548   0.10614   0.15561
     Eigenvalues ---    0.15699   0.16000   0.16000   0.16000   0.16000
     Eigenvalues ---    0.16000   0.16046   0.16519   0.20321   0.22703
     Eigenvalues ---    0.26163   0.29122   0.31746   0.33799   0.34121
     Eigenvalues ---    0.34209   0.34306   0.34322   0.34356   0.34395
     Eigenvalues ---    0.34410   0.34506   0.34585   0.40784   0.41488
[...]

 ----------------------------------------------------------------------

 Dipole orientation:
     8         -1.57654608          1.20775839          0.31306863
     8          1.80883975         -0.45158456         -1.75232925
     6          0.07178045         -0.89510909          0.15873825
     6         -1.32616570         -3.31734082         -0.47807489
     6         -2.79966640          1.42677178          2.66013554
     6          3.33647783          1.69107316         -1.30552798
     1          1.07592566         -1.05322380          2.00167889
     1         -2.27738391         -3.07730187         -2.30047116
     1         -2.73794560         -3.76308866          0.96916820
     1          0.00798250         -4.89263042         -0.61056126
     1         -3.91927569          3.16243451          2.61072816
     1         -1.42480145          1.55470310          4.22136500
     1         -4.07757861         -0.17385217          3.03225827
     1          4.30841756          1.53184368          0.53126257
     1          2.21044947          3.43143024         -1.32515178
     1          4.74666052          1.75555442         -2.81290119

 Electric dipole moment (dipole orientation):
 (Debye = 10**-18 statcoulomb cm , SI units = C m)
                  (au)            (Debye)         (10**-30 SI)
   Tot        0.806225D+00      0.204922D+01      0.683546D+01
   x          0.000000D+00      0.000000D+00      0.000000D+00
   y          0.000000D+00      0.000000D+00      0.000000D+00
   z          0.806225D+00      0.204922D+01      0.683546D+01

 Dipole polarizability, Alpha (dipole orientation).
 (esu units = cm**3 , SI units = C**2 m**2 J**-1)
 Alpha(0;0):
               (au)            (10**-24 esu)      (10**-40 SI)
   iso        0.588804D+02      0.872518D+01      0.970807D+01
   aniso      0.102186D+02      0.151424D+01      0.168482D+01
   xx         0.609047D+02      0.902515D+01      0.100418D+02
   yx         0.203826D+01      0.302039D+00      0.336064D+00
   yy         0.589928D+02      0.874184D+01      0.972661D+01
   zx        -0.486552D+01     -0.720995D+00     -0.802216D+00
   zy         0.162499D+01      0.240798D+00      0.267924D+00
   zz         0.567436D+02      0.840854D+01      0.935576D+01

 ----------------------------------------------------------------------
 1\1\GINC-PITOMBA\Freq\RM08HX\6-311++G(d,p)\C4H10O2\VALTER\19-Sep-2025\
 0\\#N Geom=AllCheck Guess=TCheck SCRF=Check GenChk RM08HX/6-311++G(d,p
 ) Freq\\DMXE0102\\0,1\O,-0.7517146785,0.6019121436,-0.4522778542\O,1.2
 822475902,-0.3854583098,-0.2011622596\C,-0.0439558441,-0.4367433921,0.
 2004658658\C,-0.5827418957,-1.8091063436,-0.1602578963\C,-1.9440019654
 ,0.9634411588,0.1978826251\C,1.9219176618,0.824424591,0.1481376035\H,-
 0.1092909521,-0.2514977618,1.2967634421\H,-0.4963716961,-1.9478571727,
 -1.243220588\H,-1.6342997943,-1.9077682417,0.1309214296\H,-0.003224857
 7,-2.5857114868,0.3489553016\H,-2.3709299914,1.8073090509,-0.350677948
 2\H,-1.7543804907,1.2735654909,1.2391926627\H,-2.6789539461,0.14288615
 12,0.2047828032\H,1.8437761844,1.0071712673,1.2329837502\H,1.484018591
 1,1.6741900855,-0.389888908\H,2.9757060846,0.7199427693,-0.1219000295\
 \Version=ES64L-G16RevB.01\State=1-A\HF=-308.8643639\RMSD=3.364e-09\RMS
 F=5.099e-06\ZeroPoint=0.14058\Thermal=0.1484068\Dipole=-0.4223087,0.19
 03211,0.6598729\DipoleDeriv=-1.1276125,0.3034577,0.074278,0.4297214,-0
 .8289768,-0.0077444,-0.0299717,0.1081699,-0.5623371,-1.1918258,-0.2839
 844,0.0303452,-0.3165909,-0.8079294,-0.0630301,0.0947145,-0.0327642,-0
 .4856269,1.3710084,0.0344482,0.0022959,-0.2315898,0.9767335,-0.0293982
 ,0.0759522,-0.1815172,0.6359055,-0.0263033,-0.0939423,-0.0155469,-0.04
 72338,-0.1822925,-0.0379545,-0.0563849,-0.0726527,0.045767,0.715112,-0
 .1768225,-0.1287117,-0.1007092,0.340743,0.0884252,-0.229062,0.1477679,
 0.3852623,0.434713,0.1773392,0.0531553,0.3123604,0.5887378,0.0724753,0
 .1095989,0.0855278,0.3582953,-0.0430621,-0.029345,-0.0035077,0.0319195
 ,-0.0491401,-0.0966387,0.0144947,-0.0043968,-0.2161545,0.0796154,0.000
 1434,0.024935,-0.01609,0.0514989,0.0186187,0.0021783,-0.0460401,-0.075
 1686,-0.1114979,-0.0434305,0.0428956,-0.0025487,0.0645939,-0.0179193,0
 .0554609,-0.0093966,0.0540683,0.0314711,0.0842165,-0.052692,0.0531502,
 -0.0285453,0.0346013,-0.0481762,0.0626539,0.0317095,0.0126149,0.051327
 1,-0.0049336,0.1038934,-0.0469872,0.0568483,-0.044947,0.0906823,0.0317
 693,-0.0102493,-0.0075919,-0.0866305,0.0030524,0.0369525,-0.039455,0.0
 358549,-0.100389,-0.1518443,-0.0922308,-0.0486751,0.0162864,-0.1526309
 ,-0.0722358,0.0006489,0.0334719,-0.038006,0.0387064,0.044167,-0.005345
 7,0.0623675,-0.0598841,0.0026251,0.007553,-0.0299216,-0.0726987,-0.172
 8236,0.0500702,0.0731633,-0.0467884,-0.0342394,-0.0937102,0.0358265,-0
 .0397186,0.0725166,0.0075574,-0.1359903,-0.034958,0.032252,0.0274192,0
 .0479326,-0.022857,0.0564558,-0.0094571,0.074914\Polar=64.2019184,0.47
 46277,59.7325404,-0.2763941,0.9620162,52.7067496\Quadrupole=1.4881246,
 0.0977353,-1.5858599,1.2268785,0.0972606,0.3542436\PG=C01 [X(C4H10O2)]
 \NImag=0\\0.39490383,-0.15604405,0.28501057,-0.07382098,-0.07464207,0.
 25869050,-0.06125113,0.02973317,0.00473298,0.45686723,0.03743805,-0.00
 048065,-0.01190298,0.09889205,0.35945055,-0.01523013,0.00056702,0.0146
 0708,-0.06771510,0.07509641,0.16680017,-0.08471709,0.01887952,-0.00182
 359,-0.21256290,-0.02603511,0.05890487,0.50400293,0.04176755,-0.145377
 99,0.05214873,-0.00054945,-0.09680366,-0.01772370,0.04372377,0.5234164
 6,-0.03096037,0.07110849,-0.13091241,0.07345788,-0.00127113,-0.1048445
 3,-0.03473475,0.04583463,0.59211721,0.00491955,0.02769168,0.00023773,-
 0.03181399,-0.04376430,-0.00839245,-0.09050716,-0.03821630,-0.00911331
 ,0.58016345,0.00388796,-0.05044086,0.00338408,-0.01158709,-0.00598634,
 -0.00032351,-0.04531477,-0.17954994,-0.03635817,-0.02671630,0.52202662
 ,0.00178510,0.02630323,0.00575498,0.00843742,0.01302129,0.00579130,-0.
 01681784,-0.04709037,-0.09841205,-0.00733092,-0.02738106,0.57500034,-0
 .19715387,0.04854907,0.06505622,0.00142373,0.00235699,-0.00053638,-0.0
 3455283,0.01830165,0.00221286,0.00441134,-0.00148162,0.00170184,0.5140
 9189,0.03375678,-0.08371609,0.00239986,0.00138695,-0.00254050,-0.00000
 655,0.03065768,-0.01416544,-0.01286048,0.00030751,-0.00183701,0.000540
 34,-0.00208384,0.57988300,0.08962443,-0.01613779,-0.12280232,-0.008708
 53,0.00326267,-0.00119670,-0.00783985,-0.00289201,0.00867139,-0.001799
 64,0.00101815,-0.00052005,0.04173102,-0.03503688,0.55110689,0.00025046
 ,-0.00505200,-0.00055568,-0.11101086,-0.03872509,-0.00101347,-0.039587
 32,-0.04002437,-0.00884462,-0.00464486,0.00096144,0.00158612,-0.000356
 64,-0.00016336,0.00098811,0.60040739,0.00444500,-0.00598606,0.00024053
 ,-0.07146056,-0.20445747,-0.04165714,-0.02403267,-0.00215970,0.0007679
 7,0.00089509,0.00122735,-0.00056505,0.00049573,0.00008907,0.00144814,-
 0.04078605,0.50472401,0.00238374,-0.00126396,0.00014181,-0.01596551,-0
 .05184156,-0.08105595,0.00028373,0.01074458,0.00073158,0.00302916,-0.0
 0015560,-0.00079079,-0.00120516,0.00069603,0.00152252,-0.02723027,-0.0
 2380986,0.55397635,-0.00330778,0.00786264,-0.01976510,-0.02354236,0.00
 275796,0.04062901,-0.04905055,-0.00373576,0.00512158,0.00345910,-0.003
 14651,-0.01180618,0.00197744,-0.00059436,-0.00464603,0.00290651,0.0053
 9525,0.00424048,0.06736358,0.01083211,-0.00584054,0.03322560,0.0014489
 6,0.00362641,-0.00070350,-0.00280833,-0.06222747,-0.04717428,0.0009415
 4,-0.00413193,-0.02856333,-0.00260813,0.00167019,0.00452918,-0.0003828
 2,0.00031044,0.00309037,-0.00567777,0.07003509,-0.00985829,0.01025048,
 -0.02496260,0.01550631,-0.00266873,-0.01153396,0.00567264,-0.04155034,
 -0.25633762,0.00060893,-0.00201517,-0.00542000,0.00397108,-0.00169670,
 -0.00005008,-0.00214879,-0.00168014,0.00107172,-0.01225491,0.03830631,
 0.29359464,-0.00007382,0.00069068,0.00078739,0.00097650,0.00062590,0.0
 0005389,0.00024481,-0.00167092,-0.01405234,-0.04763194,0.00287495,0.02
 280608,-0.00056327,0.00018803,0.00013331,-0.00027444,-0.00026091,-0.00
 013508,-0.00034161,-0.00208085,-0.00021624,0.04701913,0.00012292,0.003
 34149,0.00161344,0.00191690,0.00194157,0.00141347,0.00218128,-0.006375
 19,-0.03602628,0.00271464,-0.04961253,-0.03006251,0.00040907,-0.000114
 00,-0.00016673,-0.00011895,-0.00018168,-0.00004736,-0.00250024,-0.0048
 7037,-0.00059564,-0.00122160,0.05328432,0.00066244,0.00009981,0.001718
 78,-0.00006306,0.00045466,0.00099750,0.00067729,-0.00082765,-0.0113383
 1,0.02148413,-0.03295603,-0.31175946,-0.00014973,-0.00002959,0.0000171
 9,-0.00012748,0.00004432,0.00032839,-0.00064111,-0.00141856,0.00095202
 ,-0.02319724,0.03775788,0.33616328,0.00040492,-0.00071043,0.00012417,-
 0.00111419,-0.00357359,-0.00139429,-0.01043807,0.00395955,0.00398028,-
 0.29307338,-0.02404544,0.06881067,-0.00082526,0.00061150,0.00001216,0.
 00027583,0.00082004,0.00058114,0.00022095,-0.00048956,-0.00053956,-0.0
 0055021,0.00013900,-0.00073073,0.31874845,0.00178271,0.00216420,-0.000
 10246,-0.00406825,-0.00717930,-0.00212212,-0.02800428,0.00337276,0.011
 20754,-0.02067918,-0.04992650,0.00477837,-0.00055704,-0.00125192,-0.00
 012805,-0.00121806,0.00067297,0.00068812,0.00075723,0.00063969,-0.0003
 3635,0.00413058,-0.00119668,-0.00054438,0.02507108,0.05205245,-0.00004
 522,0.00077601,-0.00043050,-0.00117285,-0.00222821,0.00038509,-0.00865
 385,0.00129968,0.00077529,0.07000022,0.00510975,-0.06536092,0.00048291
 ,0.00014221,0.00005883,-0.00034024,-0.00019649,0.00086792,0.00011706,0
 .00055988,-0.00009033,0.03026216,0.00312761,-0.00549877,-0.07560251,-0
 .00518610,0.06558729,0.00023636,-0.00376032,0.00024671,0.00009953,0.00
 006901,0.00003092,0.00530198,-0.00793617,0.00657921,-0.12241332,0.1035
 4606,-0.06877194,-0.00058720,-0.00021721,0.00002636,0.00012947,0.00010
 797,-0.00001595,0.00021264,0.00068875,0.00005507,0.00112220,-0.0034505
 8,0.00210458,-0.01408235,0.02154754,-0.01464609,0.12912091,-0.00088490
 ,-0.00887551,-0.00135326,0.00035542,0.00192475,-0.00036599,0.01925977,
 -0.01649556,0.01685074,0.10001729,-0.18163466,0.08799997,-0.00209489,0
 .00034500,0.00102269,-0.00029990,0.00000065,-0.00024935,-0.00014799,0.
 00056626,-0.00088321,-0.00368350,0.00348503,-0.00278120,-0.00268846,0.
 00282239,-0.00285646,-0.11070779,0.19728063,-0.00042375,-0.00248103,0.
 00136740,0.00075028,0.00029672,0.00010378,0.00526440,-0.00591519,0.002
 86202,-0.06868148,0.09003899,-0.10622052,-0.00001950,-0.00003530,0.000
 17543,0.00016777,0.00003281,-0.00000293,0.00046659,0.00051897,-0.00004
 847,-0.01686577,0.02241212,-0.01158003,0.00497472,-0.00790859,0.003487
 68,0.07450507,-0.09696081,0.11001780,-0.02302841,0.03008860,-0.0142657
 8,-0.00222439,0.00106417,-0.00026076,-0.00142899,-0.00171691,0.0047004
 9,-0.00049068,0.00012522,-0.00020035,-0.07987046,0.06990532,-0.0484251
 9,0.00042529,0.00059115,0.00017289,0.00004199,-0.00021694,-0.00014688,
 0.00007311,-0.00001722,-0.00001872,0.00025220,0.00025108,-0.00003746,0
 .00018071,0.00022405,-0.00002958,0.09865135,0.00881256,-0.00720848,0.0
 0186402,0.00076671,-0.00015065,0.00019991,-0.00105122,0.00194707,-0.00
 227446,-0.00025948,-0.00007871,0.00022817,0.07704345,-0.20941296,0.108
 21806,-0.00017698,-0.00016181,-0.00017604,-0.00006020,-0.00001246,0.00
 019267,0.00014177,-0.00000276,-0.00003385,0.00020454,0.00015914,-0.000
 03748,0.00006298,-0.00003371,-0.00002249,-0.08941257,0.22322977,0.0116
 8897,-0.01764642,0.00964262,0.00081358,-0.00038615,0.00060317,0.001261
 82,0.00008115,-0.00226363,0.00010910,-0.00015786,0.00028440,-0.0565861
 9,0.11404152,-0.12393058,-0.00005798,-0.00003049,-0.00012873,0.0001128
 4,-0.00016033,0.00087610,0.00007050,0.00004143,0.00003347,-0.00003488,
 -0.00003682,-0.00002409,-0.00007703,-0.00009441,-0.00000102,0.05183195
 ,-0.11610348,0.12646055,-0.00270054,0.01406039,0.03296257,-0.00040511,
 -0.00013721,-0.00038444,0.00266536,-0.00268047,0.00577730,-0.00029314,
 0.00025587,-0.00064329,-0.06247063,-0.01594779,-0.05553632,0.00032918,
 0.00020147,0.00016706,0.00020359,-0.00037700,-0.00131498,-0.00010661,-
 0.00015381,-0.00007483,0.00005833,0.00007668,-0.00017954,0.00016336,0.
 00022709,-0.00002824,-0.00185498,-0.00472193,-0.00943208,0.06696752,0.
 00519974,-0.00159893,-0.00674338,-0.00015694,-0.00013265,0.00072909,-0
 .00132999,0.00144709,-0.00470236,-0.00004062,-0.00032614,0.00056889,-0
 .01568443,-0.06974351,-0.06148623,0.00001199,0.00017339,-0.00020246,0.
 00030285,-0.00016123,0.00094284,0.00001141,0.00013324,0.00009582,-0.00
 004146,0.00007915,-0.00012566,0.00003539,-0.00009837,-0.00001371,0.004
 70410,0.00871806,0.02285441,0.01341453,0.06739026,0.01085740,-0.006689
 98,-0.01384577,0.00060065,0.00030220,0.00103024,-0.00340504,0.00360284
 ,-0.00066428,0.00034527,-0.00020613,0.00018415,-0.05152332,-0.06238877
 ,-0.26094041,-0.00027971,-0.00034308,-0.00053955,0.00088944,-0.0012871
 9,0.00116697,-0.00002911,0.00019789,0.00005182,-0.00001610,-0.00001865
 ,-0.00008788,-0.00001174,-0.00022220,0.00001591,-0.00407395,-0.0052584
 3,-0.01271311,0.04791900,0.07145344,0.28560299,-0.02552750,-0.01132828
 ,0.00585328,-0.00095727,0.00110741,-0.00038865,0.00231103,-0.00635367,
 0.00255990,-0.00076975,0.00034069,0.00021745,-0.14556278,-0.11804534,-
 0.00528443,0.00024622,-0.00000335,0.00027574,-0.00029549,0.00031298,-0
 .00070368,0.00013636,-0.00009405,-0.00005190,0.00034510,0.00125283,-0.
 00012766,0.00042076,0.00022323,-0.00011380,0.00936352,0.00856181,0.000
 29178,-0.00253154,-0.00641617,-0.00134195,0.16271103,0.00920425,0.0148
 3382,0.00009988,-0.00000128,-0.00009850,0.00011294,0.00136239,0.000900
 57,0.00097774,-0.00061852,0.00004584,-0.00069925,-0.12177774,-0.200015
 50,-0.00342293,0.00002729,-0.00005831,0.00002327,-0.00005867,-0.000123
 52,-0.00009426,0.00008514,-0.00000576,-0.00000232,0.00121565,-0.001696
 88,-0.00025204,-0.00004898,0.00046498,0.00005968,-0.01534246,-0.017042
 59,-0.00250557,-0.00415668,-0.00581358,0.00091555,0.13009727,0.2086168
 7,0.01589119,0.01115514,0.00103817,0.00064356,-0.00007174,0.00011150,-
 0.00138500,0.00097130,-0.00046253,0.00011626,-0.00001475,0.00005402,-0
 .00588324,-0.00539205,-0.05112648,-0.00015594,-0.00019605,-0.00028376,
 0.00015920,-0.00054065,-0.00013002,0.00008493,-0.00005408,-0.00015066,
 0.00000332,-0.00007938,0.00041919,-0.00008777,-0.00008799,-0.00009734,
 0.01079787,0.01308381,0.00109734,-0.01917569,-0.02347564,0.00055501,-0
 .00102165,0.00479643,0.04881571,-0.00000204,0.00047960,0.00096810,-0.0
 0214662,-0.00866469,-0.01584761,0.00381599,-0.00081367,-0.00558190,-0.
 00009959,-0.00017138,0.00013059,-0.00018177,0.00002344,-0.00013918,-0.
 05385416,0.00451891,0.02426850,0.00023583,0.00036853,0.00127132,-0.000
 07367,0.00006392,0.00016953,-0.00004271,-0.00002657,0.00006957,0.00000
 669,0.00003922,-0.00000669,0.00000456,0.00000919,0.00003357,-0.0000196
 4,0.00000532,0.00006461,0.00001594,0.00001148,0.00002094,0.04983909,-0
 .00055365,0.00018354,0.00015760,-0.00628667,-0.01490248,-0.03283308,0.
 00541560,0.00064540,-0.00335356,-0.00009707,-0.00008516,0.00034879,-0.
 00007069,0.00010072,-0.00005038,0.00236738,-0.05235019,-0.02407913,-0.
 00054635,0.00039177,0.00145773,0.00007394,0.00013930,0.00019046,-0.000
 09457,-0.00006814,0.00011048,0.00002824,-0.00002163,-0.00002634,-0.000
 05040,0.00002404,0.00000825,0.00000020,0.00002437,-0.00001723,0.000005
 16,-0.00000190,-0.00000423,0.00198764,0.06034440,-0.00108569,0.0005450
 6,0.00002064,-0.00501830,-0.01001844,-0.00339830,0.00384883,0.00056318
 ,0.00082297,-0.00029806,0.00007715,0.00074970,0.00022559,-0.00026590,-
 0.00059575,0.02232078,-0.02827449,-0.28817345,-0.00197055,-0.00023159,
 0.00044233,0.00023486,0.00027562,0.00005722,-0.00012335,-0.00012299,-0
 .00001828,0.00001732,0.00000899,-0.00004982,-0.00004992,0.00004448,0.0
 0001228,-0.00011357,0.00001250,0.00019789,-0.00005346,0.00002252,0.000
 12069,-0.02135980,0.03870111,0.31027641,-0.00253717,-0.00087468,-0.000
 90352,0.00627038,-0.01852338,0.00803285,0.00267350,-0.00186499,0.00131
 723,-0.00042220,0.00024613,-0.00016112,-0.00014304,0.00030246,0.000068
 67,-0.09743205,0.08800709,-0.05672746,-0.00018196,0.00000308,0.0000287
 8,0.00005250,0.00002185,0.00000049,-0.00006765,-0.00005073,-0.00005078
 ,0.00005789,0.00017589,0.00001035,-0.00004985,0.00003232,-0.00002958,0
 .00000975,-0.00002501,-0.00003895,0.00016207,0.00002746,-0.00004742,0.
 00221209,-0.00318324,0.00358790,0.09935548,-0.00045017,0.00252479,-0.0
 0062046,-0.00038196,-0.03077300,0.00893207,0.00737009,-0.00238953,-0.0
 0019908,-0.00063822,0.00010783,0.00010423,-0.00050241,0.00053821,-0.00
 011736,0.08071739,-0.19050311,0.09742616,-0.00064477,0.00009140,0.0001
 6569,0.00007744,0.00000429,0.00000248,-0.00021605,-0.00015700,-0.00011
 429,0.00001796,0.00024640,-0.00004261,-0.00013350,0.00001504,0.0000776
 5,-0.00001274,-0.00004873,-0.00005275,0.00022055,-0.00001011,-0.000061
 02,-0.00117489,0.00573035,-0.00197370,-0.08581726,0.21502586,-0.001010
 35,-0.00145307,-0.00036586,0.00517335,-0.01146718,0.00898527,-0.000793
 11,0.00131900,0.00021758,-0.00002337,-0.00000456,0.00012468,0.00040693
 ,-0.00001100,-0.00019353,-0.05503172,0.10156148,-0.11998554,-0.0003572
 3,-0.00015203,-0.00013798,0.00001950,0.00000108,-0.00000122,-0.0000113
 7,0.00003307,-0.00003461,0.00003524,-0.00001116,-0.00001877,0.00000689
 ,0.00004945,0.00003133,0.00010335,0.00005809,-0.00008477,-0.00007280,-
 0.00004443,-0.00000377,-0.01373852,0.02310057,-0.01472173,0.06117145,-
 0.10506883,0.12109984,-0.00041578,-0.00026561,0.00016548,-0.01860856,-
 0.00488817,0.00351174,0.00182931,-0.00218982,-0.00241944,-0.00079344,0
 .00022480,0.00025637,0.00036333,-0.00008777,-0.00020488,-0.29781002,0.
 03106584,0.06587700,0.00009813,0.00004545,0.00006922,-0.00000904,-0.00
 001315,-0.00004368,-0.00011197,-0.00026562,-0.00007571,0.00003036,-0.0
 0001453,0.00002963,-0.00004496,0.00004705,0.00000365,-0.00001490,0.000
 00928,0.00004351,-0.00006771,-0.00002660,0.00003944,0.00029001,0.00100
 450,-0.00016259,-0.00995975,0.00156855,0.00412176,0.32522500,0.0006831
 5,0.00146672,0.00023088,-0.04000797,-0.00343807,0.00868469,-0.00027371
 ,-0.00618485,-0.00252731,-0.00153775,0.00020214,0.00046831,-0.00029516
 ,0.00017073,-0.00006052,0.04286208,-0.05133954,-0.01084321,0.00003669,
 0.00003627,0.00020484,0.00001791,0.00002972,-0.00005186,-0.00016180,-0
 .00048634,-0.00012889,0.00001715,0.00002335,0.00004678,-0.00006369,0.0
 0001102,0.00001711,-0.00004859,-0.00004244,0.00001249,0.00011894,0.000
 00459,-0.00002910,0.00334395,-0.00015439,0.00063652,0.02152300,-0.0004
 0270,-0.00791048,-0.02621420,0.06010378,-0.00045850,-0.00049093,0.0003
 3748,-0.01147264,-0.00057783,0.00261431,-0.00046056,-0.00056582,-0.000
 96268,-0.00029154,-0.00005527,0.00054022,0.00011505,-0.00009675,-0.000
 19635,0.07072312,-0.00734247,-0.06767960,-0.00029510,0.00000117,0.0006
 0728,0.00004317,0.00011205,0.00000878,-0.00003367,-0.00012119,-0.00003
 591,0.00001004,-0.00001636,-0.00001113,-0.00000149,0.00002566,0.000019
 92,-0.00004632,0.00003437,0.00007077,-0.00003817,0.00001278,0.00004292
 ,0.02967698,-0.00371103,-0.00574281,-0.01625888,0.00154183,0.00508908,
 -0.07121149,0.01124978,0.06529772\\0.00001289,-0.00000600,0.00001007,0
 .00000290,0.00001082,0.00000246,-0.00000471,0.00000791,-0.00001611,-0.
 00001154,-0.00000975,0.00000004,-0.00000549,0.00000256,-0.00000094,0.0
 0000380,-0.00000933,-0.00000550,-0.00000067,0.00000151,0.00000169,-0.0
 0000060,0.00000082,0.00000320,-0.00000124,-0.00000285,0.00000178,0.000
 00056,0.00000097,0.00000254,0.00000143,-0.00000180,-0.00000021,0.00000
 112,0.00000033,0.00000055,0.00000224,-0.00000034,0.00000193,-0.0000009
 2,0.00000313,-0.00000104,-0.00000088,0.00000078,-0.00000124,0.00000110
 ,0.00000123,0.00000078\\\@


 IF MATHEMATICALLY YOU END UP WITH THE INCORRECT ANSWER,
 TRY MULTIPLYING BY THE PAGE NUMBER.
 Job cpu time:       0 days  1 hours  3 minutes 50.2 seconds.
 Elapsed time:       0 days  0 hours  4 minutes  1.0 seconds.
 File lengths (MBytes):  RWF=     64 Int=      0 D2E=      0 Chk=      5 Scr=      1
 Normal termination of Gaussian 16 at Fri Sep 19 13:14:18 2025.
