 Entering Gaussian System, Link 0=g16
 Input=DMXY0103.gjf
 Output=DMXY0103.log
 Initial command:
 /usr/local/g16/l1.exe "/dados_01/scratch/Gau-2054377.inp" -scrdir="/dados_01/scratch/"
 Entering Link 1 = /usr/local/g16/l1.exe PID=   2054378.
  
 Copyright (c) 1988-2017, Gaussian, Inc.  All Rights Reserved.
  
 This is part of the Gaussian(R) 16 program.  It is based on
 the Gaussian(R) 09 system (copyright 2009, Gaussian, Inc.),
 the Gaussian(R) 03 system (copyright 2003, Gaussian, Inc.),
 the Gaussian(R) 98 system (copyright 1998, Gaussian, Inc.),
 the Gaussian(R) 94 system (copyright 1995, Gaussian, Inc.),
 the Gaussian 92(TM) system (copyright 1992, Gaussian, Inc.),
 the Gaussian 90(TM) system (copyright 1990, Gaussian, Inc.),
 the Gaussian 88(TM) system (copyright 1988, Gaussian, Inc.),
 the Gaussian 86(TM) system (copyright 1986, Carnegie Mellon
 University), and the Gaussian 82(TM) system (copyright 1983,
 Carnegie Mellon University). Gaussian is a federally registered
 trademark of Gaussian, Inc.
  
 This software contains proprietary and confidential information,
 including trade secrets, belonging to Gaussian, Inc.
  
 This software is provided under written license and may be
 used, copied, transmitted, or stored only in accord with that
 written license.
  
 The following legend is applicable only to US Government
 contracts under FAR:
  
                    RESTRICTED RIGHTS LEGEND
  
 Use, reproduction and disclosure by the US Government is
 subject to restrictions as set forth in subparagraphs (a)
 and (c) of the Commercial Computer Software - Restricted
 Rights clause in FAR 52.227-19.
  
 Gaussian, Inc.
 340 Quinnipiac St., Bldg. 40, Wallingford CT 06492
  
  
 ---------------------------------------------------------------
 Warning -- This program may not be used in any manner that
 competes with the business of Gaussian, Inc. or will provide
 assistance to any competitor of Gaussian, Inc.  The licensee
 of this program is prohibited from giving any competitor of
 Gaussian, Inc. access to this program.  By using this program,
 the user acknowledges that Gaussian, Inc. is engaged in the
 business of creating and licensing software in the field of
 computational chemistry and represents and warrants to the
 licensee that it is not a competitor of Gaussian, Inc. and that
 it will not use this program in any manner prohibited above.
 ---------------------------------------------------------------
  

 Cite this work as:
 Gaussian 16, Revision B.01,
 M. J. Frisch, G. W. Trucks, H. B. Schlegel, G. E. Scuseria, 
 M. A. Robb, J. R. Cheeseman, G. Scalmani, V. Barone, 
 G. A. Petersson, H. Nakatsuji, X. Li, M. Caricato, A. V. Marenich, 
 J. Bloino, B. G. Janesko, R. Gomperts, B. Mennucci, H. P. Hratchian, 
 J. V. Ortiz, A. F. Izmaylov, J. L. Sonnenberg, D. Williams-Young, 
 F. Ding, F. Lipparini, F. Egidi, J. Goings, B. Peng, A. Petrone, 
 T. Henderson, D. Ranasinghe, V. G. Zakrzewski, J. Gao, N. Rega, 
 G. Zheng, W. Liang, M. Hada, M. Ehara, K. Toyota, R. Fukuda, 
 J. Hasegawa, M. Ishida, T. Nakajima, Y. Honda, O. Kitao, H. Nakai, 
 T. Vreven, K. Throssell, J. A. Montgomery, Jr., J. E. Peralta, 
 F. Ogliaro, M. J. Bearpark, J. J. Heyd, E. N. Brothers, K. N. Kudin, 
 V. N. Staroverov, T. A. Keith, R. Kobayashi, J. Normand, 
 K. Raghavachari, A. P. Rendell, J. C. Burant, S. S. Iyengar, 
 J. Tomasi, M. Cossi, J. M. Millam, M. Klene, C. Adamo, R. Cammi, 
 J. W. Ochterski, R. L. Martin, K. Morokuma, O. Farkas, 
 J. B. Foresman, and D. J. Fox, Gaussian, Inc., Wallingford CT, 2016.
 
 ******************************************
 Gaussian 16:  ES64L-G16RevB.01 20-Dec-2017
                19-Sep-2025 
 ******************************************
 %nprocs=16
 Will use up to   16 processors via shared memory.
 %mem=40GB
 %chk=DMXY0103.chk
 ----------------------------------------------------------------------
 # opt freq=noraman M08HX/6-311++G** scf=xqc Empiricaldispersion=pfd In
 t(Grid=ultraFine)
 ----------------------------------------------------------------------
 1/18=20,19=15,26=4,38=1/1,3;
 2/9=110,12=2,17=6,18=5,40=1/2;
 3/5=4,6=6,7=1111,11=2,25=1,30=1,71=1,74=-74,75=-5,124=11/1,2,3;
 4//1;
 5/5=2,8=3,13=1,38=5/2,8;
 6/7=2,8=2,9=2,10=2,28=1/1;
 7//1,2,3,16;
 1/18=20,19=15,26=4/3(2);
 2/9=110/2;
 99//99;
 2/9=110/2;
 3/5=4,6=6,7=1111,11=2,25=1,30=1,71=1,74=-74,75=-5,124=11/1,2,3;
 4/5=5,16=3,69=1/1;
 5/5=2,8=3,13=1,38=5/2,8;
 7//1,2,3,16;
 1/18=20,19=15,26=4/3(-5);
 2/9=110/2;
 6/7=2,8=2,9=2,10=2,19=2,28=1/1;
 99/9=1/99;
 --------
 DMXY0103
 --------
 Symbolic Z-matrix:
 Charge =  0 Multiplicity = 1
 O                     1.0353    0.1609   -0.5918 
 O                    -1.0533    0.1991    0.5806 
 C                    -0.0003    0.9564   -0.0154 
 C                     1.6987   -0.6418    0.3756 
 C                    -1.6804   -0.6746   -0.3489 
 H                     0.4263    1.615     0.7492 
 H                    -0.4171    1.5959   -0.8012 
 H                     2.1455   -0.014     1.1526 
 H                     2.4984   -1.1922   -0.1276 
 H                     1.0133   -1.3655    0.8257 
 H                    -0.9853   -1.4419   -0.7012 
 H                    -2.0796   -0.1102   -1.1973 
 H                    -2.5116   -1.1723    0.158 
 

 GradGradGradGradGradGradGradGradGradGradGradGradGradGradGradGradGradGrad
 Berny optimization.
 Initialization pass.
                           ----------------------------
                           !    Initial Parameters    !
                           ! (Angstroms and Degrees)  !
 --------------------------                            --------------------------
 ! Name  Definition              Value          Derivative Info.                !
 --------------------------------------------------------------------------------
 ! R1    R(1,3)                  1.4274         estimate D2E/DX2                !
 ! R2    R(1,4)                  1.4214         estimate D2E/DX2                !
 ! R3    R(2,3)                  1.4274         estimate D2E/DX2                !
 ! R4    R(2,5)                  1.4215         estimate D2E/DX2                !
 ! R5    R(3,6)                  1.0956         estimate D2E/DX2                !
 ! R6    R(3,7)                  1.0955         estimate D2E/DX2                !
 ! R7    R(4,8)                  1.0943         estimate D2E/DX2                !
 ! R8    R(4,9)                  1.0935         estimate D2E/DX2                !
 ! R9    R(4,10)                 1.0937         estimate D2E/DX2                !
 ! R10   R(5,11)                 1.0936         estimate D2E/DX2                !
 ! R11   R(5,12)                 1.0944         estimate D2E/DX2                !
 ! R12   R(5,13)                 1.0934         estimate D2E/DX2                !
 ! A1    A(3,1,4)              112.2414         estimate D2E/DX2                !
 ! A2    A(3,2,5)              112.2413         estimate D2E/DX2                !
 ! A3    A(1,3,2)              114.0878         estimate D2E/DX2                !
 ! A4    A(1,3,6)              109.5314         estimate D2E/DX2                !
 ! A5    A(1,3,7)              108.1617         estimate D2E/DX2                !
 ! A6    A(2,3,6)              108.3469         estimate D2E/DX2                !
 ! A7    A(2,3,7)              109.1794         estimate D2E/DX2                !
 ! A8    A(6,3,7)              107.3264         estimate D2E/DX2                !
 ! A9    A(1,4,8)              110.4775         estimate D2E/DX2                !
 ! A10   A(1,4,9)              108.2037         estimate D2E/DX2                !
 ! A11   A(1,4,10)             111.1802         estimate D2E/DX2                !
 ! A12   A(8,4,9)              108.4768         estimate D2E/DX2                !
 ! A13   A(8,4,10)             110.0774         estimate D2E/DX2                !
 ! A14   A(9,4,10)             108.3394         estimate D2E/DX2                !
 ! A15   A(2,5,11)             111.1916         estimate D2E/DX2                !
 ! A16   A(2,5,12)             110.5398         estimate D2E/DX2                !
 ! A17   A(2,5,13)             108.1797         estimate D2E/DX2                !
 ! A18   A(11,5,12)            110.1176         estimate D2E/DX2                !
 ! A19   A(11,5,13)            108.2493         estimate D2E/DX2                !
 ! A20   A(12,5,13)            108.4721         estimate D2E/DX2                !
 ! D1    D(4,1,3,2)            -62.2095         estimate D2E/DX2                !
 ! D2    D(4,1,3,6)             59.4208         estimate D2E/DX2                !
 ! D3    D(4,1,3,7)            176.0961         estimate D2E/DX2                !
 ! D4    D(3,1,4,8)            -59.3044         estimate D2E/DX2                !
 ! D5    D(3,1,4,9)           -177.9198         estimate D2E/DX2                !
 ! D6    D(3,1,4,10)            63.2221         estimate D2E/DX2                !
 ! D7    D(5,2,3,1)            -58.5399         estimate D2E/DX2                !
 ! D8    D(5,2,3,6)            179.1782         estimate D2E/DX2                !
 ! D9    D(5,2,3,7)             62.5914         estimate D2E/DX2                !
 ! D10   D(3,2,5,11)            64.7617         estimate D2E/DX2                !
 ! D11   D(3,2,5,12)           -57.8675         estimate D2E/DX2                !
 ! D12   D(3,2,5,13)          -176.4988         estimate D2E/DX2                !
 --------------------------------------------------------------------------------
 Trust Radius=3.00D-01 FncErr=1.00D-07 GrdErr=1.00D-06 EigMax=2.50D+02 EigMin=1.00D-04
 Number of steps in this run=     54 maximum allowed number of steps=    100.
 GradGradGradGradGradGradGradGradGradGradGradGradGradGradGradGradGradGrad

                          Input orientation:                          
 ---------------------------------------------------------------------
 Center     Atomic      Atomic             Coordinates (Angstroms)
 Number     Number       Type             X           Y           Z
 ---------------------------------------------------------------------
      1          8           0        1.035300    0.160900   -0.591800
      2          8           0       -1.053300    0.199100    0.580600
      3          6           0       -0.000300    0.956400   -0.015400
      4          6           0        1.698700   -0.641800    0.375600
      5          6           0       -1.680400   -0.674600   -0.348900
      6          1           0        0.426300    1.615000    0.749200
      7          1           0       -0.417100    1.595900   -0.801200
      8          1           0        2.145500   -0.014000    1.152600
      9          1           0        2.498400   -1.192200   -0.127600
     10          1           0        1.013300   -1.365500    0.825700
     11          1           0       -0.985300   -1.441900   -0.701200
     12          1           0       -2.079600   -0.110200   -1.197300
     13          1           0       -2.511600   -1.172300    0.158000
 ---------------------------------------------------------------------
                    Distance matrix (angstroms):
                    1          2          3          4          5
     1  O    0.000000
     2  O    2.395460   0.000000
     3  C    1.427419   1.427420   0.000000
     4  C    1.421369   2.884899   2.365106   0.000000
     5  C    2.851681   1.421470   2.365189   3.456052   0.000000
     6  H    2.069678   2.054852   1.095607   2.617580   3.299436
     7  H    2.052447   2.065229   1.095520   3.296782   2.637361
     8  H    2.075106   3.256519   2.628756   1.094300   4.162740
     9  H    2.046222   3.879670   3.297358   1.093467   4.216545
    10  H    2.083192   2.603629   2.669467   1.093666   3.018782
    11  H    2.581426   2.083391   2.681863   3.000586   1.093631
    12  H    3.184765   2.076027   2.618781   4.127004   1.094390
    13  H    3.862657   2.045964   3.296674   4.249165   1.093410
                    6          7          8          9         10
     6  H    0.000000
     7  H    1.765058   0.000000
     8  H    2.402503   3.602226   0.000000
     9  H    3.597603   4.089912   1.775276   0.000000
    10  H    3.038717   3.669160   1.793124   1.773228   0.000000
    11  H    3.666185   3.092100   3.908629   3.539425   2.516280
    12  H    3.611746   2.414866   4.835572   4.824217   3.903119
    13  H    4.092654   3.601378   4.900966   5.018173   3.592780
                   11         12         13
    11  H    0.000000
    12  H    1.793609   0.000000
    13  H    1.772146   1.775252   0.000000
 Stoichiometry    C3H8O2
 Framework group  C1[X(C3H8O2)]
 Deg. of freedom    33
 Full point group                 C1      NOp   1
 Largest Abelian subgroup         C1      NOp   1
 Largest concise Abelian subgroup C1      NOp   1
                         Standard orientation:                         
 ---------------------------------------------------------------------
 Center     Atomic      Atomic             Coordinates (Angstroms)
 Number     Number       Type             X           Y           Z
 ---------------------------------------------------------------------
      1          8           0       -0.995431    0.194947    0.654953
      2          8           0        1.015670    0.230181   -0.645994
      3          6           0        0.000048    0.988990    0.009939
      4          6           0       -1.715950   -0.615388   -0.264014
      5          6           0        1.701912   -0.636169    0.247922
      6          1           0       -0.475222    1.641739   -0.730595
      7          1           0        0.463516    1.634425    0.764111
      8          1           0       -2.212076    0.006439   -1.015467
      9          1           0       -2.481200   -1.164291    0.291655
     10          1           0       -1.058171   -1.340463   -0.751556
     11          1           0        1.032181   -1.402707    0.647806
     12          1           0        2.151923   -0.065469    1.066141
     13          1           0        2.501071   -1.135296   -0.306842
 ---------------------------------------------------------------------
 Rotational constants (GHZ):           9.3989223           3.4428731           3.1222210
 Standard basis: 6-311++G(d,p) (5D, 7F)
 There are   171 symmetry adapted cartesian basis functions of A   symmetry.
 There are   166 symmetry adapted basis functions of A   symmetry.
   166 basis functions,   252 primitive gaussians,   171 cartesian basis functions
    21 alpha electrons       21 beta electrons
       nuclear repulsion energy       198.0123373744 Hartrees.
 NAtoms=   13 NActive=   13 NUniq=   13 SFac= 1.00D+00 NAtFMM=   60 NAOKFM=F Big=F
 Integral buffers will be    131072 words long.
 Raffenetti 2 integral format.
 Two-electron integral symmetry is turned on.
 R6APFD:  NTU= -4 IXU= 1 FactS= 1.050
 Nuclear repulsion after empirical dispersion term =      198.0062705253 Hartrees.
 One-electron integrals computed using PRISM.
 NBasis=   166 RedAO= T EigKep=  2.34D-04  NBF=   166
 NBsUse=   166 1.00D-06 EigRej= -1.00D+00 NBFU=   166
 ExpMin= 3.60D-02 ExpMax= 8.59D+03 ExpMxC= 1.30D+03 IAcc=3 IRadAn=         5 AccDes= 0.00D+00
 Harris functional with IExCor= 1009 and IRadAn=       5 diagonalized for initial guess.
 HarFok:  IExCor= 1009 AccDes= 0.00D+00 IRadAn=         5 IDoV= 1 UseB2=F ITyADJ=14
 ICtDFT=  3500011 ScaDFX=  1.000000  1.000000  1.000000  1.000000
 FoFCou: FMM=F IPFlag=           0 FMFlag=      100000 FMFlg1=           0
         NFxFlg=           0 DoJE=T BraDBF=F KetDBF=T FulRan=T
         wScrn=  0.000000 ICntrl=       500 IOpCl=  0 I1Cent=   200000004 NGrid=           0
         NMat0=    1 NMatS0=      1 NMatT0=    0 NMatD0=    1 NMtDS0=    0 NMtDT0=    0
 Petite list used in FoFCou.
 Requested convergence on RMS density matrix=1.00D-08 within  32 cycles.
 Requested convergence on MAX density matrix=1.00D-06.
 Requested convergence on             energy=1.00D-06.
 No special actions if energy rises.
 SCF Done:  E(RM08HX) =  -269.540341160     A.U. after   11 cycles
            NFock= 11  Conv=0.96D-08     -V/T= 2.0046
 QCSCF skips out because SCF is already converged.

 **********************************************************************

            Population analysis using the SCF Density.

 **********************************************************************

 Orbital symmetries:
       Occupied  (A) (A) (A) (A) (A) (A) (A) (A) (A) (A) (A) (A)
                 (A) (A) (A) (A) (A) (A) (A) (A) (A)
       Virtual   (A) (A) (A) (A) (A) (A) (A) (A) (A) (A) (A) (A)
                 (A) (A) (A) (A) (A) (A) (A) (A) (A) (A) (A) (A)
                 (A) (A) (A) (A) (A) (A) (A) (A) (A) (A) (A) (A)
                 (A) (A) (A) (A) (A) (A) (A) (A) (A) (A) (A) (A)
                 (A) (A) (A) (A) (A) (A) (A) (A) (A) (A) (A) (A)
                 (A) (A) (A) (A) (A) (A) (A) (A) (A) (A) (A) (A)
                 (A) (A) (A) (A) (A) (A) (A) (A) (A) (A) (A) (A)
                 (A) (A) (A) (A) (A) (A) (A) (A) (A) (A) (A) (A)
                 (A) (A) (A) (A) (A) (A) (A) (A) (A) (A) (A) (A)
                 (A) (A) (A) (A) (A) (A) (A) (A) (A) (A) (A) (A)
                 (A) (A) (A) (A) (A) (A) (A) (A) (A) (A) (A) (A)
                 (A) (A) (A) (A) (A) (A) (A) (A) (A) (A) (A) (A)
                 (A)
 The electronic state is 1-A.
 Alpha  occ. eigenvalues --  -19.62326 -19.62252 -10.62887 -10.57094 -10.57022
 Alpha  occ. eigenvalues --   -1.18958  -1.12796  -0.83577  -0.78671  -0.70663
 Alpha  occ. eigenvalues --   -0.58574  -0.58509  -0.57855  -0.52027  -0.50274
 Alpha  occ. eigenvalues --   -0.49188  -0.45195  -0.43413  -0.38159  -0.35694
 Alpha  occ. eigenvalues --   -0.35201
 Alpha virt. eigenvalues --   -0.02525  -0.01042  -0.00667   0.00323   0.01817
 Alpha virt. eigenvalues --    0.02217   0.02778   0.03624   0.04745   0.06162
 Alpha virt. eigenvalues --    0.06793   0.07895   0.09531   0.10506   0.11654
 Alpha virt. eigenvalues --    0.11932   0.12290   0.12512   0.13719   0.14368
 Alpha virt. eigenvalues --    0.18466   0.18756   0.19862   0.20230   0.21054
 Alpha virt. eigenvalues --    0.22384   0.23368   0.23661   0.25289   0.25809
 Alpha virt. eigenvalues --    0.27108   0.29632   0.29766   0.31313   0.31621
 Alpha virt. eigenvalues --    0.31881   0.34816   0.35269   0.38121   0.39056
 Alpha virt. eigenvalues --    0.43780   0.47312   0.48453   0.51190   0.58474
 Alpha virt. eigenvalues --    0.59114   0.62167   0.64188   0.65912   0.66804
 Alpha virt. eigenvalues --    0.67513   0.68898   0.69063   0.70095   0.71997
 Alpha virt. eigenvalues --    0.72141   0.73455   0.90984   0.94070   0.98427
 Alpha virt. eigenvalues --    1.01190   1.05876   1.07591   1.12709   1.14215
 Alpha virt. eigenvalues --    1.17570   1.25111   1.28773   1.34608   1.35062
 Alpha virt. eigenvalues --    1.36260   1.39218   1.48293   1.50003   1.53574
 Alpha virt. eigenvalues --    1.54910   1.58418   1.58638   1.60399   1.62943
 Alpha virt. eigenvalues --    1.64412   1.67668   1.69435   1.71533   1.72616
 Alpha virt. eigenvalues --    1.74717   1.76238   1.77438   1.80540   1.83527
 Alpha virt. eigenvalues --    1.97817   1.98791   2.04921   2.05721   2.14990
 Alpha virt. eigenvalues --    2.16503   2.18471   2.19675   2.24529   2.41926
 Alpha virt. eigenvalues --    2.43628   2.44497   2.46075   2.49614   2.49756
 Alpha virt. eigenvalues --    2.55244   2.56022   2.56757   2.58961   2.62281
 Alpha virt. eigenvalues --    2.62622   2.70062   2.78300   2.83658   2.89336
 Alpha virt. eigenvalues --    2.89784   3.01379   3.05044   3.05617   3.09991
 Alpha virt. eigenvalues --    3.20106   3.22253   3.28542   3.32578   3.44428
 Alpha virt. eigenvalues --    3.77235   3.79654   3.82357   3.86317   3.86511
 Alpha virt. eigenvalues --    4.04277   4.11032   4.11659   4.19937   5.20418
 Alpha virt. eigenvalues --    5.21818   5.41406   5.50406   5.69022   5.81544
 Alpha virt. eigenvalues --   23.85046  23.97957  23.98391  49.89999  49.92723
          Condensed to atoms (all electrons):
               1          2          3          4          5          6
     1  O    8.102733  -0.068627   0.219332   0.134653  -0.005619  -0.025353
     2  O   -0.068627   8.104018   0.222594  -0.008007   0.134588  -0.107662
     3  C    0.219332   0.222594   5.697252  -0.221476  -0.211397   0.369281
     4  C    0.134653  -0.008007  -0.221476   5.319447   0.026598   0.009450
     5  C   -0.005619   0.134588  -0.211397   0.026598   5.309113   0.014185
     6  H   -0.025353  -0.107662   0.369281   0.009450   0.014185   0.588965
     7  H   -0.104673  -0.025425   0.378323   0.008258   0.000131  -0.083768
     8  H   -0.046890  -0.013760   0.001776   0.398034   0.001077   0.007670
     9  H   -0.060033   0.001145   0.011531   0.401571   0.001677  -0.000597
    10  H   -0.047790   0.030573  -0.007041   0.387751  -0.012092   0.000257
    11  H    0.027311  -0.046438  -0.005241  -0.013481   0.388555   0.000384
    12  H   -0.014850  -0.047286  -0.000156   0.001275   0.398491  -0.001327
    13  H    0.002484  -0.060640   0.011908   0.001591   0.400060  -0.000803
               7          8          9         10         11         12
     1  O   -0.104673  -0.046890  -0.060033  -0.047790   0.027311  -0.014850
     2  O   -0.025425  -0.013760   0.001145   0.030573  -0.046438  -0.047286
     3  C    0.378323   0.001776   0.011531  -0.007041  -0.005241  -0.000156
     4  C    0.008258   0.398034   0.401571   0.387751  -0.013481   0.001275
     5  C    0.000131   0.001077   0.001677  -0.012092   0.388555   0.398491
     6  H   -0.083768   0.007670  -0.000597   0.000257   0.000384  -0.001327
     7  H    0.584403  -0.000695  -0.000952   0.001133   0.001679   0.009175
     8  H   -0.000695   0.572403  -0.026509  -0.071721   0.004540  -0.000739
     9  H   -0.000952  -0.026509   0.505166  -0.040889  -0.002296   0.000299
    10  H    0.001133  -0.071721  -0.040889   0.590549  -0.010200   0.004382
    11  H    0.001679   0.004540  -0.002296  -0.010200   0.591388  -0.071936
    12  H    0.009175  -0.000739   0.000299   0.004382  -0.071936   0.573780
    13  H   -0.001105   0.000309   0.000500  -0.001926  -0.040323  -0.027496
              13
     1  O    0.002484
     2  O   -0.060640
     3  C    0.011908
     4  C    0.001591
     5  C    0.400060
     6  H   -0.000803
     7  H   -0.001105
     8  H    0.000309
     9  H    0.000500
    10  H   -0.001926
    11  H   -0.040323
    12  H   -0.027496
    13  H    0.506159
 Mulliken charges:
               1
     1  O   -0.112680
     2  O   -0.115073
     3  C   -0.466687
     4  C   -0.445663
     5  C   -0.445366
     6  H    0.229319
     7  H    0.233516
     8  H    0.174506
     9  H    0.209389
    10  H    0.177014
    11  H    0.176057
    12  H    0.176389
    13  H    0.209281
 Sum of Mulliken charges =  -0.00000
 Mulliken charges with hydrogens summed into heavy atoms:
               1
     1  O   -0.112680
     2  O   -0.115073
     3  C   -0.003852
     4  C    0.115245
     5  C    0.116360
 Electronic spatial extent (au):  <R**2>=            466.0938
 Charge=             -0.0000 electrons
 Dipole moment (field-independent basis, Debye):
    X=             -0.0678    Y=             -0.3630    Z=             -0.0142  Tot=              0.3695
 Quadrupole moment (field-independent basis, Debye-Ang):
   XX=            -29.8392   YY=            -29.3177   ZZ=            -35.2188
   XY=             -0.1171   XZ=              3.9210   YZ=              0.1004
 Traceless Quadrupole moment (field-independent basis, Debye-Ang):
   XX=              1.6194   YY=              2.1408   ZZ=             -3.7602
   XY=             -0.1171   XZ=              3.9210   YZ=              0.1004
 Octapole moment (field-independent basis, Debye-Ang**2):
  XXX=             -0.1843  YYY=              3.4135  ZZZ=              0.0698  XYY=             -0.1679
  XXY=             -5.8042  XXZ=             -0.0037  XZZ=              0.0999  YZZ=              0.5569
  YYZ=              0.0334  XYZ=              2.8827
 Hexadecapole moment (field-independent basis, Debye-Ang**3):
 XXXX=           -370.2251 YYYY=           -138.2141 ZZZZ=            -91.7680 XXXY=             -0.2553
 XXXZ=             -2.3800 YYYX=              0.1862 YYYZ=             -0.1030 ZZZX=             -0.1832
 ZZZY=              0.1463 XXYY=            -84.6861 XXZZ=            -80.5956 YYZZ=            -36.6741
 XXYZ=             -0.0183 YYXZ=             -0.7158 ZZXY=              0.0429
 N-N= 1.980062705253D+02 E-N=-1.026934650608D+03  KE= 2.683101161967D+02
 R6APFD:  NTU= -4 IXU= 1 FactS= 1.050
 Calling FoFJK, ICntrl=      2127 FMM=F ISym2X=0 I1Cent= 0 IOpClX= 0 NMat=1 NMatS=1 NMatT=0.
 ***** Axes restored to original set *****
 -------------------------------------------------------------------
 Center     Atomic                   Forces (Hartrees/Bohr)
 Number     Number              X              Y              Z
 -------------------------------------------------------------------
      1        8          -0.016417752    0.006791055    0.007723425
      2        8           0.017275925    0.005104393   -0.006606946
      3        6          -0.000543357   -0.015792418   -0.000933426
      4        6          -0.002193135    0.002515425   -0.006636721
      5        6           0.001572557    0.003190454    0.006590047
      6        1          -0.002142422   -0.003439172    0.007593377
      7        1           0.002225319   -0.003469747   -0.007593974
      8        1           0.000305715    0.001666040    0.004498912
      9        1          -0.000597836    0.001686901   -0.002717179
     10        1          -0.002754642   -0.000735137    0.003268075
     11        1           0.002777835   -0.000810809   -0.003217011
     12        1           0.000078123    0.001277765   -0.004688401
     13        1           0.000413671    0.002015251    0.002719822
 -------------------------------------------------------------------
 Cartesian Forces:  Max     0.017275925 RMS     0.005906366

 GradGradGradGradGradGradGradGradGradGradGradGradGradGradGradGradGradGrad
 Berny optimization.
 FormGI is forming the generalized inverse of G from B-inverse, IUseBI=4.
 Internal  Forces:  Max     0.024823860 RMS     0.006368814
 Search for a local minimum.
 Step number   1 out of a maximum of   54
 All quantities printed in internal units (Hartrees-Bohrs-Radians)
 Mixed Optimization -- RFO/linear search
 Second derivative matrix not updated -- first step.
 ITU=  0
     Eigenvalues ---    0.01329   0.01329   0.01408   0.01409   0.07535
     Eigenvalues ---    0.09435   0.10092   0.10102   0.10481   0.10483
     Eigenvalues ---    0.12576   0.14648   0.16000   0.16000   0.16000
     Eigenvalues ---    0.16000   0.16000   0.16000   0.22203   0.25000
     Eigenvalues ---    0.25000   0.34173   0.34182   0.34310   0.34320
     Eigenvalues ---    0.34392   0.34396   0.34415   0.34421   0.41362
     Eigenvalues ---    0.41362   0.42240   0.42255
 RFO step:  Lambda=-6.16435880D-03 EMin= 1.32906435D-02
 Linear search not attempted -- first point.
 Iteration  1 RMS(Cart)=  0.06917942 RMS(Int)=  0.00084660
 Iteration  2 RMS(Cart)=  0.00100483 RMS(Int)=  0.00029046
 Iteration  3 RMS(Cart)=  0.00000063 RMS(Int)=  0.00029046
 Variable       Old X    -DE/DX   Delta X   Delta X   Delta X     New X
                                 (Linear)    (Quad)   (Total)
    R1        2.69743  -0.02482   0.00000  -0.05913  -0.05913   2.63830
    R2        2.68600  -0.00644   0.00000  -0.01501  -0.01501   2.67098
    R3        2.69743  -0.02419   0.00000  -0.05763  -0.05763   2.63980
    R4        2.68619  -0.00655   0.00000  -0.01529  -0.01529   2.67090
    R5        2.07040   0.00240   0.00000   0.00689   0.00689   2.07729
    R6        2.07023   0.00257   0.00000   0.00740   0.00740   2.07763
    R7        2.06793   0.00427   0.00000   0.01223   0.01223   2.08016
    R8        2.06635  -0.00003   0.00000  -0.00009  -0.00009   2.06626
    R9        2.06673   0.00355   0.00000   0.01015   0.01015   2.07688
   R10        2.06666   0.00337   0.00000   0.00962   0.00962   2.07629
   R11        2.06810   0.00426   0.00000   0.01220   0.01220   2.08030
   R12        2.06625   0.00003   0.00000   0.00009   0.00009   2.06634
    A1        1.95898  -0.00567   0.00000  -0.02215  -0.02215   1.93684
    A2        1.95898  -0.00535   0.00000  -0.02089  -0.02089   1.93809
    A3        1.99121  -0.00655   0.00000  -0.03729  -0.03779   1.95341
    A4        1.91168   0.00579   0.00000   0.02875   0.02796   1.93964
    A5        1.88778  -0.00524   0.00000  -0.03957  -0.03957   1.84820
    A6        1.89101  -0.00569   0.00000  -0.04627  -0.04651   1.84450
    A7        1.90554   0.00657   0.00000   0.03789   0.03747   1.94301
    A8        1.87320   0.00596   0.00000   0.06365   0.06390   1.93710
    A9        1.92820   0.00145   0.00000   0.00771   0.00774   1.93593
   A10        1.88851  -0.00431   0.00000  -0.02431  -0.02428   1.86423
   A11        1.94046   0.00033   0.00000   0.00131   0.00132   1.94178
   A12        1.89328   0.00194   0.00000   0.01299   0.01303   1.90631
   A13        1.92121  -0.00214   0.00000  -0.01583  -0.01582   1.90540
   A14        1.89088   0.00277   0.00000   0.01861   0.01863   1.90951
   A15        1.94066   0.00051   0.00000   0.00239   0.00241   1.94307
   A16        1.92928   0.00134   0.00000   0.00684   0.00686   1.93615
   A17        1.88809  -0.00446   0.00000  -0.02503  -0.02500   1.86310
   A18        1.92191  -0.00233   0.00000  -0.01739  -0.01737   1.90454
   A19        1.88931   0.00296   0.00000   0.02025   0.02027   1.90958
   A20        1.89320   0.00204   0.00000   0.01349   0.01352   1.90672
    D1       -1.08576   0.00276   0.00000   0.02725   0.02790  -1.05786
    D2        1.03709  -0.00483   0.00000  -0.03714  -0.03719   0.99990
    D3        3.07346   0.00250   0.00000   0.03224   0.03164   3.10510
    D4       -1.03506   0.00066   0.00000   0.00494   0.00492  -1.03014
    D5       -3.10529   0.00007   0.00000  -0.00058  -0.00056  -3.10585
    D6        1.10343  -0.00083   0.00000  -0.00896  -0.00896   1.09447
    D7       -1.02171   0.00134   0.00000  -0.01167  -0.01069  -1.03241
    D8        3.12725   0.00250   0.00000   0.01067   0.00979   3.13704
    D9        1.09243  -0.00502   0.00000  -0.06008  -0.06017   1.03225
   D10        1.13030  -0.00096   0.00000  -0.00987  -0.00986   1.12045
   D11       -1.00998   0.00072   0.00000   0.00589   0.00587  -1.00411
   D12       -3.08048   0.00018   0.00000   0.00072   0.00073  -3.07976
         Item               Value     Threshold  Converged?
 Maximum Force            0.024824     0.000450     NO 
 RMS     Force            0.006369     0.000300     NO 
 Maximum Displacement     0.182047     0.001800     NO 
 RMS     Displacement     0.069434     0.001200     NO 
 Predicted change in Energy=-3.172158D-03
 GradGradGradGradGradGradGradGradGradGradGradGradGradGradGradGradGradGrad

                          Input orientation:                          
 ---------------------------------------------------------------------
 Center     Atomic      Atomic             Coordinates (Angstroms)
 Number     Number       Type             X           Y           Z
 ---------------------------------------------------------------------
      1          8           0        0.990432    0.163248   -0.603141
      2          8           0       -0.991093    0.191622    0.592514
      3          6           0        0.001712    0.958977   -0.021405
      4          6           0        1.631324   -0.638448    0.368614
      5          6           0       -1.614134   -0.670690   -0.338016
      6          1           0        0.420099    1.593767    0.772543
      7          1           0       -0.411848    1.569538   -0.836845
      8          1           0        2.093232   -0.015377    1.149715
      9          1           0        2.411416   -1.201815   -0.150652
     10          1           0        0.925036   -1.338708    0.836246
     11          1           0       -0.904851   -1.410100   -0.734732
     12          1           0       -2.046160   -0.100374   -1.174651
     13          1           0       -2.415265   -1.186838    0.198111
 ---------------------------------------------------------------------
                    Distance matrix (angstroms):
                    1          2          3          4          5
     1  O    0.000000
     2  O    2.314484   0.000000
     3  C    1.396126   1.396922   0.000000
     4  C    1.413424   2.759750   2.315064   0.000000
     5  C    2.747636   1.413381   2.316681   3.321651   0.000000
     6  H    2.064987   1.997470   1.099254   2.571577   3.240249
     7  H    1.999664   2.068150   1.099435   3.240816   2.590934
     8  H    2.078601   3.141081   2.587537   1.100771   4.048129
     9  H    2.021717   3.751137   3.239198   1.093417   4.064757
    10  H    2.081342   2.464319   2.620582   1.099039   2.876199
    11  H    2.466746   2.081954   2.634998   2.871412   1.098723
    12  H    3.101130   2.078773   2.577980   4.024311   1.100847
    13  H    3.750134   2.020883   3.239519   4.087137   1.093459
                    6          7          8          9         10
     6  H    0.000000
     7  H    1.811864   0.000000
     8  H    2.351803   3.568445   0.000000
     9  H    3.554280   4.015230   1.788807   0.000000
    10  H    2.976311   3.611701   1.792805   1.789422   0.000000
    11  H    3.612560   3.021873   3.805903   3.373746   2.412790
    12  H    3.569890   2.360867   4.748102   4.704437   3.795416
    13  H    4.012608   3.561239   4.754411   4.839288   3.404099
                   11         12         13
    11  H    0.000000
    12  H    1.792065   0.000000
    13  H    1.789243   1.789167   0.000000
 Stoichiometry    C3H8O2
 Framework group  C1[X(C3H8O2)]
 Deg. of freedom    33
 Full point group                 C1      NOp   1
 Largest Abelian subgroup         C1      NOp   1
 Largest concise Abelian subgroup C1      NOp   1
                         Standard orientation:                         
 ---------------------------------------------------------------------
 Center     Atomic      Atomic             Coordinates (Angstroms)
 Number     Number       Type             X           Y           Z
 ---------------------------------------------------------------------
      1          8           0       -0.948625    0.202654    0.659066
      2          8           0        0.956531    0.216774   -0.655093
      3          6           0       -0.000896    0.991406    0.004202
      4          6           0       -1.643415   -0.618929   -0.257469
      5          6           0        1.639061   -0.626180    0.251123
      6          1           0       -0.469762    1.610122   -0.774075
      7          1           0        0.458422    1.618200    0.781965
      8          1           0       -2.154884   -0.011861   -1.020072
      9          1           0       -2.387819   -1.175710    0.318221
     10          1           0       -0.963421   -1.324899   -0.754562
     11          1           0        0.958750   -1.360929    0.703353
     12          1           0        2.118292   -0.039171    1.049636
     13          1           0        2.408673   -1.148956   -0.323380
 ---------------------------------------------------------------------
 Rotational constants (GHZ):           9.3859494           3.6945309           3.3447507
 Standard basis: 6-311++G(d,p) (5D, 7F)
 There are   171 symmetry adapted cartesian basis functions of A   symmetry.
 There are   166 symmetry adapted basis functions of A   symmetry.
   166 basis functions,   252 primitive gaussians,   171 cartesian basis functions
    21 alpha electrons       21 beta electrons
       nuclear repulsion energy       201.6550361105 Hartrees.
 NAtoms=   13 NActive=   13 NUniq=   13 SFac= 1.00D+00 NAtFMM=   60 NAOKFM=F Big=F
 Integral buffers will be    131072 words long.
 Raffenetti 2 integral format.
 Two-electron integral symmetry is turned on.
 R6APFD:  NTU= -4 IXU= 1 FactS= 1.050
 Nuclear repulsion after empirical dispersion term =      201.6489123288 Hartrees.
 One-electron integrals computed using PRISM.
 NBasis=   166 RedAO= T EigKep=  2.15D-04  NBF=   166
 NBsUse=   166 1.00D-06 EigRej= -1.00D+00 NBFU=   166
 Initial guess from the checkpoint file:  "DMXY0103.chk"
 B after Tr=     0.000000    0.000000   -0.000000
         Rot=    0.999980    0.005870   -0.002133   -0.000981 Ang=   0.72 deg.
 ExpMin= 3.60D-02 ExpMax= 8.59D+03 ExpMxC= 1.30D+03 IAcc=3 IRadAn=         5 AccDes= 0.00D+00
 Harris functional with IExCor= 1009 and IRadAn=       5 diagonalized for initial guess.
 HarFok:  IExCor= 1009 AccDes= 0.00D+00 IRadAn=         5 IDoV= 1 UseB2=F ITyADJ=14
 ICtDFT=  3500011 ScaDFX=  1.000000  1.000000  1.000000  1.000000
 FoFCou: FMM=F IPFlag=           0 FMFlag=      100000 FMFlg1=           0
         NFxFlg=           0 DoJE=T BraDBF=F KetDBF=T FulRan=T
         wScrn=  0.000000 ICntrl=       500 IOpCl=  0 I1Cent=   200000004 NGrid=           0
         NMat0=    1 NMatS0=      1 NMatT0=    0 NMatD0=    1 NMtDS0=    0 NMtDT0=    0
 Petite list used in FoFCou.
 Requested convergence on RMS density matrix=1.00D-08 within  32 cycles.
 Requested convergence on MAX density matrix=1.00D-06.
 Requested convergence on             energy=1.00D-06.
 No special actions if energy rises.
 SCF Done:  E(RM08HX) =  -269.542817684     A.U. after   10 cycles
            NFock= 10  Conv=0.75D-08     -V/T= 2.0040
 QCSCF skips out because SCF is already converged.
 R6APFD:  NTU= -4 IXU= 1 FactS= 1.050
 Calling FoFJK, ICntrl=      2127 FMM=F ISym2X=0 I1Cent= 0 IOpClX= 0 NMat=1 NMatS=1 NMatT=0.
 ***** Axes restored to original set *****
 -------------------------------------------------------------------
 Center     Atomic                   Forces (Hartrees/Bohr)
 Number     Number              X              Y              Z
 -------------------------------------------------------------------
      1        8           0.001870839    0.002435784    0.002374983
      2        8          -0.001487581    0.002192457   -0.002749281
      3        6           0.000081350   -0.002189907    0.000525652
      4        6           0.003084232   -0.002676816   -0.003789385
      5        6          -0.003570353   -0.002067797    0.003901262
      6        1           0.000463422    0.001243457    0.000365730
      7        1          -0.000637902    0.000619364   -0.000509745
      8        1          -0.000418682    0.000112396    0.000753364
      9        1           0.000262777   -0.000060239    0.000681843
     10        1           0.000611115    0.000315660    0.000835905
     11        1          -0.000441949    0.000204884   -0.000915576
     12        1           0.000420023    0.000015969   -0.000738674
     13        1          -0.000237292   -0.000145213   -0.000736078
 -------------------------------------------------------------------
 Cartesian Forces:  Max     0.003901262 RMS     0.001647360

 GradGradGradGradGradGradGradGradGradGradGradGradGradGradGradGradGradGrad
 Berny optimization.
 Using GEDIIS/GDIIS optimizer.
 FormGI is forming the generalized inverse of G from B-inverse, IUseBI=4.
 Internal  Forces:  Max     0.009440530 RMS     0.002793303
 Search for a local minimum.
 Step number   2 out of a maximum of   54
 All quantities printed in internal units (Hartrees-Bohrs-Radians)
 Mixed Optimization -- RFO/linear search
 Update second derivatives using D2CorX and points    1    2
 DE= -2.48D-03 DEPred=-3.17D-03 R= 7.81D-01
 TightC=F SS=  1.41D+00  RLast= 1.74D-01 DXNew= 5.0454D-01 5.2349D-01
 Trust test= 7.81D-01 RLast= 1.74D-01 DXMaxT set to 5.05D-01
 ITU=  1  0
 Use linear search instead of GDIIS.
     Eigenvalues ---    0.01306   0.01335   0.01408   0.01409   0.08007
     Eigenvalues ---    0.09570   0.10102   0.10117   0.10572   0.10573
     Eigenvalues ---    0.12232   0.14162   0.15787   0.16000   0.16000
     Eigenvalues ---    0.16000   0.16000   0.16121   0.23068   0.25000
     Eigenvalues ---    0.27755   0.34007   0.34179   0.34311   0.34320
     Eigenvalues ---    0.34395   0.34415   0.34421   0.34486   0.41361
     Eigenvalues ---    0.42015   0.42248   0.48233
 RFO step:  Lambda=-9.90962187D-04 EMin= 1.30627571D-02
 Quartic linear search produced a step of -0.17747.
 Iteration  1 RMS(Cart)=  0.08663457 RMS(Int)=  0.00114148
 Iteration  2 RMS(Cart)=  0.00196869 RMS(Int)=  0.00006338
 Iteration  3 RMS(Cart)=  0.00000147 RMS(Int)=  0.00006337
 Iteration  4 RMS(Cart)=  0.00000000 RMS(Int)=  0.00006337
 Variable       Old X    -DE/DX   Delta X   Delta X   Delta X     New X
                                 (Linear)    (Quad)   (Total)
    R1        2.63830   0.00341   0.01049  -0.01342  -0.00293   2.63537
    R2        2.67098   0.00186   0.00266  -0.00151   0.00116   2.67214
    R3        2.63980   0.00314   0.01023  -0.01346  -0.00323   2.63657
    R4        2.67090   0.00190   0.00271  -0.00152   0.00119   2.67209
    R5        2.07729   0.00116  -0.00122   0.00515   0.00392   2.08121
    R6        2.07763   0.00096  -0.00131   0.00485   0.00354   2.08117
    R7        2.08016   0.00042  -0.00217   0.00521   0.00304   2.08319
    R8        2.06626  -0.00010   0.00002  -0.00028  -0.00026   2.06600
    R9        2.07688  -0.00024  -0.00180   0.00292   0.00111   2.07800
   R10        2.07629  -0.00009  -0.00171   0.00308   0.00137   2.07766
   R11        2.08030   0.00040  -0.00217   0.00515   0.00299   2.08329
   R12        2.06634  -0.00012  -0.00002  -0.00025  -0.00026   2.06608
    A1        1.93684   0.00944   0.00393   0.02319   0.02712   1.96396
    A2        1.93809   0.00929   0.00371   0.02315   0.02685   1.96495
    A3        1.95341   0.00943   0.00671   0.02285   0.02966   1.98307
    A4        1.93964  -0.00274  -0.00496   0.00086  -0.00397   1.93567
    A5        1.84820  -0.00172   0.00702  -0.01886  -0.01182   1.83638
    A6        1.84450  -0.00142   0.00825  -0.01827  -0.01000   1.83451
    A7        1.94301  -0.00322  -0.00665   0.00008  -0.00647   1.93654
    A8        1.93710  -0.00029  -0.01134   0.01453   0.00309   1.94020
    A9        1.93593  -0.00050  -0.00137  -0.00076  -0.00214   1.93379
   A10        1.86423   0.00119   0.00431  -0.00136   0.00293   1.86716
   A11        1.94178   0.00095  -0.00023   0.00502   0.00477   1.94656
   A12        1.90631  -0.00021  -0.00231   0.00412   0.00179   1.90810
   A13        1.90540  -0.00120   0.00281  -0.01403  -0.01123   1.89416
   A14        1.90951  -0.00021  -0.00331   0.00762   0.00429   1.91380
   A15        1.94307   0.00083  -0.00043   0.00474   0.00429   1.94736
   A16        1.93615  -0.00044  -0.00122  -0.00079  -0.00201   1.93413
   A17        1.86310   0.00130   0.00444  -0.00101   0.00341   1.86651
   A18        1.90454  -0.00120   0.00308  -0.01471  -0.01163   1.89291
   A19        1.90958  -0.00021  -0.00360   0.00820   0.00457   1.91415
   A20        1.90672  -0.00024  -0.00240   0.00422   0.00181   1.90853
    D1       -1.05786  -0.00145  -0.00495  -0.03469  -0.03981  -1.09766
    D2        0.99990   0.00109   0.00660  -0.04227  -0.03566   0.96424
    D3        3.10510  -0.00186  -0.00561  -0.03586  -0.04132   3.06378
    D4       -1.03014   0.00068  -0.00087   0.01689   0.01603  -1.01411
    D5       -3.10585   0.00049   0.00010   0.01317   0.01328  -3.09256
    D6        1.09447  -0.00053   0.00159   0.00193   0.00351   1.09798
    D7       -1.03241  -0.00126   0.00190  -0.06724  -0.06553  -1.09794
    D8        3.13704  -0.00239  -0.00174  -0.06964  -0.07118   3.06585
    D9        1.03225   0.00064   0.01068  -0.07594  -0.06527   0.96698
   D10        1.12045  -0.00059   0.00175  -0.00081   0.00092   1.12137
   D11       -1.00411   0.00067  -0.00104   0.01523   0.01419  -0.98991
   D12       -3.07976   0.00042  -0.00013   0.01119   0.01107  -3.06869
         Item               Value     Threshold  Converged?
 Maximum Force            0.009441     0.000450     NO 
 RMS     Force            0.002793     0.000300     NO 
 Maximum Displacement     0.232440     0.001800     NO 
 RMS     Displacement     0.085777     0.001200     NO 
 Predicted change in Energy=-6.182419D-04
 GradGradGradGradGradGradGradGradGradGradGradGradGradGradGradGradGradGrad

                          Input orientation:                          
 ---------------------------------------------------------------------
 Center     Atomic      Atomic             Coordinates (Angstroms)
 Number     Number       Type             X           Y           Z
 ---------------------------------------------------------------------
      1          8           0        1.021187    0.142548   -0.580096
      2          8           0       -1.008906    0.163406    0.572747
      3          6           0        0.003616    0.916309   -0.022701
      4          6           0        1.709154   -0.625911    0.387204
      5          6           0       -1.692175   -0.657114   -0.354246
      6          1           0        0.394390    1.559000    0.781769
      7          1           0       -0.391345    1.518246   -0.856100
      8          1           0        2.144601    0.022692    1.164980
      9          1           0        2.511833   -1.152857   -0.135569
     10          1           0        1.043170   -1.354229    0.872177
     11          1           0       -1.027853   -1.419501   -0.785792
     12          1           0       -2.111808   -0.054175   -1.176269
     13          1           0       -2.505963   -1.143613    0.190196
 ---------------------------------------------------------------------
                    Distance matrix (angstroms):
                    1          2          3          4          5
     1  O    0.000000
     2  O    2.334686   0.000000
     3  C    1.394577   1.395214   0.000000
     4  C    1.414036   2.836423   2.335664   0.000000
     5  C    2.837746   1.414011   2.336940   3.481346   0.000000
     6  H    2.062495   1.990129   1.101330   2.580333   3.248915
     7  H    1.990972   2.063632   1.101306   3.248894   2.583835
     8  H    2.078874   3.211720   2.606330   1.102377   4.182229
     9  H    2.024279   3.824901   3.253513   1.093279   4.238782
    10  H    2.085647   2.569803   2.652701   1.099628   3.077693
    11  H    2.584739   2.086044   2.665004   3.081707   1.099450
    12  H    3.195274   2.079132   2.597609   4.167863   1.102428
    13  H    3.832538   2.023814   3.253704   4.251358   1.093320
                    6          7          8          9         10
     6  H    0.000000
     7  H    1.817045   0.000000
     8  H    2.360155   3.571060   0.000000
     9  H    3.560793   4.010287   1.791147   0.000000
    10  H    2.985966   3.646353   1.787400   1.792506   0.000000
    11  H    3.653970   3.006733   3.993733   3.608777   2.653725
    12  H    3.566129   2.352660   4.858433   4.864999   3.979969
    13  H    4.008257   3.556942   4.892670   5.028369   3.620194
                   11         12         13
    11  H    0.000000
    12  H    1.786490   0.000000
    13  H    1.792617   1.791496   0.000000
 Stoichiometry    C3H8O2
 Framework group  C1[X(C3H8O2)]
 Deg. of freedom    33
 Full point group                 C1      NOp   1
 Largest Abelian subgroup         C1      NOp   1
 Largest concise Abelian subgroup C1      NOp   1
                         Standard orientation:                         
 ---------------------------------------------------------------------
 Center     Atomic      Atomic             Coordinates (Angstroms)
 Number     Number       Type             X           Y           Z
 ---------------------------------------------------------------------
      1          8           0       -0.969349    0.195579    0.650931
      2          8           0        0.968834    0.195130   -0.650685
      3          6           0       -0.000745    0.958928   -0.000185
      4          6           0       -1.723160   -0.599855   -0.242686
      5          6           0        1.724163   -0.598931    0.242832
      6          1           0       -0.454220    1.579472   -0.788990
      7          1           0        0.451849    1.583353    0.786027
      8          1           0       -2.219223    0.027101   -1.001688
      9          1           0       -2.481492   -1.116508    0.351671
     10          1           0       -1.091037   -1.337630   -0.757750
     11          1           0        1.098352   -1.352720    0.741784
     12          1           0        2.200504    0.026303    1.015832
     13          1           0        2.497831   -1.095896   -0.348618
 ---------------------------------------------------------------------
 Rotational constants (GHZ):           9.8308829           3.4577298           3.1835469
 Standard basis: 6-311++G(d,p) (5D, 7F)
 There are   171 symmetry adapted cartesian basis functions of A   symmetry.
 There are   166 symmetry adapted basis functions of A   symmetry.
   166 basis functions,   252 primitive gaussians,   171 cartesian basis functions
    21 alpha electrons       21 beta electrons
       nuclear repulsion energy       199.9369339914 Hartrees.
 NAtoms=   13 NActive=   13 NUniq=   13 SFac= 1.00D+00 NAtFMM=   60 NAOKFM=F Big=F
 Integral buffers will be    131072 words long.
 Raffenetti 2 integral format.
 Two-electron integral symmetry is turned on.
 R6APFD:  NTU= -4 IXU= 1 FactS= 1.050
 Nuclear repulsion after empirical dispersion term =      199.9309512014 Hartrees.
 One-electron integrals computed using PRISM.
 NBasis=   166 RedAO= T EigKep=  2.13D-04  NBF=   166
 NBsUse=   166 1.00D-06 EigRej= -1.00D+00 NBFU=   166
 Initial guess from the checkpoint file:  "DMXY0103.chk"
 B after Tr=     0.000000   -0.000000   -0.000000
         Rot=    0.999985    0.003779   -0.004026   -0.000338 Ang=   0.63 deg.
 ExpMin= 3.60D-02 ExpMax= 8.59D+03 ExpMxC= 1.30D+03 IAcc=3 IRadAn=         5 AccDes= 0.00D+00
 Harris functional with IExCor= 1009 and IRadAn=       5 diagonalized for initial guess.
 HarFok:  IExCor= 1009 AccDes= 0.00D+00 IRadAn=         5 IDoV= 1 UseB2=F ITyADJ=14
 ICtDFT=  3500011 ScaDFX=  1.000000  1.000000  1.000000  1.000000
 FoFCou: FMM=F IPFlag=           0 FMFlag=      100000 FMFlg1=           0
         NFxFlg=           0 DoJE=T BraDBF=F KetDBF=T FulRan=T
         wScrn=  0.000000 ICntrl=       500 IOpCl=  0 I1Cent=   200000004 NGrid=           0
         NMat0=    1 NMatS0=      1 NMatT0=    0 NMatD0=    1 NMtDS0=    0 NMtDT0=    0
 Petite list used in FoFCou.
 Requested convergence on RMS density matrix=1.00D-08 within  32 cycles.
 Requested convergence on MAX density matrix=1.00D-06.
 Requested convergence on             energy=1.00D-06.
 No special actions if energy rises.
 SCF Done:  E(RM08HX) =  -269.543187079     A.U. after   10 cycles
            NFock= 10  Conv=0.54D-08     -V/T= 2.0042
 QCSCF skips out because SCF is already converged.
 R6APFD:  NTU= -4 IXU= 1 FactS= 1.050
 Calling FoFJK, ICntrl=      2127 FMM=F ISym2X=0 I1Cent= 0 IOpClX= 0 NMat=1 NMatS=1 NMatT=0.
 ***** Axes restored to original set *****
 -------------------------------------------------------------------
 Center     Atomic                   Forces (Hartrees/Bohr)
 Number     Number              X              Y              Z
 -------------------------------------------------------------------
      1        8           0.000102471   -0.001664717    0.000798420
      2        8          -0.000067444   -0.001356162   -0.001073933
      3        6          -0.000076981    0.001185569    0.000369866
      4        6           0.000022792    0.000090967   -0.000732800
      5        6          -0.000056081    0.000278397    0.000723000
      6        1           0.000257727    0.000869401   -0.000803251
      7        1          -0.000284506    0.000737592    0.000718303
      8        1          -0.000100168   -0.000092208   -0.000228927
      9        1          -0.000112749   -0.000078220    0.000562066
     10        1          -0.000180428    0.000167136   -0.000375577
     11        1           0.000331016    0.000104389    0.000348484
     12        1           0.000025225   -0.000061809    0.000316678
     13        1           0.000139126   -0.000180336   -0.000622329
 -------------------------------------------------------------------
 Cartesian Forces:  Max     0.001664717 RMS     0.000579905

 GradGradGradGradGradGradGradGradGradGradGradGradGradGradGradGradGradGrad
 Berny optimization.
 Using GEDIIS/GDIIS optimizer.
 FormGI is forming the generalized inverse of G from B-inverse, IUseBI=4.
 Internal  Forces:  Max     0.003424317 RMS     0.000772143
 Search for a local minimum.
 Step number   3 out of a maximum of   54
 All quantities printed in internal units (Hartrees-Bohrs-Radians)
 Mixed Optimization -- En-DIIS/RFO-DIIS
 Update second derivatives using D2CorX and points    1    2    3
 DE= -3.69D-04 DEPred=-6.18D-04 R= 5.97D-01
 TightC=F SS=  1.41D+00  RLast= 1.48D-01 DXNew= 8.4853D-01 4.4544D-01
 Trust test= 5.97D-01 RLast= 1.48D-01 DXMaxT set to 5.05D-01
 ITU=  1  1  0
 Use linear search instead of GDIIS.
     Eigenvalues ---    0.01313   0.01406   0.01407   0.01594   0.07794
     Eigenvalues ---    0.09372   0.10010   0.10111   0.10533   0.10553
     Eigenvalues ---    0.12416   0.14516   0.15972   0.16000   0.16000
     Eigenvalues ---    0.16000   0.16105   0.16434   0.23509   0.24996
     Eigenvalues ---    0.29536   0.34013   0.34179   0.34311   0.34319
     Eigenvalues ---    0.34395   0.34418   0.34450   0.34533   0.41368
     Eigenvalues ---    0.42197   0.42248   0.49263
 RFO step:  Lambda=-1.08182347D-04 EMin= 1.31316745D-02
 Quartic linear search produced a step of -0.27208.
 Iteration  1 RMS(Cart)=  0.04333616 RMS(Int)=  0.00043283
 Iteration  2 RMS(Cart)=  0.00061967 RMS(Int)=  0.00000576
 Iteration  3 RMS(Cart)=  0.00000009 RMS(Int)=  0.00000576
 Variable       Old X    -DE/DX   Delta X   Delta X   Delta X     New X
                                 (Linear)    (Quad)   (Total)
    R1        2.63537   0.00067   0.00080   0.00247   0.00327   2.63864
    R2        2.67214  -0.00076  -0.00031  -0.00025  -0.00056   2.67158
    R3        2.63657   0.00026   0.00088   0.00167   0.00254   2.63912
    R4        2.67209  -0.00080  -0.00032  -0.00029  -0.00061   2.67148
    R5        2.08121   0.00001  -0.00107   0.00093  -0.00014   2.08107
    R6        2.08117  -0.00004  -0.00096   0.00069  -0.00027   2.08090
    R7        2.08319  -0.00026  -0.00083  -0.00006  -0.00088   2.08231
    R8        2.06600  -0.00031   0.00007  -0.00067  -0.00060   2.06540
    R9        2.07800  -0.00017  -0.00030  -0.00038  -0.00069   2.07731
   R10        2.07766  -0.00001  -0.00037   0.00002  -0.00036   2.07730
   R11        2.08329  -0.00028  -0.00081  -0.00012  -0.00093   2.08236
   R12        2.06608  -0.00033   0.00007  -0.00071  -0.00064   2.06544
    A1        1.96396  -0.00053  -0.00738   0.00753   0.00015   1.96411
    A2        1.96495  -0.00083  -0.00731   0.00661  -0.00069   1.96425
    A3        1.98307  -0.00342  -0.00807   0.00075  -0.00731   1.97576
    A4        1.93567   0.00078   0.00108   0.00020   0.00129   1.93697
    A5        1.83638   0.00139   0.00322   0.00270   0.00591   1.84230
    A6        1.83451   0.00158   0.00272   0.00517   0.00790   1.84241
    A7        1.93654   0.00059   0.00176  -0.00251  -0.00075   1.93579
    A8        1.94020  -0.00101  -0.00084  -0.00680  -0.00763   1.93257
    A9        1.93379  -0.00008   0.00058  -0.00125  -0.00067   1.93312
   A10        1.86716   0.00087  -0.00080   0.00559   0.00480   1.87196
   A11        1.94656  -0.00077  -0.00130  -0.00200  -0.00330   1.94326
   A12        1.90810  -0.00014  -0.00049  -0.00017  -0.00066   1.90744
   A13        1.89416   0.00023   0.00306  -0.00192   0.00113   1.89530
   A14        1.91380  -0.00011  -0.00117  -0.00013  -0.00129   1.91251
   A15        1.94736  -0.00089  -0.00117  -0.00271  -0.00388   1.94349
   A16        1.93413  -0.00010   0.00055  -0.00123  -0.00069   1.93345
   A17        1.86651   0.00100  -0.00093   0.00628   0.00536   1.87187
   A18        1.89291   0.00032   0.00316  -0.00160   0.00157   1.89448
   A19        1.91415  -0.00014  -0.00124  -0.00028  -0.00151   1.91264
   A20        1.90853  -0.00018  -0.00049  -0.00037  -0.00086   1.90767
    D1       -1.09766   0.00025   0.01083   0.01649   0.02732  -1.07034
    D2        0.96424   0.00054   0.00970   0.02374   0.03344   0.99768
    D3        3.06378   0.00059   0.01124   0.01732   0.02855   3.09233
    D4       -1.01411   0.00023  -0.00436   0.00461   0.00025  -1.01387
    D5       -3.09256  -0.00009  -0.00361   0.00214  -0.00148  -3.09405
    D6        1.09798  -0.00006  -0.00095  -0.00007  -0.00101   1.09697
    D7       -1.09794   0.00054   0.01783   0.02299   0.04082  -1.05712
    D8        3.06585   0.00050   0.01937   0.01880   0.03817   3.10402
    D9        0.96698   0.00044   0.01776   0.02519   0.04296   1.00994
   D10        1.12137  -0.00015  -0.00025  -0.00476  -0.00500   1.11637
   D11       -0.98991   0.00013  -0.00386  -0.00003  -0.00389  -0.99381
   D12       -3.06869  -0.00020  -0.00301  -0.00270  -0.00572  -3.07440
         Item               Value     Threshold  Converged?
 Maximum Force            0.003424     0.000450     NO 
 RMS     Force            0.000772     0.000300     NO 
 Maximum Displacement     0.106930     0.001800     NO 
 RMS     Displacement     0.043559     0.001200     NO 
 Predicted change in Energy=-6.803546D-05
 GradGradGradGradGradGradGradGradGradGradGradGradGradGradGradGradGradGrad

                          Input orientation:                          
 ---------------------------------------------------------------------
 Center     Atomic      Atomic             Coordinates (Angstroms)
 Number     Number       Type             X           Y           Z
 ---------------------------------------------------------------------
      1          8           0        1.013834    0.162731   -0.584569
      2          8           0       -1.008276    0.188689    0.576036
      3          6           0        0.002741    0.944193   -0.021829
      4          6           0        1.677561   -0.636866    0.373956
      5          6           0       -1.660443   -0.666514   -0.341472
      6          1           0        0.401250    1.589134    0.776923
      7          1           0       -0.396953    1.550688   -0.849459
      8          1           0        2.115230   -0.011474    1.168648
      9          1           0        2.476664   -1.170760   -0.146582
     10          1           0        0.990961   -1.360597    0.835667
     11          1           0       -0.971268   -1.422944   -0.743000
     12          1           0       -2.078253   -0.091039   -1.183211
     13          1           0       -2.473146   -1.160442    0.197192
 ---------------------------------------------------------------------
                    Distance matrix (angstroms):
                    1          2          3          4          5
     1  O    0.000000
     2  O    2.331653   0.000000
     3  C    1.396306   1.396561   0.000000
     4  C    1.413739   2.817107   2.336967   0.000000
     5  C    2.810428   1.413689   2.337249   3.413940   0.000000
     6  H    2.064836   1.997089   1.101256   2.597388   3.254126
     7  H    1.996725   2.064168   1.101165   3.253574   2.602008
     8  H    2.077785   3.185520   2.606366   1.101909   4.118889
     9  H    2.027289   3.809867   3.257128   1.092963   4.172278
    10  H    2.082816   2.542566   2.650270   1.099265   2.982842
    11  H    2.545603   2.082927   2.659345   2.980235   1.099260
    12  H    3.159711   2.077991   2.598278   4.102296   1.101936
    13  H    3.810639   2.027196   3.256912   4.187332   1.092982
                    6          7          8          9         10
     6  H    0.000000
     7  H    1.812106   0.000000
     8  H    2.377629   3.581085   0.000000
     9  H    3.574524   4.019700   1.790086   0.000000
    10  H    3.008674   3.638892   1.787453   1.791135   0.000000
    11  H    3.642333   3.030455   3.895268   3.508212   2.519210
    12  H    3.579531   2.373484   4.808624   4.794546   3.886865
    13  H    4.019753   3.571593   4.828773   4.961745   3.528137
                   11         12         13
    11  H    0.000000
    12  H    1.786945   0.000000
    13  H    1.791230   1.790273   0.000000
 Stoichiometry    C3H8O2
 Framework group  C1[X(C3H8O2)]
 Deg. of freedom    33
 Full point group                 C1      NOp   1
 Largest Abelian subgroup         C1      NOp   1
 Largest concise Abelian subgroup C1      NOp   1
                         Standard orientation:                         
 ---------------------------------------------------------------------
 Center     Atomic      Atomic             Coordinates (Angstroms)
 Number     Number       Type             X           Y           Z
 ---------------------------------------------------------------------
      1          8           0       -0.968198    0.205858    0.647224
      2          8           0        0.972340    0.213392   -0.645395
      3          6           0       -0.000171    0.978304    0.002303
      4          6           0       -1.690449   -0.615956   -0.248115
      5          6           0        1.687757   -0.620120    0.244521
      6          1           0       -0.453672    1.604905   -0.781579
      7          1           0        0.450816    1.603467    0.788653
      8          1           0       -2.182665   -0.008934   -1.024937
      9          1           0       -2.450864   -1.141134    0.335431
     10          1           0       -1.032748   -1.347211   -0.739114
     11          1           0        1.030132   -1.369971    0.706716
     12          1           0        2.157895   -0.025613    1.044393
     13          1           0        2.465147   -1.122870   -0.336440
 ---------------------------------------------------------------------
 Rotational constants (GHZ):           9.5774003           3.5510111           3.2278610
 Standard basis: 6-311++G(d,p) (5D, 7F)
 There are   171 symmetry adapted cartesian basis functions of A   symmetry.
 There are   166 symmetry adapted basis functions of A   symmetry.
   166 basis functions,   252 primitive gaussians,   171 cartesian basis functions
    21 alpha electrons       21 beta electrons
       nuclear repulsion energy       200.3655664782 Hartrees.
 NAtoms=   13 NActive=   13 NUniq=   13 SFac= 1.00D+00 NAtFMM=   60 NAOKFM=F Big=F
 Integral buffers will be    131072 words long.
 Raffenetti 2 integral format.
 Two-electron integral symmetry is turned on.
 R6APFD:  NTU= -4 IXU= 1 FactS= 1.050
 Nuclear repulsion after empirical dispersion term =      200.3594991639 Hartrees.
 One-electron integrals computed using PRISM.
 NBasis=   166 RedAO= T EigKep=  2.18D-04  NBF=   166
 NBsUse=   166 1.00D-06 EigRej= -1.00D+00 NBFU=   166
 Initial guess from the checkpoint file:  "DMXY0103.chk"
 B after Tr=    -0.000000    0.000000    0.000000
         Rot=    0.999993   -0.002176    0.003085    0.000421 Ang=  -0.44 deg.
 ExpMin= 3.60D-02 ExpMax= 8.59D+03 ExpMxC= 1.30D+03 IAcc=3 IRadAn=         5 AccDes= 0.00D+00
 Harris functional with IExCor= 1009 and IRadAn=       5 diagonalized for initial guess.
 HarFok:  IExCor= 1009 AccDes= 0.00D+00 IRadAn=         5 IDoV= 1 UseB2=F ITyADJ=14
 ICtDFT=  3500011 ScaDFX=  1.000000  1.000000  1.000000  1.000000
 FoFCou: FMM=F IPFlag=           0 FMFlag=      100000 FMFlg1=           0
         NFxFlg=           0 DoJE=T BraDBF=F KetDBF=T FulRan=T
         wScrn=  0.000000 ICntrl=       500 IOpCl=  0 I1Cent=   200000004 NGrid=           0
         NMat0=    1 NMatS0=      1 NMatT0=    0 NMatD0=    1 NMtDS0=    0 NMtDT0=    0
 Petite list used in FoFCou.
 Requested convergence on RMS density matrix=1.00D-08 within  32 cycles.
 Requested convergence on MAX density matrix=1.00D-06.
 Requested convergence on             energy=1.00D-06.
 No special actions if energy rises.
 SCF Done:  E(RM08HX) =  -269.543274778     A.U. after   10 cycles
            NFock= 10  Conv=0.25D-08     -V/T= 2.0042
 QCSCF skips out because SCF is already converged.
 R6APFD:  NTU= -4 IXU= 1 FactS= 1.050
 Calling FoFJK, ICntrl=      2127 FMM=F ISym2X=0 I1Cent= 0 IOpClX= 0 NMat=1 NMatS=1 NMatT=0.
 ***** Axes restored to original set *****
 -------------------------------------------------------------------
 Center     Atomic                   Forces (Hartrees/Bohr)
 Number     Number              X              Y              Z
 -------------------------------------------------------------------
      1        8           0.000065511   -0.000404072    0.000117340
      2        8           0.000109978   -0.000443797    0.000048338
      3        6          -0.000117262   -0.000441255   -0.000042334
      4        6          -0.000265759    0.000530667   -0.000274198
      5        6           0.000214822    0.000584804    0.000209855
      6        1          -0.000108706    0.000086891   -0.000100116
      7        1           0.000111395    0.000130359    0.000021020
      8        1          -0.000056211   -0.000103251    0.000108869
      9        1          -0.000104316    0.000137344   -0.000021699
     10        1           0.000007190   -0.000063542    0.000097331
     11        1          -0.000017095   -0.000049755   -0.000099943
     12        1           0.000029355   -0.000089730   -0.000085235
     13        1           0.000131097    0.000125335    0.000020773
 -------------------------------------------------------------------
 Cartesian Forces:  Max     0.000584804 RMS     0.000205908

 GradGradGradGradGradGradGradGradGradGradGradGradGradGradGradGradGradGrad
 Berny optimization.
 Using GEDIIS/GDIIS optimizer.
 FormGI is forming the generalized inverse of G from B-inverse, IUseBI=4.
 Internal  Forces:  Max     0.000600012 RMS     0.000213445
 Search for a local minimum.
 Step number   4 out of a maximum of   54
 All quantities printed in internal units (Hartrees-Bohrs-Radians)
 Mixed Optimization -- En-DIIS/RFO-DIIS
 Swapping is turned off.
 Update second derivatives using D2CorX and points    1    2    3    4
 DE= -8.77D-05 DEPred=-6.80D-05 R= 1.29D+00
 TightC=F SS=  1.41D+00  RLast= 8.97D-02 DXNew= 8.4853D-01 2.6908D-01
 Trust test= 1.29D+00 RLast= 8.97D-02 DXMaxT set to 5.05D-01
 ITU=  1  1  1  0
     Eigenvalues ---    0.01312   0.01321   0.01407   0.01448   0.07879
     Eigenvalues ---    0.09435   0.09856   0.10130   0.10512   0.10531
     Eigenvalues ---    0.12383   0.14485   0.15942   0.16000   0.16000
     Eigenvalues ---    0.16000   0.16107   0.17138   0.24982   0.25304
     Eigenvalues ---    0.28691   0.33994   0.34183   0.34314   0.34320
     Eigenvalues ---    0.34378   0.34401   0.34418   0.34502   0.41361
     Eigenvalues ---    0.41835   0.42248   0.49610
 En-DIIS/RFO-DIIS/Sim-DIIS IScMMF=       -3 using points:     4    3
 RFO step:  Lambda=-1.05026302D-05.
 Use linear search instead of GDIIS.
 RFO step:  Lambda=-8.44102182D-06 EMin= 1.31243455D-02
 Quartic linear search produced a step of -0.07736.
 Iteration  1 RMS(Cart)=  0.00536720 RMS(Int)=  0.00001385
 Iteration  2 RMS(Cart)=  0.00001736 RMS(Int)=  0.00000027
 Iteration  3 RMS(Cart)=  0.00000000 RMS(Int)=  0.00000027
 Variable       Old X    -DE/DX   Delta X   Delta X   Delta X     New X
                                 (Linear)    (Quad)   (Total)
    R1        2.63864  -0.00031  -0.00025  -0.00020  -0.00045   2.63819
    R2        2.67158  -0.00055   0.00004  -0.00120  -0.00115   2.67043
    R3        2.63912  -0.00036  -0.00020  -0.00040  -0.00059   2.63852
    R4        2.67148  -0.00055   0.00005  -0.00119  -0.00115   2.67034
    R5        2.08107  -0.00006   0.00001  -0.00014  -0.00013   2.08095
    R6        2.08090   0.00002   0.00002   0.00004   0.00006   2.08096
    R7        2.08231  -0.00000   0.00007  -0.00011  -0.00004   2.08227
    R8        2.06540  -0.00013   0.00005  -0.00042  -0.00037   2.06503
    R9        2.07731   0.00008   0.00005   0.00011   0.00016   2.07747
   R10        2.07730   0.00006   0.00003   0.00011   0.00014   2.07744
   R11        2.08236   0.00000   0.00007  -0.00009  -0.00002   2.08234
   R12        2.06544  -0.00014   0.00005  -0.00045  -0.00040   2.06503
    A1        1.96411  -0.00060  -0.00001  -0.00172  -0.00173   1.96238
    A2        1.96425  -0.00060   0.00005  -0.00183  -0.00178   1.96248
    A3        1.97576  -0.00022   0.00057  -0.00126  -0.00069   1.97506
    A4        1.93697   0.00007  -0.00010   0.00019   0.00009   1.93705
    A5        1.84230   0.00009  -0.00046   0.00134   0.00089   1.84318
    A6        1.84241   0.00003  -0.00061   0.00089   0.00028   1.84268
    A7        1.93579   0.00019   0.00006   0.00105   0.00111   1.93690
    A8        1.93257  -0.00015   0.00059  -0.00233  -0.00174   1.93082
    A9        1.93312   0.00017   0.00005   0.00085   0.00090   1.93402
   A10        1.87196  -0.00020  -0.00037  -0.00040  -0.00077   1.87118
   A11        1.94326   0.00011   0.00026   0.00023   0.00048   1.94374
   A12        1.90744   0.00003   0.00005   0.00010   0.00015   1.90759
   A13        1.89530  -0.00014  -0.00009  -0.00075  -0.00083   1.89446
   A14        1.91251   0.00003   0.00010  -0.00002   0.00008   1.91258
   A15        1.94349   0.00013   0.00030   0.00023   0.00053   1.94402
   A16        1.93345   0.00015   0.00005   0.00075   0.00080   1.93425
   A17        1.87187  -0.00021  -0.00041  -0.00038  -0.00080   1.87107
   A18        1.89448  -0.00013  -0.00012  -0.00059  -0.00071   1.89377
   A19        1.91264   0.00002   0.00012  -0.00008   0.00003   1.91267
   A20        1.90767   0.00003   0.00007   0.00008   0.00014   1.90782
    D1       -1.07034   0.00005  -0.00211   0.00185  -0.00026  -1.07060
    D2        0.99768  -0.00001  -0.00259   0.00228  -0.00031   0.99737
    D3        3.09233  -0.00011  -0.00221   0.00039  -0.00182   3.09051
    D4       -1.01387   0.00008  -0.00002   0.00543   0.00541  -1.00845
    D5       -3.09405   0.00006   0.00011   0.00507   0.00519  -3.08886
    D6        1.09697   0.00009   0.00008   0.00522   0.00530   1.10226
    D7       -1.05712  -0.00016  -0.00316  -0.00519  -0.00835  -1.06547
    D8        3.10402  -0.00014  -0.00295  -0.00528  -0.00824   3.09578
    D9        1.00994  -0.00007  -0.00332  -0.00359  -0.00691   1.00303
   D10        1.11637   0.00005   0.00039   0.00133   0.00172   1.11809
   D11       -0.99381   0.00002   0.00030   0.00141   0.00171  -0.99210
   D12       -3.07440   0.00002   0.00044   0.00112   0.00156  -3.07284
         Item               Value     Threshold  Converged?
 Maximum Force            0.000600     0.000450     NO 
 RMS     Force            0.000213     0.000300     YES
 Maximum Displacement     0.012312     0.001800     NO 
 RMS     Displacement     0.005370     0.001200     NO 
 Predicted change in Energy=-5.211790D-06
 GradGradGradGradGradGradGradGradGradGradGradGradGradGradGradGradGradGrad

                          Input orientation:                          
 ---------------------------------------------------------------------
 Center     Atomic      Atomic             Coordinates (Angstroms)
 Number     Number       Type             X           Y           Z
 ---------------------------------------------------------------------
      1          8           0        1.014637    0.159336   -0.585453
      2          8           0       -1.005191    0.184194    0.577150
      3          6           0        0.003369    0.940464   -0.023154
      4          6           0        1.679131   -0.635882    0.375281
      5          6           0       -1.662301   -0.664759   -0.341700
      6          1           0        0.401887    1.587548    0.773768
      7          1           0       -0.397719    1.546336   -0.850609
      8          1           0        2.111769   -0.008532    1.171155
      9          1           0        2.481825   -1.166041   -0.143132
     10          1           0        0.995014   -1.362709    0.836014
     11          1           0       -0.976729   -1.421204   -0.749515
     12          1           0       -2.081951   -0.085082   -1.179620
     13          1           0       -2.473840   -1.158869    0.198115
 ---------------------------------------------------------------------
                    Distance matrix (angstroms):
                    1          2          3          4          5
     1  O    0.000000
     2  O    2.330659   0.000000
     3  C    1.396068   1.396246   0.000000
     4  C    1.413129   2.814048   2.334908   0.000000
     5  C    2.811503   1.413081   2.335096   3.417611   0.000000
     6  H    2.064639   1.996981   1.101189   2.594954   3.252388
     7  H    1.997205   2.064690   1.101197   3.252413   2.597517
     8  H    2.077871   3.178903   2.602367   1.101889   4.118612
     9  H    2.026058   3.808047   3.254919   1.092765   4.179054
    10  H    2.082685   2.541799   2.650686   1.099349   2.989225
    11  H    2.547659   2.082823   2.658133   2.989229   1.099332
    12  H    3.162536   2.078018   2.595712   4.106926   1.101926
    13  H    3.810659   2.025935   3.254647   4.189519   1.092767
                    6          7          8          9         10
     6  H    0.000000
     7  H    1.810985   0.000000
     8  H    2.372569   3.578082   0.000000
     9  H    3.570588   4.018617   1.790005   0.000000
    10  H    3.009933   3.639635   1.786968   1.791092   0.000000
    11  H    3.643290   3.025189   3.901722   3.520569   2.530829
    12  H    3.575314   2.367786   4.808252   4.803211   3.893948
    13  H    4.017958   3.567665   4.826789   4.967405   3.532904
                   11         12         13
    11  H    0.000000
    12  H    1.786541   0.000000
    13  H    1.791134   1.790182   0.000000
 Stoichiometry    C3H8O2
 Framework group  C1[X(C3H8O2)]
 Deg. of freedom    33
 Full point group                 C1      NOp   1
 Largest Abelian subgroup         C1      NOp   1
 Largest concise Abelian subgroup C1      NOp   1
                         Standard orientation:                         
 ---------------------------------------------------------------------
 Center     Atomic      Atomic             Coordinates (Angstroms)
 Number     Number       Type             X           Y           Z
 ---------------------------------------------------------------------
      1          8           0       -0.967935    0.205615    0.648090
      2          8           0        0.969535    0.208603   -0.647354
      3          6           0       -0.000122    0.976044    0.000955
      4          6           0       -1.691485   -0.614455   -0.246836
      5          6           0        1.690495   -0.616044    0.245378
      6          1           0       -0.453991    1.602589   -0.782666
      7          1           0        0.452580    1.602828    0.785070
      8          1           0       -2.179237   -0.007716   -1.026660
      9          1           0       -2.455281   -1.134415    0.336596
     10          1           0       -1.036350   -1.350083   -0.734913
     11          1           0        1.037208   -1.364530    0.716034
     12          1           0        2.162537   -0.015139    1.039313
     13          1           0        2.466407   -1.120541   -0.335642
 ---------------------------------------------------------------------
 Rotational constants (GHZ):           9.6055451           3.5468420           3.2297387
 Standard basis: 6-311++G(d,p) (5D, 7F)
 There are   171 symmetry adapted cartesian basis functions of A   symmetry.
 There are   166 symmetry adapted basis functions of A   symmetry.
   166 basis functions,   252 primitive gaussians,   171 cartesian basis functions
    21 alpha electrons       21 beta electrons
       nuclear repulsion energy       200.4143610373 Hartrees.
 NAtoms=   13 NActive=   13 NUniq=   13 SFac= 1.00D+00 NAtFMM=   60 NAOKFM=F Big=F
 Integral buffers will be    131072 words long.
 Raffenetti 2 integral format.
 Two-electron integral symmetry is turned on.
 R6APFD:  NTU= -4 IXU= 1 FactS= 1.050
 Nuclear repulsion after empirical dispersion term =      200.4082999388 Hartrees.
 One-electron integrals computed using PRISM.
 NBasis=   166 RedAO= T EigKep=  2.18D-04  NBF=   166
 NBsUse=   166 1.00D-06 EigRej= -1.00D+00 NBFU=   166
 Initial guess from the checkpoint file:  "DMXY0103.chk"
 B after Tr=    -0.000000    0.000000    0.000000
         Rot=    0.999999    0.001326   -0.000353   -0.000098 Ang=   0.16 deg.
 Requested convergence on RMS density matrix=1.00D-08 within  32 cycles.
 Requested convergence on MAX density matrix=1.00D-06.
 Requested convergence on             energy=1.00D-06.
 No special actions if energy rises.
 SCF Done:  E(RM08HX) =  -269.543280502     A.U. after    8 cycles
            NFock=  8  Conv=0.53D-08     -V/T= 2.0041
 QCSCF skips out because SCF is already converged.
 R6APFD:  NTU= -4 IXU= 1 FactS= 1.050
 Calling FoFJK, ICntrl=      2127 FMM=F ISym2X=0 I1Cent= 0 IOpClX= 0 NMat=1 NMatS=1 NMatT=0.
 ***** Axes restored to original set *****
 -------------------------------------------------------------------
 Center     Atomic                   Forces (Hartrees/Bohr)
 Number     Number              X              Y              Z
 -------------------------------------------------------------------
      1        8          -0.000046398   -0.000105136    0.000046227
      2        8           0.000076553   -0.000032759   -0.000098099
      3        6          -0.000019951   -0.000030488    0.000087664
      4        6          -0.000046519    0.000104630   -0.000151868
      5        6           0.000013998    0.000129114    0.000113800
      6        1          -0.000010656    0.000050589   -0.000009885
      7        1           0.000021513   -0.000004625   -0.000016066
      8        1          -0.000029235   -0.000011200    0.000068204
      9        1           0.000035281    0.000003091    0.000011429
     10        1           0.000005148   -0.000036210    0.000022691
     11        1           0.000023702   -0.000034308   -0.000024904
     12        1           0.000002331   -0.000008307   -0.000031658
     13        1          -0.000025768   -0.000024390   -0.000017536
 -------------------------------------------------------------------
 Cartesian Forces:  Max     0.000151868 RMS     0.000056453

 GradGradGradGradGradGradGradGradGradGradGradGradGradGradGradGradGradGrad
 Berny optimization.
 Using GEDIIS/GDIIS optimizer.
 FormGI is forming the generalized inverse of G from B-inverse, IUseBI=4.
 Internal  Forces:  Max     0.000097915 RMS     0.000035945
 Search for a local minimum.
 Step number   5 out of a maximum of   54
 All quantities printed in internal units (Hartrees-Bohrs-Radians)
 Mixed Optimization -- En-DIIS/RFO-DIIS
 Swapping is turned off.
 Update second derivatives using D2CorX and points    1    2    3    4    5
 DE= -5.72D-06 DEPred=-5.21D-06 R= 1.10D+00
 TightC=F SS=  1.41D+00  RLast= 1.74D-02 DXNew= 8.4853D-01 5.2064D-02
 Trust test= 1.10D+00 RLast= 1.74D-02 DXMaxT set to 5.05D-01
 ITU=  1  1  1  1  0
     Eigenvalues ---    0.00994   0.01361   0.01398   0.01467   0.07996
     Eigenvalues ---    0.09447   0.09704   0.10124   0.10513   0.10531
     Eigenvalues ---    0.12372   0.14686   0.15617   0.16000   0.16000
     Eigenvalues ---    0.16012   0.16077   0.17218   0.24978   0.26646
     Eigenvalues ---    0.27841   0.33993   0.34193   0.34312   0.34321
     Eigenvalues ---    0.34376   0.34418   0.34438   0.34770   0.40942
     Eigenvalues ---    0.41732   0.42252   0.48896
 En-DIIS/RFO-DIIS/Sim-DIIS IScMMF=       -3 using points:     5    4    3
 RFO step:  Lambda=-1.66876700D-06.
 DidBck=F Rises=F RFO-DIIS coefs:    1.83367   -0.72641   -0.10726
 Iteration  1 RMS(Cart)=  0.00379455 RMS(Int)=  0.00001145
 Iteration  2 RMS(Cart)=  0.00001185 RMS(Int)=  0.00000043
 Iteration  3 RMS(Cart)=  0.00000000 RMS(Int)=  0.00000043
[...]
 RMS     Displacement     0.000516     0.001200     YES
 Predicted change in Energy=-1.297673D-08
 Optimization completed.
    -- Stationary point found.
                           ----------------------------
                           !   Optimized Parameters   !
                           ! (Angstroms and Degrees)  !
 --------------------------                            --------------------------
 ! Name  Definition              Value          Derivative Info.                !
 --------------------------------------------------------------------------------
 ! R1    R(1,3)                  1.3961         -DE/DX =    0.0                 !
 ! R2    R(1,4)                  1.4129         -DE/DX =    0.0                 !
 ! R3    R(2,3)                  1.396          -DE/DX =    0.0                 !
 ! R4    R(2,5)                  1.4129         -DE/DX =    0.0                 !
 ! R5    R(3,6)                  1.1012         -DE/DX =    0.0                 !
 ! R6    R(3,7)                  1.1012         -DE/DX =    0.0                 !
 ! R7    R(4,8)                  1.102          -DE/DX =    0.0                 !
 ! R8    R(4,9)                  1.0928         -DE/DX =    0.0                 !
 ! R9    R(4,10)                 1.0994         -DE/DX =    0.0                 !
 ! R10   R(5,11)                 1.0994         -DE/DX =    0.0                 !
 ! R11   R(5,12)                 1.102          -DE/DX =    0.0                 !
 ! R12   R(5,13)                 1.0928         -DE/DX =    0.0                 !
 ! A1    A(3,1,4)              112.4413         -DE/DX =    0.0                 !
 ! A2    A(3,2,5)              112.4426         -DE/DX =    0.0                 !
 ! A3    A(1,3,2)              113.1549         -DE/DX =    0.0                 !
 ! A4    A(1,3,6)              110.993          -DE/DX =    0.0                 !
 ! A5    A(1,3,7)              105.59           -DE/DX =    0.0                 !
 ! A6    A(2,3,6)              105.6012         -DE/DX =    0.0                 !
 ! A7    A(2,3,7)              110.9886         -DE/DX =    0.0                 !
 ! A8    A(6,3,7)              110.6082         -DE/DX =    0.0                 !
 ! A9    A(1,4,8)              110.8361         -DE/DX =    0.0                 !
 ! A10   A(1,4,9)              107.2265         -DE/DX =    0.0                 !
 ! A11   A(1,4,10)             111.3907         -DE/DX =    0.0                 !
 ! A12   A(8,4,9)              109.3021         -DE/DX =    0.0                 !
 ! A13   A(8,4,10)             108.4863         -DE/DX =    0.0                 !
 ! A14   A(9,4,10)             109.5737         -DE/DX =    0.0                 !
 ! A15   A(2,5,11)             111.3889         -DE/DX =    0.0                 !
 ! A16   A(2,5,12)             110.8364         -DE/DX =    0.0                 !
 ! A17   A(2,5,13)             107.2286         -DE/DX =    0.0                 !
 ! A18   A(11,5,12)            108.4849         -DE/DX =    0.0                 !
 ! A19   A(11,5,13)            109.5735         -DE/DX =    0.0                 !
 ! A20   A(12,5,13)            109.3032         -DE/DX =    0.0                 !
 ! D1    D(4,1,3,2)            -61.1696         -DE/DX =    0.0                 !
 ! D2    D(4,1,3,6)             57.3464         -DE/DX =    0.0                 !
 ! D3    D(4,1,3,7)            177.2449         -DE/DX =    0.0                 !
 ! D4    D(3,1,4,8)            -56.8288         -DE/DX =    0.0                 !
 ! D5    D(3,1,4,9)           -176.0573         -DE/DX =    0.0                 !
 ! D6    D(3,1,4,10)            64.0647         -DE/DX =    0.0                 !
 ! D7    D(5,2,3,1)            -61.1497         -DE/DX =    0.0                 !
 ! D8    D(5,2,3,6)            177.2518         -DE/DX =    0.0                 !
 ! D9    D(5,2,3,7)             57.3489         -DE/DX =    0.0                 !
 ! D10   D(3,2,5,11)            64.1418         -DE/DX =    0.0                 !
 ! D11   D(3,2,5,12)           -56.7488         -DE/DX =    0.0                 !
 ! D12   D(3,2,5,13)          -175.9801         -DE/DX =    0.0                 !
 --------------------------------------------------------------------------------
 GradGradGradGradGradGradGradGradGradGradGradGradGradGradGradGradGradGrad


 ----------------------------------------------------------------------

 Electric dipole moment (input orientation):
 (Debye = 10**-18 statcoulomb cm , SI units = C m)
                  (au)            (Debye)         (10**-30 SI)
   Tot        0.152951D+00      0.388762D+00      0.129677D+01
   x          0.322872D-03      0.820659D-03      0.273742D-02
   y         -0.152894D+00     -0.388618D+00     -0.129629D+01
   z          0.415887D-02      0.105708D-01      0.352604D-01

 Dipole polarizability, Alpha (input orientation).
 (esu units = cm**3 , SI units = C**2 m**2 J**-1)
 Alpha(0;0):
               (au)            (10**-24 esu)      (10**-40 SI)
   iso        0.463647D+02      0.687054D+01      0.764451D+01
   aniso      0.832580D+01      0.123376D+01      0.137274D+01
   xx         0.506726D+02      0.750890D+01      0.835478D+01
   yx         0.740862D-01      0.109784D-01      0.122152D-01
   yy         0.460806D+02      0.682845D+01      0.759767D+01
   zx         0.238270D+01      0.353079D+00      0.392853D+00
   zy        -0.949246D-01     -0.140664D-01     -0.156509D-01
   zz         0.423409D+02      0.627428D+01      0.698108D+01

 ----------------------------------------------------------------------

 Dipole orientation:
     8          1.92162338         -1.09623235         -0.32558419
     8         -1.89706903          1.09704287         -0.32520440
     6          0.01232398          0.00085841         -1.77850185
     6          3.16751811          0.68073632          1.22960102
     6         -3.14262454         -0.68066791          1.22944490
     1          0.76609703          1.53704390         -2.96280214
     1         -0.74134738         -1.53497201         -2.96330187
     1          3.95755989          2.23557994          0.09173623
     1          4.70379470         -0.31434445          2.18579393
     1          1.87585874          1.48856803          2.64227402
     1         -1.85136767         -1.48680518          2.64346894
     1         -3.93010217         -2.23665416          0.09138586
     1         -4.68070689          0.31316391          2.18403500

 Electric dipole moment (dipole orientation):
 (Debye = 10**-18 statcoulomb cm , SI units = C m)
                  (au)            (Debye)         (10**-30 SI)
   Tot        0.152951D+00      0.388762D+00      0.129677D+01
   x          0.000000D+00      0.000000D+00      0.000000D+00
   y          0.000000D+00      0.000000D+00      0.000000D+00
   z          0.152951D+00      0.388762D+00      0.129677D+01

 Dipole polarizability, Alpha (dipole orientation).
 (esu units = cm**3 , SI units = C**2 m**2 J**-1)
 Alpha(0;0):
               (au)            (10**-24 esu)      (10**-40 SI)
   iso        0.463647D+02      0.687054D+01      0.764451D+01
   aniso      0.832580D+01      0.123376D+01      0.137274D+01
   xx         0.506628D+02      0.750745D+01      0.835316D+01
   yx         0.240094D+01      0.355782D+00      0.395861D+00
   yy         0.423484D+02      0.627538D+01      0.698230D+01
   zx         0.421127D-03      0.624045D-04      0.694344D-04
   zy        -0.183126D-02     -0.271365D-03     -0.301934D-03
   zz         0.460830D+02      0.682880D+01      0.759806D+01

 ----------------------------------------------------------------------
 1\1\GINC-PITOMBA\Freq\RM08HX\6-311++G(d,p)\C3H8O2\VALTER\19-Sep-2025\0
 \\#N Geom=AllCheck Guess=TCheck SCRF=Check GenChk RM08HX/6-311++G(d,p)
  Freq\\DMXY0103\\0,1\O,1.0153194848,0.1585406305,-0.5867167533\O,-1.00
 30520287,0.1857521189,0.5777539933\C,0.0045357654,0.9408183245,-0.0251
 502178\C,1.6782847017,-0.6371948653,0.3742503177\C,-1.6623646509,-0.66
 35641168,-0.3388591839\H,0.40376059,1.590216764,0.7695790667\H,-0.3972
 813028,1.5446326626,-0.8537803319\H,2.0967741786,-0.0120519505,1.17947
 70224\H,2.491230118,-1.15565239,-0.1400855187\H,0.9972272008,-1.374249
 716,0.823347\H,-0.9783606894,-1.4217525734,-0.7463862728\H,-2.08204084
 86,-0.0848016519,-1.1774410262\H,-2.4741325188,-1.1558932366,0.2023119
 044\\Version=ES64L-G16RevB.01\State=1-A\HF=-269.5432824\RMSD=1.281e-09
 \RMSF=1.318e-05\ZeroPoint=0.1131687\Thermal=0.1194635\Dipole=0.0003229
 ,-0.1528939,0.0041589\DipoleDeriv=-1.0320822,0.2447292,-0.0698769,0.40
 02891,-0.7874141,0.0800566,0.0000256,0.0909541,-0.6199922,-1.0293085,-
 0.2492474,-0.0562013,-0.4006589,-0.7990227,-0.0706919,0.0220203,-0.081
 4244,-0.6113123,1.3408049,-0.0018927,-0.10628,-0.009195,0.9158724,-0.0
 09708,-0.3751253,-0.0102807,0.5653514,0.4580565,-0.0949393,0.1650059,-
 0.1362189,0.453008,-0.1328145,0.2465851,-0.1610091,0.4526303,0.4570132
 ,0.1037532,0.158907,0.1492827,0.4700829,0.1326543,0.2380157,0.1612332,
 0.4368148,-0.0448486,-0.0782974,-0.0716767,-0.0298356,-0.04533,-0.0577
 167,-0.0144897,-0.1413341,-0.0609415,-0.0453026,0.0742713,-0.0760491,0
 .0289732,-0.0342319,0.0559399,-0.0166952,0.139866,-0.0716537,0.0149358
 ,-0.0042926,-0.054141,-0.0612657,-0.0541471,-0.1196081,-0.1126905,-0.0
 285676,-0.0738435,-0.0489736,0.0902743,0.029366,0.0862056,0.0247838,-0
 .0119374,0.0809609,-0.0476129,0.0213022,-0.0180347,-0.1146529,0.053739
 7,-0.0373465,-0.0593385,0.0625771,-0.0181752,0.0674352,0.0092516,-0.01
 86875,0.1176734,0.047568,0.0365306,-0.0657542,-0.0582721,-0.0199809,-0
 .0633214,0.0161529,0.0149445,0.0015025,-0.0545728,0.0551508,-0.0459362
 ,0.1179245,-0.1158207,0.0266158,-0.0819489,-0.0485172,-0.0888816,0.034
 2113,-0.0819114,0.0274276,0.0115964,0.08537,0.0474459,0.0181888\Polar=
 50.6725683,0.0740862,46.0806332,2.3826958,-0.0949246,42.340933\Quadrup
 ole=0.8609279,1.3157874,-2.1767153,0.077849,2.9130495,-0.0879057\PG=C0
 1 [X(C3H8O2)]\NImag=0\\0.32044454,-0.18354133,0.29106561,-0.00967837,-
 0.04093213,0.33280847,-0.06077651,-0.00016663,0.03728629,0.31889294,0.
 00182451,0.02485211,-0.00562543,0.18288402,0.29721557,0.03721535,0.003
 81092,-0.01157169,-0.01982681,0.04281861,0.32829625,-0.12835976,0.0666
 0096,0.02365735,-0.12781817,-0.06520684,0.02714550,0.47616682,0.074092
 49,-0.14684815,-0.02272831,-0.07153682,-0.14363068,0.02378717,0.002701
 50,0.57999854,0.04510573,-0.04725103,-0.12584219,0.04886606,0.04841853
 ,-0.12969029,0.10595010,0.00125868,0.61881443,-0.10428029,0.04464377,-
 0.03124773,0.00296548,0.00232815,-0.00303305,-0.03209901,0.02827398,-0
 .01942034,0.57101262,0.04859007,-0.11994615,0.05009979,-0.00333557,-0.
 00298943,0.00246854,0.02917917,-0.02340694,0.01298108,0.00027822,0.550
 04335,-0.05665742,0.07396926,-0.17228731,0.00643863,0.00224988,-0.0020
 1608,-0.00746458,-0.00541420,0.01583899,-0.05280798,0.04597026,0.53184
 587,0.00296106,-0.00246442,-0.00289585,-0.10383747,-0.04616319,-0.0285
 5104,-0.03186382,-0.02931793,-0.01781693,-0.00158835,-0.00037378,-0.00
 076738,0.57108831,0.00370318,-0.00323886,-0.00240967,-0.05147418,-0.12
 721586,-0.05267160,-0.02956841,-0.02394396,-0.01092343,0.00032609,-0.0
 0000835,-0.00037691,-0.00301407,0.54497810,0.00625940,-0.00215505,-0.0
 0176570,-0.05360717,-0.07666404,-0.16542493,-0.00591337,0.00752703,0.0
 1612673,-0.00078876,0.00027352,-0.00184267,-0.05252388,-0.04690588,0.5
 3682609,0.00139235,0.02479431,0.02294907,-0.01835371,-0.02277807,-0.01
 678490,-0.08240024,-0.04967161,-0.07208129,0.00326879,-0.00065043,0.00
 501148,-0.00167786,-0.00223398,0.00403747,0.10017538,0.00491983,-0.015
 36201,-0.02091477,-0.01879434,-0.01728436,-0.01356265,-0.04705005,-0.1
 2821204,-0.09130762,-0.00295067,0.00115808,-0.00310738,-0.00188024,0.0
 0021800,0.00356366,0.05950124,0.14853247,0.00619006,-0.01564393,-0.011
 93371,0.00900328,0.01225317,0.01193002,-0.07746290,-0.10320909,-0.1861
 2172,-0.00070609,0.00336661,0.00058183,0.00201106,0.00168711,-0.000161
 55,0.06694114,0.11425674,0.19607196,-0.01853672,0.02183961,-0.01804741
 ,0.00150541,-0.02346934,0.02417094,-0.08277753,0.04586261,-0.07504471,
 -0.00169547,0.00244424,0.00392808,0.00324964,0.00092807,0.00496080,-0.
 00154645,0.00572957,-0.00797794,0.10066596,0.01925864,-0.01696185,0.01
 505696,-0.00452525,-0.01351810,0.02111058,0.04294818,-0.11751064,0.087
 29685,0.00197813,-0.00005034,-0.00355322,0.00291710,0.00115766,0.00310
 340,-0.00620833,0.01143732,-0.01208211,-0.05595212,0.13589919,0.008025
 53,-0.01065209,0.01177429,0.00639175,0.01577054,-0.01393619,-0.0803253
 0,0.09917967,-0.19643209,0.00191383,-0.00168563,0.00012293,-0.00085222
 ,-0.00340189,0.00059890,-0.00770342,0.01074515,-0.01265551,0.07052560,
 -0.11074025,0.20826342,-0.00875295,-0.00055172,-0.01555036,-0.00029416
 ,0.00013655,0.00099510,0.00232064,-0.00388416,-0.00379100,-0.08324094,
 -0.05380183,-0.06099296,0.00014189,-0.00018753,-0.00020466,-0.00009802
 ,0.00086697,0.00094213,0.00018586,0.00026694,0.00033736,0.08501152,0.0
 1284916,0.01214363,0.01983048,-0.00011511,-0.00005980,-0.00043133,-0.0
 0014633,0.00365173,0.00349445,-0.05570168,-0.14305037,-0.10934645,0.00
 015652,-0.00038708,-0.00008963,-0.00137457,-0.00011370,-0.00099983,-0.
 00024192,0.00005450,-0.00005505,0.05700324,0.14642458,-0.01558975,-0.0
 0278051,-0.02220084,-0.00132090,-0.00024016,0.00027681,0.00465571,-0.0
 0241555,-0.00059849,-0.06234813,-0.10463222,-0.16981507,0.00024534,0.0
 0009535,0.00024326,-0.00109223,0.00103976,0.00099155,0.00023056,0.0004
 1690,0.00031176,0.07588487,0.11091594,0.18960770,-0.01537938,0.0128885
 6,0.00387766,-0.00043375,0.00004578,-0.00010161,0.00051755,-0.00037232
 ,-0.00361765,-0.19474876,0.09052239,0.09781218,0.00041768,0.00040157,0
 .00040969,0.00005131,0.00015575,0.00018783,-0.00056344,0.00053343,0.00
 035468,0.01087369,-0.00652933,-0.00575297,0.21213563,0.02024994,-0.015
 42501,-0.00688030,-0.00015679,0.00122844,-0.00068820,-0.00040514,-0.00
 152252,0.00487412,0.08829893,-0.10405936,-0.06041701,0.00007004,0.0000
 1453,-0.00002197,-0.00017836,0.00027062,0.00013628,0.00110294,-0.00050
 524,-0.00020817,0.01353329,-0.00749485,-0.00893499,-0.10694728,0.11549
 611,-0.02523000,0.01814043,0.01156938,0.00006571,-0.00082326,0.0008704
 5,-0.00121244,0.00252078,-0.00433317,0.10704979,-0.06876404,-0.1177669
 7,-0.00008522,-0.00004963,0.00000575,0.00000783,0.00035583,0.00026946,
 -0.00080094,0.00083539,0.00046545,0.01661166,-0.00794174,-0.00877931,-
 0.10298565,0.06209006,0.12239015,0.01414516,0.01671257,-0.01091505,-0.
 00214079,0.00057888,-0.00036149,0.00175847,0.00093028,-0.00030915,-0.1
 5971985,-0.11209557,0.06542890,-0.00044119,0.00054771,-0.00017572,-0.0
 0027271,0.00010942,-0.00000228,-0.00016903,-0.00014634,0.00015053,-0.0
 0630116,-0.00596413,0.00504061,-0.01282284,-0.01557245,0.00646692,0.16
 570904,-0.00100537,-0.01356486,0.01158346,0.00105391,0.00181618,-0.001
 86922,-0.00574107,-0.00006693,0.00375095,-0.10657290,-0.15771654,0.060
 21074,0.00067746,0.00046697,0.00034411,0.00007576,-0.00020388,-0.00034
 565,0.00037382,0.00006055,-0.00024442,-0.01365117,-0.01134670,0.006474
 23,0.00936510,0.01198905,-0.00636888,0.11530221,0.16874323,0.00680550,
 0.02081741,-0.01225594,-0.00122230,-0.00169638,0.00086521,0.00393998,-
 0.00131023,-0.00172162,0.06131738,0.06079194,-0.08558743,-0.00014313,0
 .00087038,0.00061520,-0.00059836,0.00022183,0.00012418,-0.00019087,0.0
 0010449,0.00008288,-0.01449809,-0.01562431,0.01015484,0.00987074,0.009
 97361,-0.00468610,-0.06499445,-0.07361340,0.09337952,-0.00213223,-0.00
 061434,-0.00033466,0.01420430,-0.01716872,-0.00992244,0.00173775,-0.00
 093668,-0.00024497,-0.00043436,-0.00056019,-0.00014299,-0.16059486,0.1
 1556707,0.05931358,-0.00016887,0.00015278,0.00014084,-0.00027139,-0.00
 011008,0.00000210,0.00014838,0.00014482,0.00004071,-0.00002698,-0.0000
 0194,0.00005232,0.00013227,0.00024342,-0.00044395,0.16662719,-0.001136
 73,0.00200114,0.00180645,0.00148494,-0.01538484,-0.01144660,0.00595701
 ,-0.00018375,-0.00383472,-0.00068837,0.00039501,-0.00033162,0.10983013
 ,-0.16333358,-0.05561171,-0.00038620,0.00006729,0.00024523,-0.00010789
 ,-0.00019620,0.00036267,0.00016343,0.00001753,0.00009442,-0.00003388,-
 0.00001543,-0.00003238,-0.00026587,-0.00015548,-0.00018764,-0.11877612
 ,0.17574358,-0.00117231,0.00162740,0.00067385,0.00682452,-0.02064456,-
 0.01049678,0.00361701,0.00124215,-0.00158566,-0.00010143,-0.00085922,0
 .00068226,0.05552224,-0.05619950,-0.07908750,-0.00017016,-0.00010515,0
 .00007564,-0.00059332,-0.00020787,0.00011648,0.00013589,0.00023895,-0.
 00016170,0.00001324,0.00009879,-0.00005057,-0.00042971,0.00015093,-0.0
 0078127,-0.05875341,0.06875572,0.08546000,-0.00029127,-0.00008201,0.00
 099991,-0.00867873,-0.00036634,-0.01546867,0.00230318,0.00366546,-0.00
 398376,0.00014026,0.00017929,-0.00021607,-0.08347314,0.05044742,-0.064
 12452,0.00018596,-0.00024714,0.00035118,-0.00009874,-0.00081437,0.0009
 8295,0.00000568,-0.00005807,0.00008278,-0.00000017,-0.00004137,0.00005
 305,0.00014967,-0.00015522,0.00014557,-0.00635821,0.01285908,-0.015293
 37,0.08522877,0.00004214,-0.00002470,0.00044981,-0.01372437,0.01105461
 ,-0.02171069,0.00038883,0.00360200,-0.00373943,-0.00014021,-0.00038516
 ,0.00012368,0.05227324,-0.13109729,0.10707606,0.00025478,0.00003553,0.
 00007148,0.00131317,-0.00011131,0.00106382,0.00006182,0.00015877,-0.00
 006147,0.00001821,0.00000216,0.00004271,-0.00014171,-0.00000262,-0.000
 24705,0.00623159,-0.01071963,0.01672558,-0.05283403,0.13408426,-0.0013
 2766,0.00025001,0.00024063,-0.01485215,0.00091469,-0.02118857,0.004635
 22,0.00221195,-0.00052717,0.00025418,-0.00005930,0.00024172,-0.0655699
 3,0.10235007,-0.18154581,0.00021939,-0.00040120,0.00033116,-0.00116152
 ,-0.00098690,0.00099116,0.00007904,0.00004799,-0.00008798,-0.00007762,
 -0.00002575,0.00005673,0.00004919,-0.00010339,-0.00014252,0.00471184,-
 0.00530024,0.00958070,0.07915236,-0.10767764,0.20173452,-0.00043400,-0
 .00005933,-0.00010085,-0.01523483,-0.01264538,0.00452311,0.00051414,0.
 00019320,-0.00361211,0.00041989,-0.00037600,0.00043010,-0.19438189,-0.
 08544294,0.10235713,-0.00055594,-0.00051313,0.00038169,0.00005190,-0.0
 0014592,0.00019660,-0.00000042,-0.00002260,-0.00007659,-0.00002053,0.0
 0004817,0.00000698,-0.00002705,0.00003404,0.00001197,-0.01286301,-0.00
 889953,0.01040081,0.01088672,0.00625654,-0.00611234,0.21164503,0.00015
 347,0.00130910,0.00066366,-0.02159382,-0.01608385,0.00838449,0.0003421
 8,-0.00192668,-0.00501842,-0.00007343,0.00001621,0.00002297,-0.0827108
 6,-0.09761027,0.05956049,-0.00114454,-0.00054334,0.00026399,0.00017723
 ,0.00024445,-0.00013433,0.00004416,0.00000177,0.00002830,-0.00004797,0
 .00002149,-0.00000528,0.00000500,-0.00001897,-0.00010066,0.01582839,0.
 01176439,-0.01082323,-0.01255272,-0.00659661,0.00877972,0.10157289,0.1
 0942230,0.00005395,0.00079931,0.00079076,-0.02404690,-0.01673157,0.012
 08577,-0.00122229,-0.00265005,-0.00392775,-0.00008166,0.00004866,0.000
 00194,0.11142694,0.06793560,-0.12458778,-0.00073601,-0.00078420,0.0004
 9668,0.00000070,-0.00035423,0.00029652,0.00005101,-0.00003946,0.000057
 47,0.00000948,0.00000353,-0.00001126,0.00005169,0.00003055,-0.00004696
 ,0.00558103,0.00548043,-0.00442544,0.01731859,0.00788314,-0.00968456,-
 0.10840651,-0.06162170,0.12895460\\0.00002086,-0.00002392,-0.00000080,
 -0.00000296,-0.00001715,-0.00002424,-0.00001114,-0.00001060,0.00003263
 ,-0.00001858,0.00002378,-0.00002825,0.00000421,0.00002837,0.00002465,0
 .00000160,0.00001532,-0.00000709,0.00000266,-0.00000223,0.00000341,0.0
 0000489,-0.00000084,-0.00000028,-0.00000239,-0.00000007,-0.00000418,0.
 00000303,-0.00000193,0.00000007,0.00000051,-0.00000586,0.00000206,-0.0
 0000208,-0.00000318,0.00000158,-0.00000062,-0.00000170,0.00000044\\\@


 QUANTUM MECHANICS IS BOHRING -- M.S. GORDON
 Job cpu time:       0 days  0 hours 32 minutes 47.2 seconds.
 Elapsed time:       0 days  0 hours  2 minutes  4.1 seconds.
 File lengths (MBytes):  RWF=     39 Int=      0 D2E=      0 Chk=      3 Scr=      1
 Normal termination of Gaussian 16 at Fri Sep 19 13:18:12 2025.
