 Entering Gaussian System, Link 0=g16
 Input=DOBE0033.gjf
 Output=DOBE0033.log
 Initial command:
 /usr/local/g16/l1.exe "/dados_01/scratch/Gau-2406385.inp" -scrdir="/dados_01/scratch/"
 Entering Link 1 = /usr/local/g16/l1.exe PID=   2406386.
  
 Copyright (c) 1988-2017, Gaussian, Inc.  All Rights Reserved.
  
 This is part of the Gaussian(R) 16 program.  It is based on
 the Gaussian(R) 09 system (copyright 2009, Gaussian, Inc.),
 the Gaussian(R) 03 system (copyright 2003, Gaussian, Inc.),
 the Gaussian(R) 98 system (copyright 1998, Gaussian, Inc.),
 the Gaussian(R) 94 system (copyright 1995, Gaussian, Inc.),
 the Gaussian 92(TM) system (copyright 1992, Gaussian, Inc.),
 the Gaussian 90(TM) system (copyright 1990, Gaussian, Inc.),
 the Gaussian 88(TM) system (copyright 1988, Gaussian, Inc.),
 the Gaussian 86(TM) system (copyright 1986, Carnegie Mellon
 University), and the Gaussian 82(TM) system (copyright 1983,
 Carnegie Mellon University). Gaussian is a federally registered
 trademark of Gaussian, Inc.
  
 This software contains proprietary and confidential information,
 including trade secrets, belonging to Gaussian, Inc.
  
 This software is provided under written license and may be
 used, copied, transmitted, or stored only in accord with that
 written license.
  
 The following legend is applicable only to US Government
 contracts under FAR:
  
                    RESTRICTED RIGHTS LEGEND
  
 Use, reproduction and disclosure by the US Government is
 subject to restrictions as set forth in subparagraphs (a)
 and (c) of the Commercial Computer Software - Restricted
 Rights clause in FAR 52.227-19.
  
 Gaussian, Inc.
 340 Quinnipiac St., Bldg. 40, Wallingford CT 06492
  
  
 ---------------------------------------------------------------
 Warning -- This program may not be used in any manner that
 competes with the business of Gaussian, Inc. or will provide
 assistance to any competitor of Gaussian, Inc.  The licensee
 of this program is prohibited from giving any competitor of
 Gaussian, Inc. access to this program.  By using this program,
 the user acknowledges that Gaussian, Inc. is engaged in the
 business of creating and licensing software in the field of
 computational chemistry and represents and warrants to the
 licensee that it is not a competitor of Gaussian, Inc. and that
 it will not use this program in any manner prohibited above.
 ---------------------------------------------------------------
  

 Cite this work as:
 Gaussian 16, Revision B.01,
 M. J. Frisch, G. W. Trucks, H. B. Schlegel, G. E. Scuseria, 
 M. A. Robb, J. R. Cheeseman, G. Scalmani, V. Barone, 
 G. A. Petersson, H. Nakatsuji, X. Li, M. Caricato, A. V. Marenich, 
 J. Bloino, B. G. Janesko, R. Gomperts, B. Mennucci, H. P. Hratchian, 
 J. V. Ortiz, A. F. Izmaylov, J. L. Sonnenberg, D. Williams-Young, 
 F. Ding, F. Lipparini, F. Egidi, J. Goings, B. Peng, A. Petrone, 
 T. Henderson, D. Ranasinghe, V. G. Zakrzewski, J. Gao, N. Rega, 
 G. Zheng, W. Liang, M. Hada, M. Ehara, K. Toyota, R. Fukuda, 
 J. Hasegawa, M. Ishida, T. Nakajima, Y. Honda, O. Kitao, H. Nakai, 
 T. Vreven, K. Throssell, J. A. Montgomery, Jr., J. E. Peralta, 
 F. Ogliaro, M. J. Bearpark, J. J. Heyd, E. N. Brothers, K. N. Kudin, 
 V. N. Staroverov, T. A. Keith, R. Kobayashi, J. Normand, 
 K. Raghavachari, A. P. Rendell, J. C. Burant, S. S. Iyengar, 
 J. Tomasi, M. Cossi, J. M. Millam, M. Klene, C. Adamo, R. Cammi, 
 J. W. Ochterski, R. L. Martin, K. Morokuma, O. Farkas, 
 J. B. Foresman, and D. J. Fox, Gaussian, Inc., Wallingford CT, 2016.
 
 ******************************************
 Gaussian 16:  ES64L-G16RevB.01 20-Dec-2017
                 1-Oct-2025 
 ******************************************
 %nprocs=16
 Will use up to   16 processors via shared memory.
 %mem=40GB
 %chk=DOBE0033.chk
 ----------------------------------------------------------------------
 # opt freq=noraman M08HX/6-311++G** scf=xqc Empiricaldispersion=pfd In
 t(Grid=ultraFine)
 ----------------------------------------------------------------------
 1/18=20,19=15,26=4,38=1/1,3;
 2/9=110,12=2,17=6,18=5,40=1/2;
 3/5=4,6=6,7=1111,11=2,25=1,30=1,71=1,74=-74,75=-5,124=11/1,2,3;
 4//1;
 5/5=2,8=3,13=1,38=5/2,8;
 6/7=2,8=2,9=2,10=2,28=1/1;
 7//1,2,3,16;
 1/18=20,19=15,26=4/3(2);
 2/9=110/2;
 99//99;
 2/9=110/2;
 3/5=4,6=6,7=1111,11=2,25=1,30=1,71=1,74=-74,75=-5,124=11/1,2,3;
 4/5=5,16=3,69=1/1;
 5/5=2,8=3,13=1,38=5/2,8;
 7//1,2,3,16;
 1/18=20,19=15,26=4/3(-5);
 2/9=110/2;
 6/7=2,8=2,9=2,10=2,19=2,28=1/1;
 99/9=1/99;
 --------
 DOBE0033
 --------
 Symbolic Z-matrix:
 Charge =  0 Multiplicity = 1
 C                    -1.2037    0.7052    0.2938 
 C                    -1.2036   -0.7055   -0.2938 
 C                     0.0809   -1.4077    0.0589 
 C                     1.2177   -0.7239    0.1315 
 C                     1.2175    0.7241   -0.1315 
 C                     0.0806    1.4077   -0.0589 
 H                    -2.0461    1.266    -0.1112 
 H                    -1.2979    0.6458    1.3781 
 H                    -2.0459   -1.2664    0.1112 
 H                    -1.2978   -0.646    -1.3781 
 H                     0.078    -2.47      0.2536 
 H                     2.1387   -1.229     0.3824 
 H                     2.1385    1.2294   -0.3824 
 H                     0.0775    2.47     -0.2536 
 

 GradGradGradGradGradGradGradGradGradGradGradGradGradGradGradGradGradGrad
 Berny optimization.
 Initialization pass.
                           ----------------------------
                           !    Initial Parameters    !
                           ! (Angstroms and Degrees)  !
 --------------------------                            --------------------------
 ! Name  Definition              Value          Derivative Info.                !
 --------------------------------------------------------------------------------
 ! R1    R(1,2)                  1.5282         estimate D2E/DX2                !
 ! R2    R(1,6)                  1.5058         estimate D2E/DX2                !
 ! R3    R(1,7)                  1.09           estimate D2E/DX2                !
 ! R4    R(1,8)                  1.09           estimate D2E/DX2                !
 ! R5    R(2,3)                  1.5058         estimate D2E/DX2                !
 ! R6    R(2,9)                  1.09           estimate D2E/DX2                !
 ! R7    R(2,10)                 1.09           estimate D2E/DX2                !
 ! R8    R(3,4)                  1.3286         estimate D2E/DX2                !
 ! R9    R(3,11)                 1.08           estimate D2E/DX2                !
 ! R10   R(4,5)                  1.4717         estimate D2E/DX2                !
 ! R11   R(4,12)                 1.08           estimate D2E/DX2                !
 ! R12   R(5,6)                  1.3286         estimate D2E/DX2                !
 ! R13   R(5,13)                 1.0801         estimate D2E/DX2                !
 ! R14   R(6,14)                 1.08           estimate D2E/DX2                !
 ! A1    A(2,1,6)              109.9106         estimate D2E/DX2                !
 ! A2    A(2,1,7)              109.3973         estimate D2E/DX2                !
 ! A3    A(2,1,8)              109.4021         estimate D2E/DX2                !
 ! A4    A(6,1,7)              109.3965         estimate D2E/DX2                !
 ! A5    A(6,1,8)              109.3989         estimate D2E/DX2                !
 ! A6    A(7,1,8)              109.3206         estimate D2E/DX2                !
 ! A7    A(1,2,3)              109.9057         estimate D2E/DX2                !
 ! A8    A(1,2,9)              109.3967         estimate D2E/DX2                !
 ! A9    A(1,2,10)             109.3962         estimate D2E/DX2                !
 ! A10   A(3,2,9)              109.4016         estimate D2E/DX2                !
 ! A11   A(3,2,10)             109.401          estimate D2E/DX2                !
 ! A12   A(9,2,10)             109.3246         estimate D2E/DX2                !
 ! A13   A(2,3,4)              120.1775         estimate D2E/DX2                !
 ! A14   A(2,3,11)             119.9091         estimate D2E/DX2                !
 ! A15   A(4,3,11)             119.9134         estimate D2E/DX2                !
 ! A16   A(3,4,5)              119.7695         estimate D2E/DX2                !
 ! A17   A(3,4,12)             120.1109         estimate D2E/DX2                !
 ! A18   A(5,4,12)             120.1196         estimate D2E/DX2                !
 ! A19   A(4,5,6)              119.7755         estimate D2E/DX2                !
 ! A20   A(4,5,13)             120.1134         estimate D2E/DX2                !
 ! A21   A(6,5,13)             120.1111         estimate D2E/DX2                !
 ! A22   A(1,6,5)              120.1732         estimate D2E/DX2                !
 ! A23   A(1,6,14)             119.9122         estimate D2E/DX2                !
 ! A24   A(5,6,14)             119.9145         estimate D2E/DX2                !
 ! D1    D(6,1,2,3)             49.7593         estimate D2E/DX2                !
 ! D2    D(6,1,2,9)            169.8951         estimate D2E/DX2                !
 ! D3    D(6,1,2,10)           -70.3753         estimate D2E/DX2                !
 ! D4    D(7,1,2,3)            169.892          estimate D2E/DX2                !
 ! D5    D(7,1,2,9)            -69.9722         estimate D2E/DX2                !
 ! D6    D(7,1,2,10)            49.7574         estimate D2E/DX2                !
 ! D7    D(8,1,2,3)            -70.3794         estimate D2E/DX2                !
 ! D8    D(8,1,2,9)             49.7564         estimate D2E/DX2                !
 ! D9    D(8,1,2,10)           169.486          estimate D2E/DX2                !
 ! D10   D(2,1,6,5)            -34.8303         estimate D2E/DX2                !
 ! D11   D(2,1,6,14)           145.1546         estimate D2E/DX2                !
 ! D12   D(7,1,6,5)           -154.9634         estimate D2E/DX2                !
 ! D13   D(7,1,6,14)            25.0215         estimate D2E/DX2                !
 ! D14   D(8,1,6,5)             85.3104         estimate D2E/DX2                !
 ! D15   D(8,1,6,14)           -94.7047         estimate D2E/DX2                !
 ! D16   D(1,2,3,4)            -34.8288         estimate D2E/DX2                !
 ! D17   D(1,2,3,11)           145.1564         estimate D2E/DX2                !
 ! D18   D(9,2,3,4)           -154.9616         estimate D2E/DX2                !
 ! D19   D(9,2,3,11)            25.0236         estimate D2E/DX2                !
 ! D20   D(10,2,3,4)            85.3029         estimate D2E/DX2                !
 ! D21   D(10,2,3,11)          -94.7119         estimate D2E/DX2                !
 ! D22   D(2,3,4,5)              0.1207         estimate D2E/DX2                !
 ! D23   D(2,3,4,12)          -179.8641         estimate D2E/DX2                !
 ! D24   D(11,3,4,5)          -179.8645         estimate D2E/DX2                !
 ! D25   D(11,3,4,12)            0.1507         estimate D2E/DX2                !
 ! D26   D(3,4,5,6)             19.3302         estimate D2E/DX2                !
 ! D27   D(3,4,5,13)          -160.6876         estimate D2E/DX2                !
 ! D28   D(12,4,5,6)          -160.685          estimate D2E/DX2                !
 ! D29   D(12,4,5,13)           19.2972         estimate D2E/DX2                !
 ! D30   D(4,5,6,1)              0.1194         estimate D2E/DX2                !
 ! D31   D(4,5,6,14)          -179.8655         estimate D2E/DX2                !
 ! D32   D(13,5,6,1)          -179.8628         estimate D2E/DX2                !
 ! D33   D(13,5,6,14)            0.1523         estimate D2E/DX2                !
 --------------------------------------------------------------------------------
 Trust Radius=3.00D-01 FncErr=1.00D-07 GrdErr=1.00D-06 EigMax=2.50D+02 EigMin=1.00D-04
 Number of steps in this run=     81 maximum allowed number of steps=    100.
 GradGradGradGradGradGradGradGradGradGradGradGradGradGradGradGradGradGrad

                          Input orientation:                          
 ---------------------------------------------------------------------
 Center     Atomic      Atomic             Coordinates (Angstroms)
 Number     Number       Type             X           Y           Z
 ---------------------------------------------------------------------
      1          6           0       -1.203700    0.705200    0.293800
      2          6           0       -1.203600   -0.705500   -0.293800
      3          6           0        0.080900   -1.407700    0.058900
      4          6           0        1.217700   -0.723900    0.131500
      5          6           0        1.217500    0.724100   -0.131500
      6          6           0        0.080600    1.407700   -0.058900
      7          1           0       -2.046100    1.266000   -0.111200
      8          1           0       -1.297900    0.645800    1.378100
      9          1           0       -2.045900   -1.266400    0.111200
     10          1           0       -1.297800   -0.646000   -1.378100
     11          1           0        0.078000   -2.470000    0.253600
     12          1           0        2.138700   -1.229000    0.382400
     13          1           0        2.138500    1.229400   -0.382400
     14          1           0        0.077500    2.470000   -0.253600
 ---------------------------------------------------------------------
                    Distance matrix (angstroms):
                    1          2          3          4          5
     1  C    0.000000
     2  C    1.528185   0.000000
     3  C    2.483892   1.505796   0.000000
     4  C    2.816353   2.458437   1.328596   0.000000
     5  C    2.458342   2.816349   2.423362   1.471691   0.000000
     6  C    1.505766   2.483941   2.817863   2.423421   1.328579
     7  H    1.090027   2.151734   3.420780   3.830274   3.308346
     8  H    1.090004   2.151779   2.803255   3.123833   2.934665
     9  H    2.151709   1.090001   2.132130   3.308444   3.830245
    10  H    2.151708   1.090009   2.132128   2.934740   3.123767
    11  H    3.424364   2.248467   1.079999   2.088705   3.413069
    12  H    3.862721   3.449966   2.090724   1.079962   2.219753
    13  H    3.449976   3.862812   3.373835   2.219763   1.080056
    14  H    2.248475   3.424417   3.890273   3.413115   2.088702
                    6          7          8          9         10
     6  C    0.000000
     7  H    2.132057   0.000000
     8  H    2.132070   1.778332   0.000000
     9  H    3.420782   2.542147   2.412685   0.000000
    10  H    2.803205   2.412619   3.043910   1.778360   0.000000
    11  H    3.890273   4.313070   3.586894   2.445380   2.807534
    12  H    3.373827   4.897062   4.039370   4.193546   3.904969
    13  H    2.090788   4.193539   3.904970   4.897128   4.039394
    14  H    1.080000   2.445316   2.807468   4.313072   3.586838
                   11         12         13         14
    11  H    0.000000
    12  H    2.408974   0.000000
    13  H    4.282022   2.574616   0.000000
    14  H    4.965969   4.282014   2.409024   0.000000
 Stoichiometry    C6H8
 Framework group  C1[X(C6H8)]
 Deg. of freedom    36
 Full point group                 C1      NOp   1
 Largest Abelian subgroup         C1      NOp   1
 Largest concise Abelian subgroup C1      NOp   1
                         Standard orientation:                         
 ---------------------------------------------------------------------
 Center     Atomic      Atomic             Coordinates (Angstroms)
 Number     Number       Type             X           Y           Z
 ---------------------------------------------------------------------
      1          6           0       -1.178349    0.703043    0.298683
      2          6           0       -1.178105   -0.703551   -0.298677
      3          6           0        0.106469   -1.408045    0.049145
      4          6           0        1.243198   -0.724647    0.126477
      5          6           0        1.242847    0.725141   -0.126484
      6          6           0        0.105876    1.408103   -0.049145
      7          1           0       -2.020809    1.266549   -0.102419
      8          1           0       -1.272538    0.636122    1.382546
      9          1           0       -2.020345   -1.267331    0.102430
     10          1           0       -1.272316   -0.636550   -1.382538
     11          1           0        0.103680   -2.471669    0.236480
     12          1           0        2.164252   -1.231377    0.373868
     13          1           0        2.163794    1.232263   -0.373880
     14          1           0        0.102666    2.471727   -0.236480
 ---------------------------------------------------------------------
 Rotational constants (GHZ):           5.1389890           5.1349516           2.7606231
 Standard basis: 6-311++G(d,p) (5D, 7F)
 There are   194 symmetry adapted cartesian basis functions of A   symmetry.
 There are   188 symmetry adapted basis functions of A   symmetry.
   188 basis functions,   288 primitive gaussians,   194 cartesian basis functions
    22 alpha electrons       22 beta electrons
       nuclear repulsion energy       220.6475424979 Hartrees.
 NAtoms=   14 NActive=   14 NUniq=   14 SFac= 1.00D+00 NAtFMM=   60 NAOKFM=F Big=F
 Integral buffers will be    131072 words long.
 Raffenetti 2 integral format.
 Two-electron integral symmetry is turned on.
 R6APFD:  NTU= -4 IXU= 1 FactS= 1.050
 Nuclear repulsion after empirical dispersion term =      220.6418040085 Hartrees.
 One-electron integrals computed using PRISM.
 NBasis=   188 RedAO= T EigKep=  5.28D-06  NBF=   188
 NBsUse=   188 1.00D-06 EigRej= -1.00D+00 NBFU=   188
 ExpMin= 3.60D-02 ExpMax= 4.56D+03 ExpMxC= 6.82D+02 IAcc=3 IRadAn=         5 AccDes= 0.00D+00
 Harris functional with IExCor= 1009 and IRadAn=       5 diagonalized for initial guess.
 HarFok:  IExCor= 1009 AccDes= 0.00D+00 IRadAn=         5 IDoV= 1 UseB2=F ITyADJ=14
 ICtDFT=  3500011 ScaDFX=  1.000000  1.000000  1.000000  1.000000
 FoFCou: FMM=F IPFlag=           0 FMFlag=      100000 FMFlg1=           0
         NFxFlg=           0 DoJE=T BraDBF=F KetDBF=T FulRan=T
         wScrn=  0.000000 ICntrl=       500 IOpCl=  0 I1Cent=   200000004 NGrid=           0
         NMat0=    1 NMatS0=      1 NMatT0=    0 NMatD0=    1 NMtDS0=    0 NMtDT0=    0
 Petite list used in FoFCou.
 Requested convergence on RMS density matrix=1.00D-08 within  32 cycles.
 Requested convergence on MAX density matrix=1.00D-06.
 Requested convergence on             energy=1.00D-06.
 No special actions if energy rises.
 SCF Done:  E(RM08HX) =  -233.421456410     A.U. after   12 cycles
            NFock= 12  Conv=0.31D-08     -V/T= 2.0048
 QCSCF skips out because SCF is already converged.

 **********************************************************************

            Population analysis using the SCF Density.

 **********************************************************************

 Orbital symmetries:
       Occupied  (A) (A) (A) (A) (A) (A) (A) (A) (A) (A) (A) (A)
                 (A) (A) (A) (A) (A) (A) (A) (A) (A) (A)
       Virtual   (A) (A) (A) (A) (A) (A) (A) (A) (A) (A) (A) (A)
                 (A) (A) (A) (A) (A) (A) (A) (A) (A) (A) (A) (A)
                 (A) (A) (A) (A) (A) (A) (A) (A) (A) (A) (A) (A)
                 (A) (A) (A) (A) (A) (A) (A) (A) (A) (A) (A) (A)
                 (A) (A) (A) (A) (A) (A) (A) (A) (A) (A) (A) (A)
                 (A) (A) (A) (A) (A) (A) (A) (A) (A) (A) (A) (A)
                 (A) (A) (A) (A) (A) (A) (A) (A) (A) (A) (A) (A)
                 (A) (A) (A) (A) (A) (A) (A) (A) (A) (A) (A) (A)
                 (A) (A) (A) (A) (A) (A) (A) (A) (A) (A) (A) (A)
                 (A) (A) (A) (A) (A) (A) (A) (A) (A) (A) (A) (A)
                 (A) (A) (A) (A) (A) (A) (A) (A) (A) (A) (A) (A)
                 (A) (A) (A) (A) (A) (A) (A) (A) (A) (A) (A) (A)
                 (A) (A) (A) (A) (A) (A) (A) (A) (A) (A) (A) (A)
                 (A) (A) (A) (A) (A) (A) (A) (A) (A) (A)
 The electronic state is 1-A.
 Alpha  occ. eigenvalues --  -10.52815 -10.52809 -10.52770 -10.52737 -10.52550
 Alpha  occ. eigenvalues --  -10.52501  -0.95665  -0.84809  -0.84571  -0.71084
 Alpha  occ. eigenvalues --   -0.67325  -0.58812  -0.57096  -0.51832  -0.49282
 Alpha  occ. eigenvalues --   -0.48661  -0.45922  -0.44120  -0.39546  -0.37768
 Alpha  occ. eigenvalues --   -0.37289  -0.27611
 Alpha virt. eigenvalues --   -0.02568  -0.00940  -0.00751  -0.00530  -0.00144
 Alpha virt. eigenvalues --    0.01446   0.01535   0.02341   0.04498   0.05268
 Alpha virt. eigenvalues --    0.05760   0.07287   0.08035   0.08659   0.10211
 Alpha virt. eigenvalues --    0.10215   0.10795   0.11228   0.11669   0.11832
 Alpha virt. eigenvalues --    0.12257   0.12616   0.13085   0.14158   0.14339
 Alpha virt. eigenvalues --    0.14799   0.15761   0.16086   0.16773   0.17013
 Alpha virt. eigenvalues --    0.18621   0.18712   0.19651   0.20496   0.23331
 Alpha virt. eigenvalues --    0.24163   0.27036   0.28104   0.28722   0.32174
 Alpha virt. eigenvalues --    0.32719   0.33269   0.34784   0.34940   0.37658
 Alpha virt. eigenvalues --    0.40515   0.45216   0.47728   0.48216   0.50662
 Alpha virt. eigenvalues --    0.51325   0.52133   0.56874   0.57901   0.60026
 Alpha virt. eigenvalues --    0.61339   0.61514   0.61742   0.65630   0.68192
 Alpha virt. eigenvalues --    0.68752   0.69086   0.70681   0.70868   0.75057
 Alpha virt. eigenvalues --    0.75152   0.76500   0.78064   0.80182   0.80780
 Alpha virt. eigenvalues --    0.82039   0.82961   0.84837   0.89135   0.89718
 Alpha virt. eigenvalues --    0.91272   0.95375   0.98513   1.05818   1.05950
 Alpha virt. eigenvalues --    1.07174   1.14607   1.20740   1.22895   1.24241
 Alpha virt. eigenvalues --    1.36354   1.41859   1.42169   1.52437   1.52770
 Alpha virt. eigenvalues --    1.55210   1.57161   1.57875   1.62098   1.62893
 Alpha virt. eigenvalues --    1.63631   1.65695   1.67119   1.69781   1.71124
 Alpha virt. eigenvalues --    1.72156   1.80922   1.80973   1.82154   1.83711
 Alpha virt. eigenvalues --    1.85779   1.86737   1.88651   1.91690   1.96163
 Alpha virt. eigenvalues --    1.97501   2.03042   2.07151   2.08988   2.12990
 Alpha virt. eigenvalues --    2.15152   2.21601   2.21850   2.30158   2.32178
 Alpha virt. eigenvalues --    2.36136   2.43596   2.44015   2.47923   2.48146
 Alpha virt. eigenvalues --    2.50670   2.56841   2.59740   2.61892   2.67788
 Alpha virt. eigenvalues --    2.68255   2.69988   2.72881   2.72929   2.75321
 Alpha virt. eigenvalues --    2.75750   2.77791   2.77829   2.81868   2.85203
 Alpha virt. eigenvalues --    2.88718   2.93118   2.98708   3.02643   3.07987
 Alpha virt. eigenvalues --    3.12276   3.28830   3.31886   3.35574   3.43784
 Alpha virt. eigenvalues --    3.59671   3.63041   3.83252   3.93991   4.06064
 Alpha virt. eigenvalues --    4.06101   4.11039   4.25776   4.29819   4.64392
 Alpha virt. eigenvalues --   23.75059  23.87081  23.95952  24.00797  24.32241
 Alpha virt. eigenvalues --   24.36547
          Condensed to atoms (all electrons):
               1          2          3          4          5          6
     1  C    7.243208  -0.546637   0.358404  -0.896731   1.007404  -1.284946
     2  C   -0.546637   7.242885  -1.284521   1.007210  -0.896585   0.358452
     3  C    0.358404  -1.284521   6.913716  -0.937596   1.113094  -0.442935
     4  C   -0.896731   1.007210  -0.937596   7.115270  -1.360220   1.113422
     5  C    1.007404  -0.896585   1.113094  -1.360220   7.115430  -0.938047
     6  C   -1.284946   0.358452  -0.442935   1.113422  -0.938047   6.914442
     7  H    0.529941  -0.092615   0.026393  -0.017751   0.028463  -0.108268
     8  H    0.456272  -0.052629   0.003880   0.020209  -0.011668  -0.077716
     9  H   -0.092583   0.529915  -0.108230   0.028436  -0.017742   0.026370
    10  H   -0.052649   0.456301  -0.077759  -0.011628   0.020184   0.003898
    11  H    0.017666  -0.046354   0.391710  -0.077313   0.022735  -0.007290
    12  H   -0.008565   0.036959  -0.036008   0.348199  -0.026811   0.008337
    13  H    0.036969  -0.008556   0.008325  -0.026814   0.348161  -0.036000
    14  H   -0.046360   0.017662  -0.007285   0.022730  -0.077297   0.391712
               7          8          9         10         11         12
     1  C    0.529941   0.456272  -0.092583  -0.052649   0.017666  -0.008565
     2  C   -0.092615  -0.052629   0.529915   0.456301  -0.046354   0.036959
     3  C    0.026393   0.003880  -0.108230  -0.077759   0.391710  -0.036008
     4  C   -0.017751   0.020209   0.028436  -0.011628  -0.077313   0.348199
     5  C    0.028463  -0.011668  -0.017742   0.020184   0.022735  -0.026811
     6  C   -0.108268  -0.077716   0.026370   0.003898  -0.007290   0.008337
     7  H    0.460930  -0.023373  -0.008337  -0.001605   0.001298   0.000062
     8  H   -0.023373   0.472663  -0.001604   0.008774  -0.003246  -0.000707
     9  H   -0.008337  -0.001604   0.460907  -0.023366  -0.000650   0.001883
    10  H   -0.001605   0.008774  -0.023366   0.472652  -0.001710  -0.002903
    11  H    0.001298  -0.003246  -0.000650  -0.001710   0.413121   0.000232
    12  H    0.000062  -0.000707   0.001883  -0.002903   0.000232   0.410939
    13  H    0.001884  -0.002905   0.000063  -0.000709   0.000863   0.003217
    14  H   -0.000656  -0.001707   0.001298  -0.003245   0.000633   0.000863
              13         14
     1  C    0.036969  -0.046360
     2  C   -0.008556   0.017662
     3  C    0.008325  -0.007285
     4  C   -0.026814   0.022730
     5  C    0.348161  -0.077297
     6  C   -0.036000   0.391712
     7  H    0.001884  -0.000656
     8  H   -0.002905  -0.001707
     9  H    0.000063   0.001298
    10  H   -0.000709  -0.003245
    11  H    0.000863   0.000633
    12  H    0.003217   0.000863
    13  H    0.410956   0.000234
    14  H    0.000234   0.413109
 Mulliken charges:
               1
     1  C   -0.721392
     2  C   -0.721486
     3  C    0.078813
     4  C   -0.327424
     5  C   -0.327101
     6  C    0.078569
     7  H    0.203633
     8  H    0.213759
     9  H    0.203638
    10  H    0.213765
    11  H    0.288305
    12  H    0.264301
    13  H    0.264311
    14  H    0.288309
 Sum of Mulliken charges =  -0.00000
 Mulliken charges with hydrogens summed into heavy atoms:
               1
     1  C   -0.304000
     2  C   -0.304083
     3  C    0.367118
     4  C   -0.063123
     5  C   -0.062790
     6  C    0.366878
 Electronic spatial extent (au):  <R**2>=            499.8594
 Charge=              0.0000 electrons
 Dipole moment (field-independent basis, Debye):
    X=             -0.4822    Y=             -0.0001    Z=              0.0000  Tot=              0.4822
 Quadrupole moment (field-independent basis, Debye-Ang):
   XX=            -35.0079   YY=            -35.5496   ZZ=            -39.9902
   XY=             -0.0001   XZ=              0.0003   YZ=             -0.8103
 Traceless Quadrupole moment (field-independent basis, Debye-Ang):
   XX=              1.8414   YY=              1.2996   ZZ=             -3.1410
   XY=             -0.0001   XZ=              0.0003   YZ=             -0.8103
 Octapole moment (field-independent basis, Debye-Ang**2):
  XXX=              3.4943  YYY=              0.0002  ZZZ=              0.0002  XYY=             -0.6659
  XXY=             -0.0001  XXZ=              0.0008  XZZ=             -3.2064  YZZ=             -0.0006
  YYZ=             -0.0003  XYZ=             -1.2653
 Hexadecapole moment (field-independent basis, Debye-Ang**3):
 XXXX=           -304.6870 YYYY=           -296.5218 ZZZZ=            -73.8100 XXXY=              0.0002
 XXXZ=              0.0036 YYYX=             -0.0026 YYYZ=             -7.5138 ZZZX=             -0.0002
 ZZZY=              2.8824 XXYY=           -101.9939 XXZZ=            -67.9359 YYZZ=            -71.3973
 XXYZ=             -5.1477 YYXZ=             -0.0005 ZZXY=              0.0004
 N-N= 2.206418040085D+02 E-N=-9.818073640033D+02  KE= 2.323134242571D+02
 R6APFD:  NTU= -4 IXU= 1 FactS= 1.050
 Calling FoFJK, ICntrl=      2127 FMM=F ISym2X=0 I1Cent= 0 IOpClX= 0 NMat=1 NMatS=1 NMatT=0.
 ***** Axes restored to original set *****
 -------------------------------------------------------------------
 Center     Atomic                   Forces (Hartrees/Bohr)
 Number     Number              X              Y              Z
 -------------------------------------------------------------------
      1        6           0.002653433   -0.000036965   -0.011256755
      2        6           0.002696968    0.000067820    0.011255700
      3        6          -0.004856215   -0.001470989    0.000751245
      4        6           0.004196127    0.007727352    0.000034980
      5        6           0.004302735   -0.007697159   -0.000052430
      6        6          -0.004852025    0.001459967   -0.000754849
      7        1          -0.005390070    0.002651553    0.002733577
      8        1          -0.002235567    0.001494846    0.008291329
      9        1          -0.005395956   -0.002665650   -0.002729008
     10        1          -0.002234507   -0.001504740   -0.008287675
     11        1          -0.001176936   -0.007261261   -0.000518138
     12        1           0.006764542   -0.001440188    0.000619613
     13        1           0.006707449    0.001416927   -0.000606608
     14        1          -0.001179977    0.007258487    0.000519020
 -------------------------------------------------------------------
 Cartesian Forces:  Max     0.011256755 RMS     0.004677249

 GradGradGradGradGradGradGradGradGradGradGradGradGradGradGradGradGradGrad
 Berny optimization.
 FormGI is forming the generalized inverse of G from B-inverse, IUseBI=4.
 Internal  Forces:  Max     0.012628534 RMS     0.003472997
 Search for a local minimum.
 Step number   1 out of a maximum of   81
 All quantities printed in internal units (Hartrees-Bohrs-Radians)
 Mixed Optimization -- RFO/linear search
 Second derivative matrix not updated -- first step.
 ITU=  0
     Eigenvalues ---    0.00763   0.01269   0.01408   0.01665   0.02009
     Eigenvalues ---    0.02093   0.02428   0.04198   0.04633   0.05646
     Eigenvalues ---    0.06153   0.08868   0.08918   0.08965   0.11695
     Eigenvalues ---    0.16000   0.16000   0.16000   0.16000   0.20161
     Eigenvalues ---    0.20398   0.22000   0.28426   0.30527   0.30895
     Eigenvalues ---    0.34576   0.34809   0.34812   0.34812   0.34812
     Eigenvalues ---    0.35988   0.35994   0.35994   0.35999   0.56288
     Eigenvalues ---    0.58478
 RFO step:  Lambda=-3.12500968D-03 EMin= 7.62682114D-03
 Linear search not attempted -- first point.
 Iteration  1 RMS(Cart)=  0.02187230 RMS(Int)=  0.00037163
 Iteration  2 RMS(Cart)=  0.00033411 RMS(Int)=  0.00016230
 Iteration  3 RMS(Cart)=  0.00000009 RMS(Int)=  0.00016230
 Variable       Old X    -DE/DX   Delta X   Delta X   Delta X     New X
                                 (Linear)    (Quad)   (Total)
    R1        2.88785   0.00587   0.00000   0.01730   0.01737   2.90522
    R2        2.84548   0.00545   0.00000   0.01570   0.01571   2.86120
    R3        2.05985   0.00451   0.00000   0.01285   0.01285   2.07271
    R4        2.05981   0.00836   0.00000   0.02380   0.02380   2.08361
    R5        2.84554   0.00543   0.00000   0.01563   0.01565   2.86119
    R6        2.05980   0.00453   0.00000   0.01289   0.01289   2.07269
    R7        2.05982   0.00835   0.00000   0.02379   0.02379   2.08361
    R8        2.51068   0.01261   0.00000   0.02165   0.02162   2.53231
    R9        2.04090   0.00705   0.00000   0.01942   0.01942   2.06033
   R10        2.78109   0.00008   0.00000   0.00254   0.00250   2.78359
   R11        2.04083   0.00659   0.00000   0.01814   0.01814   2.05897
   R12        2.51065   0.01263   0.00000   0.02168   0.02165   2.53230
   R13        2.04101   0.00652   0.00000   0.01797   0.01797   2.05898
   R14        2.04090   0.00705   0.00000   0.01942   0.01942   2.06032
    A1        1.91830   0.00072   0.00000   0.00630   0.00629   1.92459
    A2        1.90934   0.00120   0.00000   0.01963   0.01916   1.92851
    A3        1.90943   0.00019   0.00000  -0.00186  -0.00183   1.90759
    A4        1.90933   0.00059   0.00000   0.02151   0.02105   1.93038
    A5        1.90937  -0.00057   0.00000  -0.01165  -0.01167   1.89770
    A6        1.90800  -0.00214   0.00000  -0.03420  -0.03400   1.87400
    A7        1.91822   0.00073   0.00000   0.00639   0.00637   1.92459
    A8        1.90933   0.00120   0.00000   0.01964   0.01918   1.92851
    A9        1.90932   0.00020   0.00000  -0.00178  -0.00175   1.90757
   A10        1.90942   0.00058   0.00000   0.02142   0.02095   1.93037
   A11        1.90941  -0.00058   0.00000  -0.01169  -0.01171   1.89770
   A12        1.90808  -0.00214   0.00000  -0.03423  -0.03404   1.87404
   A13        2.09749  -0.00020   0.00000  -0.00171  -0.00180   2.09569
   A14        2.09281  -0.00138   0.00000  -0.00820  -0.00849   2.08432
   A15        2.09288   0.00158   0.00000   0.00992   0.00962   2.10250
   A16        2.09037  -0.00000   0.00000   0.00457   0.00460   2.09497
   A17        2.09633   0.00210   0.00000   0.01056   0.01048   2.10681
   A18        2.09648  -0.00209   0.00000  -0.01513  -0.01522   2.08127
   A19        2.09048  -0.00002   0.00000   0.00448   0.00451   2.09499
   A20        2.09637  -0.00208   0.00000  -0.01506  -0.01514   2.08124
   A21        2.09633   0.00210   0.00000   0.01057   0.01048   2.10682
   A22        2.09742  -0.00019   0.00000  -0.00164  -0.00174   2.09568
   A23        2.09286  -0.00139   0.00000  -0.00824  -0.00853   2.08433
   A24        2.09290   0.00157   0.00000   0.00990   0.00960   2.10250
    D1        0.86846  -0.00098   0.00000  -0.01897  -0.01912   0.84935
    D2        2.96523   0.00093   0.00000   0.02355   0.02359   2.98882
    D3       -1.22828  -0.00084   0.00000  -0.00742  -0.00754  -1.23582
    D4        2.96517   0.00093   0.00000   0.02361   0.02365   2.98883
    D5       -1.22125   0.00284   0.00000   0.06613   0.06636  -1.15489
    D6        0.86843   0.00107   0.00000   0.03516   0.03522   0.90365
    D7       -1.22835  -0.00084   0.00000  -0.00738  -0.00749  -1.23585
    D8        0.86841   0.00107   0.00000   0.03514   0.03521   0.90362
    D9        2.95809  -0.00070   0.00000   0.00417   0.00408   2.96217
   D10       -0.60790   0.00073   0.00000   0.01231   0.01243  -0.59547
   D11        2.53343   0.00121   0.00000   0.05184   0.05181   2.58524
   D12       -2.70462  -0.00156   0.00000  -0.02913  -0.02923  -2.73385
   D13        0.43671  -0.00107   0.00000   0.01040   0.01015   0.44686
   D14        1.48895   0.00105   0.00000   0.00666   0.00676   1.49571
   D15       -1.65291   0.00154   0.00000   0.04619   0.04615  -1.60676
   D16       -0.60788   0.00072   0.00000   0.01227   0.01239  -0.59549
   D17        2.53346   0.00121   0.00000   0.05181   0.05179   2.58524
   D18       -2.70459  -0.00156   0.00000  -0.02917  -0.02927  -2.73386
   D19        0.43674  -0.00108   0.00000   0.01037   0.01012   0.44687
   D20        1.48882   0.00106   0.00000   0.00674   0.00685   1.49566
   D21       -1.65303   0.00154   0.00000   0.04628   0.04624  -1.60679
   D22        0.00211  -0.00018   0.00000   0.00467   0.00471   0.00682
   D23       -3.13922   0.00001   0.00000   0.02256   0.02275  -3.11647
   D24       -3.13923  -0.00067   0.00000  -0.03487  -0.03510   3.10886
   D25        0.00263  -0.00047   0.00000  -0.01698  -0.01706  -0.01443
   D26        0.33738  -0.00063   0.00000  -0.01452  -0.01462   0.32275
   D27       -2.80453  -0.00082   0.00000  -0.03236  -0.03236  -2.83689
   D28       -2.80448  -0.00083   0.00000  -0.03240  -0.03239  -2.83688
   D29        0.33680  -0.00102   0.00000  -0.05024  -0.05013   0.28667
   D30        0.00208  -0.00018   0.00000   0.00468   0.00472   0.00680
   D31       -3.13924  -0.00067   0.00000  -0.03485  -0.03508   3.10886
   D32       -3.13920   0.00001   0.00000   0.02253   0.02272  -3.11648
   D33        0.00266  -0.00047   0.00000  -0.01700  -0.01708  -0.01442
         Item               Value     Threshold  Converged?
 Maximum Force            0.012629     0.000450     NO 
 RMS     Force            0.003473     0.000300     NO 
 Maximum Displacement     0.057709     0.001800     NO 
 RMS     Displacement     0.021825     0.001200     NO 
 Predicted change in Energy=-1.631297D-03
 GradGradGradGradGradGradGradGradGradGradGradGradGradGradGradGradGradGrad

                          Input orientation:                          
 ---------------------------------------------------------------------
 Center     Atomic      Atomic             Coordinates (Angstroms)
 Number     Number       Type             X           Y           Z
 ---------------------------------------------------------------------
      1          6           0       -1.211916    0.715500    0.280650
      2          6           0       -1.211778   -0.715748   -0.280645
      3          6           0        0.082434   -1.417630    0.072639
      4          6           0        1.227414   -0.724114    0.133945
      5          6           0        1.227265    0.724331   -0.133954
      6          6           0        0.082161    1.417636   -0.072634
      7          1           0       -2.072791    1.277702   -0.101262
      8          1           0       -1.305158    0.676296    1.378598
      9          1           0       -2.072532   -1.278120    0.101271
     10          1           0       -1.305004   -0.676538   -1.378593
     11          1           0        0.079130   -2.495034    0.239659
     12          1           0        2.168376   -1.222787    0.364292
     13          1           0        2.168142    1.223171   -0.364308
     14          1           0        0.078658    2.495035   -0.239658
 ---------------------------------------------------------------------
                    Distance matrix (angstroms):
                    1          2          3          4          5
     1  C    0.000000
     2  C    1.537375   0.000000
     3  C    2.503768   1.514078   0.000000
     4  C    2.836255   2.474189   1.340038   0.000000
     5  C    2.474183   2.836243   2.437481   1.473011   0.000000
     6  C    1.514081   2.503771   2.838985   2.437493   1.340036
     7  H    1.096829   2.178845   3.455438   3.867033   3.346291
     8  H    1.102597   2.167855   2.831160   3.150275   2.950134
     9  H    2.178842   1.096823   2.159667   3.346287   3.867015
    10  H    2.167838   1.102596   2.140158   2.950116   3.150230
    11  H    3.460637   2.258986   1.090278   2.113266   3.438330
    12  H    3.897477   3.478285   2.115225   1.089561   2.219280
    13  H    3.478289   3.897468   3.393365   2.219266   1.089565
    14  H    2.258993   3.460640   3.925111   3.438334   2.113259
                    6          7          8          9         10
     6  C    0.000000
     7  H    2.159680   0.000000
     8  H    2.140167   1.772269   0.000000
     9  H    3.455437   2.563834   2.457676   0.000000
    10  H    2.831134   2.457667   3.071199   1.772285   0.000000
    11  H    3.925114   4.356664   3.642907   2.475819   2.800267
    12  H    3.393380   4.945370   4.086658   4.249417   3.924335
    13  H    2.115232   4.249433   3.924361   4.945355   4.086614
    14  H    1.090274   2.475841   2.800271   4.356667   3.642880
                   11         12         13         14
    11  H    0.000000
    12  H    2.449305   0.000000
    13  H    4.307412   2.552169   0.000000
    14  H    5.013036   4.307421   2.449309   0.000000
 Stoichiometry    C6H8
 Framework group  C1[X(C6H8)]
 Deg. of freedom    36
 Full point group                 C1      NOp   1
 Largest Abelian subgroup         C1      NOp   1
 Largest concise Abelian subgroup C1      NOp   1
                         Standard orientation:                         
 ---------------------------------------------------------------------
 Center     Atomic      Atomic             Coordinates (Angstroms)
 Number     Number       Type             X           Y           Z
 ---------------------------------------------------------------------
      1          6           0       -1.187239    0.712807    0.287267
      2          6           0       -1.187014   -0.713176   -0.287271
      3          6           0        0.107238   -1.418227    0.059496
      4          6           0        1.252177   -0.725240    0.127231
      5          6           0        1.251943    0.725625   -0.127231
      6          6           0        0.106797    1.418264   -0.059490
      7          1           0       -2.048146    1.278474   -0.089420
      8          1           0       -1.280481    0.663422    1.384804
      9          1           0       -2.047736   -1.279115    0.089413
     10          1           0       -1.280241   -0.663797   -1.384809
     11          1           0        0.103997   -2.497132    0.216522
     12          1           0        2.193168   -1.225972    0.352948
     13          1           0        2.192791    1.226635   -0.352949
     14          1           0        0.103232    2.497165   -0.216521
 ---------------------------------------------------------------------
 Rotational constants (GHZ):           5.0756172           5.0628116           2.7166218
 Standard basis: 6-311++G(d,p) (5D, 7F)
 There are   194 symmetry adapted cartesian basis functions of A   symmetry.
 There are   188 symmetry adapted basis functions of A   symmetry.
   188 basis functions,   288 primitive gaussians,   194 cartesian basis functions
    22 alpha electrons       22 beta electrons
       nuclear repulsion energy       219.0871994450 Hartrees.
 NAtoms=   14 NActive=   14 NUniq=   14 SFac= 1.00D+00 NAtFMM=   60 NAOKFM=F Big=F
 Integral buffers will be    131072 words long.
 Raffenetti 2 integral format.
 Two-electron integral symmetry is turned on.
 R6APFD:  NTU= -4 IXU= 1 FactS= 1.050
 Nuclear repulsion after empirical dispersion term =      219.0812767521 Hartrees.
 One-electron integrals computed using PRISM.
 NBasis=   188 RedAO= T EigKep=  5.39D-06  NBF=   188
 NBsUse=   188 1.00D-06 EigRej= -1.00D+00 NBFU=   188
 Initial guess from the checkpoint file:  "DOBE0033.chk"
 B after Tr=     0.000000   -0.000000   -0.000000
         Rot=    0.999999    0.001508    0.000004    0.000024 Ang=   0.17 deg.
 ExpMin= 3.60D-02 ExpMax= 4.56D+03 ExpMxC= 6.82D+02 IAcc=3 IRadAn=         5 AccDes= 0.00D+00
 Harris functional with IExCor= 1009 and IRadAn=       5 diagonalized for initial guess.
 HarFok:  IExCor= 1009 AccDes= 0.00D+00 IRadAn=         5 IDoV= 1 UseB2=F ITyADJ=14
 ICtDFT=  3500011 ScaDFX=  1.000000  1.000000  1.000000  1.000000
 FoFCou: FMM=F IPFlag=           0 FMFlag=      100000 FMFlg1=           0
         NFxFlg=           0 DoJE=T BraDBF=F KetDBF=T FulRan=T
         wScrn=  0.000000 ICntrl=       500 IOpCl=  0 I1Cent=   200000004 NGrid=           0
         NMat0=    1 NMatS0=      1 NMatT0=    0 NMatD0=    1 NMtDS0=    0 NMtDT0=    0
 Petite list used in FoFCou.
 Requested convergence on RMS density matrix=1.00D-08 within  32 cycles.
 Requested convergence on MAX density matrix=1.00D-06.
 Requested convergence on             energy=1.00D-06.
 No special actions if energy rises.
 SCF Done:  E(RM08HX) =  -233.423100435     A.U. after   11 cycles
            NFock= 11  Conv=0.26D-08     -V/T= 2.0058
 QCSCF skips out because SCF is already converged.
 R6APFD:  NTU= -4 IXU= 1 FactS= 1.050
 Calling FoFJK, ICntrl=      2127 FMM=F ISym2X=0 I1Cent= 0 IOpClX= 0 NMat=1 NMatS=1 NMatT=0.
 ***** Axes restored to original set *****
 -------------------------------------------------------------------
 Center     Atomic                   Forces (Hartrees/Bohr)
 Number     Number              X              Y              Z
 -------------------------------------------------------------------
      1        6           0.002072466   -0.001711968   -0.003451205
      2        6           0.002077316    0.001717434    0.003452475
      3        6           0.000346586    0.000461450    0.000582583
      4        6          -0.001500286    0.000577769   -0.000651607
      5        6          -0.001489144   -0.000578311    0.000651349
      6        6           0.000343950   -0.000465462   -0.000582894
      7        1          -0.000341087   -0.000194645    0.000918915
      8        1          -0.000371441    0.000610205    0.001054918
      9        1          -0.000344954    0.000193176   -0.000919724
     10        1          -0.000373276   -0.000612163   -0.001055257
     11        1          -0.000289418    0.000217795   -0.000399297
     12        1           0.000081395    0.000353307   -0.000511025
     13        1           0.000078062   -0.000352630    0.000511354
     14        1          -0.000290171   -0.000215955    0.000399414
 -------------------------------------------------------------------
 Cartesian Forces:  Max     0.003452475 RMS     0.001115593

 GradGradGradGradGradGradGradGradGradGradGradGradGradGradGradGradGradGrad
 Berny optimization.
 Using GEDIIS/GDIIS optimizer.
 FormGI is forming the generalized inverse of G from B-inverse, IUseBI=4.
 Internal  Forces:  Max     0.001943014 RMS     0.000557015
 Search for a local minimum.
 Step number   2 out of a maximum of   81
 All quantities printed in internal units (Hartrees-Bohrs-Radians)
 Mixed Optimization -- En-DIIS/RFO-DIIS
 Update second derivatives using D2CorX and points    1    2
 DE= -1.64D-03 DEPred=-1.63D-03 R= 1.01D+00
 TightC=F SS=  1.41D+00  RLast= 1.98D-01 DXNew= 5.0454D-01 5.9509D-01
 Trust test= 1.01D+00 RLast= 1.98D-01 DXMaxT set to 5.05D-01
 ITU=  1  0
 Use linear search instead of GDIIS.
     Eigenvalues ---    0.00752   0.01271   0.01358   0.01670   0.02024
     Eigenvalues ---    0.02104   0.02437   0.04072   0.04261   0.05599
     Eigenvalues ---    0.05990   0.08847   0.09046   0.09196   0.11800
     Eigenvalues ---    0.15679   0.15986   0.15990   0.15998   0.20180
     Eigenvalues ---    0.20444   0.21997   0.28868   0.30551   0.31370
     Eigenvalues ---    0.33438   0.34780   0.34811   0.34812   0.35176
     Eigenvalues ---    0.35989   0.35994   0.35998   0.37546   0.56350
     Eigenvalues ---    0.62033
 RFO step:  Lambda=-1.65982061D-04 EMin= 7.52306567D-03
 Quartic linear search produced a step of  0.06793.
 Iteration  1 RMS(Cart)=  0.00785869 RMS(Int)=  0.00006158
 Iteration  2 RMS(Cart)=  0.00005844 RMS(Int)=  0.00003354
 Iteration  3 RMS(Cart)=  0.00000000 RMS(Int)=  0.00003354
 Variable       Old X    -DE/DX   Delta X   Delta X   Delta X     New X
                                 (Linear)    (Quad)   (Total)
    R1        2.90522  -0.00194   0.00118  -0.00787  -0.00666   2.89856
    R2        2.86120  -0.00138   0.00107  -0.00548  -0.00441   2.85679
    R3        2.07271  -0.00015   0.00087  -0.00079   0.00008   2.07279
    R4        2.08361   0.00106   0.00162   0.00264   0.00426   2.08786
    R5        2.86119  -0.00138   0.00106  -0.00548  -0.00441   2.85679
    R6        2.07269  -0.00015   0.00088  -0.00078   0.00009   2.07279
    R7        2.08361   0.00106   0.00162   0.00264   0.00426   2.08786
    R8        2.53231  -0.00142   0.00147  -0.00291  -0.00146   2.53085
    R9        2.06033  -0.00028   0.00132  -0.00131   0.00001   2.06033
   R10        2.78359  -0.00139   0.00017  -0.00357  -0.00342   2.78017
   R11        2.05897  -0.00020   0.00123  -0.00105   0.00018   2.05915
   R12        2.53230  -0.00142   0.00147  -0.00291  -0.00145   2.53085
   R13        2.05898  -0.00020   0.00122  -0.00106   0.00016   2.05914
   R14        2.06032  -0.00027   0.00132  -0.00131   0.00001   2.06033
    A1        1.92459   0.00036   0.00043   0.00346   0.00389   1.92848
    A2        1.92851   0.00004   0.00130   0.00121   0.00242   1.93093
    A3        1.90759   0.00015  -0.00012   0.00168   0.00157   1.90916
    A4        1.93038   0.00009   0.00143   0.00495   0.00632   1.93670
    A5        1.89770  -0.00022  -0.00079  -0.00389  -0.00469   1.89302
    A6        1.87400  -0.00043  -0.00231  -0.00782  -0.01010   1.86390
    A7        1.92459   0.00036   0.00043   0.00346   0.00390   1.92848
    A8        1.92851   0.00004   0.00130   0.00120   0.00242   1.93093
    A9        1.90757   0.00015  -0.00012   0.00169   0.00158   1.90916
   A10        1.93037   0.00009   0.00142   0.00496   0.00632   1.93669
   A11        1.89770  -0.00022  -0.00080  -0.00388  -0.00468   1.89301
   A12        1.87404  -0.00043  -0.00231  -0.00784  -0.01013   1.86391
   A13        2.09569  -0.00055  -0.00012  -0.00315  -0.00334   2.09235
   A14        2.08432  -0.00009  -0.00058  -0.00086  -0.00150   2.08282
   A15        2.10250   0.00064   0.00065   0.00343   0.00401   2.10652
   A16        2.09497   0.00034   0.00031   0.00287   0.00316   2.09813
   A17        2.10681   0.00023   0.00071   0.00090   0.00162   2.10843
   A18        2.08127  -0.00057  -0.00103  -0.00380  -0.00482   2.07644
   A19        2.09499   0.00034   0.00031   0.00286   0.00314   2.09813
   A20        2.08124  -0.00057  -0.00103  -0.00378  -0.00480   2.07644
   A21        2.10682   0.00023   0.00071   0.00089   0.00161   2.10843
   A22        2.09568  -0.00055  -0.00012  -0.00314  -0.00333   2.09236
   A23        2.08433  -0.00009  -0.00058  -0.00087  -0.00152   2.08282
   A24        2.10250   0.00064   0.00065   0.00344   0.00401   2.10651
    D1        0.84935  -0.00006  -0.00130  -0.00305  -0.00436   0.84499
    D2        2.98882   0.00032   0.00160   0.00639   0.00800   2.99682
    D3       -1.23582  -0.00010  -0.00051  -0.00145  -0.00197  -1.23780
    D4        2.98883   0.00032   0.00161   0.00638   0.00799   2.99682
    D5       -1.15489   0.00069   0.00451   0.01582   0.02036  -1.13453
    D6        0.90365   0.00028   0.00239   0.00798   0.01038   0.91404
    D7       -1.23585  -0.00010  -0.00051  -0.00143  -0.00196  -1.23780
    D8        0.90362   0.00028   0.00239   0.00801   0.01041   0.91403
    D9        2.96217  -0.00013   0.00028   0.00017   0.00043   2.96260
   D10       -0.59547   0.00015   0.00084  -0.00089  -0.00002  -0.59549
   D11        2.58524   0.00025   0.00352   0.01574   0.01924   2.60448
   D12       -2.73385  -0.00019  -0.00199  -0.00813  -0.01013  -2.74398
   D13        0.44686  -0.00009   0.00069   0.00850   0.00914   0.45600
   D14        1.49571   0.00042   0.00046   0.00084   0.00133   1.49703
   D15       -1.60676   0.00052   0.00313   0.01747   0.02059  -1.58618
   D16       -0.59549   0.00015   0.00084  -0.00088  -0.00001  -0.59549
   D17        2.58524   0.00025   0.00352   0.01574   0.01924   2.60448
   D18       -2.73386  -0.00019  -0.00199  -0.00812  -0.01012  -2.74398
   D19        0.44687  -0.00009   0.00069   0.00849   0.00913   0.45599
   D20        1.49566   0.00042   0.00047   0.00087   0.00136   1.49703
   D21       -1.60679   0.00052   0.00314   0.01749   0.02061  -1.58618
   D22        0.00682   0.00022   0.00032   0.01239   0.01271   0.01953
   D23       -3.11647   0.00013   0.00155   0.01380   0.01536  -3.10111
   D24        3.10886   0.00010  -0.00238  -0.00450  -0.00693   3.10193
   D25       -0.01443   0.00002  -0.00116  -0.00309  -0.00428  -0.01871
   D26        0.32275  -0.00046  -0.00099  -0.01925  -0.02028   0.30247
   D27       -2.83689  -0.00037  -0.00220  -0.02059  -0.02281  -2.85969
   D28       -2.83688  -0.00037  -0.00220  -0.02059  -0.02282  -2.85969
   D29        0.28667  -0.00028  -0.00341  -0.02193  -0.02534   0.26133
   D30        0.00680   0.00022   0.00032   0.01240   0.01272   0.01953
   D31        3.10886   0.00010  -0.00238  -0.00450  -0.00693   3.10193
   D32       -3.11648   0.00013   0.00154   0.01381   0.01536  -3.10112
   D33       -0.01442   0.00002  -0.00116  -0.00309  -0.00429  -0.01871
         Item               Value     Threshold  Converged?
 Maximum Force            0.001943     0.000450     NO 
 RMS     Force            0.000557     0.000300     NO 
 Maximum Displacement     0.032988     0.001800     NO 
 RMS     Displacement     0.007863     0.001200     NO 
 Predicted change in Energy=-8.813000D-05
 GradGradGradGradGradGradGradGradGradGradGradGradGradGradGradGradGradGrad

                          Input orientation:                          
 ---------------------------------------------------------------------
 Center     Atomic      Atomic             Coordinates (Angstroms)
 Number     Number       Type             X           Y           Z
 ---------------------------------------------------------------------
      1          6           0       -1.210032    0.716148    0.274105
      2          6           0       -1.209894   -0.716391   -0.274099
      3          6           0        0.081725   -1.418106    0.079020
      4          6           0        1.225779   -0.723774    0.130779
      5          6           0        1.225640    0.723992   -0.130784
      6          6           0        0.081454    1.418107   -0.079021
      7          1           0       -2.075813    1.274205   -0.102885
      8          1           0       -1.303182    0.687667    1.374652
      9          1           0       -2.075566   -1.274618    0.102890
     10          1           0       -1.303044   -0.687923   -1.374647
     11          1           0        0.078024   -2.497142    0.235163
     12          1           0        2.170998   -1.220990    0.346842
     13          1           0        2.170762    1.221385   -0.346852
     14          1           0        0.077549    2.497141   -0.235165
 ---------------------------------------------------------------------
                    Distance matrix (angstroms):
                    1          2          3          4          5
     1  C    0.000000
     2  C    1.533850   0.000000
     3  C    2.502346   1.511746   0.000000
     4  C    2.833212   2.469106   1.339267   0.000000
     5  C    2.469108   2.833208   2.437446   1.471204   0.000000
     6  C    1.511748   2.502342   2.840613   2.437447   1.339268
     7  H    1.096871   2.177523   3.454939   3.866139   3.347104
     8  H    1.104850   2.167594   2.833886   3.151988   2.943230
     9  H    2.177525   1.096871   2.162189   3.347101   3.866136
    10  H    2.167590   1.104849   2.136328   2.943218   3.151974
    11  H    3.462057   2.255916   1.090281   2.114964   3.438989
    12  H    3.897327   3.474280   2.115572   1.089655   2.214675
    13  H    3.474280   3.897320   3.392986   2.214671   1.089651
    14  H    2.255917   3.462054   3.927836   3.438988   2.114963
                    6          7          8          9         10
     6  C    0.000000
     7  H    2.162193   0.000000
     8  H    2.136335   1.767513   0.000000
     9  H    3.454938   2.557117   2.462624   0.000000
    10  H    2.833874   2.462620   3.074230   1.767517   0.000000
    11  H    3.927836   4.356186   3.653652   2.479922   2.787850
    12  H    3.392991   4.946075   4.095033   4.253903   3.913649
    13  H    2.115571   4.253905   3.913658   4.946069   4.095014
    14  H    1.090280   2.479928   2.787854   4.356186   3.653641
                   11         12         13         14
    11  H    0.000000
    12  H    2.453890   0.000000
    13  H    4.306476   2.538978   0.000000
    14  H    5.016381   4.306479   2.453888   0.000000
 Stoichiometry    C6H8
 Framework group  C1[X(C6H8)]
 Deg. of freedom    36
 Full point group                 C1      NOp   1
 Largest Abelian subgroup         C1      NOp   1
 Largest concise Abelian subgroup C1      NOp   1
                         Standard orientation:                         
 ---------------------------------------------------------------------
 Center     Atomic      Atomic             Coordinates (Angstroms)
 Number     Number       Type             X           Y           Z
 ---------------------------------------------------------------------
      1          6           0       -1.185190    0.713364    0.281373
      2          6           0       -1.185089   -0.713525   -0.281373
      3          6           0        0.106511   -1.418830    0.064593
      4          6           0        1.250583   -0.725090    0.123413
      5          6           0        1.250483    0.725261   -0.123412
      6          6           0        0.106315    1.418844   -0.064593
      7          1           0       -2.050956    1.275250   -0.089923
      8          1           0       -1.278343    0.673693    1.381573
      9          1           0       -2.050776   -1.275535    0.089918
     10          1           0       -1.278236   -0.673863   -1.381574
     11          1           0        0.102782   -2.499398    0.209754
     12          1           0        2.195789   -1.224503    0.334409
     13          1           0        2.195618    1.224801   -0.334408
     14          1           0        0.102440    2.499411   -0.209755
 ---------------------------------------------------------------------
 Rotational constants (GHZ):           5.0789998           5.0784629           2.7180846
 Standard basis: 6-311++G(d,p) (5D, 7F)
 There are   194 symmetry adapted cartesian basis functions of A   symmetry.
 There are   188 symmetry adapted basis functions of A   symmetry.
   188 basis functions,   288 primitive gaussians,   194 cartesian basis functions
    22 alpha electrons       22 beta electrons
       nuclear repulsion energy       219.2398604266 Hartrees.
 NAtoms=   14 NActive=   14 NUniq=   14 SFac= 1.00D+00 NAtFMM=   60 NAOKFM=F Big=F
 Integral buffers will be    131072 words long.
 Raffenetti 2 integral format.
 Two-electron integral symmetry is turned on.
 R6APFD:  NTU= -4 IXU= 1 FactS= 1.050
 Nuclear repulsion after empirical dispersion term =      219.2339472056 Hartrees.
 One-electron integrals computed using PRISM.
 NBasis=   188 RedAO= T EigKep=  5.34D-06  NBF=   188
 NBsUse=   188 1.00D-06 EigRej= -1.00D+00 NBFU=   188
 Initial guess from the checkpoint file:  "DOBE0033.chk"
 B after Tr=    -0.000000    0.000000    0.000000
         Rot=    1.000000    0.000494   -0.000000    0.000043 Ang=   0.06 deg.
 ExpMin= 3.60D-02 ExpMax= 4.56D+03 ExpMxC= 6.82D+02 IAcc=3 IRadAn=         5 AccDes= 0.00D+00
 Harris functional with IExCor= 1009 and IRadAn=       5 diagonalized for initial guess.
 HarFok:  IExCor= 1009 AccDes= 0.00D+00 IRadAn=         5 IDoV= 1 UseB2=F ITyADJ=14
 ICtDFT=  3500011 ScaDFX=  1.000000  1.000000  1.000000  1.000000
 FoFCou: FMM=F IPFlag=           0 FMFlag=      100000 FMFlg1=           0
         NFxFlg=           0 DoJE=T BraDBF=F KetDBF=T FulRan=T
         wScrn=  0.000000 ICntrl=       500 IOpCl=  0 I1Cent=   200000004 NGrid=           0
         NMat0=    1 NMatS0=      1 NMatT0=    0 NMatD0=    1 NMtDS0=    0 NMtDT0=    0
 Petite list used in FoFCou.
 Requested convergence on RMS density matrix=1.00D-08 within  32 cycles.
 Requested convergence on MAX density matrix=1.00D-06.
 Requested convergence on             energy=1.00D-06.
 No special actions if energy rises.
 SCF Done:  E(RM08HX) =  -233.423207486     A.U. after   10 cycles
            NFock= 10  Conv=0.80D-08     -V/T= 2.0057
 QCSCF skips out because SCF is already converged.
 R6APFD:  NTU= -4 IXU= 1 FactS= 1.050
 Calling FoFJK, ICntrl=      2127 FMM=F ISym2X=0 I1Cent= 0 IOpClX= 0 NMat=1 NMatS=1 NMatT=0.
 ***** Axes restored to original set *****
 -------------------------------------------------------------------
 Center     Atomic                   Forces (Hartrees/Bohr)
 Number     Number              X              Y              Z
 -------------------------------------------------------------------
      1        6           0.000362568   -0.000644709   -0.000840887
      2        6           0.000361902    0.000644455    0.000841145
      3        6           0.000084280   -0.000258700   -0.000199662
      4        6          -0.000234092    0.000003238    0.000113687
      5        6          -0.000236193   -0.000004501   -0.000113233
      6        6           0.000083882    0.000258504    0.000200218
      7        1          -0.000038109   -0.000126796    0.000149429
      8        1          -0.000030532    0.000187685    0.000037582
      9        1          -0.000038398    0.000127125   -0.000149910
     10        1          -0.000031226   -0.000187849   -0.000037916
     11        1          -0.000006074    0.000307009   -0.000067928
     12        1          -0.000136847    0.000137143   -0.000183988
     13        1          -0.000135039   -0.000135984    0.000183572
     14        1          -0.000006120   -0.000306622    0.000067892
 -------------------------------------------------------------------
 Cartesian Forces:  Max     0.000841145 RMS     0.000283130

 GradGradGradGradGradGradGradGradGradGradGradGradGradGradGradGradGradGrad
 Berny optimization.
 Using GEDIIS/GDIIS optimizer.
 FormGI is forming the generalized inverse of G from B-inverse, IUseBI=4.
 Internal  Forces:  Max     0.000698027 RMS     0.000156116
 Search for a local minimum.
 Step number   3 out of a maximum of   81
 All quantities printed in internal units (Hartrees-Bohrs-Radians)
 Mixed Optimization -- En-DIIS/RFO-DIIS
 Swapping is turned off.
 Update second derivatives using D2CorX and points    1    2    3
 DE= -1.07D-04 DEPred=-8.81D-05 R= 1.21D+00
 TightC=F SS=  1.41D+00  RLast= 8.01D-02 DXNew= 8.4853D-01 2.4025D-01
 Trust test= 1.21D+00 RLast= 8.01D-02 DXMaxT set to 5.05D-01
 ITU=  1  1  0
     Eigenvalues ---    0.00736   0.01272   0.01298   0.01674   0.02013
     Eigenvalues ---    0.02112   0.02439   0.03832   0.04026   0.05583
     Eigenvalues ---    0.05991   0.08688   0.09101   0.09299   0.11844
     Eigenvalues ---    0.15650   0.15969   0.15989   0.15998   0.20160
     Eigenvalues ---    0.20188   0.21998   0.28343   0.30565   0.31284
     Eigenvalues ---    0.33891   0.34784   0.34811   0.34812   0.35175
     Eigenvalues ---    0.35991   0.35994   0.36001   0.37421   0.56366
     Eigenvalues ---    0.61467
 En-DIIS/RFO-DIIS/Sim-DIIS IScMMF=       -3 using points:     3    2
 RFO step:  Lambda=-1.73523674D-05.
 DidBck=F Rises=F RFO-DIIS coefs:    1.26185   -0.26185
 Iteration  1 RMS(Cart)=  0.00409185 RMS(Int)=  0.00001324
 Iteration  2 RMS(Cart)=  0.00001224 RMS(Int)=  0.00000785
 Iteration  3 RMS(Cart)=  0.00000000 RMS(Int)=  0.00000785
 Variable       Old X    -DE/DX   Delta X   Delta X   Delta X     New X
                                 (Linear)    (Quad)   (Total)
    R1        2.89856  -0.00070  -0.00174  -0.00113  -0.00286   2.89569
    R2        2.85679  -0.00030  -0.00115  -0.00006  -0.00121   2.85558
    R3        2.07279  -0.00009   0.00002  -0.00014  -0.00012   2.07266
    R4        2.08786   0.00003   0.00111  -0.00047   0.00065   2.08851
    R5        2.85679  -0.00030  -0.00115  -0.00006  -0.00121   2.85558
    R6        2.07279  -0.00009   0.00002  -0.00015  -0.00012   2.07266
    R7        2.08786   0.00003   0.00111  -0.00047   0.00065   2.08851
    R8        2.53085  -0.00034  -0.00038  -0.00011  -0.00050   2.53035
    R9        2.06033  -0.00031   0.00000  -0.00082  -0.00082   2.05952
   R10        2.78017  -0.00021  -0.00089   0.00005  -0.00084   2.77933
   R11        2.05915  -0.00022   0.00005  -0.00054  -0.00049   2.05865
   R12        2.53085  -0.00034  -0.00038  -0.00012  -0.00050   2.53035
   R13        2.05914  -0.00022   0.00004  -0.00053  -0.00049   2.05865
   R14        2.06033  -0.00031   0.00000  -0.00082  -0.00081   2.05952
    A1        1.92848   0.00017   0.00102   0.00200   0.00301   1.93149
    A2        1.93093  -0.00006   0.00063  -0.00082  -0.00021   1.93073
    A3        1.90916   0.00003   0.00041   0.00004   0.00046   1.90962
    A4        1.93670   0.00003   0.00165   0.00048   0.00212   1.93882
    A5        1.89302  -0.00013  -0.00123  -0.00141  -0.00264   1.89038
    A6        1.86390  -0.00006  -0.00264  -0.00040  -0.00304   1.86086
    A7        1.92848   0.00017   0.00102   0.00199   0.00301   1.93149
    A8        1.93093  -0.00006   0.00063  -0.00082  -0.00021   1.93073
    A9        1.90916   0.00003   0.00041   0.00004   0.00046   1.90962
   A10        1.93669   0.00003   0.00166   0.00048   0.00212   1.93882
   A11        1.89301  -0.00013  -0.00123  -0.00140  -0.00263   1.89038
   A12        1.86391  -0.00006  -0.00265  -0.00040  -0.00305   1.86086
   A13        2.09235  -0.00018  -0.00087   0.00013  -0.00077   2.09158
   A14        2.08282   0.00007  -0.00039   0.00038  -0.00002   2.08280
   A15        2.10652   0.00010   0.00105  -0.00034   0.00070   2.10721
   A16        2.09813   0.00008   0.00083   0.00037   0.00119   2.09932
   A17        2.10843   0.00003   0.00042  -0.00016   0.00026   2.10869
   A18        2.07644  -0.00011  -0.00126  -0.00025  -0.00151   2.07493
   A19        2.09813   0.00008   0.00082   0.00038   0.00119   2.09932
   A20        2.07644  -0.00011  -0.00126  -0.00025  -0.00151   2.07493
   A21        2.10843   0.00003   0.00042  -0.00016   0.00026   2.10869
   A22        2.09236  -0.00018  -0.00087   0.00013  -0.00077   2.09159
   A23        2.08282   0.00007  -0.00040   0.00039  -0.00002   2.08280
   A24        2.10651   0.00010   0.00105  -0.00034   0.00070   2.10721
    D1        0.84499  -0.00008  -0.00114  -0.00619  -0.00734   0.83765
    D2        2.99682   0.00004   0.00210  -0.00477  -0.00267   2.99415
    D3       -1.23780  -0.00004  -0.00052  -0.00571  -0.00624  -1.24403
    D4        2.99682   0.00004   0.00209  -0.00476  -0.00267   2.99414
    D5       -1.13453   0.00016   0.00533  -0.00334   0.00199  -1.13254
    D6        0.91404   0.00008   0.00272  -0.00429  -0.00157   0.91247
    D7       -1.23780  -0.00004  -0.00051  -0.00571  -0.00623  -1.24403
    D8        0.91403   0.00008   0.00272  -0.00429  -0.00156   0.91247
    D9        2.96260  -0.00001   0.00011  -0.00523  -0.00513   2.95747
   D10       -0.59549   0.00012  -0.00000   0.00547   0.00547  -0.59002
   D11        2.60448   0.00006   0.00504   0.00220   0.00724   2.61172
   D12       -2.74398   0.00005  -0.00265   0.00479   0.00213  -2.74185
   D13        0.45600  -0.00001   0.00239   0.00152   0.00390   0.45989
   D14        1.49703   0.00018   0.00035   0.00584   0.00619   1.50322
   D15       -1.58618   0.00012   0.00539   0.00257   0.00796  -1.57822
   D16       -0.59549   0.00012  -0.00000   0.00547   0.00547  -0.59002
   D17        2.60448   0.00006   0.00504   0.00220   0.00724   2.61172
   D18       -2.74398   0.00005  -0.00265   0.00479   0.00213  -2.74185
   D19        0.45599  -0.00001   0.00239   0.00152   0.00390   0.45989
   D20        1.49703   0.00018   0.00036   0.00584   0.00620   1.50322
   D21       -1.58618   0.00012   0.00540   0.00257   0.00796  -1.57822
   D22        0.01953  -0.00000   0.00333  -0.00272   0.00061   0.02013
   D23       -3.10111  -0.00001   0.00402  -0.00044   0.00359  -3.09753
   D24        3.10193   0.00006  -0.00182   0.00062  -0.00121   3.10072
   D25       -0.01871   0.00006  -0.00112   0.00290   0.00177  -0.01694
   D26        0.30247  -0.00011  -0.00531   0.00102  -0.00430   0.29817
   D27       -2.85969  -0.00010  -0.00597  -0.00123  -0.00721  -2.86690
   D28       -2.85969  -0.00010  -0.00597  -0.00123  -0.00721  -2.86690
   D29        0.26133  -0.00009  -0.00664  -0.00347  -0.01011   0.25122
   D30        0.01953  -0.00000   0.00333  -0.00273   0.00060   0.02013
   D31        3.10193   0.00006  -0.00182   0.00061  -0.00121   3.10072
   D32       -3.10112  -0.00001   0.00402  -0.00044   0.00359  -3.09753
   D33       -0.01871   0.00006  -0.00112   0.00290   0.00177  -0.01694
         Item               Value     Threshold  Converged?
 Maximum Force            0.000698     0.000450     NO 
 RMS     Force            0.000156     0.000300     YES
 Maximum Displacement     0.014181     0.001800     NO 
 RMS     Displacement     0.004091     0.001200     NO 
 Predicted change in Energy=-8.687622D-06
 GradGradGradGradGradGradGradGradGradGradGradGradGradGradGradGradGradGrad

                          Input orientation:                          
 ---------------------------------------------------------------------
 Center     Atomic      Atomic             Coordinates (Angstroms)
 Number     Number       Type             X           Y           Z
 ---------------------------------------------------------------------
      1          6           0       -1.209703    0.716634    0.270692
      2          6           0       -1.209566   -0.716878   -0.270688
      3          6           0        0.082168   -1.418816    0.078809
      4          6           0        1.225575   -0.723826    0.129227
      5          6           0        1.225437    0.724045   -0.129231
      6          6           0        0.081897    1.418816   -0.078809
      7          1           0       -2.076047    1.272513   -0.108027
      8          1           0       -1.305523    0.693562    1.371481
      9          1           0       -2.075805   -1.272923    0.108031
     10          1           0       -1.305393   -0.693825   -1.371477
     11          1           0        0.079063   -2.497894    0.231624
     12          1           0        2.171973   -1.220777    0.339340
     13          1           0        2.171738    1.221176   -0.339347
     14          1           0        0.078586    2.497894   -0.231623
 ---------------------------------------------------------------------
                    Distance matrix (angstroms):
                    1          2          3          4          5
     1  C    0.000000
     2  C    1.532334   0.000000
     3  C    2.503176   1.511106   0.000000
     4  C    2.832933   2.467770   1.339004   0.000000
     5  C    2.467772   2.832933   2.437662   1.470759   0.000000
     6  C    1.511106   2.503175   2.842006   2.437661   1.339004
     7  H    1.096806   2.175988   3.454859   3.865536   3.346799
     8  H    1.105193   2.166857   2.838807   3.155732   2.942588
     9  H    2.175989   1.096806   2.163096   3.346799   3.865536
    10  H    2.166857   1.105193   2.134073   2.942586   3.155730
    11  H    3.463471   2.254972   1.089849   2.114779   3.438790
    12  H    3.897948   3.472874   2.115273   1.089393   2.213102
    13  H    3.472874   3.897947   3.392745   2.213103   1.089392
    14  H    2.254972   3.463470   3.928994   3.438790   2.114779
                    6          7          8          9         10
     6  C    0.000000
     7  H    2.163096   0.000000
     8  H    2.134074   1.765739   0.000000
     9  H    3.454859   2.554589   2.461038   0.000000
    10  H    2.838806   2.461036   3.073868   1.765739   0.000000
    11  H    3.928994   4.356125   3.660840   2.481790   2.782322
    12  H    3.392745   4.945938   4.101584   4.254391   3.911093
    13  H    2.115272   4.254389   3.911094   4.945938   4.101581
    14  H    1.089850   2.481790   2.782322   4.356125   3.660838
                   11         12         13         14
    11  H    0.000000
    12  H    2.454160   0.000000
    13  H    4.305436   2.534512   0.000000
    14  H    5.017220   4.305436   2.454159   0.000000
 Stoichiometry    C6H8
 Framework group  C1[X(C6H8)]
 Deg. of freedom    36
 Full point group                 C1      NOp   1
 Largest Abelian subgroup         C1      NOp   1
 Largest concise Abelian subgroup C1      NOp   1
                         Standard orientation:                         
 ---------------------------------------------------------------------
 Center     Atomic      Atomic             Coordinates (Angstroms)
 Number     Number       Type             X           Y           Z
 ---------------------------------------------------------------------
      1          6           0       -1.184945    0.714091    0.277623
      2          6           0       -1.184934   -0.714107   -0.277623
      3          6           0        0.106737   -1.419512    0.065058
      4          6           0        1.250205   -0.725145    0.122208
      5          6           0        1.250196    0.725162   -0.122208
      6          6           0        0.106717    1.419513   -0.065057
      7          1           0       -2.051240    1.273690   -0.095692
      8          1           0       -1.280769    0.680363    1.378137
      9          1           0       -2.051223   -1.273720    0.095690
     10          1           0       -1.280758   -0.680380   -1.378137
     11          1           0        0.103537   -2.500020    0.207408
     12          1           0        2.196559   -1.224192    0.327496
     13          1           0        2.196541    1.224223   -0.327497
     14          1           0        0.103502    2.500022   -0.207408
 ---------------------------------------------------------------------
 Rotational constants (GHZ):           5.0830676           5.0791558           2.7169922
 Standard basis: 6-311++G(d,p) (5D, 7F)
 There are   194 symmetry adapted cartesian basis functions of A   symmetry.
 There are   188 symmetry adapted basis functions of A   symmetry.
   188 basis functions,   288 primitive gaussians,   194 cartesian basis functions
    22 alpha electrons       22 beta electrons
       nuclear repulsion energy       219.2786322269 Hartrees.
 NAtoms=   14 NActive=   14 NUniq=   14 SFac= 1.00D+00 NAtFMM=   60 NAOKFM=F Big=F
 Integral buffers will be    131072 words long.
 Raffenetti 2 integral format.
 Two-electron integral symmetry is turned on.
 R6APFD:  NTU= -4 IXU= 1 FactS= 1.050
 Nuclear repulsion after empirical dispersion term =      219.2727283621 Hartrees.
 One-electron integrals computed using PRISM.
 NBasis=   188 RedAO= T EigKep=  5.28D-06  NBF=   188
 NBsUse=   188 1.00D-06 EigRej= -1.00D+00 NBFU=   188
 Initial guess from the checkpoint file:  "DOBE0033.chk"
 B after Tr=     0.000000   -0.000000   -0.000000
         Rot=    1.000000    0.000329   -0.000000    0.000031 Ang=   0.04 deg.
 Requested convergence on RMS density matrix=1.00D-08 within  32 cycles.
 Requested convergence on MAX density matrix=1.00D-06.
 Requested convergence on             energy=1.00D-06.
 No special actions if energy rises.
 SCF Done:  E(RM08HX) =  -233.423216937     A.U. after    9 cycles
            NFock=  9  Conv=0.45D-08     -V/T= 2.0057
 QCSCF skips out because SCF is already converged.
 R6APFD:  NTU= -4 IXU= 1 FactS= 1.050
 Calling FoFJK, ICntrl=      2127 FMM=F ISym2X=0 I1Cent= 0 IOpClX= 0 NMat=1 NMatS=1 NMatT=0.
 ***** Axes restored to original set *****
 -------------------------------------------------------------------
 Center     Atomic                   Forces (Hartrees/Bohr)
 Number     Number              X              Y              Z
 -------------------------------------------------------------------
      1        6           0.000030791   -0.000069822    0.000171621
      2        6           0.000030255    0.000069320   -0.000171694
      3        6          -0.000025158   -0.000032430    0.000004638
      4        6          -0.000004201   -0.000106929    0.000013623
      5        6          -0.000005572    0.000106744   -0.000013491
      6        6          -0.000025003    0.000032791   -0.000004683
      7        1           0.000035352   -0.000014692   -0.000063686
      8        1          -0.000027613    0.000045310   -0.000049929
      9        1           0.000035552    0.000014905    0.000063697
     10        1          -0.000027552   -0.000045233    0.000049960
     11        1           0.000018947    0.000036335   -0.000012275
     12        1          -0.000027708   -0.000006010   -0.000026049
     13        1          -0.000027091    0.000006150    0.000025979
     14        1           0.000019002   -0.000036439    0.000012291
 -------------------------------------------------------------------
 Cartesian Forces:  Max     0.000171694 RMS     0.000054647

 GradGradGradGradGradGradGradGradGradGradGradGradGradGradGradGradGradGrad
 Berny optimization.
 Using GEDIIS/GDIIS optimizer.
 FormGI is forming the generalized inverse of G from B-inverse, IUseBI=4.
 Internal  Forces:  Max     0.000095286 RMS     0.000024868
 Search for a local minimum.
 Step number   4 out of a maximum of   81
 All quantities printed in internal units (Hartrees-Bohrs-Radians)
 Mixed Optimization -- En-DIIS/RFO-DIIS
 Swapping is turned off.
 Update second derivatives using D2CorX and points    1    2    3    4
 DE= -9.45D-06 DEPred=-8.69D-06 R= 1.09D+00
 TightC=F SS=  1.41D+00  RLast= 3.06D-02 DXNew= 8.4853D-01 9.1666D-02
 Trust test= 1.09D+00 RLast= 3.06D-02 DXMaxT set to 5.05D-01
 ITU=  1  1  1  0
     Eigenvalues ---    0.00608   0.01271   0.01325   0.01674   0.02003
     Eigenvalues ---    0.02128   0.02439   0.04003   0.04243   0.05576
     Eigenvalues ---    0.05933   0.08477   0.09132   0.09291   0.11870
     Eigenvalues ---    0.15753   0.15967   0.15984   0.15997   0.20177
     Eigenvalues ---    0.20184   0.21998   0.28445   0.30569   0.31265
     Eigenvalues ---    0.33905   0.34790   0.34811   0.34812   0.35332
     Eigenvalues ---    0.35986   0.35994   0.35995   0.36819   0.56377
     Eigenvalues ---    0.61352
 En-DIIS/RFO-DIIS/Sim-DIIS IScMMF=       -3 using points:     4    3    2
 RFO step:  Lambda=-1.29443290D-06.
 Use linear search instead of GDIIS.
 RFO step:  Lambda=-1.13808785D-06 EMin= 6.08396109D-03
 Quartic linear search produced a step of  0.10356.
 Iteration  1 RMS(Cart)=  0.00166437 RMS(Int)=  0.00000156
 Iteration  2 RMS(Cart)=  0.00000166 RMS(Int)=  0.00000056
 Iteration  3 RMS(Cart)=  0.00000000 RMS(Int)=  0.00000056
 Variable       Old X    -DE/DX   Delta X   Delta X   Delta X     New X
                                 (Linear)    (Quad)   (Total)
    R1        2.89569  -0.00001  -0.00030   0.00013  -0.00017   2.89553
    R2        2.85558  -0.00003  -0.00013  -0.00004  -0.00016   2.85541
    R3        2.07266  -0.00001  -0.00001  -0.00002  -0.00003   2.07263
    R4        2.08851  -0.00005   0.00007  -0.00013  -0.00006   2.08845
    R5        2.85558  -0.00003  -0.00013  -0.00004  -0.00016   2.85541
    R6        2.07266  -0.00001  -0.00001  -0.00002  -0.00004   2.07263
    R7        2.08851  -0.00005   0.00007  -0.00013  -0.00006   2.08845
    R8        2.53035  -0.00003  -0.00005  -0.00005  -0.00010   2.53025
    R9        2.05952  -0.00004  -0.00008  -0.00006  -0.00014   2.05938
   R10        2.77933   0.00010  -0.00009   0.00025   0.00016   2.77949
   R11        2.05865  -0.00003  -0.00005  -0.00004  -0.00009   2.05857
   R12        2.53035  -0.00003  -0.00005  -0.00005  -0.00010   2.53025
   R13        2.05865  -0.00003  -0.00005  -0.00004  -0.00009   2.05857
   R14        2.05952  -0.00004  -0.00008  -0.00006  -0.00014   2.05938
    A1        1.93149   0.00001   0.00031   0.00038   0.00069   1.93218
    A2        1.93073  -0.00003  -0.00002  -0.00059  -0.00061   1.93012
    A3        1.90962   0.00003   0.00005   0.00056   0.00061   1.91022
    A4        1.93882  -0.00001   0.00022  -0.00063  -0.00041   1.93841
    A5        1.89038  -0.00001  -0.00027   0.00024  -0.00003   1.89035
    A6        1.86086   0.00001  -0.00031   0.00006  -0.00025   1.86061
    A7        1.93149   0.00001   0.00031   0.00038   0.00069   1.93218
    A8        1.93073  -0.00003  -0.00002  -0.00059  -0.00061   1.93012
    A9        1.90962   0.00003   0.00005   0.00056   0.00061   1.91022
   A10        1.93882  -0.00001   0.00022  -0.00063  -0.00041   1.93841
   A11        1.89038  -0.00001  -0.00027   0.00024  -0.00003   1.89035
   A12        1.86086   0.00001  -0.00032   0.00006  -0.00025   1.86061
   A13        2.09158  -0.00001  -0.00008   0.00021   0.00013   2.09171
   A14        2.08280   0.00002  -0.00000  -0.00001  -0.00001   2.08279
   A15        2.10721  -0.00001   0.00007  -0.00021  -0.00014   2.10707
   A16        2.09932  -0.00000   0.00012   0.00010   0.00022   2.09954
   A17        2.10869  -0.00001   0.00003  -0.00016  -0.00013   2.10856
   A18        2.07493   0.00002  -0.00016   0.00007  -0.00009   2.07484
   A19        2.09932  -0.00000   0.00012   0.00010   0.00022   2.09954
   A20        2.07493   0.00002  -0.00016   0.00007  -0.00009   2.07484
[...]
 ! D4    D(7,1,2,3)            171.2291         -DE/DX =    0.0                 !
 ! D5    D(7,1,2,9)            -65.2693         -DE/DX =    0.0                 !
 ! D6    D(7,1,2,10)            51.8777         -DE/DX =    0.0                 !
 ! D7    D(8,1,2,3)            -71.624          -DE/DX =    0.0                 !
 ! D8    D(8,1,2,9)             51.8777         -DE/DX =    0.0                 !
 ! D9    D(8,1,2,10)           169.0246         -DE/DX =    0.0                 !
 ! D10   D(2,1,6,5)            -33.6287         -DE/DX =    0.0                 !
 ! D11   D(2,1,6,14)           149.837          -DE/DX =    0.0                 !
 ! D12   D(7,1,6,5)           -156.8562         -DE/DX =    0.0                 !
 ! D13   D(7,1,6,14)            26.6094         -DE/DX =    0.0                 !
 ! D14   D(8,1,6,5)             86.4108         -DE/DX =    0.0                 !
 ! D15   D(8,1,6,14)           -90.1236         -DE/DX =    0.0                 !
 ! D16   D(1,2,3,4)            -33.6286         -DE/DX =    0.0                 !
 ! D17   D(1,2,3,11)           149.837          -DE/DX =    0.0                 !
 ! D18   D(9,2,3,4)           -156.8562         -DE/DX =    0.0                 !
 ! D19   D(9,2,3,11)            26.6094         -DE/DX =    0.0                 !
 ! D20   D(10,2,3,4)            86.4108         -DE/DX =    0.0                 !
 ! D21   D(10,2,3,11)          -90.1235         -DE/DX =    0.0                 !
 ! D22   D(2,3,4,5)              1.1792         -DE/DX =    0.0                 !
 ! D23   D(2,3,4,12)          -177.4356         -DE/DX =    0.0                 !
 ! D24   D(11,3,4,5)           177.6646         -DE/DX =    0.0                 !
 ! D25   D(11,3,4,12)           -0.9501         -DE/DX =    0.0                 !
 ! D26   D(3,4,5,6)             16.9429         -DE/DX =    0.0                 !
 ! D27   D(3,4,5,13)          -164.4159         -DE/DX =    0.0                 !
 ! D28   D(12,4,5,6)          -164.4159         -DE/DX =    0.0                 !
 ! D29   D(12,4,5,13)           14.2253         -DE/DX =    0.0                 !
 ! D30   D(4,5,6,1)              1.1792         -DE/DX =    0.0                 !
 ! D31   D(4,5,6,14)           177.6646         -DE/DX =    0.0                 !
 ! D32   D(13,5,6,1)          -177.4356         -DE/DX =    0.0                 !
 ! D33   D(13,5,6,14)           -0.9501         -DE/DX =    0.0                 !
 --------------------------------------------------------------------------------
 GradGradGradGradGradGradGradGradGradGradGradGradGradGradGradGradGradGrad


 ----------------------------------------------------------------------

 Electric dipole moment (input orientation):
 (Debye = 10**-18 statcoulomb cm , SI units = C m)
                  (au)            (Debye)         (10**-30 SI)
   Tot        0.193318D+00      0.491366D+00      0.163902D+01
   x         -0.193318D+00     -0.491366D+00     -0.163902D+01
   y         -0.185093D-04     -0.470460D-04     -0.156929D-03
   z          0.000000D+00      0.000000D+00      0.000000D+00

 Dipole polarizability, Alpha (input orientation).
 (esu units = cm**3 , SI units = C**2 m**2 J**-1)
 Alpha(0;0):
               (au)            (10**-24 esu)      (10**-40 SI)
   iso        0.680580D+02      0.100852D+02      0.112212D+02
   aniso      0.248643D+02      0.368450D+01      0.409956D+01
   xx         0.763263D+02      0.113104D+02      0.125845D+02
   yx         0.000000D+00      0.000000D+00      0.000000D+00
   yy         0.762844D+02      0.113042D+02      0.125776D+02
   zx         0.105098D-03      0.155740D-04      0.173284D-04
   zy        -0.142069D+01     -0.210525D+00     -0.234241D+00
   zz         0.515632D+02      0.764088D+01      0.850163D+01

 ----------------------------------------------------------------------

 Dipole orientation:
     6          0.50893529          1.35545340          2.28617019
     6         -0.50893706         -1.35547945          2.28617166
     6          0.14715749         -2.68163383         -0.15601794
     6          0.24189518         -1.36859879         -2.31677294
     6         -0.24189492          1.36856897         -2.31677418
     6         -0.14715855          2.68160602         -0.15602047
     1         -0.21493239          2.40485392          3.92043270
     1          2.58836140          1.31793021          2.47446356
     1          0.21493114         -2.40487778          3.92043517
     1         -2.58836314         -1.31795655          2.47446551
     1          0.43281999         -4.72109575         -0.15113963
     1          0.63473059         -2.30884308         -4.10542431
     1         -0.63472964          2.30881163         -4.10542709
     1         -0.43282126          4.72106788         -0.15114392

 Electric dipole moment (dipole orientation):
 (Debye = 10**-18 statcoulomb cm , SI units = C m)
                  (au)            (Debye)         (10**-30 SI)
   Tot        0.193318D+00      0.491366D+00      0.163902D+01
   x          0.000000D+00      0.000000D+00      0.000000D+00
   y          0.000000D+00      0.000000D+00      0.000000D+00
   z          0.193318D+00      0.491366D+00      0.163902D+01

 Dipole polarizability, Alpha (dipole orientation).
 (esu units = cm**3 , SI units = C**2 m**2 J**-1)
 Alpha(0;0):
               (au)            (10**-24 esu)      (10**-40 SI)
   iso        0.680580D+02      0.100852D+02      0.112212D+02
   aniso      0.248643D+02      0.368450D+01      0.409956D+01
   xx         0.515635D+02      0.764092D+01      0.850167D+01
   yx        -0.142306D+01     -0.210876D+00     -0.234631D+00
   yy         0.762842D+02      0.113041D+02      0.125776D+02
   zx         0.000000D+00      0.000000D+00      0.000000D+00
   zy         0.000000D+00      0.000000D+00      0.000000D+00
   zz         0.763263D+02      0.113104D+02      0.125845D+02

 ----------------------------------------------------------------------
 1\1\GINC-PITOMBA\Freq\RM08HX\6-311++G(d,p)\C6H8\VALTER\01-Oct-2025\0\\
 #N Geom=AllCheck Guess=TCheck SCRF=Check GenChk RM08HX/6-311++G(d,p) F
 req\\DOBE0033\\0,1\C,-1.2098574273,0.7171334271,0.2693874587\C,-1.2097
 216676,-0.7173788724,-0.2693847428\C,0.082697125,-1.4190590466,0.07773
 63982\C,1.2260529706,-0.724126155,0.1279342208\C,1.225914559,0.7243451
 42,-0.1279377915\C,0.0824264908,1.4190601409,-0.0777372084\H,-2.074725
 6489,1.2724061327,-0.1136123422\H,-1.3094944114,0.6971621103,1.3697706
 129\H,-2.0744829187,-1.2728160268,0.1136179477\H,-1.3093660585,-0.6974
 267956,-1.3697675778\H,0.0802191967,-2.4983105293,0.2287991521\H,2.172
 6144645,-1.2216112813,0.3357647018\H,2.172380957,1.2220106543,-0.33577
 07598\H,0.0797423689,2.4983110997,-0.2288000699\\Version=ES64L-G16RevB
 .01\State=1-A\HF=-233.4232181\RMSD=1.864e-09\RMSF=1.461e-05\ZeroPoint=
 0.1222842\Thermal=0.1274597\Dipole=-0.1933183,-0.0000185,0.0000003\Dip
 oleDeriv=0.0345337,-0.0815962,0.0220526,-0.0697589,0.0094157,0.0022635
 ,0.0501259,-0.0419652,0.1746153,0.0345044,0.0816008,-0.0220526,0.06976
 36,0.0094444,0.0022591,-0.0501174,-0.041975,0.1746157,0.0900433,-0.013
 7405,0.0815593,-0.0183618,-0.0726279,-0.0501501,0.117307,0.023492,-0.2
 088743,-0.0320033,-0.1694784,0.0277868,-0.0700655,0.0974146,-0.0518722
 ,0.0497785,-0.089138,-0.1614252,-0.032049,0.1694535,-0.0277773,0.07004
 09,0.0974603,-0.0518777,-0.049762,-0.0891479,-0.161425,0.0900364,0.013
 7717,-0.0815505,0.0183924,-0.072622,-0.0501657,-0.1173123,0.0234696,-0
 .2088738,-0.0790023,0.0815979,-0.0281301,0.0856239,-0.0023239,0.023521
 ,-0.0782763,0.0459453,0.0550337,0.0144584,0.0129098,0.0017055,-0.06612
 16,0.0629266,0.0166804,0.0664968,-0.0312989,-0.1384976,-0.0789701,-0.0
 816124,0.028126,-0.0856383,-0.0023556,0.0235266,0.078268,0.0459605,0.0
 550333,0.014448,-0.0129192,-0.0017092,0.0661124,0.0629368,0.0166798,-0
 .0664913,-0.0313116,-0.1384974,0.0374727,0.0116976,-0.0133665,0.019255
 9,-0.1012473,0.0312913,-0.0305834,0.0477406,0.1397851,-0.0654883,0.069
 8803,-0.0360669,0.0639754,0.0064285,0.0282715,-0.0327304,0.0452378,0.1
 393628,-0.0654627,-0.0698939,0.036062,-0.063989,0.006403,0.0282786,0.0
 327224,0.0452443,0.1393625,0.0374788,-0.0116711,0.0133608,-0.0192294,-
 0.1012531,0.0312939,0.0305746,0.0477464,0.139785\Polar=76.3263386,0.00
 0005,76.2844345,0.0001051,-1.4206934,51.5632251\Quadrupole=1.5365421,1
 .0619426,-2.5984847,0.0000445,0.0000289,-0.3557158\PG=C01 [X(C6H8)]\NI
 mag=0\\0.54834567,-0.05110695,0.48710443,0.02619102,-0.01825974,0.5249
 3289,-0.08075762,0.00166600,-0.00174859,0.54832609,-0.00164712,-0.1797
 0543,-0.04411350,0.05111846,0.48712397,0.00175694,-0.04411317,-0.09470
 816,-0.02618770,-0.01826491,0.52493308,0.00141285,0.00729572,0.0007301
 6,-0.18024200,0.05307568,-0.02286778,0.69111680,0.02926458,-0.02205754
 ,0.00933880,0.04949359,-0.11622767,0.01330886,0.13890702,0.70556449,0.
 00792327,-0.00368463,0.00741263,-0.02727989,0.02055332,-0.07577877,0.0
 6632354,-0.06327060,0.16431643,-0.00189002,-0.00235914,-0.00298340,-0.
 03256465,-0.01073006,-0.00748999,-0.41314865,-0.18856711,-0.02182433,0
 .81045979,-0.00472307,0.00106874,0.00034735,0.00795203,0.01327465,0.00
 057302,-0.17252320,-0.21910619,-0.00530614,0.06506002,0.61322003,-0.00
 161595,-0.00253655,-0.00711819,-0.01232426,-0.00321699,0.00415174,-0.0
 1897945,-0.00196919,-0.05945969,0.07611886,-0.07172789,0.15143224,-0.0
 3256517,0.01072134,0.00748999,-0.00189141,0.00235857,0.00298333,0.0112
 0131,-0.02665865,0.00161735,-0.10777487,-0.01279992,0.00280430,0.81048
 383,-0.00796073,0.01327516,0.00057447,0.00472248,0.00107010,0.00034790
 ,-0.02810202,-0.03228300,0.00663387,0.01282537,-0.23955730,0.03687609,
 -0.06502334,0.61319549,0.01232498,-0.00321466,0.00415169,0.00161642,-0
 .00253624,-0.00711819,0.00189031,0.00093649,0.00809132,-0.00281125,0.0
 3687560,-0.07003198,-0.07610671,-0.07174215,0.15143271,-0.18022243,-0.
 05308784,0.02286559,0.00141979,-0.00729125,-0.00073192,-0.01013181,-0.
 00635926,0.00366190,0.01119087,0.02811032,-0.00189049,-0.41321733,0.17
 248636,0.01898068,0.69116945,-0.04950573,-0.11624715,0.01331337,-0.029
 26009,-0.02206452,0.00933876,0.00635732,0.00009087,0.00183653,0.026666
 94,-0.03227250,0.00093607,0.18853027,-0.21903762,-0.00196608,-0.138910
 05,0.70551170,0.02727634,0.02055869,-0.07577891,-0.00792257,-0.0036861
 1,0.00741266,-0.00366222,0.00183584,-0.00050970,-0.00161862,0.00663348
 ,0.00809133,0.02182619,-0.00530243,-0.05945979,-0.06631284,-0.06328295
 ,0.16431679,-0.20806463,0.10337290,-0.07463525,0.00207258,-0.00145637,
 0.00078379,0.00058735,-0.00028465,-0.00022574,0.00060343,-0.00066613,-
 0.00055455,-0.00318475,-0.00431314,0.00130557,-0.02212563,0.01547449,-
 0.01027662,0.22755060,0.10489677,-0.11324003,0.04720245,0.02525187,-0.
 01560275,0.01107907,-0.00262589,-0.00562084,-0.00303799,0.00024576,-0.
 00014300,-0.00043827,-0.00300049,-0.00212413,0.00120429,-0.01452482,0.
 00958593,-0.00770050,-0.11162854,0.12562780,-0.07694924,0.04811773,-0.
 07935812,0.01162668,-0.00732573,0.00339635,-0.00074334,-0.00306544,-0.
 00046547,0.00000583,-0.00030945,0.00026324,0.00049792,0.00157115,-0.00
 002725,0.00987052,-0.00472290,0.00161925,0.08030939,-0.05051194,0.0842
 3729,-0.04607154,0.00129407,0.02288843,-0.00007042,-0.00015856,-0.0005
 0239,0.00064213,0.00007294,-0.00057513,0.00046119,-0.00139511,0.000989
 35,-0.00207000,-0.00174364,0.00035689,-0.00640824,-0.00045071,0.029218
 62,0.00226557,0.00009660,-0.02529524,0.05101960,0.00019368,-0.04579645
 ,0.00938930,0.00115511,-0.00032105,-0.03283013,-0.00149861,0.00189052,
 0.00056098,0.00071724,0.00038835,0.00214644,-0.00036943,-0.00038917,-0
 .00004223,-0.00228071,0.00030703,0.01456557,-0.00171829,-0.00067213,0.
 01596421,0.00399734,0.05030525,0.01642324,0.00431332,-0.28591046,-0.00
 025463,-0.00094089,-0.01243049,0.00147359,0.00032975,-0.00047606,-0.00
 085213,-0.00289999,0.00015959,-0.00199750,0.00409232,0.00086639,0.0078
 6296,0.00241910,-0.00630694,0.00087664,0.00015667,-0.01121243,-0.02400
 508,-0.00457465,0.31457223,0.00207708,0.00145972,-0.00078590,-0.208024
 62,-0.10339088,0.07462677,-0.02212544,-0.01548054,0.01027816,-0.003186
 15,0.00431295,-0.00130579,0.00060335,0.00066627,0.00055463,0.00058679,
 0.00028582,0.00022631,0.00002343,-0.00041630,-0.00026993,0.00017125,-0
 .00032218,-0.00051549,0.22750770,-0.02524849,-0.01560728,0.01107901,-0
 .10491474,-0.11327969,0.04721708,0.01451876,0.00958575,-0.00769860,0.0
 0300030,-0.00212274,0.00120403,-0.00024563,-0.00014292,-0.00043816,0.0
 0262706,-0.00562029,-0.00303796,0.00041632,-0.00007333,0.00052006,-0.0
 0027540,0.00162537,-0.00009305,0.11164787,0.12567032,-0.01162528,-0.00
 732795,0.00339639,0.07694059,0.04813281,-0.07935860,-0.00986956,-0.004
 72474,0.00161926,-0.00049821,0.00157104,-0.00002725,-0.00000578,-0.000
 30945,0.00026323,0.00074392,-0.00306530,-0.00046547,0.00026983,0.00052
 011,0.00006257,-0.00062114,0.00039844,0.00071087,-0.08030033,-0.050527
 68,0.08423781,-0.00007022,0.00015860,0.00050861,-0.04607139,-0.0012941
 1,-0.02289101,-0.00640886,0.00044942,-0.02922139,-0.00207040,0.0017433
 4,-0.00035687,0.00046106,0.00139511,-0.00098976,0.00064185,-0.00007318
 ,0.00057502,0.00017114,0.00027512,0.00062106,0.00103635,0.00058200,-0.
 00015720,0.00226534,-0.00009603,0.02529216,0.05102127,-0.00115517,-0.0
 0032122,-0.03283002,-0.00019370,-0.04579674,0.00938489,0.00227946,0.00
 030756,0.01455998,0.00036911,-0.00038876,-0.00004229,-0.00071723,0.000
 38847,0.00214626,0.00149837,0.00189080,0.00056109,0.00032190,0.0016254
 8,0.00039856,-0.00058060,-0.00637441,-0.00279947,0.00171889,-0.0006718
 1,0.01596902,-0.00399720,0.05030371,0.00025478,-0.00094083,-0.01243048
 ,-0.01642486,0.00431014,-0.28591034,-0.00786341,0.00241759,-0.00630682
 ,0.00199673,0.00409269,0.00086638,0.00085268,-0.00289983,0.00015959,-0
 .00147366,0.00032947,-0.00047606,0.00051551,-0.00009295,0.00071086,0.0
 0015773,-0.00279944,0.00074204,-0.00087671,0.00015651,-0.01121253,0.02
 400680,-0.00457000,0.31457209,-0.00445876,0.00113701,-0.00269141,0.002
 92214,0.02444038,-0.00179881,-0.05374881,0.00250641,-0.00433704,0.0035
 0308,-0.02924527,0.00354712,-0.00409504,-0.00132351,-0.00193069,-0.000
 35123,-0.00049635,0.00026100,0.00005054,0.00144176,0.00062604,0.000109
 69,0.00013588,0.00015896,0.00096518,-0.00041881,0.00071595,-0.00069311
 ,0.00050879,-0.00083282,0.05503000,0.00225850,0.00052261,0.00153020,-0
 .00241361,-0.00751212,0.00057533,-0.00287207,-0.32893152,0.04099715,0.
 00392427,-0.01220996,0.00341657,-0.00386087,0.00106314,0.00135078,0.00
 007923,0.00097038,-0.00028475,-0.00015254,-0.00065189,-0.00025293,0.00
 000858,-0.00006121,-0.00007032,0.00032519,0.00065235,-0.00021542,0.000
 77370,-0.00078105,0.00008352,0.00222397,0.34732484,-0.00021207,0.00132
 166,0.00075556,0.00315182,0.00498707,0.00359752,-0.00580270,0.04164671
 ,-0.04289602,0.00075956,-0.00003106,0.00728157,-0.00209633,0.00061971,
 0.01101919,-0.00123401,0.00040913,-0.00121239,0.00012010,0.00060135,0.
 00049113,-0.00002132,-0.00078244,-0.00008916,-0.00040749,-0.00002771,0
 .00048637,0.00026017,-0.00077850,-0.00081901,0.00458655,-0.04577306,0.
 02967369,0.00055042,-0.00035842,-0.00000179,-0.00121065,-0.00424530,-0
 .00037410,-0.01961325,0.01536328,-0.00629025,-0.26517945,0.11006492,-0
 .04757355,0.00368718,-0.00278423,0.00078827,0.00081023,-0.00079565,-0.
 00021081,-0.00000649,0.00003078,0.00001056,-0.00002186,0.00005016,0.00
 002571,-0.00090823,0.00046123,-0.00040561,-0.00037091,0.00013338,-0.00
 012812,0.00043220,-0.00046085,0.00102380,0.28145557,-0.00044826,0.0000
 5694,0.00028731,-0.00276633,-0.00153781,0.00156527,-0.01675169,0.01142
 473,-0.00346519,0.11225471,-0.11450072,0.02927429,0.02726969,-0.008710
 05,0.00472662,-0.00201778,-0.00560816,0.00160606,0.00008247,0.00015324
 ,0.00001834,0.00007576,0.00003612,-0.00004724,-0.00087699,0.00048319,-
 0.00018616,0.00016755,-0.00015688,0.00003073,0.00031878,0.00055910,-0.
 00130063,-0.11791506,0.11812632,-0.00059656,0.00004406,-0.00036072,-0.
 00200138,0.00073516,0.01141838,-0.00137269,0.00095021,0.00499581,-0.04
 724730,0.02950540,-0.04827029,-0.00434801,0.00005502,0.00164215,0.0004
 9003,0.00185643,0.00066949,0.00001753,0.00015701,-0.00001181,-0.000083
 80,-0.00009950,0.00004408,-0.00108647,0.00088814,-0.00019198,0.0022471
 0,-0.00111759,0.00014936,0.00113669,-0.00124560,-0.00707069,0.05320547
 ,-0.03153001,0.03705667,-0.00121198,0.00424537,0.00037383,0.00055026,0
 .00035852,0.00000173,0.00080970,0.00079688,0.00021050,0.00369185,0.002
 78659,-0.00078918,-0.26513641,-0.11009325,0.04756842,-0.01961350,-0.01
 536920,0.00629098,-0.00090831,-0.00046150,0.00040565,-0.00037086,-0.00
 013342,0.00012812,-0.00000647,-0.00003081,-0.00001056,-0.00002184,-0.0
 0005017,-0.00002571,0.00005473,0.00018867,0.00012800,0.00032071,-0.000
 64430,-0.00005823,0.28140993,0.00276639,-0.00153647,0.00156533,0.00044
 835,0.00005709,0.00028731,0.00201900,-0.00560763,0.00160609,-0.0272673
 1,-0.00871471,0.00472654,-0.11228305,-0.11454305,0.02928358,0.01674576
 ,0.01142499,-0.00346403,0.00087673,0.00048327,-0.00018608,-0.00016759,
 -0.00015694,0.00003076,-0.00008250,0.00015322,0.00001834,-0.00007577,0
 .00003610,-0.00004724,-0.00125127,-0.00084659,-0.00072756,0.00064426,0
 .00052037,-0.00025184,0.11794580,0.11817122,0.00200128,0.00073553,0.01
 141837,0.00059655,0.00004417,-0.00036072,-0.00049038,0.00185634,0.0006
 6949,0.00434800,0.00005584,0.00164214,0.04724213,0.02951462,-0.0482706
 3,0.00137257,0.00095051,0.00499579,0.00108630,0.00088834,-0.00019198,-
 0.00224689,-0.00111802,0.00014937,-0.00001756,0.00015701,-0.00001181,0
 .00008382,-0.00009949,0.00004408,0.00030236,0.00005316,0.00020389,0.00
 005828,-0.00025183,-0.00027432,-0.05319998,-0.03154038,0.03705704,0.00
 292634,-0.02443837,0.00179870,-0.00445809,-0.00113795,0.00269113,-0.00
 035131,0.00049610,-0.00026095,-0.00409602,0.00132253,0.00193047,0.0034
 9823,0.02924826,-0.00354777,-0.05374883,-0.00245388,0.00432921,0.00096
 516,0.00041887,-0.00071591,-0.00069287,-0.00050878,0.00083280,0.000050
 79,-0.00144163,-0.00062599,0.00010972,-0.00013585,-0.00015895,0.000279
 38,-0.00002216,-0.00025608,0.00005453,0.00125144,-0.00030237,0.0004321
 7,-0.00031880,-0.00113647,0.05503079,0.00241560,-0.00751632,0.00057567
 ,-0.00225944,0.00052196,0.00153072,-0.00007948,0.00097046,-0.00028480,
 0.00385989,0.00106413,0.00135114,-0.00392127,-0.01220513,0.00341591,0.
 00292459,-0.32893146,0.04099801,-0.00032513,0.00065237,-0.00021556,-0.
 00077368,-0.00078129,0.00008368,0.00015268,-0.00065214,-0.00025305,-0.
 00000854,-0.00006124,-0.00007035,0.00002224,-0.00009809,-0.00016468,-0
 .00018849,-0.00084638,0.00005311,0.00046082,0.00055912,-0.00124582,-0.
 00227978,0.34732400,-0.00315276,0.00498654,0.00359752,0.00021183,0.001
 32170,0.00075555,0.00123392,0.00040936,-0.00121239,0.00209625,0.000620
 11,0.01101918,-0.00075955,-0.00003128,0.00728158,0.00579475,0.04164786
 ,-0.04289605,0.00040749,-0.00002764,0.00048637,-0.00026002,-0.00077855
 ,-0.00081901,-0.00012021,0.00060134,0.00049113,0.00002147,-0.00078244,
 -0.00008916,0.00025610,-0.00016463,-0.00142164,-0.00012786,-0.00072759
 ,0.00020389,-0.00102357,-0.00130082,-0.00707068,-0.00457785,-0.0457739
 7,0.02967371\\0.00000180,-0.00004802,-0.00002246,0.00000171,0.00004793
 ,0.00002246,-0.00000217,-0.00002994,-0.00000118,-0.00000666,0.00000145
 ,0.00000408,-0.00000691,-0.00000152,-0.00000404,-0.00000216,0.00002999
 ,0.00000119,0.00000320,-0.00000587,0.00000464,0.00000324,0.00000541,0.
 00000075,0.00000322,0.00000591,-0.00000466,0.00000322,-0.00000541,-0.0
 0000075,0.00000750,0.00001935,0.00000716,-0.00000682,0.00000549,-0.000
 00620,-0.00000668,-0.00000543,0.00000617,0.00000750,-0.00001935,-0.000
 00716\\\@


 GOORD'S AXIOM:  A MEETING IS AN EVENT AT WHICH
 THE MINUTES ARE KEPT AND THE HOURS ARE LOST.
 Job cpu time:       0 days  0 hours 55 minutes 19.5 seconds.
 Elapsed time:       0 days  0 hours  3 minutes 29.1 seconds.
 File lengths (MBytes):  RWF=     50 Int=      0 D2E=      0 Chk=      4 Scr=      1
 Normal termination of Gaussian 16 at Wed Oct  1 20:50:57 2025.
