 Entering Gaussian System, Link 0=g16
 Input=DRHE0104.gjf
 Output=DRHE0104.log
 Initial command:
 /usr/local/g16/l1.exe "/dados_01/scratch/Gau-2056279.inp" -scrdir="/dados_01/scratch/"
 Entering Link 1 = /usr/local/g16/l1.exe PID=   2056282.
  
 Copyright (c) 1988-2017, Gaussian, Inc.  All Rights Reserved.
  
 This is part of the Gaussian(R) 16 program.  It is based on
 the Gaussian(R) 09 system (copyright 2009, Gaussian, Inc.),
 the Gaussian(R) 03 system (copyright 2003, Gaussian, Inc.),
 the Gaussian(R) 98 system (copyright 1998, Gaussian, Inc.),
 the Gaussian(R) 94 system (copyright 1995, Gaussian, Inc.),
 the Gaussian 92(TM) system (copyright 1992, Gaussian, Inc.),
 the Gaussian 90(TM) system (copyright 1990, Gaussian, Inc.),
 the Gaussian 88(TM) system (copyright 1988, Gaussian, Inc.),
 the Gaussian 86(TM) system (copyright 1986, Carnegie Mellon
 University), and the Gaussian 82(TM) system (copyright 1983,
 Carnegie Mellon University). Gaussian is a federally registered
 trademark of Gaussian, Inc.
  
 This software contains proprietary and confidential information,
 including trade secrets, belonging to Gaussian, Inc.
  
 This software is provided under written license and may be
 used, copied, transmitted, or stored only in accord with that
 written license.
  
 The following legend is applicable only to US Government
 contracts under FAR:
  
                    RESTRICTED RIGHTS LEGEND
  
 Use, reproduction and disclosure by the US Government is
 subject to restrictions as set forth in subparagraphs (a)
 and (c) of the Commercial Computer Software - Restricted
 Rights clause in FAR 52.227-19.
  
 Gaussian, Inc.
 340 Quinnipiac St., Bldg. 40, Wallingford CT 06492
  
  
 ---------------------------------------------------------------
 Warning -- This program may not be used in any manner that
 competes with the business of Gaussian, Inc. or will provide
 assistance to any competitor of Gaussian, Inc.  The licensee
 of this program is prohibited from giving any competitor of
 Gaussian, Inc. access to this program.  By using this program,
 the user acknowledges that Gaussian, Inc. is engaged in the
 business of creating and licensing software in the field of
 computational chemistry and represents and warrants to the
 licensee that it is not a competitor of Gaussian, Inc. and that
 it will not use this program in any manner prohibited above.
 ---------------------------------------------------------------
  

 Cite this work as:
 Gaussian 16, Revision B.01,
 M. J. Frisch, G. W. Trucks, H. B. Schlegel, G. E. Scuseria, 
 M. A. Robb, J. R. Cheeseman, G. Scalmani, V. Barone, 
 G. A. Petersson, H. Nakatsuji, X. Li, M. Caricato, A. V. Marenich, 
 J. Bloino, B. G. Janesko, R. Gomperts, B. Mennucci, H. P. Hratchian, 
 J. V. Ortiz, A. F. Izmaylov, J. L. Sonnenberg, D. Williams-Young, 
 F. Ding, F. Lipparini, F. Egidi, J. Goings, B. Peng, A. Petrone, 
 T. Henderson, D. Ranasinghe, V. G. Zakrzewski, J. Gao, N. Rega, 
 G. Zheng, W. Liang, M. Hada, M. Ehara, K. Toyota, R. Fukuda, 
 J. Hasegawa, M. Ishida, T. Nakajima, Y. Honda, O. Kitao, H. Nakai, 
 T. Vreven, K. Throssell, J. A. Montgomery, Jr., J. E. Peralta, 
 F. Ogliaro, M. J. Bearpark, J. J. Heyd, E. N. Brothers, K. N. Kudin, 
 V. N. Staroverov, T. A. Keith, R. Kobayashi, J. Normand, 
 K. Raghavachari, A. P. Rendell, J. C. Burant, S. S. Iyengar, 
 J. Tomasi, M. Cossi, J. M. Millam, M. Klene, C. Adamo, R. Cammi, 
 J. W. Ochterski, R. L. Martin, K. Morokuma, O. Farkas, 
 J. B. Foresman, and D. J. Fox, Gaussian, Inc., Wallingford CT, 2016.
 
 ******************************************
 Gaussian 16:  ES64L-G16RevB.01 20-Dec-2017
                19-Sep-2025 
 ******************************************
 %nprocs=16
 Will use up to   16 processors via shared memory.
 %mem=40GB
 %chk=DRHE0104.chk
 ----------------------------------------------------------------------
 # opt freq=noraman M08HX/6-311++G** scf=xqc Empiricaldispersion=pfd In
 t(Grid=ultraFine)
 ----------------------------------------------------------------------
 1/18=20,19=15,26=4,38=1/1,3;
 2/9=110,12=2,17=6,18=5,40=1/2;
 3/5=4,6=6,7=1111,11=2,25=1,30=1,71=1,74=-74,75=-5,124=11/1,2,3;
 4//1;
 5/5=2,8=3,13=1,38=5/2,8;
 6/7=2,8=2,9=2,10=2,28=1/1;
 7//1,2,3,16;
 1/18=20,19=15,26=4/3(2);
 2/9=110/2;
 99//99;
 2/9=110/2;
 3/5=4,6=6,7=1111,11=2,25=1,30=1,71=1,74=-74,75=-5,124=11/1,2,3;
 4/5=5,16=3,69=1/1;
 5/5=2,8=3,13=1,38=5/2,8;
 7//1,2,3,16;
 1/18=20,19=15,26=4/3(-5);
 2/9=110/2;
 6/7=2,8=2,9=2,10=2,19=2,28=1/1;
 99/9=1/99;
 --------
 DRHE0104
 --------
 Symbolic Z-matrix:
 Charge =  0 Multiplicity = 1
 O                     1.0736   -1.426     0.9649 
 O                    -0.2282    1.1394    1.3362 
 O                     2.3626    1.3345   -1.0792 
 O                    -1.6814   -1.213    -1.0778 
 O                    -3.7276    0.435    -0.4798 
 C                     0.9979   -0.4243   -0.0523 
 C                    -0.2986    0.3976    0.1186 
 C                     2.3157    0.3741   -0.0278 
 C                    -1.562    -0.4792    0.1258 
 C                     3.5488   -0.5102   -0.1502 
 C                    -2.8007    0.3721    0.3214 
 H                     0.9274   -0.9444   -1.0166 
 H                    -0.3626    1.126    -0.6986 
 H                     2.3943    0.9228    0.9177 
 H                    -1.5454   -1.1866    0.9621 
 H                     4.453     0.1045   -0.2243 
 H                     3.663    -1.177     0.7092 
 H                     3.5071   -1.1162   -1.0621 
 H                     1.6533   -2.1358    0.6409 
 H                    -0.1365    0.5013    2.0645 
 H                    -2.8467    0.9364    1.2688 
 H                     2.271     0.8568   -1.9214 
 H                    -1.6384   -0.5841   -1.8183 
 

 GradGradGradGradGradGradGradGradGradGradGradGradGradGradGradGradGradGrad
 Berny optimization.
 Initialization pass.
                           ----------------------------
                           !    Initial Parameters    !
                           ! (Angstroms and Degrees)  !
 --------------------------                            --------------------------
 ! Name  Definition              Value          Derivative Info.                !
 --------------------------------------------------------------------------------
 ! R1    R(1,6)                  1.4296         estimate D2E/DX2                !
 ! R2    R(1,19)                 0.972          estimate D2E/DX2                !
 ! R3    R(2,7)                  1.4275         estimate D2E/DX2                !
 ! R4    R(2,20)                 0.9726         estimate D2E/DX2                !
 ! R5    R(3,8)                  1.4248         estimate D2E/DX2                !
 ! R6    R(3,22)                 0.9726         estimate D2E/DX2                !
 ! R7    R(4,9)                  1.4147         estimate D2E/DX2                !
 ! R8    R(4,23)                 0.9725         estimate D2E/DX2                !
 ! R9    R(5,11)                 1.2268         estimate D2E/DX2                !
 ! R10   R(6,7)                  1.5446         estimate D2E/DX2                !
 ! R11   R(6,8)                  1.541          estimate D2E/DX2                !
 ! R12   R(6,12)                 1.0979         estimate D2E/DX2                !
 ! R13   R(7,9)                  1.5379         estimate D2E/DX2                !
 ! R14   R(7,13)                 1.0966         estimate D2E/DX2                !
 ! R15   R(8,10)                 1.5223         estimate D2E/DX2                !
 ! R16   R(8,14)                 1.096          estimate D2E/DX2                !
 ! R17   R(9,11)                 1.5157         estimate D2E/DX2                !
 ! R18   R(9,15)                 1.0955         estimate D2E/DX2                !
 ! R19   R(10,16)                1.0959         estimate D2E/DX2                !
 ! R20   R(10,17)                1.0937         estimate D2E/DX2                !
 ! R21   R(10,18)                1.0957         estimate D2E/DX2                !
 ! R22   R(11,21)                1.1037         estimate D2E/DX2                !
 ! A1    A(6,1,19)             107.8221         estimate D2E/DX2                !
 ! A2    A(7,2,20)             107.6031         estimate D2E/DX2                !
 ! A3    A(8,3,22)             107.7482         estimate D2E/DX2                !
 ! A4    A(9,4,23)             107.9787         estimate D2E/DX2                !
 ! A5    A(1,6,7)              109.7897         estimate D2E/DX2                !
 ! A6    A(1,6,8)              107.8443         estimate D2E/DX2                !
 ! A7    A(1,6,12)             107.2423         estimate D2E/DX2                !
 ! A8    A(7,6,8)              116.1274         estimate D2E/DX2                !
 ! A9    A(7,6,12)             107.1796         estimate D2E/DX2                !
 ! A10   A(8,6,12)             108.3199         estimate D2E/DX2                !
 ! A11   A(2,7,6)              109.2384         estimate D2E/DX2                !
 ! A12   A(2,7,9)              109.4385         estimate D2E/DX2                !
 ! A13   A(2,7,13)             107.0586         estimate D2E/DX2                !
 ! A14   A(6,7,9)              112.7508         estimate D2E/DX2                !
 ! A15   A(6,7,13)             108.6629         estimate D2E/DX2                !
 ! A16   A(9,7,13)             109.5275         estimate D2E/DX2                !
 ! A17   A(3,8,6)              111.4481         estimate D2E/DX2                !
 ! A18   A(3,8,10)             107.7918         estimate D2E/DX2                !
 ! A19   A(3,8,14)             107.2643         estimate D2E/DX2                !
 ! A20   A(6,8,10)             112.9825         estimate D2E/DX2                !
 ! A21   A(6,8,14)             109.5378         estimate D2E/DX2                !
 ! A22   A(10,8,14)            107.5829         estimate D2E/DX2                !
 ! A23   A(4,9,7)              111.1669         estimate D2E/DX2                !
 ! A24   A(4,9,11)             109.3991         estimate D2E/DX2                !
 ! A25   A(4,9,15)             108.4107         estimate D2E/DX2                !
 ! A26   A(7,9,11)             110.5959         estimate D2E/DX2                !
 ! A27   A(7,9,15)             111.0566         estimate D2E/DX2                !
 ! A28   A(11,9,15)            106.0544         estimate D2E/DX2                !
 ! A29   A(8,10,16)            110.3613         estimate D2E/DX2                !
 ! A30   A(8,10,17)            112.0577         estimate D2E/DX2                !
 ! A31   A(8,10,18)            110.9383         estimate D2E/DX2                !
 ! A32   A(16,10,17)           107.9962         estimate D2E/DX2                !
 ! A33   A(16,10,18)           106.5804         estimate D2E/DX2                !
 ! A34   A(17,10,18)           108.7076         estimate D2E/DX2                !
 ! A35   A(5,11,9)             124.1932         estimate D2E/DX2                !
 ! A36   A(5,11,21)            120.1922         estimate D2E/DX2                !
 ! A37   A(9,11,21)            115.5948         estimate D2E/DX2                !
 ! D1    D(19,1,6,7)           156.6518         estimate D2E/DX2                !
 ! D2    D(19,1,6,8)           -75.9398         estimate D2E/DX2                !
 ! D3    D(19,1,6,12)           40.5255         estimate D2E/DX2                !
 ! D4    D(20,2,7,6)           -60.3617         estimate D2E/DX2                !
 ! D5    D(20,2,7,9)            63.5227         estimate D2E/DX2                !
 ! D6    D(20,2,7,13)         -177.8528         estimate D2E/DX2                !
 ! D7    D(22,3,8,6)           -58.7204         estimate D2E/DX2                !
 ! D8    D(22,3,8,10)           65.7961         estimate D2E/DX2                !
 ! D9    D(22,3,8,14)         -178.6119         estimate D2E/DX2                !
 ! D10   D(23,4,9,7)           -54.1043         estimate D2E/DX2                !
 ! D11   D(23,4,9,11)           68.3264         estimate D2E/DX2                !
 ! D12   D(23,4,9,15)         -176.4453         estimate D2E/DX2                !
 ! D13   D(1,6,7,2)             66.3092         estimate D2E/DX2                !
 ! D14   D(1,6,7,9)            -55.5995         estimate D2E/DX2                !
 ! D15   D(1,6,7,13)          -177.215          estimate D2E/DX2                !
 ! D16   D(8,6,7,2)            -56.321          estimate D2E/DX2                !
 ! D17   D(8,6,7,9)           -178.2297         estimate D2E/DX2                !
 ! D18   D(8,6,7,13)            60.1547         estimate D2E/DX2                !
 ! D19   D(12,6,7,2)          -177.525          estimate D2E/DX2                !
 ! D20   D(12,6,7,9)            60.5664         estimate D2E/DX2                !
 ! D21   D(12,6,7,13)          -61.0492         estimate D2E/DX2                !
 ! D22   D(1,6,8,3)            175.771          estimate D2E/DX2                !
 ! D23   D(1,6,8,10)            54.2226         estimate D2E/DX2                !
 ! D24   D(1,6,8,14)           -65.6901         estimate D2E/DX2                !
 ! D25   D(7,6,8,3)            -60.5832         estimate D2E/DX2                !
 ! D26   D(7,6,8,10)           177.8684         estimate D2E/DX2                !
 ! D27   D(7,6,8,14)            57.9557         estimate D2E/DX2                !
 ! D28   D(12,6,8,3)            60.0108         estimate D2E/DX2                !
 ! D29   D(12,6,8,10)          -61.5376         estimate D2E/DX2                !
 ! D30   D(12,6,8,14)          178.5496         estimate D2E/DX2                !
 ! D31   D(2,7,9,4)            178.8958         estimate D2E/DX2                !
 ! D32   D(2,7,9,11)            57.1598         estimate D2E/DX2                !
 ! D33   D(2,7,9,15)           -60.3081         estimate D2E/DX2                !
 ! D34   D(6,7,9,4)            -59.3085         estimate D2E/DX2                !
 ! D35   D(6,7,9,11)           178.9555         estimate D2E/DX2                !
 ! D36   D(6,7,9,15)            61.4876         estimate D2E/DX2                !
 ! D37   D(13,7,9,4)            61.8161         estimate D2E/DX2                !
 ! D38   D(13,7,9,11)          -59.9199         estimate D2E/DX2                !
 ! D39   D(13,7,9,15)         -177.3878         estimate D2E/DX2                !
 ! D40   D(3,8,10,16)           51.0252         estimate D2E/DX2                !
 ! D41   D(3,8,10,17)          171.4197         estimate D2E/DX2                !
 ! D42   D(3,8,10,18)          -66.8731         estimate D2E/DX2                !
 ! D43   D(6,8,10,16)          174.6145         estimate D2E/DX2                !
 ! D44   D(6,8,10,17)          -64.991          estimate D2E/DX2                !
 ! D45   D(6,8,10,18)           56.7162         estimate D2E/DX2                !
 ! D46   D(14,8,10,16)         -64.357          estimate D2E/DX2                !
 ! D47   D(14,8,10,17)          56.0375         estimate D2E/DX2                !
 ! D48   D(14,8,10,18)         177.7447         estimate D2E/DX2                !
 ! D49   D(4,9,11,5)            -2.4646         estimate D2E/DX2                !
 ! D50   D(4,9,11,21)          175.913          estimate D2E/DX2                !
 ! D51   D(7,9,11,5)           120.3067         estimate D2E/DX2                !
 ! D52   D(7,9,11,21)          -61.3156         estimate D2E/DX2                !
 ! D53   D(15,9,11,5)         -119.193          estimate D2E/DX2                !
 ! D54   D(15,9,11,21)          59.1846         estimate D2E/DX2                !
 --------------------------------------------------------------------------------
 Trust Radius=3.00D-01 FncErr=1.00D-07 GrdErr=1.00D-06 EigMax=2.50D+02 EigMin=1.00D-04
 Number of steps in this run=    123 maximum allowed number of steps=    138.
 GradGradGradGradGradGradGradGradGradGradGradGradGradGradGradGradGradGrad

                          Input orientation:                          
 ---------------------------------------------------------------------
 Center     Atomic      Atomic             Coordinates (Angstroms)
 Number     Number       Type             X           Y           Z
 ---------------------------------------------------------------------
      1          8           0        1.073600   -1.426000    0.964900
      2          8           0       -0.228200    1.139400    1.336200
      3          8           0        2.362600    1.334500   -1.079200
      4          8           0       -1.681400   -1.213000   -1.077800
      5          8           0       -3.727600    0.435000   -0.479800
      6          6           0        0.997900   -0.424300   -0.052300
      7          6           0       -0.298600    0.397600    0.118600
      8          6           0        2.315700    0.374100   -0.027800
      9          6           0       -1.562000   -0.479200    0.125800
     10          6           0        3.548800   -0.510200   -0.150200
     11          6           0       -2.800700    0.372100    0.321400
     12          1           0        0.927400   -0.944400   -1.016600
     13          1           0       -0.362600    1.126000   -0.698600
     14          1           0        2.394300    0.922800    0.917700
     15          1           0       -1.545400   -1.186600    0.962100
     16          1           0        4.453000    0.104500   -0.224300
     17          1           0        3.663000   -1.177000    0.709200
     18          1           0        3.507100   -1.116200   -1.062100
     19          1           0        1.653300   -2.135800    0.640900
     20          1           0       -0.136500    0.501300    2.064500
     21          1           0       -2.846700    0.936400    1.268800
     22          1           0        2.271000    0.856800   -1.921400
     23          1           0       -1.638400   -0.584100   -1.818300
 ---------------------------------------------------------------------
                    Distance matrix (angstroms):
                    1          2          3          4          5
     1  O    0.000000
     2  O    2.900659   0.000000
     3  O    3.668818   3.547459   0.000000
     4  O    3.436280   3.670555   4.779508   0.000000
     5  O    5.348084   4.004976   6.185379   2.694521   0.000000
     6  C    1.429626   2.424131   2.451593   2.975289   4.821981
     7  C    2.434065   1.427506   3.065044   2.436707   3.481023
     8  C    2.401796   2.986236   1.424784   4.426985   6.060486
     9  C    2.923509   2.421561   4.488209   1.414698   2.427414
    10  C    2.865092   4.381358   2.381812   5.358112   7.344933
    11  C    4.319428   2.869900   5.435767   2.392307   1.226793
    12  H    2.044421   3.348627   2.693901   2.623305   4.884662
    13  H    3.367879   2.039278   2.759537   2.711816   3.442177
    14  H    2.695058   2.664501   2.039145   5.015475   6.298303
    15  H    2.629920   2.699119   5.078909   2.044599   3.077444
    16  H    3.895763   5.041806   2.571678   6.332072   8.191259
    17  H    2.613881   4.571682   3.346199   5.635359   7.657234
    18  H    3.182236   4.979161   2.704830   5.189427   7.422006
    19  H    0.972031   3.840627   3.937618   3.863381   6.067872
    20  H    2.527439   0.972626   4.101533   3.898665   4.401574
    21  H    4.587160   2.627222   5.727861   3.388861   2.021136
    22  H    3.869841   4.115558   0.972568   4.540617   6.183796
    23  H    3.976172   3.861345   4.498366   0.972473   2.682332
                    6          7          8          9         10
     6  C    0.000000
     7  C    1.544551   0.000000
     8  C    1.540987   2.618501   0.000000
     9  C    2.566675   1.537859   3.973446   0.000000
    10  C    2.554223   3.962176   1.522335   5.118341   0.000000
    11  C    3.899137   2.510435   5.128303   1.515701   6.427831
    12  H    1.097884   2.143063   2.154889   2.778237   2.794802
    13  H    2.161503   1.096576   2.861576   2.166763   4.275154
    14  H    2.169219   2.857640   1.096002   4.271419   2.127621
    15  H    2.842267   2.185336   4.280628   1.095485   5.257909
    16  H    3.499561   4.772965   2.163180   6.053388   1.095867
    17  H    2.872142   4.303771   2.182727   5.303575   1.093724
    18  H    2.791864   4.262510   2.170301   5.245250   1.095690
    19  H    1.959415   3.240498   2.680584   3.653465   2.619415
    20  H    2.573799   1.955392   3.226017   2.598459   4.416952
    21  H    4.286929   2.847118   5.352357   2.227291   6.708847
    22  H    2.599141   3.312900   1.954666   4.546187   2.576550
    23  H    3.177164   2.551545   4.445103   1.948426   5.449318
                   11         12         13         14         15
    11  C    0.000000
    12  H    4.173984   0.000000
    13  H    2.748290   2.460037   0.000000
    14  H    5.258029   3.062637   3.202220   0.000000
    15  H    2.101385   3.176264   3.083028   4.469091   0.000000
    16  H    7.279118   3.762683   4.945546   2.492393   6.249423
    17  H    6.658042   3.242838   4.846769   2.462160   5.214545
    18  H    6.627024   2.585815   4.487112   3.052123   5.443354
    19  H    5.121500   2.166488   4.061706   3.159230   3.351989
    20  H    3.186385   3.565825   2.841847   2.810296   2.459531
    21  H    1.103683   4.796279   3.174486   5.252765   2.508899
    22  H    5.566617   2.422446   2.916086   2.842542   5.201439
    23  H    2.616023   2.712170   2.409530   5.100893   2.846450
                   16         17         18         19         20
    16  H    0.000000
    17  H    1.771374   0.000000
    18  H    1.756913   1.779187   0.000000
    19  H    3.688609   2.227747   2.715947   0.000000
    20  H    5.143886   4.369179   5.066335   3.490604   0.000000
    21  H    7.497134   6.867009   7.072272   5.484767   2.857907
    22  H    2.864826   3.604728   2.481747   3.987805   4.670100
    23  H    6.334048   5.902934   5.227919   4.392121   4.302317
                   21         22         23
    21  H    0.000000
    22  H    6.031133   0.000000
    23  H    3.647204   4.167761   0.000000
 Stoichiometry    C6H12O5
 Framework group  C1[X(C6H12O5)]
 Deg. of freedom    63
 Full point group                 C1      NOp   1
 Largest Abelian subgroup         C1      NOp   1
 Largest concise Abelian subgroup C1      NOp   1
                         Standard orientation:                         
 ---------------------------------------------------------------------
 Center     Atomic      Atomic             Coordinates (Angstroms)
 Number     Number       Type             X           Y           Z
 ---------------------------------------------------------------------
      1          8           0       -0.994169    1.386603    0.984882
      2          8           0        0.342802   -1.162842    1.340784
      3          8           0       -2.262492   -1.385400   -1.056584
      4          8           0        1.748657    1.213431   -1.077866
      5          8           0        3.819890   -0.409722   -0.498375
      6          6           0       -0.912992    0.388289   -0.035220
      7          6           0        0.395054   -0.417409    0.124490
      8          6           0       -2.220312   -0.426898   -0.003254
      9          6           0        1.647209    0.475405    0.124797
     10          6           0       -3.465413    0.441891   -0.114767
     11          6           0        2.898011   -0.360483    0.309547
     12          1           0       -0.856008    0.911459   -0.998752
     13          1           0        0.462482   -1.143054   -0.694882
     14          1           0       -2.285165   -0.978727    0.941468
     15          1           0        1.627579    1.180613    0.962881
     16          1           0       -4.362220   -0.184113   -0.183901
     17          1           0       -3.581950    1.105204    0.747014
     18          1           0       -3.437945    1.050467   -1.025490
     19          1           0       -1.585158    2.089698    0.666710
     20          1           0        0.248191   -0.527637    2.071240
     21          1           0        2.957957   -0.926326    1.255245
     22          1           0       -2.182999   -0.904637   -1.898271
     23          1           0        1.708378    0.585737   -1.819542
 ---------------------------------------------------------------------
 Rotational constants (GHZ):           2.1043296           0.5575657           0.5391815
 Standard basis: 6-311++G(d,p) (5D, 7F)
 There are   337 symmetry adapted cartesian basis functions of A   symmetry.
 There are   326 symmetry adapted basis functions of A   symmetry.
   326 basis functions,   504 primitive gaussians,   337 cartesian basis functions
    44 alpha electrons       44 beta electrons
       nuclear repulsion energy       682.0068368147 Hartrees.
 NAtoms=   23 NActive=   23 NUniq=   23 SFac= 1.00D+00 NAtFMM=   60 NAOKFM=F Big=F
 Integral buffers will be    131072 words long.
 Raffenetti 2 integral format.
 Two-electron integral symmetry is turned on.
 R6APFD:  NTU= -4 IXU= 1 FactS= 1.050
 Nuclear repulsion after empirical dispersion term =      681.9856615428 Hartrees.
 One-electron integrals computed using PRISM.
 NBasis=   326 RedAO= T EigKep=  3.58D-06  NBF=   326
 NBsUse=   326 1.00D-06 EigRej= -1.00D+00 NBFU=   326
 ExpMin= 3.60D-02 ExpMax= 8.59D+03 ExpMxC= 1.30D+03 IAcc=3 IRadAn=         5 AccDes= 0.00D+00
 Harris functional with IExCor= 1009 and IRadAn=       5 diagonalized for initial guess.
 HarFok:  IExCor= 1009 AccDes= 0.00D+00 IRadAn=         5 IDoV= 1 UseB2=F ITyADJ=14
 ICtDFT=  3500011 ScaDFX=  1.000000  1.000000  1.000000  1.000000
 FoFCou: FMM=F IPFlag=           0 FMFlag=      100000 FMFlg1=           0
         NFxFlg=           0 DoJE=T BraDBF=F KetDBF=T FulRan=T
         wScrn=  0.000000 ICntrl=       500 IOpCl=  0 I1Cent=   200000004 NGrid=           0
         NMat0=    1 NMatS0=      1 NMatT0=    0 NMatD0=    1 NMtDS0=    0 NMtDT0=    0
 Petite list used in FoFCou.
 Requested convergence on RMS density matrix=1.00D-08 within  32 cycles.
 Requested convergence on MAX density matrix=1.00D-06.
 Requested convergence on             energy=1.00D-06.
 No special actions if energy rises.
 SCF Done:  E(RM08HX) =  -611.942573389     A.U. after   16 cycles
            NFock= 16  Conv=0.22D-08     -V/T= 2.0042
 QCSCF skips out because SCF is already converged.

 **********************************************************************

            Population analysis using the SCF Density.

 **********************************************************************

 Orbital symmetries:
       Occupied  (A) (A) (A) (A) (A) (A) (A) (A) (A) (A) (A) (A)
                 (A) (A) (A) (A) (A) (A) (A) (A) (A) (A) (A) (A)
                 (A) (A) (A) (A) (A) (A) (A) (A) (A) (A) (A) (A)
                 (A) (A) (A) (A) (A) (A) (A) (A)
       Virtual   (A) (A) (A) (A) (A) (A) (A) (A) (A) (A) (A) (A)
                 (A) (A) (A) (A) (A) (A) (A) (A) (A) (A) (A) (A)
                 (A) (A) (A) (A) (A) (A) (A) (A) (A) (A) (A) (A)
                 (A) (A) (A) (A) (A) (A) (A) (A) (A) (A) (A) (A)
                 (A) (A) (A) (A) (A) (A) (A) (A) (A) (A) (A) (A)
                 (A) (A) (A) (A) (A) (A) (A) (A) (A) (A) (A) (A)
                 (A) (A) (A) (A) (A) (A) (A) (A) (A) (A) (A) (A)
                 (A) (A) (A) (A) (A) (A) (A) (A) (A) (A) (A) (A)
                 (A) (A) (A) (A) (A) (A) (A) (A) (A) (A) (A) (A)
                 (A) (A) (A) (A) (A) (A) (A) (A) (A) (A) (A) (A)
                 (A) (A) (A) (A) (A) (A) (A) (A) (A) (A) (A) (A)
                 (A) (A) (A) (A) (A) (A) (A) (A) (A) (A) (A) (A)
                 (A) (A) (A) (A) (A) (A) (A) (A) (A) (A) (A) (A)
                 (A) (A) (A) (A) (A) (A) (A) (A) (A) (A) (A) (A)
                 (A) (A) (A) (A) (A) (A) (A) (A) (A) (A) (A) (A)
                 (A) (A) (A) (A) (A) (A) (A) (A) (A) (A) (A) (A)
                 (A) (A) (A) (A) (A) (A) (A) (A) (A) (A) (A) (A)
                 (A) (A) (A) (A) (A) (A) (A) (A) (A) (A) (A) (A)
                 (A) (A) (A) (A) (A) (A) (A) (A) (A) (A) (A) (A)
                 (A) (A) (A) (A) (A) (A) (A) (A) (A) (A) (A) (A)
                 (A) (A) (A) (A) (A) (A) (A) (A) (A) (A) (A) (A)
                 (A) (A) (A) (A) (A) (A) (A) (A) (A) (A) (A) (A)
                 (A) (A) (A) (A) (A) (A) (A) (A) (A) (A) (A) (A)
                 (A) (A) (A) (A) (A) (A)
 The electronic state is 1-A.
 Alpha  occ. eigenvalues --  -19.63926 -19.63252 -19.63057 -19.62534 -19.62511
 Alpha  occ. eigenvalues --  -10.63067 -10.61642 -10.61046 -10.60898 -10.59939
 Alpha  occ. eigenvalues --  -10.53789  -1.19141  -1.18041  -1.16078  -1.15584
 Alpha  occ. eigenvalues --   -1.15367  -0.90011  -0.87690  -0.82787  -0.74818
 Alpha  occ. eigenvalues --   -0.70891  -0.68902  -0.64330  -0.61921  -0.60296
 Alpha  occ. eigenvalues --   -0.58525  -0.57409  -0.56071  -0.54319  -0.53058
 Alpha  occ. eigenvalues --   -0.51975  -0.49620  -0.48017  -0.47336  -0.46539
 Alpha  occ. eigenvalues --   -0.46021  -0.44549  -0.43466  -0.42274  -0.40421
 Alpha  occ. eigenvalues --   -0.38756  -0.37555  -0.35877  -0.33326
 Alpha virt. eigenvalues --   -0.04418  -0.03372  -0.02013  -0.01630  -0.01383
 Alpha virt. eigenvalues --   -0.00482   0.00443   0.00860   0.01117   0.01905
 Alpha virt. eigenvalues --    0.02728   0.03449   0.04111   0.05272   0.05800
 Alpha virt. eigenvalues --    0.06456   0.07208   0.07597   0.08144   0.08664
 Alpha virt. eigenvalues --    0.09198   0.09562   0.10392   0.11043   0.11687
 Alpha virt. eigenvalues --    0.12353   0.12370   0.12667   0.13162   0.13338
 Alpha virt. eigenvalues --    0.13937   0.14931   0.15063   0.15271   0.16161
 Alpha virt. eigenvalues --    0.17219   0.17483   0.18067   0.19093   0.19728
 Alpha virt. eigenvalues --    0.20298   0.20979   0.21241   0.22632   0.22835
 Alpha virt. eigenvalues --    0.23197   0.23636   0.23797   0.24842   0.25385
 Alpha virt. eigenvalues --    0.26688   0.26845   0.27346   0.27864   0.28757
 Alpha virt. eigenvalues --    0.29417   0.29456   0.30200   0.30536   0.31231
 Alpha virt. eigenvalues --    0.31365   0.31893   0.32573   0.33063   0.33967
 Alpha virt. eigenvalues --    0.34344   0.35304   0.36473   0.37455   0.37926
 Alpha virt. eigenvalues --    0.38569   0.39088   0.39315   0.39818   0.41954
 Alpha virt. eigenvalues --    0.43045   0.44016   0.45342   0.46741   0.47679
 Alpha virt. eigenvalues --    0.49345   0.51351   0.53232   0.55324   0.56181
 Alpha virt. eigenvalues --    0.56824   0.58186   0.59813   0.61210   0.61929
 Alpha virt. eigenvalues --    0.63029   0.64884   0.65198   0.66583   0.67449
 Alpha virt. eigenvalues --    0.68147   0.70002   0.70077   0.71030   0.73469
 Alpha virt. eigenvalues --    0.74733   0.75154   0.75555   0.76030   0.77617
 Alpha virt. eigenvalues --    0.79057   0.79839   0.82253   0.86974   0.90210
 Alpha virt. eigenvalues --    0.93749   0.96422   0.98733   1.01694   1.02717
 Alpha virt. eigenvalues --    1.03601   1.08753   1.10378   1.11913   1.14254
 Alpha virt. eigenvalues --    1.14685   1.16431   1.17089   1.17467   1.18415
 Alpha virt. eigenvalues --    1.21347   1.23476   1.23818   1.25850   1.27182
 Alpha virt. eigenvalues --    1.28281   1.29173   1.30301   1.31116   1.33010
 Alpha virt. eigenvalues --    1.35337   1.35929   1.37790   1.40341   1.43991
 Alpha virt. eigenvalues --    1.46967   1.47943   1.49362   1.50734   1.52485
 Alpha virt. eigenvalues --    1.53730   1.55427   1.56204   1.57766   1.60111
 Alpha virt. eigenvalues --    1.60465   1.62003   1.63369   1.64259   1.65429
 Alpha virt. eigenvalues --    1.65601   1.67613   1.70225   1.71370   1.72965
 Alpha virt. eigenvalues --    1.74535   1.76962   1.77449   1.79263   1.80766
 Alpha virt. eigenvalues --    1.81136   1.81936   1.84980   1.85534   1.88101
 Alpha virt. eigenvalues --    1.90873   1.91423   1.93354   1.97713   1.99756
 Alpha virt. eigenvalues --    2.03331   2.04308   2.05652   2.07929   2.09847
 Alpha virt. eigenvalues --    2.11512   2.13157   2.14885   2.15416   2.17129
 Alpha virt. eigenvalues --    2.21845   2.22803   2.26583   2.33938   2.35927
 Alpha virt. eigenvalues --    2.37083   2.39017   2.42106   2.49049   2.49403
 Alpha virt. eigenvalues --    2.52663   2.54666   2.55198   2.57639   2.59001
 Alpha virt. eigenvalues --    2.60222   2.61682   2.64321   2.65674   2.68989
 Alpha virt. eigenvalues --    2.70170   2.70672   2.73342   2.76502   2.81593
 Alpha virt. eigenvalues --    2.84197   2.86149   2.90426   2.92695   2.95587
 Alpha virt. eigenvalues --    2.97208   2.97329   2.99160   3.03875   3.05222
 Alpha virt. eigenvalues --    3.07872   3.10858   3.15423   3.18125   3.19734
 Alpha virt. eigenvalues --    3.20948   3.21945   3.23455   3.24906   3.26819
 Alpha virt. eigenvalues --    3.31985   3.32779   3.33458   3.39581   3.41884
 Alpha virt. eigenvalues --    3.45661   3.51580   3.55986   3.56958   3.60469
 Alpha virt. eigenvalues --    3.80660   3.81355   3.83171   3.84227   3.86891
 Alpha virt. eigenvalues --    3.91590   3.92593   3.98781   4.02427   4.04870
 Alpha virt. eigenvalues --    4.07971   4.19210   4.23160   4.25850   4.30862
 Alpha virt. eigenvalues --    4.41335   5.14070   5.18404   5.21074   5.26715
 Alpha virt. eigenvalues --    5.30541   5.33290   5.49643   5.51251   5.52562
 Alpha virt. eigenvalues --    5.53811   5.66889   5.69827   5.75316   5.76471
 Alpha virt. eigenvalues --    5.84020  23.80743  23.84156  23.85000  23.86808
 Alpha virt. eigenvalues --   23.90523  24.01377  49.92105  49.93386  49.95622
 Alpha virt. eigenvalues --   49.96200  49.97887
          Condensed to atoms (all electrons):
               1          2          3          4          5          6
     1  O    7.984334  -0.019483   0.018006  -0.013982  -0.000676   0.350068
     2  O   -0.019483   7.906522  -0.008631   0.016878   0.003957   0.088818
     3  O    0.018006  -0.008631   7.931384  -0.001485   0.000107   0.165526
     4  O   -0.013982   0.016878  -0.001485   7.876441   0.032193  -0.278606
     5  O   -0.000676   0.003957   0.000107   0.032193   7.787502   0.033870
     6  C    0.350068   0.088818   0.165526  -0.278606   0.033870  18.331537
     7  C    0.028386   0.302746  -0.128725   0.242055  -0.141811  -7.851478
     8  C   -0.302889  -0.035613   0.047376   0.078279  -0.002459  -7.437860
     9  C   -0.041035  -0.252111   0.046496   0.028822  -0.097089   2.456746
    10  C   -0.033338  -0.000508  -0.064824   0.002382   0.000444   1.268559
    11  C   -0.015329  -0.017476   0.004714  -0.012278   0.636437  -0.339608
    12  H   -0.049622   0.010660  -0.025775   0.049611  -0.002808  -0.099213
    13  H    0.024274  -0.100486   0.037032  -0.004518  -0.005524  -0.080319
    14  H    0.009262   0.025704  -0.109439  -0.001944  -0.000343  -0.198679
    15  H    0.022007  -0.021155  -0.000915  -0.097341  -0.011069  -0.010110
    16  H   -0.000271   0.000396   0.004236   0.000636   0.000004  -0.020352
    17  H    0.010990  -0.001380   0.023017   0.000649  -0.000019  -0.106613
    18  H   -0.004746   0.000124  -0.030862  -0.002135   0.000052   0.086594
    19  H    0.236084   0.004591  -0.000214  -0.002994   0.000069   0.090160
    20  H   -0.008799   0.240562   0.002629   0.000303  -0.000185  -0.088810
    21  H   -0.000741   0.004300   0.000618   0.018957  -0.047606   0.020352
    22  H    0.001015   0.000714   0.237292  -0.001096   0.000138   0.004487
    23  H   -0.000378   0.004176  -0.001568   0.243947  -0.013613   0.095668
               7          8          9         10         11         12
     1  O    0.028386  -0.302889  -0.041035  -0.033338  -0.015329  -0.049622
     2  O    0.302746  -0.035613  -0.252111  -0.000508  -0.017476   0.010660
     3  O   -0.128725   0.047376   0.046496  -0.064824   0.004714  -0.025775
     4  O    0.242055   0.078279   0.028822   0.002382  -0.012278   0.049611
     5  O   -0.141811  -0.002459  -0.097089   0.000444   0.636437  -0.002808
     6  C   -7.851478  -7.437860   2.456746   1.268559  -0.339608  -0.099213
     7  C   18.958563   2.339185  -7.260979  -0.420149   0.273708   0.145996
     8  C    2.339185  15.182084  -2.074647  -1.821314  -0.227202   0.185731
     9  C   -7.260979  -2.074647  14.505097  -0.147704  -1.456236  -0.122229
    10  C   -0.420149  -1.821314  -0.147704   7.053291   0.013427  -0.110647
    11  C    0.273708  -0.227202  -1.456236   0.013427   7.110279   0.067935
    12  H    0.145996   0.185731  -0.122229  -0.110647   0.067935   0.748676
    13  H    0.354036  -0.193066   0.142530  -0.016752  -0.055601  -0.011605
    14  H   -0.135002   0.736032   0.004520  -0.195285  -0.009359   0.028757
    15  H   -0.405825  -0.079636   0.900747  -0.016991  -0.158025   0.002753
    16  H    0.013769  -0.062026  -0.017624   0.436175  -0.000476   0.006107
    17  H    0.062288  -0.058410   0.007231   0.432874   0.003652   0.010685
    18  H   -0.099166   0.073572   0.005804   0.322415  -0.003056  -0.016963
    19  H   -0.090340  -0.038891   0.054283   0.014045  -0.006329  -0.033336
    20  H    0.103802  -0.027560   0.018256   0.004486   0.020494   0.001001
    21  H   -0.120272  -0.014448  -0.123351  -0.001226   0.438282  -0.000615
    22  H   -0.025450   0.032497   0.026423  -0.012633   0.001437  -0.025315
    23  H    0.007120   0.051641  -0.000150   0.005832  -0.115636  -0.025608
              13         14         15         16         17         18
     1  O    0.024274   0.009262   0.022007  -0.000271   0.010990  -0.004746
     2  O   -0.100486   0.025704  -0.021155   0.000396  -0.001380   0.000124
     3  O    0.037032  -0.109439  -0.000915   0.004236   0.023017  -0.030862
     4  O   -0.004518  -0.001944  -0.097341   0.000636   0.000649  -0.002135
     5  O   -0.005524  -0.000343  -0.011069   0.000004  -0.000019   0.000052
     6  C   -0.080319  -0.198679  -0.010110  -0.020352  -0.106613   0.086594
     7  C    0.354036  -0.135002  -0.405825   0.013769   0.062288  -0.099166
     8  C   -0.193066   0.736032  -0.079636  -0.062026  -0.058410   0.073572
     9  C    0.142530   0.004520   0.900747  -0.017624   0.007231   0.005804
    10  C   -0.016752  -0.195285  -0.016991   0.436175   0.432874   0.322415
    11  C   -0.055601  -0.009359  -0.158025  -0.000476   0.003652  -0.003056
    12  H   -0.011605   0.028757   0.002753   0.006107   0.010685  -0.016963
    13  H    0.564002  -0.003154   0.009363  -0.003723  -0.000213   0.003464
    14  H   -0.003154   0.528641   0.003920  -0.007921  -0.020780   0.006690
    15  H    0.009363   0.003920   0.515166  -0.000922   0.000698   0.000151
    16  H   -0.003723  -0.007921  -0.000922   0.425273  -0.001419  -0.033063
    17  H   -0.000213  -0.020780   0.000698  -0.001419   0.531120  -0.080674
    18  H    0.003464   0.006690   0.000151  -0.033063  -0.080674   0.570598
    19  H   -0.003886   0.004069  -0.002709  -0.000464  -0.000504   0.000467
    20  H    0.023706  -0.004994  -0.010593  -0.000030  -0.000339   0.000677
    21  H    0.007630   0.000196   0.006626  -0.000048   0.000174  -0.000096
    22  H   -0.008433   0.020329  -0.000284   0.001825  -0.002694  -0.009271
    23  H   -0.024487  -0.000498   0.013703   0.000420  -0.000796   0.001016
              19         20         21         22         23
     1  O    0.236084  -0.008799  -0.000741   0.001015  -0.000378
     2  O    0.004591   0.240562   0.004300   0.000714   0.004176
     3  O   -0.000214   0.002629   0.000618   0.237292  -0.001568
     4  O   -0.002994   0.000303   0.018957  -0.001096   0.243947
     5  O    0.000069  -0.000185  -0.047606   0.000138  -0.013613
     6  C    0.090160  -0.088810   0.020352   0.004487   0.095668
     7  C   -0.090340   0.103802  -0.120272  -0.025450   0.007120
     8  C   -0.038891  -0.027560  -0.014448   0.032497   0.051641
     9  C    0.054283   0.018256  -0.123351   0.026423  -0.000150
    10  C    0.014045   0.004486  -0.001226  -0.012633   0.005832
    11  C   -0.006329   0.020494   0.438282   0.001437  -0.115636
    12  H   -0.033336   0.001001  -0.000615  -0.025315  -0.025608
    13  H   -0.003886   0.023706   0.007630  -0.008433  -0.024487
    14  H    0.004069  -0.004994   0.000196   0.020329  -0.000498
    15  H   -0.002709  -0.010593   0.006626  -0.000284   0.013703
    16  H   -0.000464  -0.000030  -0.000048   0.001825   0.000420
    17  H   -0.000504  -0.000339   0.000174  -0.002694  -0.000796
    18  H    0.000467   0.000677  -0.000096  -0.009271   0.001016
    19  H    0.474094   0.003392  -0.000552   0.004679   0.001656
    20  H    0.003392   0.426817  -0.011347  -0.000197  -0.001695
    21  H   -0.000552  -0.011347   0.639896   0.000149  -0.005447
    22  H    0.004679  -0.000197   0.000149   0.481955  -0.000049
    23  H    0.001656  -0.001695  -0.005447  -0.000049   0.464026
 Mulliken charges:
               1
     1  O   -0.193136
     2  O   -0.153305
     3  O   -0.145997
     4  O   -0.174774
     5  O   -0.171571
     6  C   -0.480737
     7  C   -0.152457
     8  C   -0.350375
     9  C   -0.603799
    10  C   -0.712563
    11  C   -0.153751
    12  H    0.265821
    13  H    0.345730
    14  H    0.319274
    15  H    0.340440
    16  H    0.259496
    17  H    0.190464
    18  H    0.208407
    19  H    0.292631
    20  H    0.308427
    21  H    0.188570
    22  H    0.272482
    23  H    0.300721
 Sum of Mulliken charges =  -0.00000
 Mulliken charges with hydrogens summed into heavy atoms:
               1
     1  O    0.099495
     2  O    0.155121
     3  O    0.126485
     4  O    0.125948
     5  O   -0.171571
     6  C   -0.214915
     7  C    0.193274
     8  C   -0.031101
     9  C   -0.263359
    10  C   -0.054195
    11  C    0.034818
 Electronic spatial extent (au):  <R**2>=           2203.5669
 Charge=              0.0000 electrons
 Dipole moment (field-independent basis, Debye):
    X=             -3.8623    Y=              2.1078    Z=              0.1301  Tot=              4.4019
 Quadrupole moment (field-independent basis, Debye-Ang):
   XX=            -78.5610   YY=            -74.2893   ZZ=            -60.5074
   XY=             -7.0301   XZ=              6.6567   YZ=              1.3243
 Traceless Quadrupole moment (field-independent basis, Debye-Ang):
   XX=             -7.4417   YY=             -3.1701   ZZ=             10.6118
   XY=             -7.0301   XZ=              6.6567   YZ=              1.3243
 Octapole moment (field-independent basis, Debye-Ang**2):
  XXX=            -76.9679  YYY=             16.0072  ZZZ=            -10.4248  XYY=             -2.1470
  XXY=             16.4159  XXZ=             24.3311  XZZ=              2.2303  YZZ=             -2.5197
  YYZ=              3.8838  XYZ=              7.4369
 Hexadecapole moment (field-independent basis, Debye-Ang**3):
 XXXX=          -2367.9535 YYYY=           -391.9364 ZZZZ=           -256.5471 XXXY=              7.2520
 XXXZ=             68.6349 YYYX=            -40.7413 YYYZ=             12.5384 ZZZX=              8.9998
 ZZZY=              0.6024 XXYY=           -430.5404 XXZZ=           -385.6145 YYZZ=           -130.0933
 XXYZ=             -6.7490 YYXZ=             -7.6650 ZZXY=              3.0963
 N-N= 6.819856615428D+02 E-N=-2.798901710201D+03  KE= 6.093925944494D+02
 R6APFD:  NTU= -4 IXU= 1 FactS= 1.050
 Calling FoFJK, ICntrl=      2127 FMM=F ISym2X=0 I1Cent= 0 IOpClX= 0 NMat=1 NMatS=1 NMatT=0.
 ***** Axes restored to original set *****
 -------------------------------------------------------------------
 Center     Atomic                   Forces (Hartrees/Bohr)
 Number     Number              X              Y              Z
 -------------------------------------------------------------------
      1        8          -0.002278607   -0.003975734   -0.001806634
      2        8          -0.002607028   -0.005982389    0.003395724
      3        8          -0.011039725   -0.003800013   -0.006543735
      4        8           0.010873278    0.003937904   -0.001756700
      5        8           0.037943058   -0.002670450    0.025841418
      6        6           0.004894914   -0.013171433   -0.004499246
      7        6           0.016586994    0.000046984    0.024071147
      8        6           0.003022268    0.009745097   -0.006701413
      9        6          -0.006055742   -0.002394825   -0.025054836
     10        6           0.000021677   -0.006415033    0.002129380
     11        6          -0.037893112    0.007700502   -0.020939456
     12        1          -0.000775497   -0.000017430   -0.007361008
     13        1           0.001207275    0.002949068   -0.000130269
     14        1          -0.005011011    0.004466770   -0.000745286
     15        1           0.005396042   -0.004575005    0.001009673
     16        1          -0.002227279    0.001672309    0.001511181
     17        1           0.001214727   -0.001362099    0.001320014
     18        1          -0.001415181   -0.003279893   -0.002972300
     19        1          -0.010036798    0.009707425    0.006576992
     20        1           0.001437906    0.006150552   -0.008307421
     21        1           0.000079929    0.002857007    0.002472126
     22        1           0.002618732    0.006302637    0.009842007
     23        1          -0.005956823   -0.007891949    0.008648642
 -------------------------------------------------------------------
 Cartesian Forces:  Max     0.037943058 RMS     0.010254332

 GradGradGradGradGradGradGradGradGradGradGradGradGradGradGradGradGradGrad
 Berny optimization.
 FormGI is forming the generalized inverse of G from B-inverse, IUseBI=4.
 Internal  Forces:  Max     0.045679854 RMS     0.006776186
 Search for a local minimum.
 Step number   1 out of a maximum of  123
 All quantities printed in internal units (Hartrees-Bohrs-Radians)
 Mixed Optimization -- RFO/linear search
 Second derivative matrix not updated -- first step.
 ITU=  0
     Eigenvalues ---    0.00230   0.00230   0.00265   0.00470   0.00558
     Eigenvalues ---    0.00561   0.01300   0.01328   0.01364   0.01497
     Eigenvalues ---    0.03758   0.04110   0.04168   0.04638   0.04722
     Eigenvalues ---    0.04734   0.05013   0.05164   0.05437   0.05700
     Eigenvalues ---    0.07442   0.07507   0.07776   0.08032   0.16000
     Eigenvalues ---    0.16000   0.16000   0.16000   0.16000   0.16000
     Eigenvalues ---    0.16000   0.16000   0.16855   0.16969   0.17572
     Eigenvalues ---    0.17593   0.19817   0.19913   0.19951   0.20069
     Eigenvalues ---    0.22001   0.28120   0.28432   0.28709   0.30143
     Eigenvalues ---    0.30784   0.33278   0.33917   0.34064   0.34128
     Eigenvalues ---    0.34143   0.34163   0.34186   0.34386   0.41043
     Eigenvalues ---    0.41350   0.41748   0.43269   0.52844   0.52856
     Eigenvalues ---    0.52875   0.52964   0.92436
 RFO step:  Lambda=-1.94057827D-02 EMin= 2.30000000D-03
 Linear search not attempted -- first point.
 Iteration  1 RMS(Cart)=  0.08331286 RMS(Int)=  0.00265975
 Iteration  2 RMS(Cart)=  0.00348121 RMS(Int)=  0.00100209
 Iteration  3 RMS(Cart)=  0.00001288 RMS(Int)=  0.00100207
 Iteration  4 RMS(Cart)=  0.00000004 RMS(Int)=  0.00100207
 Variable       Old X    -DE/DX   Delta X   Delta X   Delta X     New X
                                 (Linear)    (Quad)   (Total)
    R1        2.70160  -0.00127   0.00000  -0.00296  -0.00296   2.69864
    R2        1.83687  -0.01527   0.00000  -0.02781  -0.02781   1.80906
    R3        2.69760  -0.00416   0.00000  -0.00961  -0.00961   2.68799
    R4        1.83800  -0.01012   0.00000  -0.01848  -0.01848   1.81952
    R5        2.69245  -0.00103   0.00000  -0.00235  -0.00235   2.69011
    R6        1.83789  -0.01186   0.00000  -0.02165  -0.02165   1.81624
    R7        2.67339  -0.00423   0.00000  -0.00935  -0.00935   2.66405
    R8        1.83771  -0.01195   0.00000  -0.02181  -0.02181   1.81590
    R9        2.31830  -0.04568   0.00000  -0.04840  -0.04840   2.26990
   R10        2.91878  -0.01655   0.00000  -0.05505  -0.05505   2.86373
   R11        2.91204  -0.00720   0.00000  -0.02369  -0.02369   2.88835
   R12        2.07470   0.00652   0.00000   0.01819   0.01819   2.09289
   R13        2.90613  -0.00192   0.00000  -0.00625  -0.00625   2.89988
   R14        2.07223   0.00199   0.00000   0.00552   0.00552   2.07774
   R15        2.87680   0.00334   0.00000   0.01042   0.01042   2.88721
   R16        2.07114   0.00123   0.00000   0.00342   0.00342   2.07456
   R17        2.86426   0.00527   0.00000   0.01612   0.01612   2.88038
   R18        2.07017   0.00381   0.00000   0.01054   0.01054   2.08070
   R19        2.07089  -0.00100   0.00000  -0.00278  -0.00278   2.06811
   R20        2.06684   0.00200   0.00000   0.00549   0.00549   2.07233
   R21        2.07055   0.00434   0.00000   0.01202   0.01202   2.08257
   R22        2.08566   0.00358   0.00000   0.01016   0.01016   2.09582
    A1        1.88185   0.00390   0.00000   0.02174   0.02174   1.90359
    A2        1.87803  -0.00146   0.00000  -0.00814  -0.00814   1.86989
    A3        1.88056   0.00133   0.00000   0.00739   0.00739   1.88795
    A4        1.88458   0.00180   0.00000   0.01001   0.01001   1.89459
    A5        1.91619  -0.01143   0.00000  -0.08007  -0.07859   1.83760
    A6        1.88224   0.01723   0.00000   0.07229   0.06626   1.94850
    A7        1.87173   0.00125   0.00000   0.05696   0.05557   1.92730
    A8        2.02681  -0.01323   0.00000  -0.08078  -0.08043   1.94638
    A9        1.87064   0.00705   0.00000   0.02774   0.02902   1.89965
   A10        1.89054  -0.00002   0.00000   0.01492   0.01286   1.90340
   A11        1.90657   0.00465   0.00000   0.02588   0.02633   1.93290
   A12        1.91006   0.00534   0.00000   0.02958   0.02999   1.94005
   A13        1.86853  -0.00347   0.00000  -0.01017  -0.01040   1.85813
   A14        1.96787  -0.01172   0.00000  -0.05420  -0.05432   1.91355
   A15        1.89653   0.00306   0.00000   0.00714   0.00673   1.90326
   A16        1.91162   0.00250   0.00000   0.00368   0.00333   1.91494
   A17        1.94514  -0.00414   0.00000  -0.02797  -0.02789   1.91725
   A18        1.88132   0.01000   0.00000   0.05834   0.05799   1.93931
   A19        1.87211  -0.00335   0.00000  -0.03016  -0.03216   1.83996
   A20        1.97192  -0.00656   0.00000  -0.02311  -0.02253   1.94938
   A21        1.91180   0.00088   0.00000  -0.01589  -0.01615   1.89565
   A22        1.87768   0.00360   0.00000   0.04119   0.04102   1.91870
   A23        1.94023   0.00318   0.00000   0.01929   0.01904   1.95926
   A24        1.90937   0.00641   0.00000   0.05057   0.05038   1.95976
   A25        1.89212  -0.00423   0.00000  -0.03788  -0.03860   1.85353
   A26        1.93026  -0.00725   0.00000  -0.02064  -0.02118   1.90909
   A27        1.93830  -0.00252   0.00000  -0.04263  -0.04260   1.89570
   A28        1.85100   0.00463   0.00000   0.03255   0.03225   1.88325
   A29        1.92617  -0.00405   0.00000  -0.02358  -0.02357   1.90260
   A30        1.95578   0.00198   0.00000   0.01001   0.01000   1.96578
   A31        1.93624  -0.00029   0.00000   0.00040   0.00039   1.93662
   A32        1.88489   0.00052   0.00000  -0.00088  -0.00086   1.88403
   A33        1.86018   0.00255   0.00000   0.01629   0.01629   1.87647
   A34        1.89731  -0.00063   0.00000  -0.00174  -0.00176   1.89554
   A35        2.16758  -0.00677   0.00000  -0.02770  -0.02939   2.13819
   A36        2.09775   0.00305   0.00000   0.01315   0.01145   2.10920
   A37        2.01751   0.00378   0.00000   0.01719   0.01549   2.03300
    D1        2.73409   0.00469   0.00000   0.02821   0.02869   2.76278
    D2       -1.32540  -0.00773   0.00000  -0.07767  -0.08023  -1.40563
    D3        0.70730   0.00162   0.00000   0.00567   0.00774   0.71505
    D4       -1.05351   0.00548   0.00000   0.05910   0.05877  -0.99474
    D5        1.10868  -0.00257   0.00000   0.02799   0.02830   1.13698
    D6       -3.10412   0.00133   0.00000   0.04262   0.04264  -3.06148
    D7       -1.02486  -0.00067   0.00000  -0.04185  -0.04116  -1.06603
    D8        1.14836  -0.00469   0.00000  -0.04874  -0.04843   1.09993
    D9       -3.11737   0.00279   0.00000   0.01299   0.01200  -3.10537
   D10       -0.94430  -0.00355   0.00000  -0.12002  -0.12040  -1.06470
   D11        1.19252  -0.00621   0.00000  -0.09874  -0.09773   1.09479
   D12       -3.07955   0.00039   0.00000  -0.05379  -0.05441  -3.13396
   D13        1.15731   0.00111   0.00000  -0.06959  -0.06766   1.08965
   D14       -0.97039  -0.00113   0.00000  -0.08931  -0.08709  -1.05748
   D15       -3.09299   0.00123   0.00000  -0.06349  -0.06142   3.12878
   D16       -0.98299  -0.00285   0.00000  -0.04135  -0.04352  -1.02651
   D17       -3.11070  -0.00509   0.00000  -0.06107  -0.06295   3.10954
   D18        1.04990  -0.00272   0.00000  -0.03525  -0.03728   1.01262
   D19       -3.09840   0.00053   0.00000  -0.02856  -0.02875  -3.12714
   D20        1.05708  -0.00171   0.00000  -0.04828  -0.04817   1.00891
   D21       -1.06551   0.00066   0.00000  -0.02246  -0.02251  -1.08802
   D22        3.06778   0.01083   0.00000   0.10604   0.10733  -3.10807
   D23        0.94636   0.00558   0.00000   0.06731   0.06866   1.01503
   D24       -1.14651   0.00469   0.00000   0.04122   0.04257  -1.10393
   D25       -1.05738   0.00013   0.00000   0.00062  -0.00040  -1.05778
   D26        3.10439  -0.00512   0.00000  -0.03811  -0.03907   3.06532
   D27        1.01152  -0.00601   0.00000  -0.06420  -0.06516   0.94636
   D28        1.04739   0.00036   0.00000  -0.00633  -0.00673   1.04066
   D29       -1.07403  -0.00489   0.00000  -0.04506  -0.04540  -1.11943
   D30        3.11628  -0.00578   0.00000  -0.07116  -0.07149   3.04479
   D31        3.12232   0.00290   0.00000   0.03758   0.03764  -3.12322
   D32        0.99763  -0.00243   0.00000  -0.02562  -0.02518   0.97245
   D33       -1.05257  -0.00203   0.00000  -0.02640  -0.02643  -1.07900
   D34       -1.03513   0.00472   0.00000   0.05511   0.05481  -0.98032
   D35        3.12336  -0.00061   0.00000  -0.00808  -0.00801   3.11535
   D36        1.07316  -0.00021   0.00000  -0.00887  -0.00926   1.06390
   D37        1.07889   0.00256   0.00000   0.03062   0.03058   1.10947
   D38       -1.04580  -0.00277   0.00000  -0.03258  -0.03225  -1.07805
   D39       -3.09600  -0.00237   0.00000  -0.03336  -0.03349  -3.12949
   D40        0.89056   0.00208   0.00000   0.00815   0.00872   0.89928
   D41        2.99184   0.00128   0.00000  -0.00249  -0.00193   2.98991
   D42       -1.16716   0.00165   0.00000   0.00256   0.00314  -1.16402
   D43        3.04760  -0.00035   0.00000  -0.00078  -0.00073   3.04687
   D44       -1.13431  -0.00115   0.00000  -0.01142  -0.01138  -1.14569
   D45        0.98988  -0.00078   0.00000  -0.00637  -0.00631   0.98357
   D46       -1.12324  -0.00088   0.00000  -0.00690  -0.00751  -1.13075
   D47        0.97804  -0.00168   0.00000  -0.01754  -0.01817   0.95987
   D48        3.10223  -0.00131   0.00000  -0.01248  -0.01310   3.08913
   D49       -0.04302  -0.00292   0.00000  -0.09505  -0.09462  -0.13764
   D50        3.07026  -0.00023   0.00000   0.01299   0.01335   3.08361
   D51        2.09975   0.00061   0.00000  -0.05040  -0.05015   2.04959
   D52       -1.07016   0.00330   0.00000   0.05765   0.05781  -1.01235
   D53       -2.08031  -0.00365   0.00000  -0.09347  -0.09403  -2.17434
   D54        1.03297  -0.00096   0.00000   0.01457   0.01394   1.04690
         Item               Value     Threshold  Converged?
 Maximum Force            0.045680     0.000450     NO 
 RMS     Force            0.006776     0.000300     NO 
 Maximum Displacement     0.283176     0.001800     NO 
 RMS     Displacement     0.083526     0.001200     NO 
 Predicted change in Energy=-1.165219D-02
 GradGradGradGradGradGradGradGradGradGradGradGradGradGradGradGradGradGrad

                          Input orientation:                          
 ---------------------------------------------------------------------
 Center     Atomic      Atomic             Coordinates (Angstroms)
 Number     Number       Type             X           Y           Z
 ---------------------------------------------------------------------
      1          8           0        0.973208   -1.406542    1.012860
      2          8           0       -0.171019    1.097077    1.378245
      3          8           0        2.219546    1.333431   -1.106233
      4          8           0       -1.584222   -1.214002   -1.121939
      5          8           0       -3.594166    0.517407   -0.500557
      6          6           0        0.988513   -0.463529   -0.059449
      7          6           0       -0.244722    0.393270    0.144348
      8          6           0        2.263953    0.378696   -0.051254
      9          6           0       -1.500191   -0.487000    0.082971
     10          6           0        3.515951   -0.491531   -0.148840
     11          6           0       -2.734175    0.374181    0.325721
     12          1           0        0.905306   -0.984280   -1.033345
     13          1           0       -0.286968    1.155385   -0.647034
     14          1           0        2.288877    0.967817    0.874762
     15          1           0       -1.445126   -1.234497    0.889539
     16          1           0        4.394003    0.155724   -0.237111
     17          1           0        3.654813   -1.131269    0.730963
     18          1           0        3.483161   -1.130203   -1.046358
     19          1           0        1.503450   -2.165521    0.769455
     20          1           0       -0.060103    0.440147    2.073384
     21          1           0       -2.766817    0.932833    1.283247
     22          1           0        2.163507    0.857288   -1.939229
     23          1           0       -1.627178   -0.591183   -1.852448
 ---------------------------------------------------------------------
                    Distance matrix (angstroms):
                    1          2          3          4          5
     1  O    0.000000
     2  O    2.776846   0.000000
     3  O    3.681218   3.455908   0.000000
     4  O    3.336898   3.686347   4.578026   0.000000
     5  O    5.181980   3.947638   5.901863   2.724659   0.000000
     6  C    1.428059   2.418051   2.416665   2.882891   4.707202
     7  C    2.340297   1.422421   2.918985   2.445622   3.413222
     8  C    2.446515   2.913526   1.423542   4.300175   5.876961
     9  C    2.797848   2.440028   4.308668   1.409752   2.394592
    10  C    2.941485   4.295279   2.434698   5.242199   7.189953
    11  C    4.169871   2.863591   5.244998   2.437302   1.201180
    12  H    2.090424   3.362483   2.665394   2.501674   4.773277
    13  H    3.302539   2.029434   2.554442   2.742700   3.371354
    14  H    2.718021   2.514219   2.015645   4.873197   6.058430
    15  H    2.427581   2.701559   4.899713   2.016386   3.101597
    16  H    3.962946   4.933047   2.621189   6.196632   8.000691
    17  H    2.710395   4.474538   3.392643   5.557659   7.535414
    18  H    3.258313   4.918589   2.769441   5.068639   7.287048
    19  H    0.957315   3.717395   4.034064   3.743858   5.898874
    20  H    2.367003   0.962848   4.013068   3.907588   4.372727
    21  H    4.419680   2.602723   5.543817   3.434000   2.009736
    22  H    3.905966   4.063637   0.961111   4.359321   5.944417
    23  H    3.954341   3.925303   4.365578   0.960933   2.631658
                    6          7          8          9         10
     6  C    0.000000
     7  C    1.515422   0.000000
     8  C    1.528450   2.516331   0.000000
     9  C    2.492886   1.534551   3.864742   0.000000
    10  C    2.529174   3.874467   1.527847   5.021498   0.000000
    11  C    3.835169   2.496125   5.012326   1.524230   6.327617
    12  H    1.107510   2.146431   2.160585   2.698122   2.800111
    13  H    2.143126   1.099495   2.732288   2.168467   4.174053
    14  H    2.147662   2.698654   1.097812   4.135271   2.164063
    15  H    2.723521   2.155436   4.152680   1.101061   5.122745
    16  H    3.465891   4.660441   2.149737   5.937766   1.094398
    17  H    2.860032   4.227849   2.196895   5.235364   1.096631
    18  H    2.764365   4.199507   2.180247   5.150038   1.102051
    19  H    1.961892   3.161372   2.779383   3.508639   2.774107
    20  H    2.542676   1.938417   3.149460   2.625871   4.312130
    21  H    4.225537   2.819430   5.234177   2.249651   6.599459
    22  H    2.580454   3.218101   1.950279   4.395348   2.617998
    23  H    3.173796   2.620597   4.396120   1.942377   5.418855
                   11         12         13         14         15
    11  C    0.000000
    12  H    4.115616   0.000000
    13  H    2.746881   2.479701   0.000000
    14  H    5.087721   3.060364   2.997670   0.000000
    15  H    2.137144   3.047068   3.068212   4.335111   0.000000
    16  H    7.153700   3.755610   4.804045   2.515415   6.107167
    17  H    6.576455   3.270195   4.760808   2.508509   5.103448
    18  H    6.542251   2.582015   4.426878   3.085240   5.295903
    19  H    4.960288   2.236782   4.029945   3.231996   3.094402
    20  H    3.195206   3.551446   2.822004   2.689393   2.474715
    21  H    1.109059   4.746199   3.150423   5.072290   2.568890
    22  H    5.417627   2.407295   2.786298   2.818950   5.039814
    23  H    2.627126   2.690526   2.509918   5.020324   2.822320
                   16         17         18         19         20
    16  H    0.000000
    17  H    1.771982   0.000000
    18  H    1.771475   1.785591   0.000000
    19  H    3.841439   2.387367   2.878944   0.000000
    20  H    5.025767   4.251122   4.975290   3.306726   0.000000
    21  H    7.361571   6.767781   6.981791   5.300845   2.862404
    22  H    2.892146   3.648051   2.547318   4.112180   4.606464
    23  H    6.278679   5.904671   5.201528   4.376499   4.351037
                   21         22         23
    21  H    0.000000
    22  H    5.890514   0.000000
    23  H    3.667967   4.058928   0.000000
 Stoichiometry    C6H12O5
 Framework group  C1[X(C6H12O5)]
 Deg. of freedom    63
 Full point group                 C1      NOp   1
 Largest Abelian subgroup         C1      NOp   1
 Largest concise Abelian subgroup C1      NOp   1
                         Standard orientation:                         
 ---------------------------------------------------------------------
 Center     Atomic      Atomic             Coordinates (Angstroms)
 Number     Number       Type             X           Y           Z
 ---------------------------------------------------------------------
      1          8           0       -0.895865    1.447262    0.914815
      2          8           0        0.294510   -0.998297    1.474387
      3          8           0       -2.099670   -1.475624   -0.971705
      4          8           0        1.657496    1.129243   -1.209827
      5          8           0        3.700376   -0.510847   -0.461153
      6          6           0       -0.897742    0.421081   -0.078312
      7          6           0        0.351406   -0.394631    0.187674
      8          6           0       -2.157762   -0.440207    0.003493
      9          6           0        1.590595    0.499950    0.049903
     10          6           0       -3.425559    0.397082   -0.157613
     11          6           0        2.840701   -0.316988    0.355064
     12          1           0       -0.827179    0.863352   -1.091226
     13          1           0        0.404744   -1.216954   -0.540219
     14          1           0       -2.168980   -0.953430    0.973889
     15          1           0        1.524753    1.308698    0.794166
     16          1           0       -4.292092   -0.270608   -0.189495
     17          1           0       -3.572996    1.102832    0.668692
     18          1           0       -3.407274    0.962116   -1.103615
     19          1           0       -1.440507    2.174747    0.613845
     20          1           0        0.174088   -0.289744    2.115112
     21          1           0        2.886595   -0.796297    1.354148
     22          1           0       -2.054996   -1.066978   -1.840467
     23          1           0        1.709236    0.450643   -1.888220
 ---------------------------------------------------------------------
 Rotational constants (GHZ):           2.0540986           0.5864269           0.5703818
 Standard basis: 6-311++G(d,p) (5D, 7F)
 There are   337 symmetry adapted cartesian basis functions of A   symmetry.
 There are   326 symmetry adapted basis functions of A   symmetry.
   326 basis functions,   504 primitive gaussians,   337 cartesian basis functions
    44 alpha electrons       44 beta electrons
       nuclear repulsion energy       689.9004591088 Hartrees.
 NAtoms=   23 NActive=   23 NUniq=   23 SFac= 1.00D+00 NAtFMM=   60 NAOKFM=F Big=F
 Integral buffers will be    131072 words long.
 Raffenetti 2 integral format.
 Two-electron integral symmetry is turned on.
 R6APFD:  NTU= -4 IXU= 1 FactS= 1.050
 Nuclear repulsion after empirical dispersion term =      689.8782855137 Hartrees.
 One-electron integrals computed using PRISM.
 NBasis=   326 RedAO= T EigKep=  3.60D-06  NBF=   326
 NBsUse=   326 1.00D-06 EigRej= -1.00D+00 NBFU=   326
 Initial guess from the checkpoint file:  "DRHE0104.chk"
 B after Tr=    -0.000000    0.000000   -0.000000
         Rot=    0.999054    0.043471    0.000943   -0.001129 Ang=   4.99 deg.
 ExpMin= 3.60D-02 ExpMax= 8.59D+03 ExpMxC= 1.30D+03 IAcc=3 IRadAn=         5 AccDes= 0.00D+00
 Harris functional with IExCor= 1009 and IRadAn=       5 diagonalized for initial guess.
 HarFok:  IExCor= 1009 AccDes= 0.00D+00 IRadAn=         5 IDoV= 1 UseB2=F ITyADJ=14
 ICtDFT=  3500011 ScaDFX=  1.000000  1.000000  1.000000  1.000000
 FoFCou: FMM=F IPFlag=           0 FMFlag=      100000 FMFlg1=           0
         NFxFlg=           0 DoJE=T BraDBF=F KetDBF=T FulRan=T
         wScrn=  0.000000 ICntrl=       500 IOpCl=  0 I1Cent=   200000004 NGrid=           0
         NMat0=    1 NMatS0=      1 NMatT0=    0 NMatD0=    1 NMtDS0=    0 NMtDT0=    0
 Petite list used in FoFCou.
 Requested convergence on RMS density matrix=1.00D-08 within  32 cycles.
 Requested convergence on MAX density matrix=1.00D-06.
 Requested convergence on             energy=1.00D-06.
 No special actions if energy rises.
 SCF Done:  E(RM08HX) =  -611.952949010     A.U. after   14 cycles
            NFock= 14  Conv=0.55D-08     -V/T= 2.0038
 QCSCF skips out because SCF is already converged.
 R6APFD:  NTU= -4 IXU= 1 FactS= 1.050
 Calling FoFJK, ICntrl=      2127 FMM=F ISym2X=0 I1Cent= 0 IOpClX= 0 NMat=1 NMatS=1 NMatT=0.
 ***** Axes restored to original set *****
 -------------------------------------------------------------------
 Center     Atomic                   Forces (Hartrees/Bohr)
 Number     Number              X              Y              Z
 -------------------------------------------------------------------
      1        8           0.002752007    0.002560868   -0.003532011
      2        8          -0.003615077   -0.004004595   -0.003025025
      3        8          -0.002735867   -0.002185251    0.000345977
      4        8           0.005685112    0.003176455    0.003591872
      5        8           0.002750017   -0.001613995    0.001800598
      6        6           0.002099960   -0.006746751    0.000501819
      7        6           0.000248597    0.006172007    0.004534397
      8        6           0.005314324    0.001252317   -0.000035936
      9        6          -0.009143108   -0.005108443   -0.001875214
     10        6           0.000618319    0.000588876   -0.001503759
     11        6          -0.001585346    0.005740055   -0.007685109
     12        1          -0.000494693   -0.000101494    0.001196887
     13        1           0.000209868    0.001254260    0.000829857
     14        1          -0.000667525    0.000194644   -0.000412014
     15        1           0.001454733    0.000258200    0.000386737
     16        1           0.000999832   -0.000159918    0.000339489
     17        1          -0.001417008    0.000476997    0.000159198
     18        1          -0.000852698   -0.000005189    0.000580101
     19        1          -0.000064598   -0.000641684    0.001859637
     20        1           0.001828928    0.000080427    0.000178736
     21        1           0.000319772   -0.001993163    0.002246897
     22        1           0.001738051    0.000805958   -0.000374953
     23        1          -0.005443599   -0.000000581   -0.000108183
 -------------------------------------------------------------------
 Cartesian Forces:  Max     0.009143108 RMS     0.002840380

 GradGradGradGradGradGradGradGradGradGradGradGradGradGradGradGradGradGrad
 Berny optimization.
 Using GEDIIS/GDIIS optimizer.
 FormGI is forming the generalized inverse of G from B-inverse, IUseBI=4.
 Internal  Forces:  Max     0.008292514 RMS     0.001637702
 Search for a local minimum.
 Step number   2 out of a maximum of  123
 All quantities printed in internal units (Hartrees-Bohrs-Radians)
 Mixed Optimization -- RFO/linear search
 Update second derivatives using D2CorX and points    1    2
 DE= -1.04D-02 DEPred=-1.17D-02 R= 8.90D-01
 TightC=F SS=  1.41D+00  RLast= 4.36D-01 DXNew= 5.0454D-01 1.3066D+00
 Trust test= 8.90D-01 RLast= 4.36D-01 DXMaxT set to 5.05D-01
 ITU=  1  0
 Use linear search instead of GDIIS.
     Eigenvalues ---    0.00227   0.00231   0.00265   0.00471   0.00556
     Eigenvalues ---    0.00611   0.01301   0.01319   0.01356   0.01440
     Eigenvalues ---    0.04199   0.04352   0.04375   0.04730   0.04740
     Eigenvalues ---    0.04793   0.05208   0.05389   0.05473   0.05807
     Eigenvalues ---    0.07041   0.07195   0.07481   0.07684   0.15583
     Eigenvalues ---    0.16000   0.16000   0.16000   0.16000   0.16000
     Eigenvalues ---    0.16000   0.16018   0.16411   0.16752   0.17091
     Eigenvalues ---    0.17875   0.19674   0.19978   0.20412   0.21137
     Eigenvalues ---    0.21923   0.28380   0.28576   0.30044   0.30594
     Eigenvalues ---    0.31414   0.33237   0.34013   0.34056   0.34130
     Eigenvalues ---    0.34141   0.34176   0.34282   0.34426   0.41054
     Eigenvalues ---    0.41258   0.41743   0.43161   0.52749   0.52852
     Eigenvalues ---    0.52899   0.52933   0.89359
 RFO step:  Lambda=-5.23598918D-03 EMin= 2.26574700D-03
 Quartic linear search produced a step of  0.04117.
 Iteration  1 RMS(Cart)=  0.10788564 RMS(Int)=  0.00503740
 Iteration  2 RMS(Cart)=  0.00589753 RMS(Int)=  0.00059766
 Iteration  3 RMS(Cart)=  0.00002670 RMS(Int)=  0.00059736
 Iteration  4 RMS(Cart)=  0.00000002 RMS(Int)=  0.00059736
 Variable       Old X    -DE/DX   Delta X   Delta X   Delta X     New X
                                 (Linear)    (Quad)   (Total)
    R1        2.69864  -0.00255  -0.00012  -0.00658  -0.00670   2.69194
    R2        1.80906  -0.00000  -0.00114  -0.00382  -0.00497   1.80410
    R3        2.68799  -0.00450  -0.00040  -0.01214  -0.01254   2.67545
    R4        1.81952   0.00028  -0.00076  -0.00200  -0.00277   1.81675
    R5        2.69011  -0.00087  -0.00010  -0.00240  -0.00250   2.68761
    R6        1.81624  -0.00017  -0.00089  -0.00330  -0.00419   1.81204
    R7        2.66405  -0.00463  -0.00038  -0.01192  -0.01231   2.65174
    R8        1.81590   0.00032  -0.00090  -0.00238  -0.00328   1.81262
    R9        2.26990  -0.00340  -0.00199  -0.01038  -0.01237   2.25753
   R10        2.86373   0.00829  -0.00227   0.02170   0.01943   2.88316
   R11        2.88835   0.00303  -0.00098   0.00732   0.00634   2.89469
   R12        2.09289  -0.00097   0.00075  -0.00035   0.00040   2.09329
   R13        2.89988   0.00468  -0.00026   0.01527   0.01501   2.91489
   R14        2.07774   0.00026   0.00023   0.00152   0.00175   2.07949
   R15        2.88721  -0.00102   0.00043  -0.00193  -0.00150   2.88571
   R16        2.07456  -0.00026   0.00014  -0.00029  -0.00015   2.07442
   R17        2.88038  -0.00057   0.00066   0.00034   0.00100   2.88138
   R18        2.08070   0.00018   0.00043   0.00196   0.00239   2.08310
   R19        2.06811   0.00068  -0.00011   0.00160   0.00148   2.06959
   R20        2.07233  -0.00033   0.00023  -0.00020   0.00003   2.07236
   R21        2.08257  -0.00044   0.00049   0.00035   0.00084   2.08342
   R22        2.09582   0.00093   0.00042   0.00414   0.00456   2.10038
    A1        1.90359   0.00349   0.00089   0.02413   0.02502   1.92861
    A2        1.86989   0.00039  -0.00033   0.00132   0.00099   1.87088
    A3        1.88795   0.00156   0.00030   0.01050   0.01080   1.89876
    A4        1.89459   0.00060   0.00041   0.00499   0.00541   1.90000
    A5        1.83760   0.00050  -0.00324  -0.00790  -0.01114   1.82646
    A6        1.94850  -0.00117   0.00273  -0.00104   0.00127   1.94977
    A7        1.92730   0.00047   0.00229   0.01183   0.01408   1.94138
    A8        1.94638   0.00028  -0.00331  -0.01039  -0.01374   1.93264
    A9        1.89965   0.00010   0.00119   0.00925   0.01051   1.91017
   A10        1.90340  -0.00013   0.00053  -0.00137  -0.00090   1.90250
   A11        1.93290  -0.00099   0.00108   0.00026   0.00137   1.93427
   A12        1.94005  -0.00168   0.00123  -0.00613  -0.00491   1.93514
   A13        1.85813   0.00085  -0.00043  -0.00180  -0.00229   1.85584
   A14        1.91355   0.00334  -0.00224   0.01061   0.00837   1.92193
   A15        1.90326  -0.00028   0.00028   0.00636   0.00665   1.90991
   A16        1.91494  -0.00135   0.00014  -0.00965  -0.00957   1.90537
   A17        1.91725  -0.00043  -0.00115  -0.00759  -0.00871   1.90854
   A18        1.93931   0.00074   0.00239   0.01248   0.01480   1.95411
   A19        1.83996  -0.00004  -0.00132  -0.00246  -0.00405   1.83590
   A20        1.94938  -0.00047  -0.00093  -0.00623  -0.00708   1.94230
   A21        1.89565  -0.00024  -0.00066  -0.00734  -0.00801   1.88764
   A22        1.91870   0.00045   0.00169   0.01101   0.01263   1.93133
   A23        1.95926   0.00131   0.00078   0.00280   0.00353   1.96280
   A24        1.95976  -0.00179   0.00207  -0.00717  -0.00514   1.95462
   A25        1.85353   0.00036  -0.00159   0.00173   0.00004   1.85357
   A26        1.90909  -0.00039  -0.00087  -0.00848  -0.00935   1.89973
   A27        1.89570  -0.00166  -0.00175  -0.01723  -0.01891   1.87679
   A28        1.88325   0.00222   0.00133   0.02950   0.03079   1.91404
   A29        1.90260   0.00173  -0.00097   0.01091   0.00995   1.91255
   A30        1.96578  -0.00232   0.00041  -0.01584  -0.01548   1.95030
   A31        1.93662  -0.00068   0.00002  -0.00465  -0.00472   1.93191
   A32        1.88403   0.00030  -0.00004   0.00250   0.00251   1.88654
   A33        1.87647   0.00021   0.00067   0.00949   0.01015   1.88662
   A34        1.89554   0.00089  -0.00007  -0.00109  -0.00130   1.89425
   A35        2.13819  -0.00068  -0.00121  -0.00434  -0.00918   2.12901
   A36        2.10920   0.00209   0.00047   0.01780   0.01463   2.12383
   A37        2.03300  -0.00129   0.00064  -0.00225  -0.00525   2.02775
    D1        2.76278   0.00045   0.00118   0.02185   0.02304   2.78582
    D2       -1.40563   0.00044  -0.00330   0.00370   0.00027  -1.40536
    D3        0.71505  -0.00020   0.00032   0.00947   0.00991   0.72495
    D4       -0.99474   0.00012   0.00242   0.05910   0.06151  -0.93322
    D5        1.13698   0.00253   0.00116   0.06858   0.06975   1.20673
    D6       -3.06148   0.00049   0.00176   0.05240   0.05415  -3.00733
    D7       -1.06603  -0.00104  -0.00169  -0.05841  -0.06003  -1.12606
    D8        1.09993  -0.00144  -0.00199  -0.06306  -0.06504   1.03489
    D9       -3.10537  -0.00053   0.00049  -0.04474  -0.04433   3.13348
   D10       -1.06470  -0.00317  -0.00496  -0.16346  -0.16842  -1.23312
   D11        1.09479  -0.00405  -0.00402  -0.17802  -0.18200   0.91279
   D12       -3.13396  -0.00212  -0.00224  -0.14517  -0.14746   3.00176
   D13        1.08965  -0.00201  -0.00279  -0.16022  -0.16287   0.92679
   D14       -1.05748  -0.00151  -0.00358  -0.15991  -0.16334  -1.22082
   D15        3.12878  -0.00172  -0.00253  -0.15845  -0.16085   2.96793
   D16       -1.02651  -0.00106  -0.00179  -0.14820  -0.15014  -1.17665
   D17        3.10954  -0.00056  -0.00259  -0.14789  -0.15062   2.95893
   D18        1.01262  -0.00077  -0.00153  -0.14643  -0.14812   0.86449
   D19       -3.12714  -0.00114  -0.00118  -0.14607  -0.14724   3.00880
   D20        1.00891  -0.00064  -0.00198  -0.14576  -0.14772   0.86119
   D21       -1.08802  -0.00084  -0.00093  -0.14429  -0.14522  -1.23324
   D22       -3.10807  -0.00024   0.00442  -0.03460  -0.03014  -3.13821
   D23        1.01503  -0.00055   0.00283  -0.04081  -0.03793   0.97709
   D24       -1.10393  -0.00065   0.00175  -0.04568  -0.04387  -1.14781
   D25       -1.05778  -0.00019  -0.00002  -0.05199  -0.05206  -1.10984
   D26        3.06532  -0.00050  -0.00161  -0.05820  -0.05985   3.00547
   D27        0.94636  -0.00061  -0.00268  -0.06306  -0.06579   0.88057
   D28        1.04066   0.00002  -0.00028  -0.04791  -0.04819   0.99247
   D29       -1.11943  -0.00029  -0.00187  -0.05412  -0.05598  -1.17542
   D30        3.04479  -0.00039  -0.00294  -0.05898  -0.06192   2.98287
   D31       -3.12322  -0.00080   0.00155  -0.00021   0.00136  -3.12186
   D32        0.97245   0.00087  -0.00104   0.01345   0.01247   0.98492
   D33       -1.07900  -0.00062  -0.00109  -0.00732  -0.00840  -1.08740
   D34       -0.98032  -0.00088   0.00226   0.00331   0.00556  -0.97476
   D35        3.11535   0.00079  -0.00033   0.01697   0.01667   3.13202
   D36        1.06390  -0.00071  -0.00038  -0.00380  -0.00420   1.05970
   D37        1.10947   0.00001   0.00126   0.01173   0.01295   1.12242
   D38       -1.07805   0.00167  -0.00133   0.02539   0.02406  -1.05399
   D39       -3.12949   0.00018  -0.00138   0.00461   0.00318  -3.12631
   D40        0.89928   0.00064   0.00036   0.01184   0.01229   0.91157
   D41        2.98991   0.00071  -0.00008   0.01231   0.01226   3.00217
   D42       -1.16402  -0.00029   0.00013  -0.00379  -0.00355  -1.16757
   D43        3.04687   0.00028  -0.00003   0.00659   0.00659   3.05346
   D44       -1.14569   0.00035  -0.00047   0.00706   0.00655  -1.13913
   D45        0.98357  -0.00064  -0.00026  -0.00903  -0.00926   0.97432
   D46       -1.13075  -0.00003  -0.00031   0.00070   0.00033  -1.13043
   D47        0.95987   0.00005  -0.00075   0.00117   0.00029   0.96017
   D48        3.08913  -0.00095  -0.00054  -0.01492  -0.01552   3.07362
   D49       -0.13764   0.00057  -0.00390   0.03656   0.03261  -0.10503
   D50        3.08361  -0.00121   0.00055  -0.12388  -0.12323   2.96038
   D51        2.04959   0.00069  -0.00206   0.02866   0.02659   2.07618
   D52       -1.01235  -0.00109   0.00238  -0.13178  -0.12925  -1.14160
   D53       -2.17434  -0.00024  -0.00387   0.02020   0.01615  -2.15819
   D54        1.04690  -0.00202   0.00057  -0.14025  -0.13969   0.90721
         Item               Value     Threshold  Converged?
 Maximum Force            0.008293     0.000450     NO 
 RMS     Force            0.001638     0.000300     NO 
 Maximum Displacement     0.310683     0.001800     NO 
 RMS     Displacement     0.107236     0.001200     NO 
 Predicted change in Energy=-3.707110D-03
 GradGradGradGradGradGradGradGradGradGradGradGradGradGradGradGradGradGrad

                          Input orientation:                          
 ---------------------------------------------------------------------
 Center     Atomic      Atomic             Coordinates (Angstroms)
 Number     Number       Type             X           Y           Z
 ---------------------------------------------------------------------
      1          8           0        1.049157   -1.357387    1.100172
      2          8           0       -0.196063    0.980475    1.491440
      3          8           0        2.164454    1.246081   -1.241464
      4          8           0       -1.567061   -1.099416   -1.215705
      5          8           0       -3.549819    0.612073   -0.555947
      6          6           0        1.005368   -0.480682   -0.021748
[...]
 41338,0.00080765,0.00065486,0.01273488,0.02580744,-0.00023988,0.000107
 03,0.00008125,-0.00001568,0.00004757,0.00007423,-0.00290941,-0.0113171
 1,-0.01666128,0.00086372,-0.00015652,-0.00092814,-0.00441997,-0.149335
 50,-0.13303566,0.00003194,-0.00019499,-0.00034762,0.00027231,-0.010826
 78,-0.01314705,0.00002827,-0.00001847,-0.00005194,-0.00250599,-0.00124
 429,0.00087988,-0.00031314,0.00002436,0.00008715,0.00319524,0.16032755
 ,-0.00069062,-0.00133066,0.00116417,0.00134849,0.00035748,0.00016185,-
 0.00086449,-0.01031226,-0.03459375,-0.00003252,-0.00001059,0.00004836,
 -0.00002229,0.00003031,0.00001616,-0.00153272,-0.00004616,0.00130348,0
 .00007979,-0.00107254,-0.00060044,-0.00431100,-0.12117461,-0.20287617,
 -0.00015625,0.00011602,-0.00006484,0.00045214,-0.00068349,0.00160518,0
 .00001825,-0.00008292,-0.00004035,0.00062681,0.00069625,0.00050540,-0.
 00005765,-0.00011088,-0.00015840,0.00605223,0.12937831,0.23509768,-0.0
 0059916,0.00098039,-0.00048598,0.00136890,0.00318122,0.00065019,-0.000
 39690,0.00039436,-0.00028982,0.00312527,0.00159352,0.00118781,-0.00532
 647,-0.00097789,0.00173391,0.00173308,-0.00065032,0.00107560,-0.002543
 24,-0.02831786,0.01843594,0.00015551,-0.00069213,0.00031247,-0.0431572
 5,0.00419809,-0.00123909,0.00012113,0.00015526,0.00003095,0.00224099,0
 .02028390,-0.02068234,-0.00001910,0.00027910,-0.00003693,-0.00446277,-
 0.00225022,-0.00129471,0.00009274,0.00003567,0.00003229,0.05024270,0.0
 0111056,0.00036717,-0.00051797,0.00146985,0.00196620,-0.00056996,-0.00
 034014,0.00012255,-0.00007324,-0.00081692,0.01540147,-0.01576177,0.002
 82812,-0.00008504,-0.00123823,0.00132777,-0.00042031,0.00039896,-0.004
 33253,-0.01652363,0.01284824,0.00015532,-0.00029296,0.00024922,0.00034
 940,-0.18467458,0.12277288,0.00002863,0.00007645,-0.00003445,-0.003186
 63,-0.01228285,0.01454969,-0.00014232,0.00000512,0.00002426,-0.0027074
 4,-0.00042317,-0.00120035,0.00000925,-0.00002400,0.00000134,0.00391882
 ,0.19683753,-0.00118820,-0.00068725,0.00021442,0.00037942,-0.00052068,
 0.00225315,0.00010372,0.00000657,0.00006023,-0.00438836,0.00976455,-0.
 03492083,0.00262753,0.00082038,0.00124072,-0.00004582,0.00120644,-0.00
 052101,-0.00032923,-0.00047037,0.00069350,-0.00001010,-0.00008444,-0.0
 0003237,0.00499019,0.11553896,-0.14472419,0.00001447,0.00000768,0.0000
 0679,-0.00395362,-0.00060897,0.00360470,-0.00025177,0.00010334,0.00001
 798,-0.00066604,-0.00049455,-0.00001380,0.00003198,0.00001165,0.000025
 46,-0.00011366,-0.12703299,0.17636476,0.00082389,0.00001776,-0.0002069
 9,0.00001463,0.00020216,0.00036363,0.00400269,-0.00074578,-0.00001161,
 -0.00004842,-0.00003250,-0.00015655,-0.00026436,0.00017845,-0.00018265
 ,-0.00334521,0.00565220,0.00047244,-0.00082673,-0.00176339,-0.00030403
 ,-0.02382776,-0.01791115,0.00403669,-0.00056474,0.00060793,0.00033744,
 -0.21748292,-0.12713142,0.02962804,0.00023353,-0.00043682,0.00000155,0
 .00027618,0.00007107,-0.00005197,-0.00000098,0.00000514,-0.00004813,0.
 00066420,0.00017222,0.00023859,0.00005164,0.00001098,0.00001185,0.2374
 0214,-0.00093297,0.00033357,-0.00021623,-0.00016354,0.00002063,-0.0000
 5360,-0.00164145,0.00154621,-0.00127469,-0.00006797,0.00001899,0.00002
 714,0.00005597,-0.00006821,0.00006022,0.00291700,-0.00346321,0.0008709
 6,0.00089116,0.00089088,0.00020429,0.01803745,0.01192990,-0.00233116,0
 .00035456,-0.00027406,-0.00020147,-0.12917742,-0.13934366,0.02141194,-
 0.00001642,0.00018565,0.00000621,0.00021479,0.00008911,0.00011667,-0.0
 0003480,0.00006664,0.00000732,-0.00080499,0.00068623,-0.00012088,0.000
 00359,-0.00000008,-0.00001029,0.13665205,0.14773805,0.00109155,-0.0002
 0804,0.00049805,-0.00008714,0.00002137,0.00005756,-0.00006495,-0.00051
 403,0.00003328,0.00000170,0.00001511,0.00000593,0.00004163,-0.00001627
 ,0.00001044,-0.00054694,0.00065795,-0.00029929,0.00008663,0.00000219,0
 .00032662,0.00026683,0.00185330,-0.00141069,0.00003098,-0.00005394,-0.
 00006855,0.03055901,0.02083585,-0.05028808,-0.00003822,0.00003462,0.00
 002841,0.00035094,0.00014411,0.00015464,0.00000104,-0.00001388,-0.0000
 1065,0.00033437,0.00026327,-0.00018472,-0.00001748,-0.00000826,0.00000
 506,-0.03310702,-0.02313930,0.05111336,-0.00007527,-0.00128624,0.00146
 302,0.00010556,-0.00013865,0.00009293,-0.00536249,0.00537561,-0.001950
 91,0.00003056,-0.00001707,0.00011203,0.00010189,-0.00004714,0.00006995
 ,0.00012241,0.00049719,-0.00122941,0.00005027,0.00023370,0.00002115,0.
 00141865,0.00888605,-0.02389799,0.00009023,-0.00008632,-0.00011607,-0.
 05033284,0.01776105,-0.02786351,-0.00010837,0.00008284,-0.00000426,-0.
 00000093,-0.00001426,0.00021576,0.00014156,-0.00006789,-0.00002553,0.0
 0110801,-0.00007001,0.00050137,-0.00004679,-0.00003524,0.00002050,0.00
 440450,-0.01191780,0.02255401,0.05271283,-0.00159852,-0.00017516,-0.00
 038489,-0.00009374,-0.00000230,-0.00020619,0.00533486,-0.00324078,0.00
 173717,0.00001623,0.00002076,-0.00002617,0.00001820,-0.00001117,-0.000
 00729,0.00013362,-0.00049420,0.00030171,-0.00000189,0.00002514,0.00023
 973,-0.00274035,-0.00787533,0.01572283,0.00003355,0.00000530,-0.000016
 14,0.01835240,-0.11415790,0.11419778,-0.00002696,0.00003252,0.00001429
 ,0.00002062,-0.00000315,-0.00007832,-0.00010942,0.00002846,0.00002164,
 -0.00033660,-0.00007052,-0.00034425,0.00002631,0.00002341,-0.00000440,
 0.00389974,-0.00913985,0.01522842,-0.01894604,0.12314291,0.00232950,-0
 .00020629,0.00022300,-0.00005884,-0.00006506,0.00010848,0.00020270,-0.
 00038832,0.00176921,-0.00002195,-0.00003457,0.00004035,-0.00000095,0.0
 0000619,0.00000134,-0.00060927,0.00134319,-0.00103516,-0.00003799,-0.0
 0018031,0.00000938,0.00020011,-0.00168476,0.00100220,-0.00004477,0.000
 04132,-0.00000368,-0.02919613,0.11575916,-0.24097567,-0.00002079,-0.00
 003602,0.00000810,0.00001948,0.00004282,0.00017931,0.00010778,-0.00004
 851,-0.00002984,-0.00059251,0.00010901,0.00036521,-0.00005106,-0.00001
 764,0.00001432,-0.00075363,0.00058228,-0.00304251,0.03105955,-0.127175
 61,0.25859189,0.00006723,-0.00023405,-0.00022833,-0.00033438,-0.000295
 48,-0.00022593,0.00115293,-0.00237555,0.00074764,0.00008498,-0.0000219
 7,-0.00000854,0.00006495,-0.00004284,0.00001581,0.00228225,0.00086865,
 0.00125602,0.00012454,0.00038229,-0.00000845,0.00062209,0.01979910,0.0
 2436570,0.00005843,-0.00005130,0.00003843,-0.04747786,-0.00941124,-0.0
 1227209,-0.00006414,0.00007413,0.00001637,-0.00029554,-0.00053607,-0.0
 0073360,0.00005998,-0.00004384,0.00003632,-0.00438860,0.00305054,-0.00
 047575,-0.00003619,-0.00000276,-0.00000496,-0.00070402,-0.01496636,-0.
 02049761,-0.00174764,-0.00305029,-0.00238567,0.05025042,0.00009489,0.0
 0030494,-0.00020043,0.00022979,0.00019557,0.00021306,-0.00090344,0.001
 51771,0.00076998,0.00000576,0.00001957,0.00010638,0.00004800,-0.000013
 68,0.00005976,-0.00162601,0.00034393,0.00086227,-0.00005128,-0.0001398
 3,0.00002820,-0.00094534,-0.01342556,-0.01643799,0.00002644,-0.0000512
 7,-0.00010859,-0.01018056,-0.15316647,-0.12405805,-0.00005789,0.000041
 05,-0.00003320,0.00072337,0.00044019,0.00017337,-0.00002377,-0.0000149
 9,-0.00001605,0.00327161,-0.00090271,0.00072150,-0.00000454,-0.0000060
 6,0.00000706,0.00057587,-0.01145984,-0.01426902,0.00090772,0.01206805,
 0.01274001,0.00710005,0.16536876,0.00024879,0.00086601,0.00000628,0.00
 005188,0.00018397,0.00018203,0.00053717,0.00005851,0.00257635,-0.00000
 698,0.00006537,0.00005851,0.00001780,0.00000097,0.00003909,-0.00050432
 ,-0.00063229,0.00066719,0.00018393,0.00002404,0.00008249,0.00030111,-0
 .00019834,-0.00342411,0.00004804,-0.00007999,-0.00011478,-0.01220342,-
 0.12370666,-0.19270258,-0.00000718,0.00003215,-0.00002702,0.00071605,0
 .00021801,-0.00007527,-0.00005743,0.00001875,-0.00000392,0.00031381,0.
 00018746,0.00138511,0.00001000,0.00000190,-0.00000593,0.00007381,0.004
 08862,0.00355375,-0.00162064,-0.01879725,-0.01802505,0.01133780,0.1388
 6448,0.20690572,-0.18707421,0.25344190,0.07346093,0.00049256,-0.000641
 42,-0.00071786,-0.00149792,0.00009018,0.00008567,0.00022184,-0.0003340
 2,-0.00010017,0.00018813,-0.00012830,-0.00004809,-0.00238604,-0.001707
 78,0.00075270,-0.00040721,0.00140729,-0.00150304,0.00255630,-0.0019055
 1,0.00092033,0.00031401,0.00065291,0.00017243,0.00040739,-0.00028437,0
 .00086203,-0.00013683,0.00006045,0.00016552,0.00032233,-0.00046622,0.0
 0089427,-0.00025289,0.00024834,0.00020425,-0.00009817,0.00006851,-0.00
 007077,-0.00004317,0.00016100,0.00022069,-0.00011646,0.00060539,-0.000
 41022,-0.00236683,-0.00097294,-0.00083423,-0.00004197,0.00013861,0.000
 49067,0.18995274,0.23791103,-0.33666460,-0.06904342,-0.00062892,0.0008
 8469,0.00085956,-0.00015461,0.00109435,-0.00059486,-0.00023386,-0.0002
 6213,-0.00023399,-0.00029536,0.00005942,-0.00020120,0.01362963,-0.0173
 6262,-0.00858028,-0.00080052,-0.00196965,0.00271538,0.00054250,-0.0023
 1267,0.00052320,-0.00026186,0.00040571,0.00013727,0.00032867,-0.000045
 89,0.00111301,0.00039121,-0.00017950,0.00003707,-0.00007241,0.00260817
 ,-0.00047006,0.00068946,-0.00012219,-0.00024662,0.00014365,0.00007073,
 -0.00001090,0.00018979,0.00019881,0.00005284,0.00003627,0.00036063,-0.
 00055645,-0.00129111,0.00030922,-0.00060595,-0.00020405,-0.00013640,-0
 .00015592,-0.24997536,0.35362681,0.09728665,-0.10877407,-0.06661214,0.
 00138989,-0.00209930,0.00050016,0.00020109,-0.00005388,-0.00021820,0.0
 0030582,-0.00021392,-0.00005886,0.00013527,-0.00005197,0.00001478,-0.0
 2151204,0.02907617,0.00573968,0.00005511,0.00476661,-0.00709900,-0.000
 36287,0.00027959,-0.00033895,0.00029245,0.00026743,0.00035198,0.000171
 27,0.00018122,0.00116348,-0.00008103,0.00000040,-0.00005536,-0.0009654
 0,-0.00012087,0.00019943,-0.00142472,0.00096642,0.00050757,0.00000542,
 -0.00020815,0.00000667,-0.00020069,-0.00015324,-0.00000078,-0.00002491
 ,-0.00025874,-0.00040853,-0.00026355,0.00002209,0.00024643,0.00022844,
 -0.00020767,-0.00084254,-0.07431277,0.07502105,0.06562334,-0.00163649,
 -0.00001052,-0.00033984,-0.05106671,0.11640294,-0.09415558,-0.00028105
 ,0.00033285,-0.00120651,-0.00000741,-0.00029849,0.00126163,0.00061454,
 0.00002220,0.00078244,0.00170521,-0.00102046,0.00434368,0.00062358,-0.
 00166876,0.00014147,-0.00037657,0.00031765,0.00153119,-0.00001156,0.00
 166125,-0.00257457,-0.00012411,-0.00007068,-0.00009743,-0.00120810,0.0
 0009119,-0.00100178,0.00026350,0.00002880,-0.00062476,0.00015599,0.000
 34690,0.00266086,-0.00063186,-0.00073825,0.00005397,-0.00031958,-0.001
 24045,-0.00004337,0.00003119,0.00004796,-0.00003915,-0.00016706,0.0001
 1544,-0.00002811,0.00005668,-0.00008702,-0.00009931,-0.00043030,0.0000
 2356,-0.00089742,0.05323072,0.00050482,-0.00134079,-0.00065066,0.12012
 039,-0.31409183,0.22856424,-0.00010219,-0.00060213,0.00000221,-0.00053
 081,-0.00117971,-0.00021579,0.00010526,-0.00010644,-0.00011009,0.00123
 384,0.00211689,-0.00443509,-0.00677947,0.01277196,-0.00938454,0.000138
 44,0.00040613,0.00088307,0.00107168,0.00134840,-0.00228212,-0.00011826
 ,-0.00007221,-0.00026023,-0.00014691,0.00007609,0.00024264,-0.00001317
 ,-0.00074614,0.00066556,0.00027687,0.00000843,-0.00236888,-0.00063298,
 -0.00028551,0.00016730,-0.00056564,-0.00067522,0.00028671,0.00001621,-
 0.00006477,0.00006965,0.00012553,0.00000329,0.00012409,0.00010925,-0.0
 0003907,-0.00007608,-0.00043397,-0.00050490,0.00138719,-0.11454042,0.3
 0298165,-0.00070345,0.00058969,-0.00048992,-0.07807729,0.18317712,-0.2
 0181027,-0.00001182,-0.00027594,0.00051063,0.00053675,-0.00029121,0.00
 078339,0.00057216,-0.00019537,0.00037432,0.00059337,0.00182311,-0.0019
 8654,-0.01113918,0.03033350,-0.03471316,0.00075005,0.00045872,-0.00055
 080,-0.00020729,0.00020208,-0.00042489,-0.00015549,-0.00016123,0.00018
 135,-0.00043455,0.00044119,-0.00010392,-0.00071569,0.00063222,0.000257
 69,-0.00057022,-0.00381370,-0.00506296,0.00042908,0.00014605,-0.000108
 88,-0.00088871,-0.00068222,-0.00006760,-0.00011057,-0.00002576,0.00002
 738,0.00008337,0.00003469,0.00003024,-0.00000795,0.00003349,-0.0000456
 3,-0.00012281,-0.00003355,0.00140585,0.09040732,-0.21250301,0.24175834
 ,-0.00007884,-0.00034421,-0.00008595,-0.00054847,-0.00023146,-0.001632
 81,0.00001755,0.00000773,-0.00008123,-0.00340353,0.00411693,0.00252543
 ,0.00633470,-0.01040203,-0.03511645,0.00013461,0.00044953,0.00011762,0
 .00195091,-0.00077577,0.00143175,0.00003019,-0.00013043,0.00002864,0.0
 0866492,0.01323669,0.01546702,0.00002140,0.00003139,-0.00002079,-0.064
 20438,0.01797033,0.02752909,0.00020463,-0.00009688,-0.00006486,-0.0001
 9659,-0.00037140,-0.00012583,-0.00006102,-0.00003875,-0.00001491,-0.00
 125094,0.00110566,-0.00084868,0.00001455,-0.00000737,0.00000242,-0.000
 00263,0.00000155,0.00000542,0.00001015,-0.00001134,-0.00001354,0.00005
 701,0.00002215,0.00001089,-0.00047440,0.00021205,-0.00019321,0.0536071
 5,-0.00005775,-0.00002979,0.00020915,-0.00167241,0.00047349,0.00119705
 ,0.00003605,0.00002411,0.00001827,0.00360666,-0.00105861,-0.00127993,-
 0.00144230,0.01827528,-0.00087048,0.00055307,0.00074717,0.00004535,0.0
 0227779,-0.00277671,-0.00199105,0.00008939,-0.00028870,0.00001697,0.00
 291306,0.00631486,-0.01908933,0.00007767,0.00009175,-0.00000276,0.0207
 1039,-0.12651200,-0.10187072,-0.00017492,0.00007824,0.00001962,0.00010
 034,-0.00019657,-0.00000718,0.00004539,0.00003956,0.00002396,-0.002231
 47,0.00062831,0.00103086,0.00003838,-0.00001652,-0.00000237,0.00000007
 ,-0.00000800,0.00000774,-0.00001524,0.00000576,0.00000165,-0.00003378,
 -0.00000009,0.00000876,0.00030455,-0.00000155,-0.00003502,-0.02522856,
 0.10362133,0.00013958,0.00012962,0.00007149,-0.00183956,0.00039248,-0.
 00014443,0.00002568,0.00003657,0.00001440,-0.00026727,-0.00064253,0.00
 174834,-0.01873271,-0.01290418,-0.03159057,-0.00004867,-0.00008673,0.0
 0004012,-0.00077076,-0.00023961,-0.00075034,0.00000232,-0.00004077,0.0
 0000402,-0.00394638,-0.00575297,0.00126426,0.00001535,0.00001035,-0.00
 000182,0.03279172,-0.10273677,-0.21830197,-0.00008916,0.00004034,0.000
 02924,0.00013948,0.00015489,-0.00005532,0.00003398,0.00002021,0.000009
 09,0.00233079,-0.00141604,-0.00037103,0.00000564,0.00000059,-0.0000047
 9,-0.00000467,-0.00000081,-0.00000234,-0.00000776,0.00000501,0.0000066
 6,-0.00003523,0.00000588,-0.00001138,-0.00017258,-0.00001158,0.0000435
 4,-0.00809506,0.12214962,0.24777189,-0.00062812,0.00020483,-0.00155244
 ,-0.00009772,-0.00000670,-0.00084941,-0.00441035,0.01915347,0.02336510
 ,0.00050513,0.00034691,-0.00046462,0.00024047,-0.00008202,-0.00006351,
 0.00074527,0.00119327,0.00356007,-0.00068701,-0.00036813,0.00092508,-0
 .00048743,-0.00191839,-0.00422414,-0.00007780,-0.00002921,0.00043938,0
 .00045999,-0.00157601,-0.00102719,-0.00025009,0.00016141,0.00008785,-0
 .00021591,-0.00106790,-0.00036456,-0.00038247,0.00038858,0.00045695,0.
 00023266,0.00058747,-0.00118812,0.00002402,0.00002692,-0.00009217,-0.0
 0074367,-0.00006188,-0.00050301,-0.00007634,-0.00006151,0.00070092,0.0
 0026787,0.00075728,0.00017521,0.00042875,0.00000170,0.00004516,0.00013
 071,-0.00002086,0.00001782,0.00001764,-0.00005194,-0.00002661,0.005238
 78,-0.00027612,-0.00062006,-0.00080497,0.00006415,-0.00025299,-0.00020
 456,0.01896983,-0.20058768,-0.25042806,0.00018226,-0.00008986,0.000070
 07,0.00015923,-0.00010207,0.00011732,0.00121966,0.00170538,0.00320920,
 -0.00024538,0.00014540,-0.00013432,-0.00156712,0.01239751,0.02723483,0
 .00002089,-0.00000139,-0.00003628,-0.00019944,0.00220948,0.00190689,-0
 .00020960,0.00014850,-0.00007957,-0.00047911,-0.00089455,-0.00101138,0
 .00001751,-0.00005086,-0.00019664,0.00003075,-0.00148237,0.00381524,-0
 .00001148,0.00000139,-0.00000037,-0.00010922,-0.00003576,-0.00033716,0
 .00003540,-0.00046987,-0.00032223,-0.00013450,-0.00094765,-0.00095068,
 0.00000070,-0.00009807,0.00016321,0.00002021,0.00006942,0.00005346,0.0
 0000415,-0.00001312,-0.00000611,-0.01748025,0.18892031,-0.00081720,-0.
 00066491,0.00127451,-0.00006260,0.00010178,0.00036725,0.01781309,-0.20
 308876,-0.37133912,-0.00017219,-0.00003458,-0.00031861,-0.00024485,0.0
 0011846,-0.00020107,0.00072047,-0.00026558,0.00041415,0.00026861,-0.00
 026735,-0.00027971,0.00153100,-0.02015227,-0.03376930,-0.00008295,0.00
 015936,0.00026201,-0.00059453,-0.00043980,0.00261082,0.00032114,-0.000
 24360,0.00006086,0.00117391,0.00090842,-0.00001974,0.00038542,-0.00003
 503,-0.00014111,-0.00027297,0.00520541,-0.00304822,0.00001776,-0.00002
 307,-0.00001303,-0.00027067,0.00026520,-0.00009786,0.00081071,-0.00047
 730,0.00053044,-0.00116249,0.00076744,-0.00019686,0.00005601,0.0002424
 2,-0.00008091,0.00000798,-0.00009447,-0.00006136,0.00001433,0.00000908
 ,-0.00000023,-0.01942796,0.21802040,0.40391144,0.00019550,-0.00001480,
 0.00013551,0.00006377,0.00022633,0.00069080,0.00027449,0.00001422,0.00
 015938,-0.36591073,0.12643272,-0.19229343,-0.00196993,-0.00333772,-0.0
 0287987,-0.00053251,-0.00013996,0.00010668,-0.00088193,0.00120154,-0.0
 0099384,-0.00007534,0.00010868,-0.00017848,0.00122251,-0.00514251,-0.0
 0686405,0.00002558,-0.00003631,0.00000955,0.00387284,0.00343637,0.0071
 9627,-0.00028344,-0.00000939,-0.00026141,-0.00001601,-0.00037718,-0.00
 002859,0.00001484,-0.00000875,0.00001317,-0.00095440,0.00030214,0.0035
 3563,0.00000612,0.00001305,-0.00000937,0.00000069,-0.00001427,0.000010
 45,-0.00001216,0.00001180,0.00000676,-0.00008907,0.00000843,-0.0000820
 8,-0.00007693,-0.00002966,-0.00005169,-0.00084464,0.00015556,-0.001448
 13,-0.00023439,-0.00001252,-0.00001203,0.36620512,0.00003819,-0.000117
 57,-0.00007671,-0.00106985,-0.00170383,-0.00145802,0.00011104,-0.00009
 817,0.00016319,0.14352382,-0.05887226,0.05847058,-0.00243753,-0.001417
 64,0.00501249,0.00023968,0.00001481,-0.00005601,0.00063508,-0.00118539
 ,-0.00438973,0.00001057,0.00007946,-0.00016155,-0.01742836,0.00350698,
 -0.00603043,0.00000738,-0.00001348,0.00003429,-0.00129289,0.00076456,-
 0.00831383,0.00004308,-0.00004998,-0.00004289,-0.00042018,-0.00042904,
 0.00008373,0.00000730,-0.00001301,-0.00000756,0.00046151,-0.00022052,0
 .00107726,-0.00000614,-0.00000054,-0.00000712,0.00001260,-0.00001081,0
 .00000947,0.00000153,-0.00000200,-0.00001466,0.00000841,0.00004017,0.0
 0000166,-0.00004047,-0.00007201,0.00009168,0.00048002,0.00060180,0.000
 89253,-0.00009705,0.00004891,-0.00001126,-0.12278777,0.05914957,0.0001
 8868,0.00001148,0.00032964,-0.00063911,-0.00091263,-0.00018635,0.00009
 183,0.00017512,-0.00028676,-0.15652396,0.03772127,-0.12393847,-0.00057
 205,0.00364226,0.00188469,0.00062966,0.00037887,-0.00017796,0.00147885
 ,0.00009259,-0.00304027,-0.00011426,-0.00025048,0.00046640,-0.03317238
 ,0.00777876,-0.02893891,0.00004919,0.00012610,-0.00002868,-0.00272225,
 -0.00185402,-0.00378137,-0.00060229,0.00008223,0.00020667,-0.00005366,
 -0.00000475,0.00010718,0.00010190,0.00007157,-0.00001805,-0.00051726,-
 0.00211706,-0.00383052,0.00005907,-0.00000932,0.00000120,-0.00002779,-
 0.00000171,-0.00000566,-0.00002340,-0.00002101,0.00000053,-0.00013032,
 0.00002551,-0.00003271,0.00008988,-0.00000013,0.00005321,-0.00083929,0
 .00041075,0.00023115,0.00001019,-0.00007831,0.00013564,0.19323876,-0.0
 4526709,0.16084938\\0.00000926,0.00000924,-0.00000752,0.00001156,0.000
 00117,0.00001180,-0.00000080,-0.00000320,0.00000053,0.00000059,-0.0000
 0085,-0.00000786,-0.00001080,-0.00000003,-0.00001727,-0.00001346,-0.00
 000328,0.00002236,0.00001567,0.00000019,-0.00000800,-0.00000076,-0.000
 00202,0.00000242,-0.00001325,-0.00002149,0.00001326,-0.00000394,0.0000
 0842,0.00000326,0.00002634,0.00000554,0.00001449,0.00000493,-0.0000010
 7,-0.00000605,-0.00000811,-0.00000089,0.00000091,0.00000496,0.00000026
 ,-0.00000218,0.00000150,0.00000484,-0.00001455,0.00000387,-0.00000231,
 0.00000271,-0.00000250,-0.00000134,0.00000165,0.00000296,-0.00000064,0
 .00000117,-0.00000883,-0.00000415,-0.00000076,-0.00001060,0.00000617,0
 .00000075,-0.00000761,0.00000237,-0.00000938,0.00000351,0.00000245,0.0
 0000236,-0.00000449,0.00000062,-0.00000408\\\@


 "A LITTLE BIT GOES A LONG WAY"
 R.S. MULLIKEN AS QUOTED BY K. RUEDENBERG
 Job cpu time:       0 days  4 hours 15 minutes 34.6 seconds.
 Elapsed time:       0 days  0 hours 16 minutes  2.9 seconds.
 File lengths (MBytes):  RWF=    228 Int=      0 D2E=      0 Chk=     10 Scr=      1
 Normal termination of Gaussian 16 at Fri Sep 19 14:01:25 2025.
