 Entering Gaussian System, Link 0=g16
 Input=DSXE0105.gjf
 Output=DSXE0105.log
 Initial command:
 /usr/local/g16/l1.exe "/dados_01/scratch/Gau-2059655.inp" -scrdir="/dados_01/scratch/"
 Entering Link 1 = /usr/local/g16/l1.exe PID=   2059656.
  
 Copyright (c) 1988-2017, Gaussian, Inc.  All Rights Reserved.
  
 This is part of the Gaussian(R) 16 program.  It is based on
 the Gaussian(R) 09 system (copyright 2009, Gaussian, Inc.),
 the Gaussian(R) 03 system (copyright 2003, Gaussian, Inc.),
 the Gaussian(R) 98 system (copyright 1998, Gaussian, Inc.),
 the Gaussian(R) 94 system (copyright 1995, Gaussian, Inc.),
 the Gaussian 92(TM) system (copyright 1992, Gaussian, Inc.),
 the Gaussian 90(TM) system (copyright 1990, Gaussian, Inc.),
 the Gaussian 88(TM) system (copyright 1988, Gaussian, Inc.),
 the Gaussian 86(TM) system (copyright 1986, Carnegie Mellon
 University), and the Gaussian 82(TM) system (copyright 1983,
 Carnegie Mellon University). Gaussian is a federally registered
 trademark of Gaussian, Inc.
  
 This software contains proprietary and confidential information,
 including trade secrets, belonging to Gaussian, Inc.
  
 This software is provided under written license and may be
 used, copied, transmitted, or stored only in accord with that
 written license.
  
 The following legend is applicable only to US Government
 contracts under FAR:
  
                    RESTRICTED RIGHTS LEGEND
  
 Use, reproduction and disclosure by the US Government is
 subject to restrictions as set forth in subparagraphs (a)
 and (c) of the Commercial Computer Software - Restricted
 Rights clause in FAR 52.227-19.
  
 Gaussian, Inc.
 340 Quinnipiac St., Bldg. 40, Wallingford CT 06492
  
  
 ---------------------------------------------------------------
 Warning -- This program may not be used in any manner that
 competes with the business of Gaussian, Inc. or will provide
 assistance to any competitor of Gaussian, Inc.  The licensee
 of this program is prohibited from giving any competitor of
 Gaussian, Inc. access to this program.  By using this program,
 the user acknowledges that Gaussian, Inc. is engaged in the
 business of creating and licensing software in the field of
 computational chemistry and represents and warrants to the
 licensee that it is not a competitor of Gaussian, Inc. and that
 it will not use this program in any manner prohibited above.
 ---------------------------------------------------------------
  

 Cite this work as:
 Gaussian 16, Revision B.01,
 M. J. Frisch, G. W. Trucks, H. B. Schlegel, G. E. Scuseria, 
 M. A. Robb, J. R. Cheeseman, G. Scalmani, V. Barone, 
 G. A. Petersson, H. Nakatsuji, X. Li, M. Caricato, A. V. Marenich, 
 J. Bloino, B. G. Janesko, R. Gomperts, B. Mennucci, H. P. Hratchian, 
 J. V. Ortiz, A. F. Izmaylov, J. L. Sonnenberg, D. Williams-Young, 
 F. Ding, F. Lipparini, F. Egidi, J. Goings, B. Peng, A. Petrone, 
 T. Henderson, D. Ranasinghe, V. G. Zakrzewski, J. Gao, N. Rega, 
 G. Zheng, W. Liang, M. Hada, M. Ehara, K. Toyota, R. Fukuda, 
 J. Hasegawa, M. Ishida, T. Nakajima, Y. Honda, O. Kitao, H. Nakai, 
 T. Vreven, K. Throssell, J. A. Montgomery, Jr., J. E. Peralta, 
 F. Ogliaro, M. J. Bearpark, J. J. Heyd, E. N. Brothers, K. N. Kudin, 
 V. N. Staroverov, T. A. Keith, R. Kobayashi, J. Normand, 
 K. Raghavachari, A. P. Rendell, J. C. Burant, S. S. Iyengar, 
 J. Tomasi, M. Cossi, J. M. Millam, M. Klene, C. Adamo, R. Cammi, 
 J. W. Ochterski, R. L. Martin, K. Morokuma, O. Farkas, 
 J. B. Foresman, and D. J. Fox, Gaussian, Inc., Wallingford CT, 2016.
 
 ******************************************
 Gaussian 16:  ES64L-G16RevB.01 20-Dec-2017
                19-Sep-2025 
 ******************************************
 %nprocs=16
 Will use up to   16 processors via shared memory.
 %mem=40GB
 %chk=DSXE0105.chk
 ----------------------------------------------------------------------
 # opt freq=noraman M08HX/6-311++G** scf=xqc Empiricaldispersion=pfd In
 t(Grid=ultraFine)
 ----------------------------------------------------------------------
 1/18=20,19=15,26=4,38=1/1,3;
 2/9=110,12=2,17=6,18=5,40=1/2;
 3/5=4,6=6,7=1111,11=2,25=1,30=1,71=1,74=-74,75=-5,124=11/1,2,3;
 4//1;
 5/5=2,8=3,13=1,38=5/2,8;
 6/7=2,8=2,9=2,10=2,28=1/1;
 7//1,2,3,16;
 1/18=20,19=15,26=4/3(2);
 2/9=110/2;
 99//99;
 2/9=110/2;
 3/5=4,6=6,7=1111,11=2,25=1,30=1,71=1,74=-74,75=-5,124=11/1,2,3;
 4/5=5,16=3,69=1/1;
 5/5=2,8=3,13=1,38=5/2,8;
 7//1,2,3,16;
 1/18=20,19=15,26=4/3(-5);
 2/9=110/2;
 6/7=2,8=2,9=2,10=2,19=2,28=1/1;
 99/9=1/99;
 --------
 DSXE0105
 --------
 Symbolic Z-matrix:
 Charge =  0 Multiplicity = 1
 O                    -1.0597   -0.9028    0.8019 
 O                     1.0477   -1.1795   -0.2293 
 C                    -2.672     0.7738    0.1416 
 C                     2.8115    0.4744   -0.1931 
 C                    -1.5831   -0.2      -0.3169 
 C                     1.6672   -0.1878    0.5792 
 C                    -0.0342   -1.8335    0.4467 
 C                    -2.1162    1.8106    1.1204 
 C                    -3.3078    1.4672   -1.0613 
 C                     2.3029    1.1631   -1.4613 
 C                     3.5454    1.4755    0.6965 
 C                    -0.6017   -2.8609   -0.5245 
 H                    -3.4476    0.2062    0.6715 
 H                     3.5187   -0.3049   -0.5045 
 H                    -2.0489   -0.8949   -1.0225 
 H                    -0.7925    0.3492   -0.8403 
 H                     2.062    -0.6653    1.4842 
 H                     0.9401    0.573     0.8847 
 H                     0.3265   -2.3238    1.3573 
 H                    -2.9022    2.5039    1.4385 
 H                    -1.3125    2.3972    0.6621 
 H                    -1.7151    1.3312    2.0192 
 H                    -4.1074    2.1441   -0.7423 
 H                    -3.7459    0.7342   -1.747 
 H                    -2.5697    2.0542   -1.6185 
 H                     3.1286    1.6358   -2.0036 
 H                     1.5666    1.9384   -1.223 
 H                     1.8307    0.445    -2.1396 
 H                     4.3854    1.9297    0.1604 
 H                     3.9465    0.9824    1.5882 
 H                     2.8785    2.2802    1.0248 
 H                    -0.7146   -2.464    -1.5391 
 H                    -1.5686   -3.2448   -0.185 
 H                     0.0948   -3.7021   -0.6166 
 

 GradGradGradGradGradGradGradGradGradGradGradGradGradGradGradGradGradGrad
 Berny optimization.
 Initialization pass.
                           ----------------------------
                           !    Initial Parameters    !
                           ! (Angstroms and Degrees)  !
 --------------------------                            --------------------------
 ! Name  Definition              Value          Derivative Info.                !
 --------------------------------------------------------------------------------
 ! R1    R(1,5)                  1.4211         estimate D2E/DX2                !
 ! R2    R(1,7)                  1.4297         estimate D2E/DX2                !
 ! R3    R(2,6)                  1.4216         estimate D2E/DX2                !
 ! R4    R(2,7)                  1.4336         estimate D2E/DX2                !
 ! R5    R(3,5)                  1.5311         estimate D2E/DX2                !
 ! R6    R(3,8)                  1.5303         estimate D2E/DX2                !
 ! R7    R(3,9)                  1.5271         estimate D2E/DX2                !
 ! R8    R(3,13)                 1.0975         estimate D2E/DX2                !
 ! R9    R(4,6)                  1.5311         estimate D2E/DX2                !
 ! R10   R(4,10)                 1.5301         estimate D2E/DX2                !
 ! R11   R(4,11)                 1.5272         estimate D2E/DX2                !
 ! R12   R(4,14)                 1.0975         estimate D2E/DX2                !
 ! R13   R(5,15)                 1.0944         estimate D2E/DX2                !
 ! R14   R(5,16)                 1.0957         estimate D2E/DX2                !
 ! R15   R(6,17)                 1.0968         estimate D2E/DX2                !
 ! R16   R(6,18)                 1.0958         estimate D2E/DX2                !
 ! R17   R(7,12)                 1.5234         estimate D2E/DX2                !
 ! R18   R(7,19)                 1.0953         estimate D2E/DX2                !
 ! R19   R(8,20)                 1.0953         estimate D2E/DX2                !
 ! R20   R(8,21)                 1.0955         estimate D2E/DX2                !
 ! R21   R(8,22)                 1.0948         estimate D2E/DX2                !
 ! R22   R(9,23)                 1.0951         estimate D2E/DX2                !
 ! R23   R(9,24)                 1.0952         estimate D2E/DX2                !
 ! R24   R(9,25)                 1.0954         estimate D2E/DX2                !
 ! R25   R(10,26)                1.0951         estimate D2E/DX2                !
 ! R26   R(10,27)                1.0955         estimate D2E/DX2                !
 ! R27   R(10,28)                1.0949         estimate D2E/DX2                !
 ! R28   R(11,29)                1.0951         estimate D2E/DX2                !
 ! R29   R(11,30)                1.0951         estimate D2E/DX2                !
 ! R30   R(11,31)                1.0955         estimate D2E/DX2                !
 ! R31   R(12,32)                1.0953         estimate D2E/DX2                !
 ! R32   R(12,33)                1.0943         estimate D2E/DX2                !
 ! R33   R(12,34)                1.096          estimate D2E/DX2                !
 ! A1    A(5,1,7)              112.9868         estimate D2E/DX2                !
 ! A2    A(6,2,7)              112.2677         estimate D2E/DX2                !
 ! A3    A(5,3,8)              111.3547         estimate D2E/DX2                !
 ! A4    A(5,3,9)              110.4269         estimate D2E/DX2                !
 ! A5    A(5,3,13)             108.5572         estimate D2E/DX2                !
 ! A6    A(8,3,9)              110.3283         estimate D2E/DX2                !
 ! A7    A(8,3,13)             107.3516         estimate D2E/DX2                !
 ! A8    A(9,3,13)             108.7187         estimate D2E/DX2                !
 ! A9    A(6,4,10)             111.3645         estimate D2E/DX2                !
 ! A10   A(6,4,11)             110.4165         estimate D2E/DX2                !
 ! A11   A(6,4,14)             108.5182         estimate D2E/DX2                !
 ! A12   A(10,4,11)            110.3338         estimate D2E/DX2                !
 ! A13   A(10,4,14)            107.3751         estimate D2E/DX2                !
 ! A14   A(11,4,14)            108.7297         estimate D2E/DX2                !
 ! A15   A(1,5,3)              109.9205         estimate D2E/DX2                !
 ! A16   A(1,5,15)             110.5069         estimate D2E/DX2                !
 ! A17   A(1,5,16)             110.989          estimate D2E/DX2                !
 ! A18   A(3,5,15)             107.1107         estimate D2E/DX2                !
 ! A19   A(3,5,16)             109.7191         estimate D2E/DX2                !
 ! A20   A(15,5,16)            108.5044         estimate D2E/DX2                !
 ! A21   A(2,6,4)              109.9086         estimate D2E/DX2                !
 ! A22   A(2,6,17)             108.8106         estimate D2E/DX2                !
 ! A23   A(2,6,18)             110.7156         estimate D2E/DX2                !
 ! A24   A(4,6,17)             109.6014         estimate D2E/DX2                !
 ! A25   A(4,6,18)             109.6478         estimate D2E/DX2                !
 ! A26   A(17,6,18)            108.1238         estimate D2E/DX2                !
 ! A27   A(1,7,2)              111.1922         estimate D2E/DX2                !
 ! A28   A(1,7,12)             109.2813         estimate D2E/DX2                !
 ! A29   A(1,7,19)             108.7275         estimate D2E/DX2                !
 ! A30   A(2,7,12)             106.7487         estimate D2E/DX2                !
 ! A31   A(2,7,19)             110.3472         estimate D2E/DX2                !
 ! A32   A(12,7,19)            110.5358         estimate D2E/DX2                !
 ! A33   A(3,8,20)             110.7305         estimate D2E/DX2                !
 ! A34   A(3,8,21)             111.202          estimate D2E/DX2                !
 ! A35   A(3,8,22)             111.1918         estimate D2E/DX2                !
 ! A36   A(20,8,21)            108.0013         estimate D2E/DX2                !
 ! A37   A(20,8,22)            107.5576         estimate D2E/DX2                !
 ! A38   A(21,8,22)            108.0083         estimate D2E/DX2                !
 ! A39   A(3,9,23)             110.8056         estimate D2E/DX2                !
 ! A40   A(3,9,24)             110.8446         estimate D2E/DX2                !
 ! A41   A(3,9,25)             111.3138         estimate D2E/DX2                !
 ! A42   A(23,9,24)            107.6978         estimate D2E/DX2                !
 ! A43   A(23,9,25)            107.9951         estimate D2E/DX2                !
 ! A44   A(24,9,25)            108.0431         estimate D2E/DX2                !
 ! A45   A(4,10,26)            110.7374         estimate D2E/DX2                !
 ! A46   A(4,10,27)            111.2025         estimate D2E/DX2                !
 ! A47   A(4,10,28)            111.1999         estimate D2E/DX2                !
 ! A48   A(26,10,27)           107.9996         estimate D2E/DX2                !
 ! A49   A(26,10,28)           107.5474         estimate D2E/DX2                !
 ! A50   A(27,10,28)           108.0037         estimate D2E/DX2                !
 ! A51   A(4,11,29)            110.8136         estimate D2E/DX2                !
 ! A52   A(4,11,30)            110.8046         estimate D2E/DX2                !
 ! A53   A(4,11,31)            111.3182         estimate D2E/DX2                !
 ! A54   A(29,11,30)           107.7239         estimate D2E/DX2                !
 ! A55   A(29,11,31)           107.9989         estimate D2E/DX2                !
 ! A56   A(30,11,31)           108.0424         estimate D2E/DX2                !
 ! A57   A(7,12,32)            112.6161         estimate D2E/DX2                !
 ! A58   A(7,12,33)            111.5891         estimate D2E/DX2                !
 ! A59   A(7,12,34)            109.5394         estimate D2E/DX2                !
 ! A60   A(32,12,33)           108.8703         estimate D2E/DX2                !
 ! A61   A(32,12,34)           105.4136         estimate D2E/DX2                !
 ! A62   A(33,12,34)           108.561          estimate D2E/DX2                !
 ! D1    D(7,1,5,3)            179.9947         estimate D2E/DX2                !
 ! D2    D(7,1,5,15)            61.9823         estimate D2E/DX2                !
 ! D3    D(7,1,5,16)           -58.4435         estimate D2E/DX2                !
 ! D4    D(5,1,7,2)             57.5891         estimate D2E/DX2                !
 ! D5    D(5,1,7,12)           -59.9968         estimate D2E/DX2                !
 ! D6    D(5,1,7,19)           179.2721         estimate D2E/DX2                !
 ! D7    D(7,2,6,4)           -179.9982         estimate D2E/DX2                !
 ! D8    D(7,2,6,17)            59.9823         estimate D2E/DX2                !
 ! D9    D(7,2,6,18)           -58.7135         estimate D2E/DX2                !
 ! D10   D(6,2,7,1)             60.8852         estimate D2E/DX2                !
 ! D11   D(6,2,7,12)           179.9977         estimate D2E/DX2                !
 ! D12   D(6,2,7,19)           -59.8491         estimate D2E/DX2                !
 ! D13   D(8,3,5,1)             60.8647         estimate D2E/DX2                !
 ! D14   D(8,3,5,15)          -179.0403         estimate D2E/DX2                !
 ! D15   D(8,3,5,16)           -61.4529         estimate D2E/DX2                !
 ! D16   D(9,3,5,1)           -176.2027         estimate D2E/DX2                !
 ! D17   D(9,3,5,15)           -56.1077         estimate D2E/DX2                !
 ! D18   D(9,3,5,16)            61.4798         estimate D2E/DX2                !
 ! D19   D(13,3,5,1)           -57.1072         estimate D2E/DX2                !
 ! D20   D(13,3,5,15)           62.9878         estimate D2E/DX2                !
 ! D21   D(13,3,5,16)         -179.4247         estimate D2E/DX2                !
 ! D22   D(5,3,8,20)           179.7751         estimate D2E/DX2                !
 ! D23   D(5,3,8,21)            59.693          estimate D2E/DX2                !
 ! D24   D(5,3,8,22)           -60.708          estimate D2E/DX2                !
 ! D25   D(9,3,8,20)            56.786          estimate D2E/DX2                !
 ! D26   D(9,3,8,21)           -63.2961         estimate D2E/DX2                !
 ! D27   D(9,3,8,22)           176.3029         estimate D2E/DX2                !
 ! D28   D(13,3,8,20)          -61.5285         estimate D2E/DX2                !
 ! D29   D(13,3,8,21)          178.3894         estimate D2E/DX2                !
 ! D30   D(13,3,8,22)           57.9884         estimate D2E/DX2                !
 ! D31   D(5,3,9,23)           178.3767         estimate D2E/DX2                !
 ! D32   D(5,3,9,24)            58.8613         estimate D2E/DX2                !
 ! D33   D(5,3,9,25)           -61.4245         estimate D2E/DX2                !
 ! D34   D(8,3,9,23)           -58.0943         estimate D2E/DX2                !
 ! D35   D(8,3,9,24)          -177.6096         estimate D2E/DX2                !
 ! D36   D(8,3,9,25)            62.1046         estimate D2E/DX2                !
 ! D37   D(13,3,9,23)           59.3793         estimate D2E/DX2                !
 ! D38   D(13,3,9,24)          -60.1361         estimate D2E/DX2                !
 ! D39   D(13,3,9,25)          179.5781         estimate D2E/DX2                !
 ! D40   D(10,4,6,2)            60.867          estimate D2E/DX2                !
 ! D41   D(10,4,6,17)         -179.5949         estimate D2E/DX2                !
 ! D42   D(10,4,6,18)          -61.0556         estimate D2E/DX2                !
 ! D43   D(11,4,6,2)          -176.1939         estimate D2E/DX2                !
 ! D44   D(11,4,6,17)          -56.6558         estimate D2E/DX2                !
 ! D45   D(11,4,6,18)           61.8835         estimate D2E/DX2                !
 ! D46   D(14,4,6,2)           -57.1151         estimate D2E/DX2                !
 ! D47   D(14,4,6,17)           62.423          estimate D2E/DX2                !
 ! D48   D(14,4,6,18)         -179.0377         estimate D2E/DX2                !
 ! D49   D(6,4,10,26)          179.8106         estimate D2E/DX2                !
 ! D50   D(6,4,10,27)           59.7257         estimate D2E/DX2                !
 ! D51   D(6,4,10,28)          -60.6754         estimate D2E/DX2                !
 ! D52   D(11,4,10,26)          56.8241         estimate D2E/DX2                !
 ! D53   D(11,4,10,27)         -63.2608         estimate D2E/DX2                !
 ! D54   D(11,4,10,28)         176.3381         estimate D2E/DX2                !
 ! D55   D(14,4,10,26)         -61.5204         estimate D2E/DX2                !
 ! D56   D(14,4,10,27)         178.3947         estimate D2E/DX2                !
 ! D57   D(14,4,10,28)          57.9936         estimate D2E/DX2                !
 ! D58   D(6,4,11,29)          178.1891         estimate D2E/DX2                !
 ! D59   D(6,4,11,30)           58.6618         estimate D2E/DX2                !
 ! D60   D(6,4,11,31)          -61.599          estimate D2E/DX2                !
 ! D61   D(10,4,11,29)         -58.2729         estimate D2E/DX2                !
 ! D62   D(10,4,11,30)        -177.8001         estimate D2E/DX2                !
 ! D63   D(10,4,11,31)          61.9391         estimate D2E/DX2                !
 ! D64   D(14,4,11,29)          59.2387         estimate D2E/DX2                !
 ! D65   D(14,4,11,30)         -60.2885         estimate D2E/DX2                !
 ! D66   D(14,4,11,31)         179.4507         estimate D2E/DX2                !
 ! D67   D(1,7,12,32)           76.2791         estimate D2E/DX2                !
 ! D68   D(1,7,12,33)          -46.517          estimate D2E/DX2                !
 ! D69   D(1,7,12,34)         -166.761          estimate D2E/DX2                !
 ! D70   D(2,7,12,32)          -44.067          estimate D2E/DX2                !
 ! D71   D(2,7,12,33)         -166.8632         estimate D2E/DX2                !
 ! D72   D(2,7,12,34)           72.8929         estimate D2E/DX2                !
 ! D73   D(19,7,12,32)        -164.099          estimate D2E/DX2                !
 ! D74   D(19,7,12,33)          73.1048         estimate D2E/DX2                !
 ! D75   D(19,7,12,34)         -47.1392         estimate D2E/DX2                !
 --------------------------------------------------------------------------------
 Trust Radius=3.00D-01 FncErr=1.00D-07 GrdErr=1.00D-06 EigMax=2.50D+02 EigMin=1.00D-04
 Number of steps in this run=    180 maximum allowed number of steps=    204.
 GradGradGradGradGradGradGradGradGradGradGradGradGradGradGradGradGradGrad

                          Input orientation:                          
 ---------------------------------------------------------------------
 Center     Atomic      Atomic             Coordinates (Angstroms)
 Number     Number       Type             X           Y           Z
 ---------------------------------------------------------------------
      1          8           0       -1.059700   -0.902800    0.801900
      2          8           0        1.047700   -1.179500   -0.229300
      3          6           0       -2.672000    0.773800    0.141600
      4          6           0        2.811500    0.474400   -0.193100
      5          6           0       -1.583100   -0.200000   -0.316900
      6          6           0        1.667200   -0.187800    0.579200
      7          6           0       -0.034200   -1.833500    0.446700
      8          6           0       -2.116200    1.810600    1.120400
      9          6           0       -3.307800    1.467200   -1.061300
     10          6           0        2.302900    1.163100   -1.461300
     11          6           0        3.545400    1.475500    0.696500
     12          6           0       -0.601700   -2.860900   -0.524500
     13          1           0       -3.447600    0.206200    0.671500
     14          1           0        3.518700   -0.304900   -0.504500
     15          1           0       -2.048900   -0.894900   -1.022500
     16          1           0       -0.792500    0.349200   -0.840300
     17          1           0        2.062000   -0.665300    1.484200
     18          1           0        0.940100    0.573000    0.884700
     19          1           0        0.326500   -2.323800    1.357300
     20          1           0       -2.902200    2.503900    1.438500
     21          1           0       -1.312500    2.397200    0.662100
     22          1           0       -1.715100    1.331200    2.019200
     23          1           0       -4.107400    2.144100   -0.742300
     24          1           0       -3.745900    0.734200   -1.747000
     25          1           0       -2.569700    2.054200   -1.618500
     26          1           0        3.128600    1.635800   -2.003600
     27          1           0        1.566600    1.938400   -1.223000
     28          1           0        1.830700    0.445000   -2.139600
     29          1           0        4.385400    1.929700    0.160400
     30          1           0        3.946500    0.982400    1.588200
     31          1           0        2.878500    2.280200    1.024800
     32          1           0       -0.714600   -2.464000   -1.539100
     33          1           0       -1.568600   -3.244800   -0.185000
     34          1           0        0.094800   -3.702100   -0.616600
 ---------------------------------------------------------------------
                    Distance matrix (angstroms):
                    1          2          3          4          5
     1  O    0.000000
     2  O    2.362429   0.000000
     3  C    2.417953   4.217715   0.000000
     4  C    4.227635   2.418199   5.501858   0.000000
     5  C    1.421122   2.808594   1.531082   4.447769   0.000000
     6  C    2.827862   1.421591   4.465963   1.531136   3.371586
     7  C    1.429692   1.433597   3.721436   3.719376   2.377078
     8  C    2.929193   4.557702   1.530332   5.271901   2.528347
     9  C    3.760634   5.164071   1.527093   6.259813   2.511628
    10  C    4.549406   2.929356   5.241228   1.530135   4.274189
    11  C    5.184049   3.760936   6.281430   1.527154   5.489608
    12  C    2.408995   2.373767   4.235667   4.783721   2.843700
    13  H    2.636086   4.789502   1.097506   6.324223   2.149021
    14  H    4.798532   2.635622   6.317104   1.097456   5.106326
    15  H    2.075335   3.209220   2.127896   5.117262   1.094407
    16  H    2.082239   2.469125   2.162622   3.663790   1.095726
    17  H    3.204208   2.056523   5.126825   2.161944   4.092337
    18  H    2.486773   2.079382   3.693208   2.161831   2.899640
    19  H    2.061373   2.084910   4.479292   4.050789   3.310596
    20  H    3.925006   5.652495   2.174440   6.279121   3.483178
    21  H    3.312620   4.376976   2.180502   4.629892   2.788748
    22  H    2.627189   4.358031   2.179847   5.110625   2.796312
    23  H    4.577841   6.155042   2.172412   7.138676   3.471003
    24  H    4.048744   5.379987   2.172933   6.744004   2.756015
    25  H    4.108806   5.047007   2.178954   5.786609   2.783695
    26  H    5.644216   3.924818   6.244348   2.174238   5.330594
    27  H    4.366931   3.313306   4.602625   2.180313   3.913359
    28  H    4.338594   2.627039   5.058289   2.179838   3.923301
    29  H    6.171199   4.578125   7.151458   2.172561   6.355032
    30  H    5.406874   4.047241   6.777957   2.172399   5.966905
    31  H    5.068589   4.110246   5.818705   2.179147   5.278013
    32  H    2.834911   2.543859   4.139990   4.783230   2.715467
    33  H    2.591894   3.333535   4.180108   5.746111   3.047690
    34  H    3.343814   2.724249   5.316364   5.000296   3.894852
                    6          7          8          9         10
     6  C    0.000000
     7  C    2.370790   0.000000
     8  C    4.312843   4.250654   0.000000
     9  C    5.493714   4.887243   2.509512   0.000000
    10  C    2.528376   4.252307   5.158767   5.633155   0.000000
    11  C    2.511566   4.881129   5.687328   7.075046   2.509482
    12  C    3.675803   1.523429   5.179027   5.132600   5.050433
    13  H    5.130783   3.982739   2.132659   2.147617   6.207475
    14  H    2.148527   3.983026   6.234400   7.074706   2.132759
    15  H    4.107899   2.664308   3.451997   2.676911   4.833847
    16  H    2.890238   2.644913   2.780686   2.761431   3.260303
    17  H    1.096767   2.614412   4.870296   6.313626   3.475205
    18  H    1.095820   2.632935   3.305779   4.757222   2.776537
    19  H    2.639207   1.095304   4.807928   5.781820   4.899912
    20  H    5.372435   5.293593   1.095285   2.736468   6.107344
    21  H    3.945594   4.424847   1.095478   2.795752   4.370692
    22  H    3.977551   3.913248   1.094782   3.470543   5.318502
    23  H    6.366327   5.816011   2.746953   1.095132   6.524666
    24  H    5.963467   5.018179   3.469372   1.095174   6.070713
    25  H    5.273307   5.080160   2.786858   1.095369   4.955906
    26  H    3.483111   5.295594   6.107197   6.507196   1.095132
    27  H    2.789045   4.424668   4.367021   4.899791   1.095452
    28  H    2.796255   3.918975   5.298158   5.349000   1.094866
    29  H    3.470996   5.811756   6.573172   7.803319   2.748526
    30  H    2.753663   5.007823   6.136863   7.738201   3.468937
    31  H    2.785109   5.073514   5.017638   6.578989   2.785663
    32  H    3.916791   2.191775   5.225861   4.733636   4.718815
    33  H    4.516597   2.178347   5.249858   5.098594   6.003918
    34  H    4.031462   2.153814   6.188340   6.204604   5.409195
                   11         12         13         14         15
    11  C    0.000000
    12  C    6.123205   0.000000
    13  H    7.107306   4.351628   0.000000
    14  H    2.147775   4.848838   7.083328   0.000000
    15  H    6.314266   2.491495   2.457319   5.622686   0.000000
    16  H    4.737899   3.231234   3.058683   4.373449   1.777505
    17  H    2.721024   3.993849   5.636993   2.491343   4.820349
    18  H    2.763605   4.019286   4.408164   3.057738   3.837481
    19  H    5.023212   2.165918   4.595112   4.210985   3.653454
    20  H    6.571127   6.158470   2.482977   7.272727   4.282112
    21  H    4.944685   5.436991   3.059284   5.657101   3.770688
    22  H    5.426161   5.028297   2.466470   6.036435   3.784030
    23  H    7.815531   6.114523   2.487895   8.013211   3.681230
    24  H    7.725495   4.930035   2.493373   7.442980   2.461438
    25  H    6.564188   5.406299   3.070816   6.623818   3.053464
    26  H    2.736779   6.026872   7.241983   2.483102   5.845811
    27  H    2.795426   5.312505   5.633103   3.059302   4.597785
    28  H    3.470676   4.410679   5.984961   2.466829   4.253768
    29  H    1.095126   6.949108   8.036639   2.487307   7.125857
    30  H    1.095061   6.318273   7.491031   2.493902   6.803296
    31  H    1.095481   6.398674   6.666771   3.071051   6.209023
    32  H    6.218132   1.095303   4.414296   4.863429   2.123513
    33  H    7.015075   1.094319   4.021646   5.884362   2.540497
    34  H    6.359121   1.095998   5.429789   4.824586   3.555359
                   16         17         18         19         20
    16  H    0.000000
    17  H    3.818466   0.000000
    18  H    2.455120   1.775231   0.000000
    19  H    3.636830   2.403890   2.998551   0.000000
    20  H    3.779748   5.889754   4.335705   5.808424   0.000000
    21  H    2.592665   4.630551   2.907140   5.045539   1.772379
    22  H    3.161053   4.305662   2.985305   4.238545   1.766818
    23  H    3.770919   7.135231   5.531070   6.635504   2.517509
    24  H    3.113342   6.791977   5.376842   5.964267   3.740465
    25  H    2.582840   6.202828   4.558362   6.034090   3.107738
    26  H    4.287614   4.312476   3.776421   5.901343   6.998014
    27  H    2.870082   3.788615   2.588285   5.134408   5.231973
    28  H    2.928914   3.797129   3.155304   4.707141   6.280303
    29  H    5.505454   3.726212   3.772975   5.999958   7.421075
    30  H    5.362525   2.505408   3.114637   4.908021   7.017269
    31  H    4.547923   3.090905   2.586804   5.274474   5.799800
    32  H    2.899739   4.481648   4.223293   3.081019   6.191262
    33  H    3.734780   4.756186   4.691847   2.611194   6.120604
    34  H    4.153357   4.183944   4.609221   2.418611   7.191654
                   21         22         23         24         25
    21  H    0.000000
    22  H    1.772051   0.000000
    23  H    3.138131   3.742965   0.000000
    24  H    3.806674   4.320280   1.768593   0.000000
    25  H    2.626659   3.806039   1.772098   1.772670   0.000000
    26  H    5.235366   6.303739   7.362672   6.938118   5.726603
    27  H    3.471789   4.652968   5.698040   5.472415   4.156779
    28  H    4.641154   5.536575   6.332489   5.597878   4.714296
    29  H    5.739018   6.405423   8.543330   8.437146   7.180070
    30  H    5.524165   5.688685   8.464401   8.387978   7.341154
    31  H    4.208292   4.794851   7.207216   7.345452   6.059785
    32  H    5.369733   5.297739   5.777592   4.411404   4.884857
    33  H    5.710983   5.081312   5.983004   4.797178   5.580011
    34  H    6.388821   5.962993   7.200857   5.975746   6.421710
                   26         27         28         29         30
    26  H    0.000000
    27  H    1.772215   0.000000
    28  H    1.766648   1.772046   0.000000
    29  H    2.519686   3.139985   3.744439   0.000000
    30  H    3.741246   3.805352   4.319942   1.768791   0.000000
    31  H    3.106285   2.624979   3.805164   1.772226   1.772661
    32  H    5.638644   4.968392   3.911705   6.942831   6.586618
    33  H    7.013647   6.145932   5.384266   7.895877   7.171456
    34  H    6.294513   5.860815   4.746716   7.122510   6.453005
                   31         32         33         34
    31  H    0.000000
    32  H    6.480076   0.000000
    33  H    7.194855   1.781166   0.000000
    34  H    6.799345   1.743280   1.778286   0.000000
 Stoichiometry    C10H22O2
 Framework group  C1[X(C10H22O2)]
 Deg. of freedom    96
 Full point group                 C1      NOp   1
 Largest Abelian subgroup         C1      NOp   1
 Largest concise Abelian subgroup C1      NOp   1
                         Standard orientation:                         
 ---------------------------------------------------------------------
 Center     Atomic      Atomic             Coordinates (Angstroms)
 Number     Number       Type             X           Y           Z
 ---------------------------------------------------------------------
      1          8           0       -1.055216    0.917364   -0.848206
      2          8           0        1.036143    1.231001    0.204846
      3          6           0       -2.659928   -0.763803   -0.181068
      4          6           0        2.815784   -0.406190    0.217841
      5          6           0       -1.586205    0.227733    0.275204
      6          6           0        1.675241    0.232375   -0.579514
      7          6           0       -0.043160    1.863527   -0.495309
      8          6           0       -2.081922   -1.810889   -1.135761
      9          6           0       -3.304464   -1.443759    1.024853
     10          6           0        2.297553   -1.079164    1.490577
     11          6           0        3.570392   -1.414423   -0.646006
     12          6           0       -0.632679    2.900978    0.451790
     13          1           0       -3.434019   -0.212348   -0.729884
     14          1           0        3.511568    0.384824    0.525399
     15          1           0       -2.067509    0.929430    0.963459
     16          1           0       -0.797206   -0.305286    0.817411
     17          1           0        2.077041    0.698963   -1.487122
     18          1           0        0.959310   -0.540238   -0.881726
     19          1           0        0.324495    2.342493   -1.409154
     20          1           0       -2.857222   -2.516786   -1.452413
     21          1           0       -1.278641   -2.382228   -0.657866
     22          1           0       -1.673920   -1.342241   -2.037121
     23          1           0       -4.093506   -2.133404    0.706863
     24          1           0       -3.758178   -0.704024    1.692942
     25          1           0       -2.568034   -2.014531    1.600806
     26          1           0        3.120685   -1.535053    2.050876
     27          1           0        1.571702   -1.865277    1.255671
     28          1           0        1.809979   -0.354775    2.151079
     29          1           0        4.407726   -1.851777   -0.092027
     30          1           0        3.978174   -0.931962   -1.540491
     31          1           0        2.915358   -2.230717   -0.969538
     32          1           0       -0.754774    2.519466    1.471217
     33          1           0       -1.598744    3.270001    0.093914
     34          1           0        0.054623    3.750232    0.538952
 ---------------------------------------------------------------------
 Rotational constants (GHZ):           1.0323154           0.5315827           0.4207692
 Standard basis: 6-311++G(d,p) (5D, 7F)
 There are   430 symmetry adapted cartesian basis functions of A   symmetry.
 There are   418 symmetry adapted basis functions of A   symmetry.
   418 basis functions,   630 primitive gaussians,   430 cartesian basis functions
    49 alpha electrons       49 beta electrons
       nuclear repulsion energy       795.9837299084 Hartrees.
 NAtoms=   34 NActive=   34 NUniq=   34 SFac= 1.00D+00 NAtFMM=   60 NAOKFM=F Big=F
 Integral buffers will be    131072 words long.
 Raffenetti 2 integral format.
 Two-electron integral symmetry is turned on.
 R6APFD:  NTU= -4 IXU= 1 FactS= 1.050
 Nuclear repulsion after empirical dispersion term =      795.9555817272 Hartrees.
 One-electron integrals computed using PRISM.
 NBasis=   418 RedAO= T EigKep=  7.38D-06  NBF=   418
 NBsUse=   418 1.00D-06 EigRej= -1.00D+00 NBFU=   418
 ExpMin= 3.60D-02 ExpMax= 8.59D+03 ExpMxC= 1.30D+03 IAcc=3 IRadAn=         5 AccDes= 0.00D+00
 Harris functional with IExCor= 1009 and IRadAn=       5 diagonalized for initial guess.
 HarFok:  IExCor= 1009 AccDes= 0.00D+00 IRadAn=         5 IDoV= 1 UseB2=F ITyADJ=14
 ICtDFT=  3500011 ScaDFX=  1.000000  1.000000  1.000000  1.000000
 FoFCou: FMM=F IPFlag=           0 FMFlag=      100000 FMFlg1=           0
         NFxFlg=           0 DoJE=T BraDBF=F KetDBF=T FulRan=T
         wScrn=  0.000000 ICntrl=       500 IOpCl=  0 I1Cent=   200000004 NGrid=           0
         NMat0=    1 NMatS0=      1 NMatT0=    0 NMatD0=    1 NMtDS0=    0 NMtDT0=    0
 Petite list used in FoFCou.
 Requested convergence on RMS density matrix=1.00D-08 within  32 cycles.
 Requested convergence on MAX density matrix=1.00D-06.
 Requested convergence on             energy=1.00D-06.
 No special actions if energy rises.
 SCF Done:  E(RM08HX) =  -544.785966739     A.U. after   13 cycles
            NFock= 13  Conv=0.41D-08     -V/T= 2.0053
 QCSCF skips out because SCF is already converged.

 **********************************************************************

            Population analysis using the SCF Density.

 **********************************************************************

 Orbital symmetries:
       Occupied  (A) (A) (A) (A) (A) (A) (A) (A) (A) (A) (A) (A)
                 (A) (A) (A) (A) (A) (A) (A) (A) (A) (A) (A) (A)
                 (A) (A) (A) (A) (A) (A) (A) (A) (A) (A) (A) (A)
                 (A) (A) (A) (A) (A) (A) (A) (A) (A) (A) (A) (A)
                 (A)
       Virtual   (A) (A) (A) (A) (A) (A) (A) (A) (A) (A) (A) (A)
                 (A) (A) (A) (A) (A) (A) (A) (A) (A) (A) (A) (A)
                 (A) (A) (A) (A) (A) (A) (A) (A) (A) (A) (A) (A)
                 (A) (A) (A) (A) (A) (A) (A) (A) (A) (A) (A) (A)
                 (A) (A) (A) (A) (A) (A) (A) (A) (A) (A) (A) (A)
                 (A) (A) (A) (A) (A) (A) (A) (A) (A) (A) (A) (A)
                 (A) (A) (A) (A) (A) (A) (A) (A) (A) (A) (A) (A)
                 (A) (A) (A) (A) (A) (A) (A) (A) (A) (A) (A) (A)
                 (A) (A) (A) (A) (A) (A) (A) (A) (A) (A) (A) (A)
                 (A) (A) (A) (A) (A) (A) (A) (A) (A) (A) (A) (A)
                 (A) (A) (A) (A) (A) (A) (A) (A) (A) (A) (A) (A)
                 (A) (A) (A) (A) (A) (A) (A) (A) (A) (A) (A) (A)
                 (A) (A) (A) (A) (A) (A) (A) (A) (A) (A) (A) (A)
                 (A) (A) (A) (A) (A) (A) (A) (A) (A) (A) (A) (A)
                 (A) (A) (A) (A) (A) (A) (A) (A) (A) (A) (A) (A)
                 (A) (A) (A) (A) (A) (A) (A) (A) (A) (A) (A) (A)
                 (A) (A) (A) (A) (A) (A) (A) (A) (A) (A) (A) (A)
                 (A) (A) (A) (A) (A) (A) (A) (A) (A) (A) (A) (A)
                 (A) (A) (A) (A) (A) (A) (A) (A) (A) (A) (A) (A)
                 (A) (A) (A) (A) (A) (A) (A) (A) (A) (A) (A) (A)
                 (A) (A) (A) (A) (A) (A) (A) (A) (A) (A) (A) (A)
                 (A) (A) (A) (A) (A) (A) (A) (A) (A) (A) (A) (A)
                 (A) (A) (A) (A) (A) (A) (A) (A) (A) (A) (A) (A)
                 (A) (A) (A) (A) (A) (A) (A) (A) (A) (A) (A) (A)
                 (A) (A) (A) (A) (A) (A) (A) (A) (A) (A) (A) (A)
                 (A) (A) (A) (A) (A) (A) (A) (A) (A) (A) (A) (A)
                 (A) (A) (A) (A) (A) (A) (A) (A) (A) (A) (A) (A)
                 (A) (A) (A) (A) (A) (A) (A) (A) (A) (A) (A) (A)
                 (A) (A) (A) (A) (A) (A) (A) (A) (A) (A) (A) (A)
                 (A) (A) (A) (A) (A) (A) (A) (A) (A) (A) (A) (A)
                 (A) (A) (A) (A) (A) (A) (A) (A) (A)
 The electronic state is 1-A.
 Alpha  occ. eigenvalues --  -19.61700 -19.61419 -10.63445 -10.56982 -10.56794
 Alpha  occ. eigenvalues --  -10.53268 -10.53120 -10.51936 -10.51635 -10.51580
 Alpha  occ. eigenvalues --  -10.50998 -10.50814  -1.18923  -1.12352  -0.91809
 Alpha  occ. eigenvalues --   -0.90696  -0.85332  -0.78213  -0.77809  -0.77711
 Alpha  occ. eigenvalues --   -0.76650  -0.68461  -0.65056  -0.64806  -0.59148
 Alpha  occ. eigenvalues --   -0.58756  -0.56212  -0.54470  -0.52712  -0.51134
 Alpha  occ. eigenvalues --   -0.50390  -0.49417  -0.47575  -0.46836  -0.46324
 Alpha  occ. eigenvalues --   -0.45749  -0.45068  -0.44837  -0.44293  -0.43047
 Alpha  occ. eigenvalues --   -0.40331  -0.39928  -0.39836  -0.39496  -0.38793
 Alpha  occ. eigenvalues --   -0.38784  -0.36678  -0.34717  -0.34115
 Alpha virt. eigenvalues --   -0.02892  -0.02051  -0.01844  -0.01466  -0.00301
 Alpha virt. eigenvalues --   -0.00103   0.00204   0.00691   0.01058   0.02049
 Alpha virt. eigenvalues --    0.02315   0.02599   0.03028   0.03248   0.03641
 Alpha virt. eigenvalues --    0.04421   0.05286   0.05487   0.05629   0.06366
 Alpha virt. eigenvalues --    0.06748   0.07259   0.07634   0.08218   0.08637
 Alpha virt. eigenvalues --    0.09043   0.09301   0.09690   0.10350   0.10590
 Alpha virt. eigenvalues --    0.11100   0.11619   0.11784   0.11892   0.12412
 Alpha virt. eigenvalues --    0.12698   0.12930   0.13282   0.13826   0.13970
 Alpha virt. eigenvalues --    0.14257   0.14542   0.14847   0.15204   0.15298
 Alpha virt. eigenvalues --    0.15840   0.15860   0.16240   0.16393   0.16509
 Alpha virt. eigenvalues --    0.17248   0.17544   0.17632   0.17902   0.18278
 Alpha virt. eigenvalues --    0.19132   0.19796   0.20166   0.20663   0.20859
 Alpha virt. eigenvalues --    0.21217   0.22191   0.22964   0.23077   0.23681
 Alpha virt. eigenvalues --    0.23814   0.24148   0.24622   0.24918   0.25478
 Alpha virt. eigenvalues --    0.26006   0.26629   0.27595   0.27972   0.28022
 Alpha virt. eigenvalues --    0.28681   0.29019   0.29848   0.30496   0.30761
 Alpha virt. eigenvalues --    0.31141   0.31502   0.31684   0.32105   0.32630
 Alpha virt. eigenvalues --    0.33376   0.33618   0.34132   0.35268   0.35692
 Alpha virt. eigenvalues --    0.36172   0.36694   0.37592   0.38001   0.39346
 Alpha virt. eigenvalues --    0.39684   0.40225   0.40807   0.41697   0.43286
 Alpha virt. eigenvalues --    0.43738   0.44555   0.46907   0.47443   0.48063
 Alpha virt. eigenvalues --    0.48477   0.49544   0.52035   0.52970   0.53925
 Alpha virt. eigenvalues --    0.55057   0.55399   0.55656   0.56740   0.58121
 Alpha virt. eigenvalues --    0.59741   0.60303   0.61106   0.63301   0.63550
 Alpha virt. eigenvalues --    0.64493   0.65710   0.65778   0.67718   0.68489
 Alpha virt. eigenvalues --    0.68930   0.69143   0.69465   0.69876   0.69979
 Alpha virt. eigenvalues --    0.70780   0.71423   0.71923   0.72423   0.72680
 Alpha virt. eigenvalues --    0.73296   0.74230   0.74250   0.75480   0.76337
 Alpha virt. eigenvalues --    0.76632   0.77508   0.78391   0.78750   0.79314
 Alpha virt. eigenvalues --    0.79614   0.80268   0.80588   0.81442   0.81785
 Alpha virt. eigenvalues --    0.83914   0.84539   0.86309   0.87525   0.91569
 Alpha virt. eigenvalues --    0.94452   0.95083   0.98433   1.00361   1.02802
 Alpha virt. eigenvalues --    1.04047   1.05409   1.05999   1.07830   1.09038
 Alpha virt. eigenvalues --    1.10383   1.11205   1.12935   1.14924   1.16729
 Alpha virt. eigenvalues --    1.18768   1.22332   1.24195   1.25441   1.25580
 Alpha virt. eigenvalues --    1.26726   1.31041   1.32785   1.35244   1.37367
 Alpha virt. eigenvalues --    1.39716   1.42561   1.44157   1.45612   1.48237
 Alpha virt. eigenvalues --    1.49413   1.50276   1.50566   1.50680   1.51414
 Alpha virt. eigenvalues --    1.52140   1.52971   1.53627   1.54427   1.56105
 Alpha virt. eigenvalues --    1.58370   1.58718   1.60082   1.60597   1.61255
 Alpha virt. eigenvalues --    1.62078   1.62592   1.62860   1.63520   1.64421
 Alpha virt. eigenvalues --    1.64634   1.65180   1.66440   1.66853   1.67079
 Alpha virt. eigenvalues --    1.68035   1.68683   1.69133   1.71382   1.71602
 Alpha virt. eigenvalues --    1.73724   1.74239   1.76226   1.76805   1.78256
 Alpha virt. eigenvalues --    1.78813   1.79036   1.80436   1.80563   1.82395
 Alpha virt. eigenvalues --    1.83618   1.84442   1.85144   1.85453   1.86820
 Alpha virt. eigenvalues --    1.87676   1.89053   1.89847   1.91641   1.93293
 Alpha virt. eigenvalues --    1.96692   1.99114   1.99679   2.01575   2.03983
 Alpha virt. eigenvalues --    2.06870   2.09359   2.10618   2.10834   2.12658
 Alpha virt. eigenvalues --    2.13315   2.16622   2.17368   2.17758   2.18859
 Alpha virt. eigenvalues --    2.19149   2.20522   2.23733   2.24201   2.27749
 Alpha virt. eigenvalues --    2.30186   2.31242   2.34220   2.35462   2.37831
 Alpha virt. eigenvalues --    2.38202   2.40355   2.40957   2.44038   2.44831
 Alpha virt. eigenvalues --    2.49859   2.50292   2.51774   2.52539   2.53205
 Alpha virt. eigenvalues --    2.54305   2.54953   2.55473   2.56430   2.56811
 Alpha virt. eigenvalues --    2.57291   2.57712   2.58176   2.58483   2.59102
 Alpha virt. eigenvalues --    2.59612   2.60878   2.62023   2.62804   2.63080
 Alpha virt. eigenvalues --    2.63592   2.64728   2.65150   2.67689   2.69302
 Alpha virt. eigenvalues --    2.69615   2.72074   2.72577   2.73178   2.74023
 Alpha virt. eigenvalues --    2.75676   2.77479   2.77965   2.79292   2.80344
 Alpha virt. eigenvalues --    2.83672   2.84250   2.85639   2.87402   2.90375
 Alpha virt. eigenvalues --    2.92173   2.95198   2.96477   2.97356   2.98472
 Alpha virt. eigenvalues --    3.00579   3.00687   3.05348   3.08155   3.11960
 Alpha virt. eigenvalues --    3.14720   3.18594   3.20400   3.22494   3.23422
 Alpha virt. eigenvalues --    3.27671   3.30963   3.33153   3.34323   3.40007
 Alpha virt. eigenvalues --    3.47748   3.55671   3.58852   3.80998   3.81217
 Alpha virt. eigenvalues --    3.81983   3.82327   3.82500   3.83953   3.85256
 Alpha virt. eigenvalues --    3.86111   3.86926   3.87163   3.90839   3.93245
 Alpha virt. eigenvalues --    4.02906   4.06540   4.08906   4.15220   4.17249
 Alpha virt. eigenvalues --    4.24429   4.33638   4.38269   4.38717   4.39182
 Alpha virt. eigenvalues --    4.42893   5.28438   5.30737   5.50565   5.57323
 Alpha virt. eigenvalues --    5.76036   5.87308  23.83530  23.91235  23.91456
 Alpha virt. eigenvalues --   23.95511  23.96042  24.03246  24.03640  24.04155
 Alpha virt. eigenvalues --   24.04881  24.05083  49.97235  50.00674
          Condensed to atoms (all electrons):
               1          2          3          4          5          6
     1  O    8.040059  -0.076540  -0.265889  -0.056637   0.256335  -0.030675
     2  O   -0.076540   8.033792  -0.030465  -0.219401   0.041724   0.017465
     3  C   -0.265889  -0.030465  10.858623   0.125014  -3.878161  -0.003321
     4  C   -0.056637  -0.219401   0.125014  10.399416  -0.007130  -3.522338
     5  C    0.256335   0.041724  -3.878161  -0.007130  10.469751  -0.000328
     6  C   -0.030675   0.017465  -0.003321  -3.522338  -0.000328  10.120213
     7  C    0.165864   0.288879  -0.155729  -0.150681  -1.067396  -0.778197
     8  C    0.036913   0.014289  -1.398616   0.010007   0.683045  -0.027915
     9  C    0.043214   0.014205  -0.439007  -0.014167   0.165672  -0.047372
    10  C    0.010925   0.063639  -0.003680  -1.189870  -0.005812   0.554378
    11  C    0.004397   0.023455  -0.019571  -0.536685  -0.008671   0.350518
    12  C   -0.033581  -0.155767  -0.153886  -0.133064   0.251555   0.026131
    13  H   -0.009772  -0.001912   0.830978   0.003198  -0.280475   0.003559
    14  H   -0.002749  -0.008898   0.004725   0.817820   0.003648  -0.277830
    15  H   -0.022033  -0.021430  -0.045581   0.003469   0.254326  -0.085808
    16  H   -0.050316   0.033226   0.329863   0.037165  -0.000912   0.014428
    17  H   -0.025280  -0.032579   0.010350  -0.136370   0.012742   0.496821
    18  H    0.038483  -0.056838   0.088140   0.287504  -0.071924  -0.030637
    19  H   -0.097257  -0.029166   0.000713   0.011233  -0.058878  -0.040737
    20  H   -0.001446   0.000600  -0.194885   0.003192   0.079009  -0.005748
    21  H   -0.003646   0.000685   0.263395  -0.016661  -0.131633  -0.002886
    22  H    0.013752  -0.003015  -0.111994  -0.010109  -0.008589   0.033822
    23  H   -0.002974   0.000283  -0.132189   0.000703   0.077637  -0.002481
    24  H   -0.000501   0.000732  -0.140448  -0.002535   0.052565   0.007960
    25  H    0.000050  -0.001270   0.207837   0.002763  -0.150119  -0.006093
    26  H    0.000172   0.004200   0.003258  -0.180129  -0.004755   0.062336
    27  H   -0.000627  -0.008464  -0.016180   0.215485   0.009811  -0.100428
    28  H    0.001036   0.006365  -0.010506  -0.086911   0.021689  -0.017707
    29  H   -0.000295  -0.004462   0.000087  -0.123653  -0.000321   0.088656
    30  H    0.001221  -0.000769  -0.003101  -0.130121   0.003760   0.031711
    31  H   -0.000301   0.001692   0.000576   0.205839  -0.004989  -0.149878
    32  H   -0.024670  -0.018544  -0.041795   0.013376   0.023151  -0.009444
    33  H    0.003754   0.019818  -0.008820  -0.004531   0.014702   0.012522
    34  H    0.015133  -0.000056   0.000279  -0.004875   0.015833   0.015832
               7          8          9         10         11         12
     1  O    0.165864   0.036913   0.043214   0.010925   0.004397  -0.033581
     2  O    0.288879   0.014289   0.014205   0.063639   0.023455  -0.155767
     3  C   -0.155729  -1.398616  -0.439007  -0.003680  -0.019571  -0.153886
     4  C   -0.150681   0.010007  -0.014167  -1.189870  -0.536685  -0.133064
     5  C   -1.067396   0.683045   0.165672  -0.005812  -0.008671   0.251555
     6  C   -0.778197  -0.027915  -0.047372   0.554378   0.350518   0.026131
     7  C    8.952554  -0.044370  -0.056868  -0.030981  -0.016082  -1.178147
     8  C   -0.044370   6.629505  -0.042186   0.015037   0.010553   0.036254
     9  C   -0.056868  -0.042186   6.075603   0.016879  -0.000304  -0.007959
    10  C   -0.030981   0.015037   0.016879   6.530159  -0.070409  -0.010509
    11  C   -0.016082   0.010553  -0.000304  -0.070409   6.021840   0.004390
    12  C   -1.178147   0.036254  -0.007959  -0.010509   0.004390   6.955772
    13  H    0.004841  -0.173775  -0.110319  -0.001527  -0.000126  -0.006506
    14  H   -0.010458  -0.001204  -0.000173  -0.156953  -0.108996  -0.005083
    15  H    0.067190   0.052974   0.011120   0.004164  -0.001931   0.055097
    16  H   -0.037488  -0.103343  -0.013906  -0.007282  -0.001075  -0.010903
    17  H   -0.027069   0.000156  -0.000409   0.058464  -0.021032  -0.010519
    18  H    0.046937  -0.025251  -0.001487  -0.089072  -0.031275   0.029072
    19  H    0.571464  -0.001446  -0.003496   0.001866   0.004057  -0.149832
    20  H    0.007071   0.483773  -0.007811  -0.000037   0.000778  -0.001379
    21  H    0.004338   0.244203  -0.035575   0.002031  -0.000102   0.002051
    22  H   -0.018272   0.463919   0.013207  -0.000367   0.000750   0.006021
    23  H   -0.003148  -0.017150   0.434850   0.000473  -0.000341  -0.001928
    24  H   -0.002423   0.035358   0.436699   0.000971   0.000065  -0.002265
    25  H    0.000257  -0.050557   0.344656  -0.001417   0.000209   0.001421
    26  H    0.003283   0.000159   0.001592   0.481452  -0.005658  -0.002595
    27  H    0.007059  -0.001040   0.000998   0.262238  -0.039438   0.000869
    28  H   -0.012880   0.002025  -0.000377   0.453787   0.018861   0.002202
    29  H   -0.003354  -0.000024  -0.000261  -0.016692   0.417332  -0.000605
    30  H    0.006058   0.000760  -0.000086   0.022404   0.448684   0.002678
    31  H   -0.004050   0.001381   0.000205  -0.048201   0.347338  -0.000192
    32  H    0.147577   0.001467  -0.004829  -0.009335   0.000393   0.274622
    33  H   -0.191154   0.002178   0.000983   0.001653   0.000090   0.526169
    34  H   -0.119512   0.000868  -0.001851   0.000646  -0.001193   0.434654
              13         14         15         16         17         18
     1  O   -0.009772  -0.002749  -0.022033  -0.050316  -0.025280   0.038483
     2  O   -0.001912  -0.008898  -0.021430   0.033226  -0.032579  -0.056838
     3  C    0.830978   0.004725  -0.045581   0.329863   0.010350   0.088140
     4  C    0.003198   0.817820   0.003469   0.037165  -0.136370   0.287504
     5  C   -0.280475   0.003648   0.254326  -0.000912   0.012742  -0.071924
     6  C    0.003559  -0.277830  -0.085808   0.014428   0.496821  -0.030637
     7  C    0.004841  -0.010458   0.067190  -0.037488  -0.027069   0.046937
     8  C   -0.173775  -0.001204   0.052974  -0.103343   0.000156  -0.025251
     9  C   -0.110319  -0.000173   0.011120  -0.013906  -0.000409  -0.001487
    10  C   -0.001527  -0.156953   0.004164  -0.007282   0.058464  -0.089072
    11  C   -0.000126  -0.108996  -0.001931  -0.001075  -0.021032  -0.031275
    12  C   -0.006506  -0.005083   0.055097  -0.010903  -0.010519   0.029072
    13  H    0.477641   0.000155  -0.016320   0.022473   0.000333   0.003507
    14  H    0.000155   0.476058  -0.000915   0.003341  -0.008118   0.021820
    15  H   -0.016320  -0.000915   0.780678  -0.137122  -0.005916   0.018966
    16  H    0.022473   0.003341  -0.137122   0.671393   0.012209  -0.038100
    17  H    0.000333  -0.008118  -0.005916   0.012209   0.610941  -0.127652
    18  H    0.003507   0.021820   0.018966  -0.038100  -0.127652   0.683469
    19  H    0.001525  -0.004813  -0.008515   0.002331   0.016387  -0.007730
    20  H   -0.012554   0.000005   0.000701  -0.002782  -0.000470   0.000956
    21  H    0.014007  -0.000960   0.006135  -0.003990   0.001870   0.010234
    22  H   -0.013033  -0.000164  -0.003101   0.008197  -0.002645  -0.008791
    23  H   -0.012391   0.000019  -0.001315  -0.003118   0.000174   0.000111
    24  H   -0.021212  -0.000028  -0.015860  -0.002102   0.000393  -0.003050
    25  H    0.014587   0.000032   0.013354   0.004311  -0.000590   0.006075
    26  H   -0.000032  -0.012633   0.000419   0.001920   0.002389  -0.003629
    27  H   -0.000666   0.013922  -0.000060   0.007513  -0.000595  -0.003682
    28  H   -0.000262  -0.012124   0.001345  -0.009427  -0.002347   0.010927
    29  H    0.000020  -0.012050  -0.000205   0.000330  -0.001043  -0.005173
    30  H   -0.000028  -0.021686   0.000461  -0.002837  -0.014675  -0.001375
    31  H   -0.000069   0.013758  -0.000111   0.005104   0.010070   0.006407
    32  H    0.000837   0.001100  -0.016412  -0.013023  -0.000011  -0.002986
    33  H   -0.002041   0.000023  -0.024852   0.008524   0.002086  -0.001853
    34  H    0.000074   0.000487   0.005166   0.001960  -0.000383   0.000578
              19         20         21         22         23         24
     1  O   -0.097257  -0.001446  -0.003646   0.013752  -0.002974  -0.000501
     2  O   -0.029166   0.000600   0.000685  -0.003015   0.000283   0.000732
     3  C    0.000713  -0.194885   0.263395  -0.111994  -0.132189  -0.140448
     4  C    0.011233   0.003192  -0.016661  -0.010109   0.000703  -0.002535
     5  C   -0.058878   0.079009  -0.131633  -0.008589   0.077637   0.052565
     6  C   -0.040737  -0.005748  -0.002886   0.033822  -0.002481   0.007960
     7  C    0.571464   0.007071   0.004338  -0.018272  -0.003148  -0.002423
     8  C   -0.001446   0.483773   0.244203   0.463919  -0.017150   0.035358
     9  C   -0.003496  -0.007811  -0.035575   0.013207   0.434850   0.436699
    10  C    0.001866  -0.000037   0.002031  -0.000367   0.000473   0.000971
    11  C    0.004057   0.000778  -0.000102   0.000750  -0.000341   0.000065
    12  C   -0.149832  -0.001379   0.002051   0.006021  -0.001928  -0.002265
    13  H    0.001525  -0.012554   0.014007  -0.013033  -0.012391  -0.021212
    14  H   -0.004813   0.000005  -0.000960  -0.000164   0.000019  -0.000028
    15  H   -0.008515   0.000701   0.006135  -0.003101  -0.001315  -0.015860
    16  H    0.002331  -0.002782  -0.003990   0.008197  -0.003118  -0.002102
    17  H    0.016387  -0.000470   0.001870  -0.002645   0.000174   0.000393
    18  H   -0.007730   0.000956   0.010234  -0.008791   0.000111  -0.003050
    19  H    0.538417   0.001026  -0.000131  -0.001550  -0.000225  -0.000043
    20  H    0.001026   0.493188  -0.051438  -0.021355  -0.004225   0.002999
    21  H   -0.000131  -0.051438   0.564410  -0.057384   0.005650  -0.007785
    22  H   -0.001550  -0.021355  -0.057384   0.498702   0.001243   0.000791
    23  H   -0.000225  -0.004225   0.005650   0.001243   0.489253  -0.019220
    24  H   -0.000043   0.002999  -0.007785   0.000791  -0.019220   0.547109
    25  H    0.000418   0.001574   0.010133  -0.005848  -0.034894  -0.057465
    26  H    0.000406   0.000082   0.000278  -0.000179   0.000063  -0.000017
    27  H   -0.000413  -0.000057  -0.007519   0.001886   0.000131   0.000706
    28  H   -0.000490  -0.000043   0.002058  -0.000640   0.000057  -0.000061
    29  H   -0.000089  -0.000027   0.000103   0.000160  -0.000009   0.000009
    30  H    0.001422   0.000028   0.000642   0.000118  -0.000023  -0.000022
    31  H   -0.000475   0.000187  -0.003195   0.000174   0.000009   0.000034
    32  H    0.017584  -0.000051  -0.000553  -0.000127  -0.000196   0.000558
    33  H   -0.016194  -0.000023  -0.000142   0.000410  -0.000050   0.001891
    34  H   -0.021819  -0.000035  -0.000192   0.000488  -0.000068  -0.000207
              25         26         27         28         29         30
     1  O    0.000050   0.000172  -0.000627   0.001036  -0.000295   0.001221
     2  O   -0.001270   0.004200  -0.008464   0.006365  -0.004462  -0.000769
     3  C    0.207837   0.003258  -0.016180  -0.010506   0.000087  -0.003101
     4  C    0.002763  -0.180129   0.215485  -0.086911  -0.123653  -0.130121
     5  C   -0.150119  -0.004755   0.009811   0.021689  -0.000321   0.003760
     6  C   -0.006093   0.062336  -0.100428  -0.017707   0.088656   0.031711
     7  C    0.000257   0.003283   0.007059  -0.012880  -0.003354   0.006058
     8  C   -0.050557   0.000159  -0.001040   0.002025  -0.000024   0.000760
     9  C    0.344656   0.001592   0.000998  -0.000377  -0.000261  -0.000086
    10  C   -0.001417   0.481452   0.262238   0.453787  -0.016692   0.022404
    11  C    0.000209  -0.005658  -0.039438   0.018861   0.417332   0.448684
    12  C    0.001421  -0.002595   0.000869   0.002202  -0.000605   0.002678
    13  H    0.014587  -0.000032  -0.000666  -0.000262   0.000020  -0.000028
    14  H    0.000032  -0.012633   0.013922  -0.012124  -0.012050  -0.021686
    15  H    0.013354   0.000419  -0.000060   0.001345  -0.000205   0.000461
    16  H    0.004311   0.001920   0.007513  -0.009427   0.000330  -0.002837
    17  H   -0.000590   0.002389  -0.000595  -0.002347  -0.001043  -0.014675
    18  H    0.006075  -0.003629  -0.003682   0.010927  -0.005173  -0.001375
    19  H    0.000418   0.000406  -0.000413  -0.000490  -0.000089   0.001422
    20  H    0.001574   0.000082  -0.000057  -0.000043  -0.000027   0.000028
    21  H    0.010133   0.000278  -0.007519   0.002058   0.000103   0.000642
    22  H   -0.005848  -0.000179   0.001886  -0.000640   0.000160   0.000118
    23  H   -0.034894   0.000063   0.000131   0.000057  -0.000009  -0.000023
    24  H   -0.057465  -0.000017   0.000706  -0.000061   0.000009  -0.000022
    25  H    0.507919  -0.000005  -0.003161   0.000180  -0.000036   0.000073
    26  H   -0.000005   0.488036  -0.049204  -0.021878  -0.004711   0.002604
    27  H   -0.003161  -0.049204   0.555924  -0.055654   0.003415  -0.006102
    28  H    0.000180  -0.021878  -0.055654   0.503431   0.003455  -0.000409
    29  H   -0.000036  -0.004711   0.003415   0.003455   0.497790  -0.021903
    30  H    0.000073   0.002604  -0.006102  -0.000409  -0.021903   0.550460
    31  H   -0.000114   0.002288   0.010525  -0.006342  -0.036441  -0.056766
    32  H   -0.000164  -0.000231   0.001324  -0.002981  -0.000007  -0.000036
    33  H   -0.000516  -0.000025  -0.000205   0.000463  -0.000003  -0.000039
    34  H    0.000044  -0.000114   0.000040   0.000245   0.000041  -0.000144
              31         32         33         34
     1  O   -0.000301  -0.024670   0.003754   0.015133
     2  O    0.001692  -0.018544   0.019818  -0.000056
     3  C    0.000576  -0.041795  -0.008820   0.000279
     4  C    0.205839   0.013376  -0.004531  -0.004875
     5  C   -0.004989   0.023151   0.014702   0.015833
     6  C   -0.149878  -0.009444   0.012522   0.015832
     7  C   -0.004050   0.147577  -0.191154  -0.119512
     8  C    0.001381   0.001467   0.002178   0.000868
     9  C    0.000205  -0.004829   0.000983  -0.001851
    10  C   -0.048201  -0.009335   0.001653   0.000646
    11  C    0.347338   0.000393   0.000090  -0.001193
    12  C   -0.000192   0.274622   0.526169   0.434654
    13  H   -0.000069   0.000837  -0.002041   0.000074
    14  H    0.013758   0.001100   0.000023   0.000487
    15  H   -0.000111  -0.016412  -0.024852   0.005166
    16  H    0.005104  -0.013023   0.008524   0.001960
    17  H    0.010070  -0.000011   0.002086  -0.000383
    18  H    0.006407  -0.002986  -0.001853   0.000578
    19  H   -0.000475   0.017584  -0.016194  -0.021819
    20  H    0.000187  -0.000051  -0.000023  -0.000035
    21  H   -0.003195  -0.000553  -0.000142  -0.000192
    22  H    0.000174  -0.000127   0.000410   0.000488
    23  H    0.000009  -0.000196  -0.000050  -0.000068
    24  H    0.000034   0.000558   0.001891  -0.000207
    25  H   -0.000114  -0.000164  -0.000516   0.000044
    26  H    0.002288  -0.000231  -0.000025  -0.000114
    27  H    0.010525   0.001324  -0.000205   0.000040
    28  H   -0.006342  -0.002981   0.000463   0.000245
    29  H   -0.036441  -0.000007  -0.000003   0.000041
    30  H   -0.056766  -0.000036  -0.000039  -0.000144
    31  H    0.509680   0.000068   0.000006   0.000071
    32  H    0.000068   0.520340  -0.051808  -0.037713
    33  H    0.000006  -0.051808   0.473747  -0.002970
    34  H    0.000071  -0.037713  -0.002970   0.457651
 Mulliken charges:
               1
     1  O    0.073881
     2  O    0.104530
     3  C    0.329985
     4  C    0.389684
     5  C   -0.756863
     6  C   -0.696532
     7  C   -0.365111
     8  C   -0.837949
     9  C   -0.771438
    10  C   -0.839022
    11  C   -0.790820
    12  C   -0.744239
    13  H    0.285283
    14  H    0.288920
    15  H    0.131920
    16  H    0.273437
    17  H    0.182315
    18  H    0.257322
    19  H    0.274449
    20  H    0.229198
    21  H    0.191570
    22  H    0.223522
    23  H    0.225287
    24  H    0.186405
    25  H    0.196355
    26  H    0.230858
    27  H    0.201649
    28  H    0.212913
    29  H    0.219970
    30  H    0.187040
    31  H    0.195712
    32  H    0.232516
    33  H    0.236208
    34  H    0.241044
 Sum of Mulliken charges =  -0.00000
 Mulliken charges with hydrogens summed into heavy atoms:
               1
     1  O    0.073881
     2  O    0.104530
     3  C    0.615269
     4  C    0.678604
     5  C   -0.351506
     6  C   -0.256896
     7  C   -0.090662
     8  C   -0.193659
     9  C   -0.163391
    10  C   -0.193601
    11  C   -0.188098
    12  C   -0.034471
 Electronic spatial extent (au):  <R**2>=           2993.6075
 Charge=             -0.0000 electrons
 Dipole moment (field-independent basis, Debye):
    X=              0.0433    Y=              0.0933    Z=              0.1777  Tot=              0.2053
 Quadrupole moment (field-independent basis, Debye-Ang):
   XX=            -76.6415   YY=            -77.2924   ZZ=            -81.2283
   XY=             -0.6620   XZ=             -2.8719   YZ=             -0.7159
 Traceless Quadrupole moment (field-independent basis, Debye-Ang):
   XX=              1.7459   YY=              1.0950   ZZ=             -2.8409
   XY=             -0.6620   XZ=             -2.8719   YZ=             -0.7159
 Octapole moment (field-independent basis, Debye-Ang**2):
  XXX=              0.6108  YYY=             23.5907  ZZZ=             -2.0880  XYY=             -3.4405
  XXY=             -0.3749  XXZ=              0.2290  XZZ=              3.3063  YZZ=              5.7602
  YYZ=             -3.3917  XYZ=             -6.5839
 Hexadecapole moment (field-independent basis, Debye-Ang**3):
 XXXX=          -2477.8941 YYYY=          -1169.3681 ZZZZ=           -477.3892 XXXY=              3.1764
 XXXZ=             21.0167 YYYX=              1.7142 YYYZ=             -8.9709 ZZZX=              0.2796
 ZZZY=             -1.4818 XXYY=           -618.6906 XXZZ=           -503.2162 YYZZ=           -278.8952
 XXYZ=             -0.9292 YYXZ=              1.1702 ZZXY=              1.9196
 N-N= 7.959555817272D+02 E-N=-2.859108985898D+03  KE= 5.418942967460D+02
 R6APFD:  NTU= -4 IXU= 1 FactS= 1.050
 Calling FoFJK, ICntrl=      2127 FMM=F ISym2X=0 I1Cent= 0 IOpClX= 0 NMat=1 NMatS=1 NMatT=0.
 ***** Axes restored to original set *****
 -------------------------------------------------------------------
 Center     Atomic                   Forces (Hartrees/Bohr)
 Number     Number              X              Y              Z
 -------------------------------------------------------------------
      1        8           0.013759722   -0.002562973    0.004336622
      2        8          -0.012211962   -0.005475532    0.011864953
      3        6           0.004824630    0.005376813    0.006277687
      4        6          -0.002850828    0.002094709   -0.004538178
      5        6          -0.012353154    0.003938960    0.005925919
      6        6           0.007885049   -0.002377588   -0.006878783
      7        6          -0.009511262    0.014966748   -0.028276762
      8        6           0.000219605   -0.003285826    0.002466651
      9        6          -0.000136204   -0.004551693   -0.000433467
     10        6          -0.001520791   -0.004174481   -0.000904391
     11        6          -0.000004364   -0.003908161    0.001899064
     12        6           0.011014365   -0.011684956   -0.004952333
     13        1          -0.001098847   -0.004086679   -0.000024482
     14        1           0.000919622   -0.003760744    0.001330384
     15        1           0.000996401   -0.003660351   -0.003781827
     16        1           0.005546424    0.001976884   -0.002238512
     17        1           0.000869599   -0.000965143    0.005487042
     18        1          -0.005292524    0.003419206    0.001119467
     19        1          -0.001847255    0.005918948    0.006798329
     20        1          -0.000786949    0.001665161   -0.000225402
     21        1           0.002139635    0.001264713   -0.002365754
     22        1           0.001622714   -0.001198334    0.000140319
     23        1          -0.000145249    0.000945138    0.000376105
     24        1          -0.000815971   -0.000346066   -0.002487028
     25        1           0.001972090    0.001287788   -0.000678652
     26        1           0.001057664    0.001447193   -0.000194798
     27        1          -0.001933066    0.002189528    0.001756765
     28        1          -0.001724308   -0.001026631    0.000201044
     29        1           0.000227572    0.000770559   -0.000669059
     30        1           0.000883596    0.000467292    0.002413690
     31        1          -0.001797567    0.001518299    0.000185962
     32        1           0.000317457    0.003738651    0.002122355
     33        1          -0.000048048    0.001251947    0.002568559
     34        1          -0.000177795   -0.001173382    0.001378511
 -------------------------------------------------------------------
 Cartesian Forces:  Max     0.028276762 RMS     0.005246543

 GradGradGradGradGradGradGradGradGradGradGradGradGradGradGradGradGradGrad
 Berny optimization.
 FormGI is forming the generalized inverse of G from B-inverse, IUseBI=4.
 Internal  Forces:  Max     0.023583936 RMS     0.003985334
 Search for a local minimum.
 Step number   1 out of a maximum of  180
 All quantities printed in internal units (Hartrees-Bohrs-Radians)
 Mixed Optimization -- RFO/linear search
 Second derivative matrix not updated -- first step.
 ITU=  0
     Eigenvalues ---    0.00354   0.00355   0.00365   0.00367   0.00407
     Eigenvalues ---    0.00408   0.00456   0.01247   0.01299   0.01406
     Eigenvalues ---    0.01412   0.03639   0.03639   0.04741   0.04744
     Eigenvalues ---    0.04862   0.04865   0.05110   0.05141   0.05334
     Eigenvalues ---    0.05481   0.05481   0.05517   0.05518   0.05549
     Eigenvalues ---    0.05549   0.05589   0.05591   0.05729   0.05766
     Eigenvalues ---    0.05887   0.06082   0.06503   0.09071   0.11175
     Eigenvalues ---    0.11331   0.13755   0.13775   0.16000   0.16000
     Eigenvalues ---    0.16000   0.16000   0.16000   0.16000   0.16000
     Eigenvalues ---    0.16000   0.16000   0.16000   0.16000   0.16000
     Eigenvalues ---    0.16000   0.16000   0.16000   0.16578   0.16578
     Eigenvalues ---    0.16758   0.16760   0.18104   0.20492   0.22024
     Eigenvalues ---    0.22055   0.25000   0.25000   0.29319   0.29324
     Eigenvalues ---    0.29393   0.29411   0.29688   0.29694   0.30039
     Eigenvalues ---    0.33959   0.33965   0.34042   0.34129   0.34149
     Eigenvalues ---    0.34159   0.34187   0.34187   0.34190   0.34200
     Eigenvalues ---    0.34207   0.34207   0.34209   0.34222   0.34226
     Eigenvalues ---    0.34226   0.34227   0.34234   0.34256   0.34266
     Eigenvalues ---    0.34308   0.34318   0.40477   0.41034   0.42222
     Eigenvalues ---    0.42292
 RFO step:  Lambda=-1.56017161D-02 EMin= 3.54072886D-03
 Linear search not attempted -- first point.
 Iteration  1 RMS(Cart)=  0.27525119 RMS(Int)=  0.00874083
 Iteration  2 RMS(Cart)=  0.04165729 RMS(Int)=  0.00069191
 Iteration  3 RMS(Cart)=  0.00046012 RMS(Int)=  0.00067181
 Iteration  4 RMS(Cart)=  0.00000060 RMS(Int)=  0.00067181
 Variable       Old X    -DE/DX   Delta X   Delta X   Delta X     New X
                                 (Linear)    (Quad)   (Total)
    R1        2.68553  -0.00339   0.00000  -0.00773  -0.00773   2.67780
    R2        2.70173  -0.01159   0.00000  -0.02720  -0.02720   2.67453
    R3        2.68642  -0.00374   0.00000  -0.00855  -0.00855   2.67787
    R4        2.70911  -0.02232   0.00000  -0.05311  -0.05311   2.65600
    R5        2.89333  -0.00649   0.00000  -0.02102  -0.02102   2.87231
    R6        2.89191   0.00012   0.00000   0.00038   0.00038   2.89229
    R7        2.88579   0.00096   0.00000   0.00309   0.00309   2.88887
    R8        2.07399   0.00288   0.00000   0.00810   0.00810   2.08209
    R9        2.89343  -0.00769   0.00000  -0.02489  -0.02489   2.86854
   R10        2.89154  -0.00005   0.00000  -0.00016  -0.00016   2.89138
   R11        2.88590   0.00114   0.00000   0.00366   0.00366   2.88956
   R12        2.07389   0.00289   0.00000   0.00812   0.00812   2.08202
   R13        2.06813   0.00434   0.00000   0.01210   0.01210   2.08023
   R14        2.07062   0.00606   0.00000   0.01697   0.01697   2.08760
   R15        2.07259   0.00526   0.00000   0.01478   0.01478   2.08737
   R16        2.07080   0.00620   0.00000   0.01735   0.01735   2.08815
   R17        2.87886   0.00046   0.00000   0.00146   0.00146   2.88033
   R18        2.06982   0.00239   0.00000   0.00669   0.00669   2.07651
   R19        2.06979   0.00155   0.00000   0.00434   0.00434   2.07413
   R20        2.07015   0.00324   0.00000   0.00905   0.00905   2.07921
   R21        2.06884   0.00124   0.00000   0.00345   0.00345   2.07229
   R22        2.06950   0.00080   0.00000   0.00224   0.00224   2.07174
   R23        2.06958   0.00211   0.00000   0.00591   0.00591   2.07549
   R24        2.06995   0.00236   0.00000   0.00661   0.00661   2.07656
   R25        2.06950   0.00152   0.00000   0.00424   0.00424   2.07374
   R26        2.07010   0.00323   0.00000   0.00904   0.00904   2.07914
   R27        2.06900   0.00129   0.00000   0.00361   0.00361   2.07260
   R28        2.06949   0.00082   0.00000   0.00229   0.00229   2.07178
   R29        2.06936   0.00208   0.00000   0.00581   0.00581   2.07518
   R30        2.07016   0.00226   0.00000   0.00634   0.00634   2.07649
   R31        2.06982  -0.00064   0.00000  -0.00179  -0.00179   2.06803
   R32        2.06796   0.00040   0.00000   0.00111   0.00111   2.06908
   R33        2.07114   0.00067   0.00000   0.00188   0.00188   2.07302
    A1        1.97199   0.00920   0.00000   0.03462   0.03462   2.00661
    A2        1.95944  -0.00312   0.00000  -0.01174  -0.01174   1.94770
    A3        1.94351  -0.00322   0.00000  -0.02570  -0.02558   1.91792
    A4        1.92731  -0.00135   0.00000  -0.01661  -0.01654   1.91077
    A5        1.89468   0.00033   0.00000  -0.00797  -0.00773   1.88696
    A6        1.92559   0.00318   0.00000   0.01592   0.01536   1.94096
    A7        1.87364   0.00123   0.00000   0.02366   0.02331   1.89694
    A8        1.89750  -0.00007   0.00000   0.01237   0.01192   1.90942
    A9        1.94368  -0.00429   0.00000  -0.03243  -0.03231   1.91137
   A10        1.92713  -0.00071   0.00000  -0.01332  -0.01324   1.91389
   A11        1.89400   0.00058   0.00000  -0.00545  -0.00517   1.88883
   A12        1.92569   0.00347   0.00000   0.01679   0.01618   1.94186
   A13        1.87405   0.00146   0.00000   0.02418   0.02381   1.89785
   A14        1.89769  -0.00041   0.00000   0.01194   0.01150   1.90919
   A15        1.91847  -0.00777   0.00000  -0.03450  -0.03492   1.88355
   A16        1.92871   0.00143   0.00000   0.01608   0.01645   1.94516
   A17        1.93712   0.00090   0.00000  -0.01973  -0.02063   1.91650
   A18        1.86943   0.00725   0.00000   0.05565   0.05575   1.92518
   A19        1.91496   0.00044   0.00000  -0.01059  -0.01146   1.90350
   A20        1.89376  -0.00196   0.00000  -0.00402  -0.00404   1.88972
   A21        1.91827  -0.00580   0.00000  -0.02560  -0.02591   1.89236
   A22        1.89910   0.00283   0.00000   0.02634   0.02650   1.92560
   A23        1.93235   0.00010   0.00000  -0.01930  -0.01983   1.91252
   A24        1.91291   0.00356   0.00000   0.02986   0.02993   1.94284
   A25        1.91372   0.00073   0.00000  -0.00737  -0.00790   1.90582
   A26        1.88712  -0.00126   0.00000  -0.00264  -0.00253   1.88458
   A27        1.94067  -0.00906   0.00000  -0.03250  -0.03681   1.90386
   A28        1.90732   0.02358   0.00000   0.12840   0.12813   2.03545
   A29        1.89765  -0.01172   0.00000  -0.09498  -0.09693   1.80072
   A30        1.86312  -0.00302   0.00000   0.01197   0.01117   1.87428
   A31        1.92592   0.00208   0.00000  -0.01738  -0.01948   1.90644
   A32        1.92921  -0.00132   0.00000   0.00910   0.01103   1.94024
   A33        1.93261   0.00088   0.00000   0.00744   0.00743   1.94004
   A34        1.94084  -0.00191   0.00000  -0.01458  -0.01461   1.92623
   A35        1.94066  -0.00051   0.00000  -0.00169  -0.00175   1.93891
   A36        1.88498   0.00017   0.00000  -0.00137  -0.00136   1.88362
   A37        1.87723   0.00087   0.00000   0.01198   0.01194   1.88917
   A38        1.88510   0.00060   0.00000  -0.00113  -0.00120   1.88390
   A39        1.93392  -0.00033   0.00000  -0.00201  -0.00207   1.93185
   A40        1.93460   0.00255   0.00000   0.01707   0.01706   1.95167
   A41        1.94279  -0.00144   0.00000  -0.01064  -0.01065   1.93214
   A42        1.87968  -0.00044   0.00000   0.00216   0.00210   1.88178
   A43        1.88487   0.00020   0.00000  -0.00371  -0.00378   1.88109
   A44        1.88571  -0.00056   0.00000  -0.00298  -0.00293   1.88277
   A45        1.93273   0.00048   0.00000   0.00485   0.00483   1.93757
   A46        1.94085  -0.00178   0.00000  -0.01360  -0.01363   1.92722
   A47        1.94081  -0.00037   0.00000  -0.00079  -0.00083   1.93997
   A48        1.88495   0.00028   0.00000  -0.00097  -0.00097   1.88398
   A49        1.87706   0.00095   0.00000   0.01207   0.01203   1.88909
   A50        1.88502   0.00054   0.00000  -0.00088  -0.00094   1.88408
   A51        1.93406  -0.00028   0.00000  -0.00172  -0.00178   1.93228
   A52        1.93391   0.00255   0.00000   0.01708   0.01708   1.95098
   A53        1.94287  -0.00148   0.00000  -0.01089  -0.01089   1.93198
   A54        1.88014  -0.00047   0.00000   0.00204   0.00198   1.88212
   A55        1.88494   0.00020   0.00000  -0.00365  -0.00371   1.88123
   A56        1.88570  -0.00056   0.00000  -0.00299  -0.00294   1.88275
   A57        1.96552  -0.00495   0.00000  -0.02829  -0.02853   1.93699
   A58        1.94760  -0.00330   0.00000  -0.02296  -0.02324   1.92436
   A59        1.91182   0.00143   0.00000   0.01230   0.01242   1.92424
   A60        1.90015   0.00359   0.00000   0.01330   0.01270   1.91285
   A61        1.83982   0.00290   0.00000   0.02453   0.02468   1.86450
   A62        1.89475   0.00087   0.00000   0.00483   0.00491   1.89966
    D1        3.14150   0.00630   0.00000   0.14582   0.14544  -2.99625
    D2        1.08180   0.00131   0.00000   0.08887   0.08878   1.17058
    D3       -1.02003   0.00223   0.00000   0.09624   0.09671  -0.92332
    D4        1.00512   0.00330   0.00000  -0.01661  -0.01932   0.98580
    D5       -1.04714  -0.00221   0.00000  -0.09153  -0.09309  -1.14023
    D6        3.12889  -0.00768   0.00000  -0.12217  -0.11789   3.01100
    D7       -3.14156   0.00376   0.00000   0.09075   0.09046  -3.05110
    D8        1.04689   0.00116   0.00000   0.05348   0.05341   1.10030
    D9       -1.02474   0.00090   0.00000   0.05194   0.05229  -0.97245
   D10        1.06265  -0.01467   0.00000  -0.13503  -0.13349   0.92916
   D11        3.14155   0.00695   0.00000   0.00946   0.00844  -3.13319
   D12       -1.04456   0.00470   0.00000   0.01787   0.01735  -1.02722
   D13        1.06229  -0.00218   0.00000  -0.02587  -0.02567   1.03662
   D14       -3.12484  -0.00052   0.00000   0.00723   0.00702  -3.11783
   D15       -1.07255   0.00148   0.00000   0.02824   0.02797  -1.04458
   D16       -3.07532  -0.00131   0.00000  -0.03515  -0.03472  -3.11004
   D17       -0.97926   0.00035   0.00000  -0.00205  -0.00204  -0.98130
   D18        1.07302   0.00235   0.00000   0.01896   0.01892   1.09194
   D19       -0.99671  -0.00199   0.00000  -0.03477  -0.03452  -1.03123
   D20        1.09934  -0.00034   0.00000  -0.00167  -0.00183   1.09751
   D21       -3.13155   0.00166   0.00000   0.01934   0.01912  -3.11243
   D22        3.13767  -0.00081   0.00000  -0.00729  -0.00728   3.13039
   D23        1.04184  -0.00035   0.00000  -0.00087  -0.00083   1.04101
   D24       -1.05956   0.00053   0.00000   0.01157   0.01158  -1.04797
   D25        0.99110   0.00091   0.00000   0.02059   0.02074   1.01184
   D26       -1.10473   0.00138   0.00000   0.02701   0.02720  -1.07753
   D27        3.07707   0.00225   0.00000   0.03945   0.03961   3.11667
   D28       -1.07388  -0.00149   0.00000  -0.01705  -0.01725  -1.09112
   D29        3.11348  -0.00103   0.00000  -0.01063  -0.01079   3.10269
   D30        1.01209  -0.00015   0.00000   0.00181   0.00162   1.01371
   D31        3.11326   0.00138   0.00000   0.01412   0.01416   3.12742
   D32        1.02732   0.00048   0.00000   0.00160   0.00161   1.02894
   D33       -1.07206   0.00044   0.00000   0.00098   0.00106  -1.07100
   D34       -1.01394  -0.00146   0.00000  -0.01902  -0.01911  -1.03305
   D35       -3.09987  -0.00235   0.00000  -0.03154  -0.03166  -3.13153
   D36        1.08393  -0.00239   0.00000  -0.03216  -0.03222   1.05171
   D37        1.03636   0.00182   0.00000   0.02613   0.02618   1.06254
   D38       -1.04957   0.00093   0.00000   0.01361   0.01363  -1.03594
   D39        3.13423   0.00089   0.00000   0.01300   0.01307  -3.13588
   D40        1.06233  -0.00226   0.00000  -0.02442  -0.02437   1.03796
   D41       -3.13452  -0.00015   0.00000   0.01065   0.01052  -3.12400
   D42       -1.06562   0.00089   0.00000   0.02093   0.02071  -1.04491
[...]
 000754,-0.00001977,0.00002467,-0.00001293,0.00001136,0.00025414,0.0001
 5519,-0.00017106,-0.00015233,0.00023869,0.00002264,-0.00002929,-0.0000
 1840,0.00005079,-0.00000726,0.00001902,-0.00000603,-0.00002732,0.00000
 074,-0.00006705,-0.00001055,-0.00003159,-0.00001915,-0.00000778,0.0000
 1168,-0.00000511,0.00000508,-0.00000523,0.00000508,0.00000260,-0.00000
 119,-0.00000286,-0.00018597,0.00045641,-0.00067911,0.00005783,-0.00000
 622,-0.00012529,0.00036443,-0.00002707,-0.00004267,0.10904315,0.147880
 96,-0.00005056,0.00011918,0.00000602,-0.00115355,-0.00118856,0.0008144
 1,0.00000583,-0.00002917,-0.00003177,-0.01426319,-0.01186916,0.0102748
 2,-0.00000270,-0.00003519,0.00004435,-0.00060611,-0.00165075,-0.002987
 01,0.00017708,-0.00032838,-0.00025444,-0.00001784,0.00000977,0.0000366
 4,-0.00000235,0.00001400,0.00001205,-0.00012134,-0.00042794,0.00160121
 ,0.08698471,0.08031630,-0.11554839,-0.00009024,-0.00003374,0.00006450,
 0.00001310,0.00001005,0.00000714,0.00048282,0.00075343,0.00069124,0.00
 000747,0.00001044,0.00000135,0.00001164,-0.00000418,-0.00000008,0.0000
 7372,-0.00033856,0.00018204,-0.00022343,0.00003207,-0.00012389,-0.0000
 2117,-0.00002684,0.00002043,0.00002169,0.00000074,-0.00000305,0.000000
 42,0.00002961,-0.00005477,-0.00002729,-0.00002749,0.00001584,0.0000025
 1,-0.00000122,-0.00000723,0.00000612,0.00000028,0.00001008,-0.00000364
 ,0.00000564,-0.00000464,0.00026878,0.00020263,-0.00036063,0.00001765,0
 .00010782,-0.00007293,0.00021346,0.00005141,0.00018083,-0.09314090,-0.
 08444541,0.12330366,0.00012624,-0.00009954,0.00011084,0.00035217,0.000
 09858,0.00059829,-0.00004611,-0.00002868,0.00006283,-0.00575537,0.0043
 6086,-0.00664828,0.00000114,0.00009961,-0.00013922,-0.00021247,0.00075
 784,-0.00110889,-0.00021602,0.00001334,0.00001524,0.00011889,0.0000699
 0,-0.00012650,0.00003589,0.00001197,-0.00001920,-0.00020984,-0.0026163
 4,-0.00091795,-0.10488380,0.04293651,-0.10042423,0.00003435,0.00000054
 ,-0.00001108,-0.00002271,-0.00001529,-0.00001154,0.00037836,-0.0002515
 3,0.00030084,-0.00000509,-0.00000837,0.00001957,0.00000874,0.00000455,
 0.00001177,-0.00006195,-0.00080834,0.00027133,-0.00009643,0.00008341,-
 0.00002894,-0.00000457,-0.00003570,0.00001536,-0.00001777,-0.00001053,
 0.00001541,0.00005498,-0.00001002,0.00004169,-0.00004008,-0.00003152,0
 .00003202,-0.00000293,-0.00000254,0.00000672,-0.00000674,-0.00000709,0
 .00000415,-0.00000501,-0.00000831,0.00001702,0.00007406,0.00019769,-0.
 00020342,0.00040443,-0.00015718,0.00035091,0.00008753,0.00027974,-0.00
 084650,0.01055797,-0.00679603,0.01718444,0.11027066,0.00012293,-0.0000
 3590,0.00003653,0.00062051,0.00038554,0.00019660,0.00001392,-0.0000061
 5,-0.00003673,-0.01268247,0.01076294,-0.02035058,-0.00000141,0.0000369
 9,-0.00007473,-0.00042530,0.00084044,-0.00112548,-0.00023327,-0.000038
 43,0.00014846,-0.00005465,-0.00003830,0.00007944,-0.00000059,0.0000085
 2,-0.00000070,-0.00156464,-0.00403438,-0.00205140,0.04349411,-0.078653
 18,0.07425570,0.00005108,0.00002527,-0.00002508,0.00001283,0.00001870,
 0.00001797,0.00071809,0.00091273,0.00048097,0.00000228,0.00000720,0.00
 001162,0.00001469,0.00000025,-0.00001793,0.00000620,-0.00048140,0.0004
 0112,0.00003665,-0.00002382,0.00027021,-0.00001158,-0.00000867,-0.0000
 0539,0.00001839,-0.00000311,0.00000227,-0.00001463,-0.00000722,-0.0000
 6136,0.00000201,0.00001670,0.00000559,-0.00000662,-0.00000411,0.000003
 74,0.00000924,0.00000511,0.00000391,0.00000341,-0.00001224,-0.00000958
 ,0.00017808,-0.00008106,-0.00015180,-0.00027796,-0.00004669,0.00005742
 ,-0.00083959,0.00052083,-0.00127098,0.00988861,-0.00676363,0.01351881,
 -0.04565299,0.08322659,0.00001674,-0.00010833,0.00008854,0.00038189,-0
 .00016811,0.00039802,0.00000194,-0.00002492,-0.00000641,-0.00813070,0.
 00802326,-0.01451888,0.00008307,0.00007641,-0.00013412,0.00030234,0.00
 098721,-0.00017993,-0.00001273,0.00007653,0.00002914,0.00002630,0.0000
 2859,0.00001545,0.00003014,0.00002558,-0.00001598,-0.00082380,-0.00459
 257,-0.00146842,-0.10022053,0.07379095,-0.21857784,-0.00000197,0.00000
 637,-0.00001922,-0.00001084,0.00000774,0.00001722,0.00050168,-0.000021
 07,-0.00003897,-0.00002476,-0.00000623,0.00001606,0.00001964,0.0000025
 7,0.00000741,-0.00029783,-0.00050203,0.00063514,0.00000770,-0.00016303
 ,-0.00004748,-0.00001895,-0.00002681,0.00002602,-0.00001474,0.00000397
 ,0.00000781,-0.00003270,-0.00003346,-0.00003236,-0.00001032,-0.0000102
 0,0.00000920,-0.00001417,0.00000291,0.00000938,0.00000034,-0.00000486,
 0.00000329,-0.00000387,-0.00002140,0.00000981,0.00018054,-0.00007609,0
 .00045260,-0.00006172,0.00011687,0.00019916,-0.00087757,0.00058968,-0.
 00093394,-0.00809839,0.00451839,-0.01243377,0.11199189,-0.07877981,0.2
 3763682,0.00010618,-0.00001568,0.00001744,0.00026195,0.00004705,-0.000
 09763,0.00003365,0.00000790,-0.00002385,0.00804940,-0.00584950,-0.0032
 8168,-0.00003855,0.00001766,-0.00000684,0.00074298,-0.00076123,-0.0004
 0637,-0.00017987,0.00007755,0.00010748,-0.00006796,-0.00003215,0.00006
 334,0.00000424,-0.00000055,-0.00000800,0.00112649,-0.00050228,0.000101
 49,-0.20119098,0.11114684,0.05870505,0.00004360,0.00001875,-0.00001725
 ,0.00001109,0.00000145,0.00000493,0.00031816,-0.00202931,-0.00136572,0
 .00000807,-0.00000241,0.00000207,0.00000028,0.00001706,0.00000173,-0.0
 0008242,0.00001021,0.00012986,-0.00004845,0.00010788,-0.00009007,0.000
 00253,0.00000244,-0.00000984,0.00006758,0.00000859,-0.00000341,0.00006
 035,0.00009307,-0.00009150,0.00007457,0.00000761,0.00004072,0.00001327
 ,-0.00000583,-0.00000288,-0.00000464,-0.00000446,-0.00000042,0.0000034
 4,0.00001293,0.00001048,-0.00009827,0.00013843,0.00001253,-0.00000383,
 0.00016159,0.00046289,0.00018785,-0.00008774,0.00016336,-0.01479414,0.
 01154835,0.00426792,-0.01092959,0.00655952,0.00509962,0.21632055,-0.00
 007422,0.00015250,0.00007032,-0.00058530,0.00052004,0.00034951,0.00002
 649,-0.00008811,-0.00009028,0.02023561,-0.01635831,-0.00831205,0.00000
 323,-0.00003982,-0.00000232,0.00228850,0.00002372,-0.00083757,0.000124
 26,-0.00010354,-0.00003749,-0.00002519,-0.00002576,0.00015932,0.000020
 24,0.00005185,0.00000863,0.00050831,0.00080793,0.00144017,0.11066566,-
 0.12442436,-0.04146544,0.00000307,0.00002200,0.00000551,0.00003672,0.0
 0003362,0.00003899,-0.00260459,-0.00313309,-0.00266189,0.00001266,0.00
 002683,0.00000826,0.00001121,-0.00000853,-0.00002455,-0.00007973,0.000
 02607,-0.00004552,-0.00119677,-0.00053552,0.00033706,-0.00000570,-0.00
 000108,0.00000418,0.00009105,0.00000555,-0.00001516,-0.00020208,0.0001
 2987,-0.00020051,-0.00009174,-0.00008390,0.00006213,-0.00000212,-0.000
 00102,-0.00000707,0.00001543,-0.00000199,0.00002701,-0.00001036,-0.000
 00613,-0.00000680,-0.00015178,-0.00000216,-0.00001663,-0.00057155,0.00
 053241,-0.00052378,-0.00020229,0.00003627,0.00033280,-0.01515852,0.011
 22677,0.00524396,0.00761052,-0.00654384,-0.00372153,-0.12069717,0.1377
 5411,-0.00014464,0.00008272,-0.00005470,-0.00020185,0.00026931,-0.0000
 4128,0.00005506,0.00004015,-0.00008057,0.01535981,-0.01176196,-0.00735
 194,0.00001346,-0.00008059,0.00009626,0.00049672,0.00095196,0.00001027
 ,0.00013235,0.00001397,-0.00001358,-0.00020532,-0.00011671,0.00013033,
 -0.00003973,-0.00001045,0.00002143,0.00160373,-0.00017310,0.00083611,0
 .05847508,-0.04114800,-0.06818980,-0.00001047,-0.00000207,0.00000807,0
 .00002490,0.00002652,0.00002190,-0.00184062,-0.00290841,-0.00167958,0.
 00000812,0.00001283,-0.00001463,0.00001318,-0.00000608,-0.00001513,-0.
 00011262,0.00004606,0.00000224,-0.00027385,-0.00002909,0.00053610,-0.0
 0001124,0.00001249,-0.00000056,0.00003695,0.00001205,-0.00001668,-0.00
 010678,-0.00001175,-0.00004145,0.00005530,0.00007056,-0.00006724,-0.00
 000439,0.00000162,-0.00000352,0.00001398,0.00001201,-0.00000346,0.0000
 1471,-0.00000108,-0.00002379,0.00006536,0.00000330,-0.00007593,-0.0008
 4481,0.00009426,-0.00035659,-0.00019684,0.00025206,0.00027990,0.011990
 50,-0.00998892,-0.00535318,-0.02057675,0.01445759,0.00883832,-0.063790
 59,0.04987875,0.07261259,-0.00002229,0.00002313,0.00037775,0.00030586,
 0.00069164,0.00013318,-0.00022442,-0.00005789,0.00005578,0.00002956,0.
 00004516,0.00003134,0.00040033,0.00068644,0.00049674,-0.00022995,-0.00
 020745,-0.00001710,-0.00313684,0.00423088,-0.00959738,0.00007783,-0.00
 002929,-0.00001270,0.00005329,-0.00000766,-0.00002472,-0.00003525,-0.0
 0009871,-0.00006832,0.00001496,-0.00000589,-0.00000222,-0.05133664,0.0
 1485072,-0.03562613,-0.00000272,0.00001623,0.00001787,-0.00003686,-0.0
 0000463,-0.00000606,-0.00096818,0.00115044,0.00034694,-0.00001221,-0.0
 0023766,-0.00003576,0.00006493,-0.00000383,0.00014302,0.00004572,0.000
 12313,0.00005880,0.00014515,-0.00172147,-0.00083783,-0.00001952,-0.000
 02594,-0.00002262,-0.00001256,-0.00000751,0.00001566,-0.00000833,0.000
 00812,-0.00000855,0.00000100,-0.00002701,0.00000227,-0.00002642,0.0000
 0465,-0.00001871,-0.00001269,-0.00000668,0.00000740,0.00000462,0.00002
 400,0.00002125,-0.00000304,0.00005241,0.00003318,0.00002016,-0.0000539
 8,0.00004995,0.00000046,0.00000579,-0.00000057,0.00000675,0.00000546,0
 .00001318,-0.00000394,0.00000943,0.00000509,0.05236797,0.00047133,0.00
 088086,0.00232192,0.00188934,0.00175472,0.00080339,-0.00016657,-0.0001
 5674,-0.00005797,0.00004967,0.00008280,0.00010390,0.00180350,-0.000404
 79,-0.00002304,-0.00005918,-0.00010722,-0.00019660,-0.00583563,0.01153
 635,-0.02527166,-0.00001043,0.00000051,-0.00002661,-0.00001307,0.00004
 347,0.00002119,-0.00000103,-0.00003384,-0.00002171,0.00003026,0.000013
 02,-0.00001817,0.01524895,-0.08787729,0.09645748,-0.00005052,0.0000630
 6,0.00003715,0.00000846,-0.00000914,0.00000748,0.00103898,-0.00175575,
 -0.00044421,-0.00032345,-0.00036121,0.00025294,0.00009409,-0.00005168,
 0.00016431,0.00002642,0.00007178,-0.00000907,-0.00166349,-0.00323127,-
 0.00269884,-0.00000636,0.00001708,0.00000351,0.00000397,-0.00000670,-0
 .00000268,-0.00000547,0.00000454,-0.00000718,-0.00001102,0.00001124,-0
 .00000117,0.00000183,0.00000136,-0.00000746,-0.00000559,-0.00001713,0.
 00000150,0.00002855,0.00001267,0.00001660,0.00000845,-0.00002187,-0.00
 000983,-0.00002887,0.00003136,0.00004330,0.00000586,0.00001192,0.00000
 202,0.00000579,0.00000263,0.00000716,-0.00000397,-0.00000619,-0.000002
 92,-0.01762228,0.09357568,0.00069946,-0.00082173,0.00182366,0.00130639
 ,0.00055911,0.00191301,0.00040095,-0.00010545,0.00050039,0.00001748,-0
 .00003450,-0.00004991,-0.00097266,0.00039176,-0.00092074,0.00005872,-0
 .00013076,0.00036288,-0.00470277,0.01131070,-0.02338089,-0.00017878,0.
 00017887,0.00000572,0.00003908,-0.00008032,0.00002134,-0.00004460,-0.0
 0001708,-0.00003121,-0.00000996,-0.00000433,0.00003206,-0.03662902,0.0
 9424343,-0.26617216,-0.00006443,0.00005536,0.00002462,-0.00000088,-0.0
 0000493,0.00000596,0.00084179,0.00012031,0.00059531,-0.00004925,-0.000
 37132,-0.00008497,0.00019554,0.00014104,0.00015272,0.00001886,0.000070
 46,-0.00002264,-0.00098010,-0.00365978,-0.00105840,0.00005137,0.000055
 44,0.00006359,0.00001429,-0.00000021,-0.00001354,0.00000164,0.00000859
 ,0.00003028,-0.00000812,0.00001776,0.00001516,0.00002129,-0.00001846,0
 .00001008,0.00000999,-0.00001021,-0.00000776,0.00003103,0.00000464,0.0
 0002780,0.00000856,-0.00002634,-0.00000977,-0.00005803,-0.00004472,0.0
 0004745,-0.00000783,-0.00001081,-0.00000432,0.00001184,0.00000541,0.00
 000849,0.00000103,-0.00000146,-0.00000740,0.04130153,-0.10210827,0.289
 79954,0.00104990,0.00104197,-0.00011248,-0.00059401,-0.00233545,-0.002
 22378,-0.00007254,-0.00000663,-0.00001550,-0.00000590,-0.00011093,-0.0
 0021645,0.00034136,-0.00029145,0.00033800,0.00051324,0.00037456,0.0009
 0816,-0.00814209,-0.00025649,0.00543656,0.00000814,-0.00003212,0.00000
 493,-0.00000529,-0.00000143,-0.00000083,-0.00002029,0.00001165,-0.0000
 1347,-0.00005834,-0.00004250,0.00010800,-0.23704961,-0.10090736,0.0711
 2081,0.00001332,-0.00000720,-0.00000401,0.00001385,0.00001183,0.000009
 64,-0.00014269,-0.00041457,-0.00005664,-0.00000534,0.00002150,-0.00005
 321,-0.00004834,0.00000769,-0.00007077,-0.00005894,-0.00017617,-0.0001
 1605,-0.00004098,-0.00007779,-0.00055456,0.00001186,-0.00000636,-0.000
 00490,0.00000583,0.00002035,-0.00001691,-0.00001590,-0.00000347,0.0000
 0915,0.00000163,-0.00000508,-0.00000073,0.00000213,0.00000230,0.000003
 81,0.00000062,0.00000372,-0.00000420,-0.00000375,-0.00002130,0.0000153
 8,0.00001162,-0.00001283,-0.00000975,-0.00000971,0.00001891,-0.0000207
 2,-0.00002446,-0.00004069,-0.00001495,0.00000389,0.00001163,-0.0000050
 1,0.00000992,-0.00000046,-0.00000495,0.00569624,0.00361505,-0.00218247
 ,0.25503990,0.00094680,0.00193162,0.00045872,-0.00308083,-0.00503462,-
 0.00453477,0.00013945,0.00003192,0.00001477,-0.00001416,-0.00023777,-0
 .00042779,-0.00029663,-0.00067457,0.00024016,-0.00068924,0.00048191,0.
 00104071,-0.01864975,-0.00866815,0.01205917,-0.00006750,0.00004438,0.0
 0001352,-0.00001004,0.00000600,0.00002317,-0.00004142,0.00005224,-0.00
 000678,-0.00012261,-0.00007819,0.00016832,-0.09825058,-0.09808193,0.03
 608090,0.00005566,-0.00004157,-0.00003087,-0.00000633,0.00001320,0.000
 01095,0.00010914,-0.00017604,0.00027249,0.00005319,0.00029383,-0.00009
 625,-0.00012405,-0.00015417,-0.00016841,0.00000475,-0.00008711,-0.0000
 3949,0.00031198,0.00042125,-0.00037147,0.00002467,0.00003089,0.0000175
 1,0.00002422,0.00003194,-0.00002804,-0.00002349,-0.00001892,0.00000469
 ,-0.00000448,0.00002097,-0.00000578,0.00001311,-0.00000950,0.00001975,
 0.00001245,0.00001500,-0.00001506,0.00000702,-0.00003335,0.00001928,0.
 00001471,-0.00002837,-0.00001508,0.00001597,0.00003831,-0.00002076,-0.
 00002973,-0.00007202,-0.00002682,0.00001240,0.00001523,0.00000128,0.00
 001262,-0.00000286,-0.00000693,-0.00970080,-0.00589841,0.00205383,0.11
 084340,0.10434288,-0.00000572,0.00184431,0.00053307,-0.00231036,-0.004
 63841,-0.00265443,-0.00012973,-0.00006203,-0.00002525,-0.00008564,-0.0
 0023123,-0.00038496,0.00048199,-0.00006446,0.00049697,-0.00051412,-0.0
 0059858,0.00122192,-0.01791387,-0.00714634,0.00857243,0.00002245,-0.00
 003308,0.00000514,0.00000598,0.00002893,0.00001348,-0.00002948,-0.0000
 2125,-0.00007059,-0.00009479,-0.00007817,0.00014019,0.07406310,0.03810
 960,-0.07582175,-0.00000414,0.00001908,0.00002368,-0.00001621,0.000011
 52,0.00000324,-0.00013009,-0.00004465,-0.00022599,-0.00010087,-0.00010
 896,-0.00013459,-0.00001560,0.00006114,-0.00001856,0.00001295,-0.00003
 601,-0.00000735,0.00017433,0.00086850,0.00010047,-0.00000225,0.0000021
 2,-0.00001240,0.00000362,0.00000895,-0.00000908,-0.00001286,-0.0000113
 4,-0.00001060,-0.00000987,-0.00000046,-0.00000406,-0.00000220,-0.00000
 078,-0.00001290,-0.00000707,-0.00001076,-0.00000372,0.00000972,0.00000
 104,0.00002158,0.00000857,0.00000688,0.00000477,-0.00000619,-0.0000248
 1,0.00002334,-0.00002734,-0.00005344,-0.00002954,0.00000627,0.00001016
 ,0.00000386,0.00000592,0.00000556,-0.00000090,0.02483871,0.01087361,-0
 .00688254,-0.07851816,-0.03930030,0.07705156,0.00120984,-0.00204287,-0
 .00149120,0.00022591,-0.00003739,-0.00002142,0.00010481,-0.00000756,0.
 00009240,0.00001500,0.00001239,0.00004028,-0.00027877,-0.00028083,-0.0
 0030539,0.00012917,0.00017841,-0.00000222,0.00562200,-0.00729618,0.000
 07799,-0.00005092,0.00003884,-0.00001021,0.00000694,-0.00001606,0.0000
 0922,0.00000880,0.00002056,-0.00000062,0.00000891,0.00001278,-0.000022
 31,-0.19138045,0.13678605,0.01289734,-0.00000053,-0.00000465,-0.000007
 93,0.00000366,0.00000186,-0.00000234,0.00017913,-0.00009924,0.00019727
 ,0.00000977,0.00004178,0.00003570,-0.00000466,-0.00000827,0.00000405,0
 .00004647,-0.00003169,-0.00002550,0.00044988,0.00055648,0.00047835,0.0
 0001243,0.00001713,0.00002429,0.00000684,-0.00000046,0.00000260,0.0000
 1147,-0.00001257,0.00000883,-0.00000381,0.00001529,0.00000583,0.000010
 09,-0.00001008,0.00001019,0.00000609,-0.00000093,-0.00000410,0.0000115
 3,0.00000651,-0.00000576,-0.00000223,-0.00001275,-0.00000663,-0.000008
 66,0.00000366,0.00000957,0.00000881,0.00001181,0.00000048,0.00000042,-
 0.00000394,0.00000360,-0.00000354,-0.00000280,0.00000114,-0.00314297,0
 .00147640,0.00085807,-0.01642529,0.01851010,0.00030296,0.20321388,-0.0
 0027947,-0.00479602,-0.00380517,-0.00072402,0.00118725,0.00029944,-0.0
 0009405,0.00000287,0.00005766,0.00001846,-0.00000133,0.00002620,-0.000
 76811,0.00109020,-0.00143193,-0.00039486,-0.00000897,-0.00015028,0.019
 75879,-0.01425547,0.00286207,0.00009496,-0.00003274,-0.00004153,0.0000
 4157,-0.00005040,-0.00007110,0.00000188,-0.00002147,-0.00000063,0.0000
 0520,0.00000726,-0.00002663,0.13380962,-0.17276754,-0.01255752,0.00000
 138,-0.00000785,-0.00002397,-0.00006111,-0.00000749,0.00000991,-0.0001
 2273,0.00017878,0.00019243,0.00007359,-0.00001028,0.00016365,-0.000011
 06,-0.00004715,-0.00002673,0.00013413,0.00020776,0.00011141,-0.0003243
 3,0.00081623,-0.00013592,-0.00001197,-0.00006453,0.00000844,-0.0000221
 4,-0.00001532,0.00003187,0.00002825,0.00004123,0.00006146,0.00001873,-
 0.00003519,0.00002004,-0.00000722,0.00001179,0.00000566,-0.00000927,0.
 00000110,0.00000916,-0.00002117,0.00000536,-0.00000667,-0.00001567,0.0
 0005548,0.00001927,0.00004722,-0.00002692,-0.00000547,0.00000690,0.000
 00844,0.00000524,-0.00000327,-0.00000353,-0.00000502,-0.00000523,0.000
 01665,0.00000984,0.00789104,-0.00817583,-0.00176603,-0.01123426,0.0115
 2597,0.00061365,-0.14782180,0.18517166,-0.00012152,-0.00656304,-0.0031
 0971,0.00022900,0.00118154,0.00024121,0.00029251,-0.00008636,0.0003957
 7,-0.00005672,0.00005807,0.00004734,-0.00148612,0.00085635,-0.00184942
 ,-0.00003841,0.00003969,-0.00012775,0.01798413,-0.01285013,0.00014212,
 -0.00006201,0.00010273,0.00000351,0.00005136,-0.00009318,-0.00004360,0
 .00002609,0.00000316,-0.00000419,0.00002896,0.00000396,-0.00001796,0.0
 1087809,-0.01170156,-0.04630760,-0.00003696,0.00003479,0.00000283,0.00
 000628,-0.00000985,0.00001674,0.00051092,0.00047617,0.00032634,-0.0000
 4543,-0.00023192,0.00011854,-0.00002987,-0.00000809,-0.00004779,0.0000
 7355,0.00008723,0.00001698,0.00032477,0.00076051,0.00003457,0.00003001
 ,-0.00000284,0.00004863,-0.00000812,-0.00000974,0.00000890,0.00002125,
 0.00003003,0.00005998,0.00001045,-0.00000987,0.00003321,0.00001955,-0.
 00000425,0.00001375,-0.00000076,-0.00000638,0.00000165,-0.00000032,0.0
 0000991,-0.00000417,-0.00000273,-0.00000817,-0.00000962,-0.00003500,0.
 00000425,0.00000147,0.00000415,0.00000851,0.00000300,-0.00000592,-0.00
 000194,-0.00000442,-0.00000180,-0.00000213,-0.00000162,-0.02167096,0.0
 1978993,0.00320620,0.00626608,-0.00740460,-0.00190647,-0.01315451,0.01
 554721,0.04871153\\-0.00001204,0.00000633,-0.00000404,-0.00001135,-0.0
 0000465,-0.00000064,-0.00000127,-0.00000092,-0.00000131,-0.00000073,-0
 .00000537,0.00000005,0.00000216,-0.00000388,0.00000603,0.00000448,0.00
 000561,0.00000623,0.00002330,-0.00000581,-0.00000261,-0.00000183,-0.00
 000181,0.00000118,-0.00000035,0.00000204,-0.00000106,0.00000222,-0.000
 00042,-0.00000212,0.00000132,0.00000165,0.00000255,-0.00000337,0.00000
 414,0.00000122,0.00000090,0.00000115,-0.00000119,-0.00000037,0.0000019
 1,0.00000093,-0.00000027,0.00000066,-0.00000198,0.00000230,0.00000289,
 -0.00000179,-0.00000313,-0.00000199,-0.00000117,-0.00000059,0.00000043
 ,-0.00000033,-0.00000226,-0.00000062,0.00000142,0.00000092,-0.00000015
 ,-0.00000067,-0.00000042,0.00000012,0.00000033,0.00000081,-0.00000009,
 -0.00000074,0.00000015,0.00000016,-0.00000133,0.00000104,0.00000037,-0
 .00000057,0.00000088,0.00000063,0.00000014,-0.00000078,-0.00000011,0.0
 0000069,-0.00000009,-0.00000098,-0.00000022,0.00000063,0.00000055,0.00
 000109,0.00000030,0.,0.00000183,-0.00000063,-0.00000066,0.00000037,-0.
 00000025,-0.00000049,0.00000028,-0.00000059,-0.00000007,-0.00000047,-0
 .00000034,-0.00000036,-0.00000117,-0.00000078,-0.00000024,-0.00000093\
 \\@


 BOOKS ARE LIGHTHOUSES ERECTED IN THE GREAT SEA OF TIME.
     -- E.P.WHIPPLE
 Job cpu time:       0 days  9 hours 47 minutes 26.9 seconds.
 Elapsed time:       0 days  0 hours 37 minutes  3.0 seconds.
 File lengths (MBytes):  RWF=    495 Int=      0 D2E=      0 Chk=     16 Scr=      1
 Normal termination of Gaussian 16 at Fri Sep 19 15:22:23 2025.
