 Entering Gaussian System, Link 0=g16
 Input=DTRE0106.gjf
 Output=DTRE0106.log
 Initial command:
 /usr/local/g16/l1.exe "/dados_01/scratch/Gau-2063014.inp" -scrdir="/dados_01/scratch/"
 Entering Link 1 = /usr/local/g16/l1.exe PID=   2063015.
  
 Copyright (c) 1988-2017, Gaussian, Inc.  All Rights Reserved.
  
 This is part of the Gaussian(R) 16 program.  It is based on
 the Gaussian(R) 09 system (copyright 2009, Gaussian, Inc.),
 the Gaussian(R) 03 system (copyright 2003, Gaussian, Inc.),
 the Gaussian(R) 98 system (copyright 1998, Gaussian, Inc.),
 the Gaussian(R) 94 system (copyright 1995, Gaussian, Inc.),
 the Gaussian 92(TM) system (copyright 1992, Gaussian, Inc.),
 the Gaussian 90(TM) system (copyright 1990, Gaussian, Inc.),
 the Gaussian 88(TM) system (copyright 1988, Gaussian, Inc.),
 the Gaussian 86(TM) system (copyright 1986, Carnegie Mellon
 University), and the Gaussian 82(TM) system (copyright 1983,
 Carnegie Mellon University). Gaussian is a federally registered
 trademark of Gaussian, Inc.
  
 This software contains proprietary and confidential information,
 including trade secrets, belonging to Gaussian, Inc.
  
 This software is provided under written license and may be
 used, copied, transmitted, or stored only in accord with that
 written license.
  
 The following legend is applicable only to US Government
 contracts under FAR:
  
                    RESTRICTED RIGHTS LEGEND
  
 Use, reproduction and disclosure by the US Government is
 subject to restrictions as set forth in subparagraphs (a)
 and (c) of the Commercial Computer Software - Restricted
 Rights clause in FAR 52.227-19.
  
 Gaussian, Inc.
 340 Quinnipiac St., Bldg. 40, Wallingford CT 06492
  
  
 ---------------------------------------------------------------
 Warning -- This program may not be used in any manner that
 competes with the business of Gaussian, Inc. or will provide
 assistance to any competitor of Gaussian, Inc.  The licensee
 of this program is prohibited from giving any competitor of
 Gaussian, Inc. access to this program.  By using this program,
 the user acknowledges that Gaussian, Inc. is engaged in the
 business of creating and licensing software in the field of
 computational chemistry and represents and warrants to the
 licensee that it is not a competitor of Gaussian, Inc. and that
 it will not use this program in any manner prohibited above.
 ---------------------------------------------------------------
  

 Cite this work as:
 Gaussian 16, Revision B.01,
 M. J. Frisch, G. W. Trucks, H. B. Schlegel, G. E. Scuseria, 
 M. A. Robb, J. R. Cheeseman, G. Scalmani, V. Barone, 
 G. A. Petersson, H. Nakatsuji, X. Li, M. Caricato, A. V. Marenich, 
 J. Bloino, B. G. Janesko, R. Gomperts, B. Mennucci, H. P. Hratchian, 
 J. V. Ortiz, A. F. Izmaylov, J. L. Sonnenberg, D. Williams-Young, 
 F. Ding, F. Lipparini, F. Egidi, J. Goings, B. Peng, A. Petrone, 
 T. Henderson, D. Ranasinghe, V. G. Zakrzewski, J. Gao, N. Rega, 
 G. Zheng, W. Liang, M. Hada, M. Ehara, K. Toyota, R. Fukuda, 
 J. Hasegawa, M. Ishida, T. Nakajima, Y. Honda, O. Kitao, H. Nakai, 
 T. Vreven, K. Throssell, J. A. Montgomery, Jr., J. E. Peralta, 
 F. Ogliaro, M. J. Bearpark, J. J. Heyd, E. N. Brothers, K. N. Kudin, 
 V. N. Staroverov, T. A. Keith, R. Kobayashi, J. Normand, 
 K. Raghavachari, A. P. Rendell, J. C. Burant, S. S. Iyengar, 
 J. Tomasi, M. Cossi, J. M. Millam, M. Klene, C. Adamo, R. Cammi, 
 J. W. Ochterski, R. L. Martin, K. Morokuma, O. Farkas, 
 J. B. Foresman, and D. J. Fox, Gaussian, Inc., Wallingford CT, 2016.
 
 ******************************************
 Gaussian 16:  ES64L-G16RevB.01 20-Dec-2017
                19-Sep-2025 
 ******************************************
 %nprocs=16
 Will use up to   16 processors via shared memory.
 %mem=40GB
 %chk=DTRE0106.chk
 ----------------------------------------------------------------------
 # opt freq=noraman M08HX/6-311++G** scf=xqc Empiricaldispersion=pfd In
 t(Grid=ultraFine)
 ----------------------------------------------------------------------
 1/18=20,19=15,26=4,38=1/1,3;
 2/9=110,12=2,17=6,18=5,40=1/2;
 3/5=4,6=6,7=1111,11=2,25=1,30=1,71=1,74=-74,75=-5,124=11/1,2,3;
 4//1;
 5/5=2,8=3,13=1,38=5/2,8;
 6/7=2,8=2,9=2,10=2,28=1/1;
 7//1,2,3,16;
 1/18=20,19=15,26=4/3(2);
 2/9=110/2;
 99//99;
 2/9=110/2;
 3/5=4,6=6,7=1111,11=2,25=1,30=1,71=1,74=-74,75=-5,124=11/1,2,3;
 4/5=5,16=3,69=1/1;
 5/5=2,8=3,13=1,38=5/2,8;
 7//1,2,3,16;
 1/18=20,19=15,26=4/3(-5);
 2/9=110/2;
 6/7=2,8=2,9=2,10=2,19=2,28=1/1;
 99/9=1/99;
 --------
 DTRE0106
 --------
 Symbolic Z-matrix:
 Charge =  0 Multiplicity = 1
 O                    -0.6679    1.1587    0.257 
 O                    -0.887    -2.4483   -0.3388 
 O                     1.8623   -2.0693    0.4696 
 O                     2.8609    0.5414   -0.4619 
 O                     1.1222    2.6552    0.2574 
 O                    -3.3742    0.9717   -0.1865 
 C                    -0.3727   -1.247     0.23 
 C                     1.0856   -1.0709   -0.194 
 C                    -1.2211   -0.0621   -0.2375 
 C                     1.6082    0.3151    0.1839 
 C                     0.6388    1.4132   -0.2534 
 C                    -2.655    -0.1577    0.274 
 H                    -0.4248   -1.3522    1.3206 
 H                     1.2066   -1.2487   -1.2697 
 H                    -1.2548   -0.0098   -1.3343 
 H                     1.7952    0.3598    1.2636 
 H                     0.5967    1.5141   -1.344 
 H                    -2.6916   -0.1535    1.3685 
 H                    -3.1564   -1.0581   -0.0922 
 H                    -0.8514   -2.3615   -1.3066 
 H                     1.4973   -2.9356    0.22 
 H                     2.7165    0.4989   -1.4227 
 H                     1.4876    2.5033    1.1448 
 H                    -2.9192    1.7652    0.144 
 

 GradGradGradGradGradGradGradGradGradGradGradGradGradGradGradGradGradGrad
 Berny optimization.
 Initialization pass.
                           ----------------------------
                           !    Initial Parameters    !
                           ! (Angstroms and Degrees)  !
 --------------------------                            --------------------------
 ! Name  Definition              Value          Derivative Info.                !
 --------------------------------------------------------------------------------
 ! R1    R(1,9)                  1.4286         estimate D2E/DX2                !
 ! R2    R(1,11)                 1.4257         estimate D2E/DX2                !
 ! R3    R(2,7)                  1.4252         estimate D2E/DX2                !
 ! R4    R(2,20)                 0.9723         estimate D2E/DX2                !
 ! R5    R(3,8)                  1.4284         estimate D2E/DX2                !
 ! R6    R(3,21)                 0.9726         estimate D2E/DX2                !
 ! R7    R(4,10)                 1.4274         estimate D2E/DX2                !
 ! R8    R(4,22)                 0.9725         estimate D2E/DX2                !
 ! R9    R(5,11)                 1.4273         estimate D2E/DX2                !
 ! R10   R(5,23)                 0.9716         estimate D2E/DX2                !
 ! R11   R(6,12)                 1.4159         estimate D2E/DX2                !
 ! R12   R(6,24)                 0.9726         estimate D2E/DX2                !
 ! R13   R(7,8)                  1.5289         estimate D2E/DX2                !
 ! R14   R(7,9)                  1.5305         estimate D2E/DX2                !
 ! R15   R(7,13)                 1.0969         estimate D2E/DX2                !
 ! R16   R(8,10)                 1.5287         estimate D2E/DX2                !
 ! R17   R(8,14)                 1.097          estimate D2E/DX2                !
 ! R18   R(9,12)                 1.5254         estimate D2E/DX2                !
 ! R19   R(9,15)                 1.0986         estimate D2E/DX2                !
 ! R20   R(10,11)                1.5287         estimate D2E/DX2                !
 ! R21   R(10,16)                1.0967         estimate D2E/DX2                !
 ! R22   R(11,17)                1.0961         estimate D2E/DX2                !
 ! R23   R(12,18)                1.0951         estimate D2E/DX2                !
 ! R24   R(12,19)                1.0937         estimate D2E/DX2                !
 ! A1    A(9,1,11)             112.552          estimate D2E/DX2                !
 ! A2    A(7,2,20)             107.986          estimate D2E/DX2                !
 ! A3    A(8,3,21)             107.4137         estimate D2E/DX2                !
 ! A4    A(10,4,22)            108.0435         estimate D2E/DX2                !
 ! A5    A(11,5,23)            108.5532         estimate D2E/DX2                !
 ! A6    A(12,6,24)            107.6155         estimate D2E/DX2                !
 ! A7    A(2,7,8)              109.3061         estimate D2E/DX2                !
 ! A8    A(2,7,9)              109.3071         estimate D2E/DX2                !
 ! A9    A(2,7,13)             107.3875         estimate D2E/DX2                !
 ! A10   A(8,7,9)              110.7852         estimate D2E/DX2                !
 ! A11   A(8,7,13)             109.3956         estimate D2E/DX2                !
 ! A12   A(9,7,13)             110.587          estimate D2E/DX2                !
 ! A13   A(3,8,7)              108.0171         estimate D2E/DX2                !
 ! A14   A(3,8,10)             109.4496         estimate D2E/DX2                !
 ! A15   A(3,8,14)             106.3968         estimate D2E/DX2                !
 ! A16   A(7,8,10)             111.2204         estimate D2E/DX2                !
 ! A17   A(7,8,14)             111.0075         estimate D2E/DX2                !
 ! A18   A(10,8,14)            110.5882         estimate D2E/DX2                !
 ! A19   A(1,9,7)              109.95           estimate D2E/DX2                !
 ! A20   A(1,9,12)             107.5471         estimate D2E/DX2                !
 ! A21   A(1,9,15)             108.4685         estimate D2E/DX2                !
 ! A22   A(7,9,12)             111.7243         estimate D2E/DX2                !
 ! A23   A(7,9,15)             111.0287         estimate D2E/DX2                !
 ! A24   A(12,9,15)            107.9948         estimate D2E/DX2                !
 ! A25   A(4,10,8)             109.3849         estimate D2E/DX2                !
 ! A26   A(4,10,11)            108.2535         estimate D2E/DX2                !
 ! A27   A(4,10,16)            106.8168         estimate D2E/DX2                !
 ! A28   A(8,10,11)            111.3326         estimate D2E/DX2                !
 ! A29   A(8,10,16)            109.7929         estimate D2E/DX2                !
 ! A30   A(11,10,16)           111.1303         estimate D2E/DX2                !
 ! A31   A(1,11,5)             109.7318         estimate D2E/DX2                !
 ! A32   A(1,11,10)            110.522          estimate D2E/DX2                !
 ! A33   A(1,11,17)            109.7205         estimate D2E/DX2                !
 ! A34   A(5,11,10)            107.9347         estimate D2E/DX2                !
 ! A35   A(5,11,17)            106.7981         estimate D2E/DX2                !
 ! A36   A(10,11,17)           112.0322         estimate D2E/DX2                !
 ! A37   A(6,12,9)             108.5675         estimate D2E/DX2                !
 ! A38   A(6,12,18)            107.7587         estimate D2E/DX2                !
 ! A39   A(6,12,19)            108.355          estimate D2E/DX2                !
 ! A40   A(9,12,18)            111.4881         estimate D2E/DX2                !
 ! A41   A(9,12,19)            111.7316         estimate D2E/DX2                !
 ! A42   A(18,12,19)           108.8122         estimate D2E/DX2                !
 ! D1    D(11,1,9,7)            63.2036         estimate D2E/DX2                !
 ! D2    D(11,1,9,12)         -174.942          estimate D2E/DX2                !
 ! D3    D(11,1,9,15)          -58.3773         estimate D2E/DX2                !
 ! D4    D(9,1,11,5)           178.9059         estimate D2E/DX2                !
 ! D5    D(9,1,11,10)          -62.1752         estimate D2E/DX2                !
 ! D6    D(9,1,11,17)           61.8586         estimate D2E/DX2                !
 ! D7    D(20,2,7,8)           -61.8618         estimate D2E/DX2                !
 ! D8    D(20,2,7,9)            59.5473         estimate D2E/DX2                !
 ! D9    D(20,2,7,13)          179.5558         estimate D2E/DX2                !
 ! D10   D(21,3,8,7)            57.9181         estimate D2E/DX2                !
 ! D11   D(21,3,8,10)          179.1504         estimate D2E/DX2                !
 ! D12   D(21,3,8,14)          -61.3347         estimate D2E/DX2                !
 ! D13   D(22,4,10,8)           60.8116         estimate D2E/DX2                !
 ! D14   D(22,4,10,11)         -60.6634         estimate D2E/DX2                !
 ! D15   D(22,4,10,16)         179.5855         estimate D2E/DX2                !
 ! D16   D(23,5,11,1)           82.4261         estimate D2E/DX2                !
 ! D17   D(23,5,11,10)         -38.0744         estimate D2E/DX2                !
 ! D18   D(23,5,11,17)        -158.7095         estimate D2E/DX2                !
 ! D19   D(24,6,12,9)          -58.4078         estimate D2E/DX2                !
 ! D20   D(24,6,12,18)          62.4786         estimate D2E/DX2                !
 ! D21   D(24,6,12,19)        -179.9397         estimate D2E/DX2                !
 ! D22   D(2,7,8,3)            -69.8083         estimate D2E/DX2                !
 ! D23   D(2,7,8,10)           170.0656         estimate D2E/DX2                !
 ! D24   D(2,7,8,14)            46.4794         estimate D2E/DX2                !
 ! D25   D(9,7,8,3)            169.6817         estimate D2E/DX2                !
 ! D26   D(9,7,8,10)            49.5556         estimate D2E/DX2                !
 ! D27   D(9,7,8,14)           -74.0306         estimate D2E/DX2                !
 ! D28   D(13,7,8,3)            47.5158         estimate D2E/DX2                !
 ! D29   D(13,7,8,10)          -72.6102         estimate D2E/DX2                !
 ! D30   D(13,7,8,14)          163.8035         estimate D2E/DX2                !
 ! D31   D(2,7,9,1)           -176.3956         estimate D2E/DX2                !
 ! D32   D(2,7,9,12)            64.2714         estimate D2E/DX2                !
 ! D33   D(2,7,9,15)           -56.3561         estimate D2E/DX2                !
 ! D34   D(8,7,9,1)            -55.8862         estimate D2E/DX2                !
 ! D35   D(8,7,9,12)          -175.2193         estimate D2E/DX2                !
 ! D36   D(8,7,9,15)            64.1533         estimate D2E/DX2                !
 ! D37   D(13,7,9,1)            65.581          estimate D2E/DX2                !
 ! D38   D(13,7,9,12)          -53.7521         estimate D2E/DX2                !
 ! D39   D(13,7,9,15)         -174.3795         estimate D2E/DX2                !
 ! D40   D(3,8,10,4)            72.551          estimate D2E/DX2                !
 ! D41   D(3,8,10,11)         -167.8528         estimate D2E/DX2                !
 ! D42   D(3,8,10,16)          -44.3586         estimate D2E/DX2                !
 ! D43   D(7,8,10,4)          -168.1746         estimate D2E/DX2                !
 ! D44   D(7,8,10,11)          -48.5785         estimate D2E/DX2                !
 ! D45   D(7,8,10,16)           74.9157         estimate D2E/DX2                !
 ! D46   D(14,8,10,4)          -44.3496         estimate D2E/DX2                !
 ! D47   D(14,8,10,11)          75.2465         estimate D2E/DX2                !
 ! D48   D(14,8,10,16)        -161.2593         estimate D2E/DX2                !
 ! D49   D(1,9,12,6)            58.7897         estimate D2E/DX2                !
 ! D50   D(1,9,12,18)          -59.767          estimate D2E/DX2                !
 ! D51   D(1,9,12,19)          178.2289         estimate D2E/DX2                !
 ! D52   D(7,9,12,6)           179.5335         estimate D2E/DX2                !
 ! D53   D(7,9,12,18)           60.9768         estimate D2E/DX2                !
 ! D54   D(7,9,12,19)          -61.0274         estimate D2E/DX2                !
 ! D55   D(15,9,12,6)          -58.0848         estimate D2E/DX2                !
 ! D56   D(15,9,12,18)        -176.6415         estimate D2E/DX2                !
 ! D57   D(15,9,12,19)          61.3543         estimate D2E/DX2                !
 ! D58   D(4,10,11,1)          174.1502         estimate D2E/DX2                !
 ! D59   D(4,10,11,5)          -65.8457         estimate D2E/DX2                !
 ! D60   D(4,10,11,17)          51.4555         estimate D2E/DX2                !
 ! D61   D(8,10,11,1)           53.8843         estimate D2E/DX2                !
 ! D62   D(8,10,11,5)          173.8884         estimate D2E/DX2                !
 ! D63   D(8,10,11,17)         -68.8104         estimate D2E/DX2                !
 ! D64   D(16,10,11,1)         -68.8447         estimate D2E/DX2                !
 ! D65   D(16,10,11,5)          51.1593         estimate D2E/DX2                !
 ! D66   D(16,10,11,17)        168.4605         estimate D2E/DX2                !
 --------------------------------------------------------------------------------
 Trust Radius=3.00D-01 FncErr=1.00D-07 GrdErr=1.00D-06 EigMax=2.50D+02 EigMin=1.00D-04
 Number of steps in this run=    142 maximum allowed number of steps=    144.
 GradGradGradGradGradGradGradGradGradGradGradGradGradGradGradGradGradGrad

                          Input orientation:                          
 ---------------------------------------------------------------------
 Center     Atomic      Atomic             Coordinates (Angstroms)
 Number     Number       Type             X           Y           Z
 ---------------------------------------------------------------------
      1          8           0       -0.667900    1.158700    0.257000
      2          8           0       -0.887000   -2.448300   -0.338800
      3          8           0        1.862300   -2.069300    0.469600
      4          8           0        2.860900    0.541400   -0.461900
      5          8           0        1.122200    2.655200    0.257400
      6          8           0       -3.374200    0.971700   -0.186500
      7          6           0       -0.372700   -1.247000    0.230000
      8          6           0        1.085600   -1.070900   -0.194000
      9          6           0       -1.221100   -0.062100   -0.237500
     10          6           0        1.608200    0.315100    0.183900
     11          6           0        0.638800    1.413200   -0.253400
     12          6           0       -2.655000   -0.157700    0.274000
     13          1           0       -0.424800   -1.352200    1.320600
     14          1           0        1.206600   -1.248700   -1.269700
     15          1           0       -1.254800   -0.009800   -1.334300
     16          1           0        1.795200    0.359800    1.263600
     17          1           0        0.596700    1.514100   -1.344000
     18          1           0       -2.691600   -0.153500    1.368500
     19          1           0       -3.156400   -1.058100   -0.092200
     20          1           0       -0.851400   -2.361500   -1.306600
     21          1           0        1.497300   -2.935600    0.220000
     22          1           0        2.716500    0.498900   -1.422700
     23          1           0        1.487600    2.503300    1.144800
     24          1           0       -2.919200    1.765200    0.144000
 ---------------------------------------------------------------------
                    Distance matrix (angstroms):
                    1          2          3          4          5
     1  O    0.000000
     2  O    3.662435   0.000000
     3  O    4.106957   2.890640   0.000000
     4  O    3.653807   4.795854   2.946294   0.000000
     5  O    2.333232   5.517069   4.786823   2.829951   0.000000
     6  O    2.748767   4.231520   6.090901   6.255995   4.821704
     7  C    2.423894   1.425188   2.393493   3.759424   4.178833
     8  C    2.872156   2.410259   1.428436   2.413083   3.753521
     9  C    1.428605   2.411604   3.746491   4.132468   3.622113
    10  C    2.428505   3.759736   2.414861   1.427420   2.391164
    11  C    1.425743   4.152896   3.761315   2.396088   1.427290
    12  C    2.383645   2.957735   4.909020   5.608515   4.709556
    13  H    2.737693   2.041733   2.543474   4.190328   4.425252
    14  H    3.411765   2.586267   2.031869   2.567822   4.192803
    15  H    2.059631   2.659432   4.148724   4.243099   3.909714
    16  H    2.778191   4.200870   2.556456   2.036184   2.595039
    17  H    2.070923   4.348840   4.210896   2.617412   2.035373
    18  H    2.655685   3.381946   5.021585   5.887572   4.865019
    19  H    3.350936   2.672760   5.150291   6.237225   5.676023
    20  H    3.856206   0.972337   3.256445   4.787642   5.613241
    21  H    4.631712   2.496919   0.972626   3.796567   5.603494
    22  H    3.835478   4.779753   3.302440   0.972520   3.164515
    23  H    2.691156   5.688421   4.637345   2.883832   0.971632
    24  H    2.334301   4.702820   6.137764   5.939222   4.139791
                    6          7          8          9         10
     6  O    0.000000
     7  C    3.755676   0.000000
     8  C    4.905312   1.528864   0.000000
     9  C    2.388971   1.530466   2.518022   0.000000
    10  C    5.039110   2.523142   1.528697   2.885272   0.000000
    11  C    4.037768   2.886775   2.524661   2.374024   1.528657
    12  C    1.415928   2.529309   3.878794   1.525399   4.290283
    13  H    4.046087   1.096900   2.157418   2.173966   2.864448
    14  H    5.204539   2.177910   1.096989   2.892608   2.172488
    15  H    2.602430   2.180779   2.811350   1.098563   3.256879
    16  H    5.403694   2.889624   2.162182   3.395492   1.096686
    17  H    4.171577   3.322783   2.871193   2.648234   2.189797
    18  H    2.037165   2.805213   4.189304   2.179440   4.484545
    19  H    2.043628   2.808644   4.243241   2.181402   4.966218
    20  H    4.327744   1.957653   2.579825   2.562595   3.928792
    21  H    6.258095   2.519597   1.953970   3.981960   3.252791
    22  H    6.232845   3.914427   2.575618   4.150194   1.960427
    23  H    5.268326   4.285128   3.837824   3.978578   2.392925
    24  H    0.972573   3.945302   4.918956   2.523512   4.754128
                   11         12         13         14         15
    11  C    0.000000
    12  C    3.687139   0.000000
    13  H    3.355020   2.737881   0.000000
    14  H    2.905335   4.299447   3.062978   0.000000
    15  H    2.603650   2.137537   3.088597   2.756363   0.000000
    16  H    2.179037   4.588180   2.804032   3.057995   4.023455
    17  H    1.096066   3.998299   4.044655   2.830294   2.398003
    18  H    4.022023   1.095120   2.564675   4.832755   3.064339
    19  H    4.531760   1.093721   3.089359   4.523119   2.501565
    20  H    4.192647   3.256993   2.846551   2.339882   2.386209
    21  H    4.457936   4.996122   2.722672   2.269217   4.306995
    22  H    2.553438   5.671237   4.562897   2.314587   4.004724
    23  H    1.965641   5.000035   4.307326   4.470601   4.470164
    24  H    3.597387   1.945314   4.162283   5.301355   2.847143
                   16         17         18         19         20
    16  H    0.000000
    17  H    3.093281   0.000000
    18  H    4.517284   4.577277   0.000000
    19  H    5.326066   4.719002   1.779883   0.000000
    20  H    4.584309   4.137471   3.926546   2.913184   0.000000
    21  H    3.469511   4.801771   5.158102   5.027862   2.859456
    22  H    2.843299   2.351675   6.120782   6.219762   4.574416
    23  H    2.168715   2.822471   4.957251   5.981678   5.928454
    24  H    5.045218   3.826062   2.287490   2.843075   4.838356
                   21         22         23         24
    21  H    0.000000
    22  H    3.997587   0.000000
    23  H    5.516972   3.481360   0.000000
    24  H    6.450486   5.984913   4.578895   0.000000
 Stoichiometry    C6H12O6
 Framework group  C1[X(C6H12O6)]
 Deg. of freedom    66
 Full point group                 C1      NOp   1
 Largest Abelian subgroup         C1      NOp   1
 Largest concise Abelian subgroup C1      NOp   1
                         Standard orientation:                         
 ---------------------------------------------------------------------
 Center     Atomic      Atomic             Coordinates (Angstroms)
 Number     Number       Type             X           Y           Z
 ---------------------------------------------------------------------
      1          8           0       -0.673835   -1.169313   -0.243184
      2          8           0       -0.871023    2.449505    0.284739
      3          8           0        1.870199    2.041413   -0.536825
      4          8           0        2.863258   -0.555843    0.437210
      5          8           0        1.108980   -2.674410   -0.228225
      6          8           0       -3.375755   -0.960404    0.216928
      7          6           0       -0.366852    1.234967   -0.264687
      8          6           0        1.093761    1.059806    0.151669
      9          6           0       -1.217375    0.063487    0.231874
     10          6           0        1.606792   -0.335771   -0.203407
     11          6           0        0.635464   -1.420447    0.262199
     12          6           0       -2.654642    0.156363   -0.270597
     13          1           0       -0.426728    1.319464   -1.356687
     14          1           0        1.223785    1.257626    1.222811
     15          1           0       -1.242993    0.032425    1.329700
     16          1           0        1.785367   -0.402122   -1.283420
     17          1           0        0.601164   -1.500177    1.354824
     18          1           0       -2.699575    0.131329   -1.364509
     19          1           0       -3.148902    1.066105    0.081964
     20          1           0       -0.828491    2.381129    1.253736
     21          1           0        1.511283    2.914147   -0.301206
     22          1           0        2.726367   -0.494186    1.398071
     23          1           0        1.468356   -2.541393   -1.121099
     24          1           0       -2.927107   -1.762352   -0.101649
 ---------------------------------------------------------------------
 Rotational constants (GHZ):           1.1532378           0.7910001           0.4977188
 Standard basis: 6-311++G(d,p) (5D, 7F)
 There are   360 symmetry adapted cartesian basis functions of A   symmetry.
 There are   348 symmetry adapted basis functions of A   symmetry.
   348 basis functions,   540 primitive gaussians,   360 cartesian basis functions
    48 alpha electrons       48 beta electrons
       nuclear repulsion energy       823.9820498135 Hartrees.
 NAtoms=   24 NActive=   24 NUniq=   24 SFac= 1.00D+00 NAtFMM=   60 NAOKFM=F Big=F
 Integral buffers will be    131072 words long.
 Raffenetti 2 integral format.
 Two-electron integral symmetry is turned on.
 R6APFD:  NTU= -4 IXU= 1 FactS= 1.050
 Nuclear repulsion after empirical dispersion term =      823.9593049019 Hartrees.
 One-electron integrals computed using PRISM.
 NBasis=   348 RedAO= T EigKep=  5.33D-06  NBF=   348
 NBsUse=   348 1.00D-06 EigRej= -1.00D+00 NBFU=   348
 ExpMin= 3.60D-02 ExpMax= 8.59D+03 ExpMxC= 1.30D+03 IAcc=3 IRadAn=         5 AccDes= 0.00D+00
 Harris functional with IExCor= 1009 and IRadAn=       5 diagonalized for initial guess.
 HarFok:  IExCor= 1009 AccDes= 0.00D+00 IRadAn=         5 IDoV= 1 UseB2=F ITyADJ=14
 ICtDFT=  3500011 ScaDFX=  1.000000  1.000000  1.000000  1.000000
 FoFCou: FMM=F IPFlag=           0 FMFlag=      100000 FMFlg1=           0
         NFxFlg=           0 DoJE=T BraDBF=F KetDBF=T FulRan=T
         wScrn=  0.000000 ICntrl=       500 IOpCl=  0 I1Cent=   200000004 NGrid=           0
         NMat0=    1 NMatS0=      1 NMatT0=    0 NMatD0=    1 NMtDS0=    0 NMtDT0=    0
 Petite list used in FoFCou.
 Requested convergence on RMS density matrix=1.00D-08 within  32 cycles.
 Requested convergence on MAX density matrix=1.00D-06.
 Requested convergence on             energy=1.00D-06.
 No special actions if energy rises.
 SCF Done:  E(RM08HX) =  -687.167166745     A.U. after   13 cycles
            NFock= 13  Conv=0.68D-08     -V/T= 2.0040
 QCSCF skips out because SCF is already converged.

 **********************************************************************

            Population analysis using the SCF Density.

 **********************************************************************

 Orbital symmetries:
       Occupied  (A) (A) (A) (A) (A) (A) (A) (A) (A) (A) (A) (A)
                 (A) (A) (A) (A) (A) (A) (A) (A) (A) (A) (A) (A)
                 (A) (A) (A) (A) (A) (A) (A) (A) (A) (A) (A) (A)
                 (A) (A) (A) (A) (A) (A) (A) (A) (A) (A) (A) (A)
       Virtual   (A) (A) (A) (A) (A) (A) (A) (A) (A) (A) (A) (A)
                 (A) (A) (A) (A) (A) (A) (A) (A) (A) (A) (A) (A)
                 (A) (A) (A) (A) (A) (A) (A) (A) (A) (A) (A) (A)
                 (A) (A) (A) (A) (A) (A) (A) (A) (A) (A) (A) (A)
                 (A) (A) (A) (A) (A) (A) (A) (A) (A) (A) (A) (A)
                 (A) (A) (A) (A) (A) (A) (A) (A) (A) (A) (A) (A)
                 (A) (A) (A) (A) (A) (A) (A) (A) (A) (A) (A) (A)
                 (A) (A) (A) (A) (A) (A) (A) (A) (A) (A) (A) (A)
                 (A) (A) (A) (A) (A) (A) (A) (A) (A) (A) (A) (A)
                 (A) (A) (A) (A) (A) (A) (A) (A) (A) (A) (A) (A)
                 (A) (A) (A) (A) (A) (A) (A) (A) (A) (A) (A) (A)
                 (A) (A) (A) (A) (A) (A) (A) (A) (A) (A) (A) (A)
                 (A) (A) (A) (A) (A) (A) (A) (A) (A) (A) (A) (A)
                 (A) (A) (A) (A) (A) (A) (A) (A) (A) (A) (A) (A)
                 (A) (A) (A) (A) (A) (A) (A) (A) (A) (A) (A) (A)
                 (A) (A) (A) (A) (A) (A) (A) (A) (A) (A) (A) (A)
                 (A) (A) (A) (A) (A) (A) (A) (A) (A) (A) (A) (A)
                 (A) (A) (A) (A) (A) (A) (A) (A) (A) (A) (A) (A)
                 (A) (A) (A) (A) (A) (A) (A) (A) (A) (A) (A) (A)
                 (A) (A) (A) (A) (A) (A) (A) (A) (A) (A) (A) (A)
                 (A) (A) (A) (A) (A) (A) (A) (A) (A) (A) (A) (A)
                 (A) (A) (A) (A) (A) (A) (A) (A) (A) (A) (A) (A)
                 (A) (A) (A) (A) (A) (A) (A) (A) (A) (A) (A) (A)
                 (A) (A) (A) (A) (A) (A) (A) (A) (A) (A) (A) (A)
                 (A) (A) (A) (A) (A) (A) (A) (A) (A) (A) (A) (A)
 The electronic state is 1-A.
 Alpha  occ. eigenvalues --  -19.64872 -19.64612 -19.63453 -19.62976 -19.62688
 Alpha  occ. eigenvalues --  -19.61183 -10.66270 -10.61359 -10.61268 -10.61133
 Alpha  occ. eigenvalues --  -10.61083 -10.58890  -1.21925  -1.18647  -1.17123
 Alpha  occ. eigenvalues --   -1.15344  -1.14802  -1.13666  -0.91172  -0.89242
 Alpha  occ. eigenvalues --   -0.80324  -0.76820  -0.73459  -0.72032  -0.65148
 Alpha  occ. eigenvalues --   -0.63058  -0.62106  -0.61086  -0.60077  -0.58041
 Alpha  occ. eigenvalues --   -0.56539  -0.55642  -0.53150  -0.51902  -0.51035
 Alpha  occ. eigenvalues --   -0.49425  -0.47572  -0.46735  -0.45393  -0.44637
 Alpha  occ. eigenvalues --   -0.43233  -0.42032  -0.41182  -0.39875  -0.39049
 Alpha  occ. eigenvalues --   -0.36919  -0.35843  -0.34679
 Alpha virt. eigenvalues --   -0.04806  -0.02881  -0.02592  -0.01873  -0.00671
 Alpha virt. eigenvalues --   -0.00067   0.00498   0.00640   0.01662   0.03032
 Alpha virt. eigenvalues --    0.04052   0.04156   0.04635   0.05555   0.06301
 Alpha virt. eigenvalues --    0.06976   0.07946   0.08419   0.08601   0.08933
 Alpha virt. eigenvalues --    0.09378   0.09544   0.10230   0.10531   0.10889
 Alpha virt. eigenvalues --    0.11296   0.11618   0.12080   0.12626   0.13334
 Alpha virt. eigenvalues --    0.13767   0.14177   0.14816   0.15618   0.15903
 Alpha virt. eigenvalues --    0.16766   0.17477   0.17987   0.18672   0.19243
 Alpha virt. eigenvalues --    0.19966   0.20372   0.21203   0.21842   0.22543
 Alpha virt. eigenvalues --    0.22754   0.24218   0.24430   0.24992   0.25544
 Alpha virt. eigenvalues --    0.26139   0.26923   0.27247   0.28045   0.28469
 Alpha virt. eigenvalues --    0.29241   0.29594   0.29863   0.30489   0.30812
 Alpha virt. eigenvalues --    0.31327   0.31364   0.32018   0.32501   0.32682
 Alpha virt. eigenvalues --    0.33268   0.33582   0.33881   0.34582   0.34653
 Alpha virt. eigenvalues --    0.35835   0.36257   0.36906   0.36997   0.37904
 Alpha virt. eigenvalues --    0.38512   0.38800   0.39818   0.39889   0.41318
 Alpha virt. eigenvalues --    0.43452   0.43704   0.44802   0.46872   0.51971
 Alpha virt. eigenvalues --    0.53955   0.54121   0.55243   0.55786   0.56693
 Alpha virt. eigenvalues --    0.57046   0.57600   0.59953   0.60748   0.61503
 Alpha virt. eigenvalues --    0.64972   0.65522   0.65820   0.68359   0.68473
 Alpha virt. eigenvalues --    0.70286   0.71456   0.71938   0.73286   0.73596
 Alpha virt. eigenvalues --    0.75028   0.76867   0.77393   0.77753   0.79896
 Alpha virt. eigenvalues --    0.80902   0.82482   0.84513   0.92687   0.94598
 Alpha virt. eigenvalues --    0.95360   0.99590   1.00819   1.02631   1.06258
 Alpha virt. eigenvalues --    1.06852   1.09615   1.11030   1.12251   1.13962
 Alpha virt. eigenvalues --    1.15972   1.16243   1.18379   1.19031   1.19627
 Alpha virt. eigenvalues --    1.20291   1.21244   1.23115   1.23599   1.24877
 Alpha virt. eigenvalues --    1.25710   1.26903   1.28277   1.28376   1.30233
 Alpha virt. eigenvalues --    1.32678   1.34914   1.36767   1.38948   1.42264
 Alpha virt. eigenvalues --    1.42614   1.44598   1.45721   1.49241   1.50235
 Alpha virt. eigenvalues --    1.51388   1.52943   1.53847   1.54895   1.56711
 Alpha virt. eigenvalues --    1.57488   1.58917   1.60913   1.61515   1.62375
 Alpha virt. eigenvalues --    1.62997   1.64522   1.65881   1.67084   1.69476
 Alpha virt. eigenvalues --    1.70188   1.72610   1.73038   1.74816   1.76550
 Alpha virt. eigenvalues --    1.77987   1.78520   1.81524   1.81637   1.82743
 Alpha virt. eigenvalues --    1.85116   1.86132   1.87841   1.89316   1.91366
 Alpha virt. eigenvalues --    1.93432   1.96516   1.99679   2.00936   2.04051
 Alpha virt. eigenvalues --    2.06113   2.08251   2.09885   2.10999   2.11710
 Alpha virt. eigenvalues --    2.13817   2.16330   2.16823   2.17735   2.19312
 Alpha virt. eigenvalues --    2.20458   2.20802   2.23494   2.26029   2.29874
 Alpha virt. eigenvalues --    2.35063   2.36287   2.39737   2.49701   2.53250
 Alpha virt. eigenvalues --    2.54329   2.55884   2.57855   2.60188   2.60314
 Alpha virt. eigenvalues --    2.63264   2.64904   2.66060   2.69337   2.70576
 Alpha virt. eigenvalues --    2.72250   2.78656   2.80899   2.83554   2.87447
 Alpha virt. eigenvalues --    2.88286   2.91319   2.94802   2.95993   2.97793
 Alpha virt. eigenvalues --    3.00507   3.01490   3.04445   3.05762   3.10214
 Alpha virt. eigenvalues --    3.11695   3.15136   3.16399   3.18228   3.18517
 Alpha virt. eigenvalues --    3.19350   3.20343   3.21120   3.22428   3.23295
 Alpha virt. eigenvalues --    3.25588   3.27890   3.30713   3.31239   3.36207
 Alpha virt. eigenvalues --    3.38568   3.39707   3.40672   3.42018   3.48518
 Alpha virt. eigenvalues --    3.57588   3.60724   3.80417   3.84813   3.85879
 Alpha virt. eigenvalues --    3.88062   3.93096   3.94258   3.96313   3.98870
 Alpha virt. eigenvalues --    4.04062   4.04836   4.08190   4.10815   4.15800
 Alpha virt. eigenvalues --    4.22592   4.24194   4.29812   4.36227   4.38813
 Alpha virt. eigenvalues --    5.20900   5.22599   5.23792   5.24578   5.25873
 Alpha virt. eigenvalues --    5.26961   5.43286   5.48910   5.50448   5.52096
 Alpha virt. eigenvalues --    5.54490   5.54953   5.65222   5.69736   5.72681
 Alpha virt. eigenvalues --    5.73164   5.75594   5.86648  23.77933  23.81534
 Alpha virt. eigenvalues --   23.84840  23.85842  23.89044  23.92441  49.92163
 Alpha virt. eigenvalues --   49.92398  49.95043  49.96057  49.97168  50.00143
          Condensed to atoms (all electrons):
               1          2          3          4          5          6
     1  O    8.166803   0.010946  -0.008817   0.010199  -0.050446  -0.020735
     2  O    0.010946   8.017385  -0.014181   0.000881   0.000782  -0.002516
     3  O   -0.008817  -0.014181   7.872827   0.007164   0.000365   0.000221
     4  O    0.010199   0.000881   0.007164   7.866420   0.028091   0.000134
     5  O   -0.050446   0.000782   0.000365   0.028091   7.813995   0.001869
     6  O   -0.020735  -0.002516   0.000221   0.000134   0.001869   7.930413
     7  C   -0.125858  -0.032055  -0.311727   0.027205   0.056509   0.059795
     8  C   -0.112929  -0.264053   0.619683  -0.147709   0.031159   0.001548
     9  C    0.171298   0.210057   0.044934   0.063472  -0.000467  -0.077787
    10  C    0.137460   0.169994  -0.302703   0.246545  -0.267015  -0.009158
    11  C   -0.004109  -0.002336   0.084215  -0.039545   0.451733  -0.001202
    12  C   -0.041179   0.013838  -0.010558   0.000970   0.002206   0.192792
    13  H    0.017240  -0.111460  -0.007725  -0.006929   0.001114  -0.007693
    14  H    0.018529  -0.067109  -0.034359  -0.055931  -0.008981  -0.001096
    15  H   -0.066039  -0.020695  -0.001741   0.003406   0.002134   0.009695
    16  H    0.013695  -0.005077  -0.033512  -0.118604  -0.058777  -0.000427
    17  H   -0.078754   0.000503  -0.004195  -0.038174  -0.104530  -0.003237
    18  H   -0.043337  -0.022433   0.001073   0.000007   0.002204  -0.032520
    19  H    0.030469   0.043393   0.000037  -0.000342  -0.001299  -0.102628
    20  H   -0.002021   0.232273  -0.001479   0.002807   0.000611   0.000146
    21  H   -0.001380   0.010371   0.222210   0.005652   0.000522   0.000224
    22  H   -0.002234   0.002313   0.001891   0.258982   0.002342   0.000209
    23  H   -0.007935   0.000510  -0.000441  -0.011606   0.262254   0.000261
    24  H    0.035518   0.001691   0.000060   0.000334  -0.000157   0.230033
               7          8          9         10         11         12
     1  O   -0.125858  -0.112929   0.171298   0.137460  -0.004109  -0.041179
     2  O   -0.032055  -0.264053   0.210057   0.169994  -0.002336   0.013838
     3  O   -0.311727   0.619683   0.044934  -0.302703   0.084215  -0.010558
     4  O    0.027205  -0.147709   0.063472   0.246545  -0.039545   0.000970
     5  O    0.056509   0.031159  -0.000467  -0.267015   0.451733   0.002206
     6  O    0.059795   0.001548  -0.077787  -0.009158  -0.001202   0.192792
     7  C   14.499467  -1.962369  -4.575413  -2.229270   0.768606  -0.435135
     8  C   -1.962369  11.515997   0.555405  -4.605679   1.223934  -0.646585
     9  C   -4.575413   0.555405  11.281398   1.140697  -1.144724  -1.263866
    10  C   -2.229270  -4.605679   1.140697  14.665265  -3.664569   0.574500
    11  C    0.768606   1.223934  -1.144724  -3.664569   9.123027  -0.251516
    12  C   -0.435135  -0.646585  -1.263866   0.574500  -0.251516   8.150915
    13  H    0.535241   0.060060  -0.328053  -0.044418   0.027370  -0.034838
    14  H    0.127766   0.479956  -0.225679  -0.095271  -0.139103  -0.029732
    15  H   -0.029928   0.037984   0.492450   0.014922  -0.106544  -0.109226
    16  H   -0.086366  -0.152278   0.002015   0.726966  -0.248834  -0.027470
    17  H    0.046898  -0.053877  -0.087440   0.049050   0.291521   0.003033
    18  H    0.127024   0.071801   0.207066  -0.070629  -0.017333  -0.002446
    19  H   -0.085509  -0.068951  -0.192455   0.060425   0.013358   0.602416
    20  H    0.106210  -0.019089  -0.055988  -0.024858   0.026032   0.003998
    21  H    0.088275  -0.045830   0.021336  -0.033320   0.011781  -0.000612
    22  H   -0.027271  -0.072090   0.019591   0.172061  -0.064718   0.001387
    23  H   -0.006254   0.006954  -0.019383   0.008054  -0.033257   0.003118
    24  H    0.026786  -0.021165  -0.042642   0.000648   0.017896   0.004835
              13         14         15         16         17         18
     1  O    0.017240   0.018529  -0.066039   0.013695  -0.078754  -0.043337
     2  O   -0.111460  -0.067109  -0.020695  -0.005077   0.000503  -0.022433
     3  O   -0.007725  -0.034359  -0.001741  -0.033512  -0.004195   0.001073
     4  O   -0.006929  -0.055931   0.003406  -0.118604  -0.038174   0.000007
     5  O    0.001114  -0.008981   0.002134  -0.058777  -0.104530   0.002204
     6  O   -0.007693  -0.001096   0.009695  -0.000427  -0.003237  -0.032520
     7  C    0.535241   0.127766  -0.029928  -0.086366   0.046898   0.127024
     8  C    0.060060   0.479956   0.037984  -0.152278  -0.053877   0.071801
     9  C   -0.328053  -0.225679   0.492450   0.002015  -0.087440   0.207066
    10  C   -0.044418  -0.095271   0.014922   0.726966   0.049050  -0.070629
    11  C    0.027370  -0.139103  -0.106544  -0.248834   0.291521  -0.017333
    12  C   -0.034838  -0.029732  -0.109226  -0.027470   0.003033  -0.002446
    13  H    0.515536   0.020495  -0.008005  -0.027488   0.007912  -0.000961
    14  H    0.020495   0.821567  -0.008576   0.029648  -0.003994   0.003880
    15  H   -0.008005  -0.008576   0.562130   0.002983  -0.021377   0.032455
    16  H   -0.027488   0.029648   0.002983   0.578312   0.004410   0.003062
    17  H    0.007912  -0.003994  -0.021377   0.004410   0.647469  -0.003351
    18  H   -0.000961   0.003880   0.032455   0.003062  -0.003351   0.652116
    19  H   -0.000840   0.001327  -0.058390   0.001449   0.003277  -0.128509
    20  H    0.025405  -0.026871  -0.022353  -0.003579   0.002280  -0.003254
    21  H   -0.025337  -0.040701  -0.000978   0.003744  -0.000159   0.000914
    22  H   -0.002052  -0.026944   0.000667   0.017468  -0.019226  -0.000086
    23  H    0.003884   0.000303  -0.003868   0.001683   0.032719  -0.000311
    24  H    0.001653  -0.001438  -0.016148  -0.000902  -0.000389  -0.036222
              19         20         21         22         23         24
     1  O    0.030469  -0.002021  -0.001380  -0.002234  -0.007935   0.035518
     2  O    0.043393   0.232273   0.010371   0.002313   0.000510   0.001691
     3  O    0.000037  -0.001479   0.222210   0.001891  -0.000441   0.000060
     4  O   -0.000342   0.002807   0.005652   0.258982  -0.011606   0.000334
     5  O   -0.001299   0.000611   0.000522   0.002342   0.262254  -0.000157
     6  O   -0.102628   0.000146   0.000224   0.000209   0.000261   0.230033
     7  C   -0.085509   0.106210   0.088275  -0.027271  -0.006254   0.026786
     8  C   -0.068951  -0.019089  -0.045830  -0.072090   0.006954  -0.021165
     9  C   -0.192455  -0.055988   0.021336   0.019591  -0.019383  -0.042642
    10  C    0.060425  -0.024858  -0.033320   0.172061   0.008054   0.000648
    11  C    0.013358   0.026032   0.011781  -0.064718  -0.033257   0.017896
    12  C    0.602416   0.003998  -0.000612   0.001387   0.003118   0.004835
    13  H   -0.000840   0.025405  -0.025337  -0.002052   0.003884   0.001653
    14  H    0.001327  -0.026871  -0.040701  -0.026944   0.000303  -0.001438
    15  H   -0.058390  -0.022353  -0.000978   0.000667  -0.003868  -0.016148
    16  H    0.001449  -0.003579   0.003744   0.017468   0.001683  -0.000902
    17  H    0.003277   0.002280  -0.000159  -0.019226   0.032719  -0.000389
    18  H   -0.128509  -0.003254   0.000914  -0.000086  -0.000311  -0.036222
    19  H    0.584240  -0.000362  -0.000324  -0.000349  -0.000064   0.034510
    20  H   -0.000362   0.465747   0.001065   0.002330   0.000353  -0.000189
    21  H   -0.000324   0.001065   0.489617   0.001020  -0.000562   0.000118
    22  H   -0.000349   0.002330   0.001020   0.454127  -0.001435   0.000116
    23  H   -0.000064   0.000353  -0.000562  -0.001435   0.490859  -0.000367
    24  H    0.034510  -0.000189   0.000118   0.000116  -0.000367   0.491474
 Mulliken charges:
               1
     1  O   -0.046385
     2  O   -0.173025
     3  O   -0.123243
     4  O   -0.103430
     5  O   -0.166217
     6  O   -0.168337
     7  C   -0.562627
     8  C   -0.431879
     9  C   -0.195821
    10  C   -0.619698
    11  C   -0.321682
    12  C   -0.700845
    13  H    0.389891
    14  H    0.262313
    15  H    0.315042
    16  H    0.377879
    17  H    0.329633
    18  H    0.259790
    19  H    0.265119
    20  H    0.290788
    21  H    0.292354
    22  H    0.281902
    23  H    0.274532
    24  H    0.273947
 Sum of Mulliken charges =  -0.00000
 Mulliken charges with hydrogens summed into heavy atoms:
               1
     1  O   -0.046385
     2  O    0.117762
     3  O    0.169111
     4  O    0.178472
     5  O    0.108316
     6  O    0.105610
     7  C   -0.172736
     8  C   -0.169566
     9  C    0.119221
    10  C   -0.241819
    11  C    0.007951
    12  C   -0.175936
 Electronic spatial extent (au):  <R**2>=           2203.7511
 Charge=              0.0000 electrons
 Dipole moment (field-independent basis, Debye):
    X=              0.0732    Y=              1.7950    Z=              1.4578  Tot=              2.3136
 Quadrupole moment (field-independent basis, Debye-Ang):
   XX=            -91.9165   YY=            -77.8588   ZZ=            -63.3676
   XY=             -1.7350   XZ=              4.2987   YZ=              6.9572
 Traceless Quadrupole moment (field-independent basis, Debye-Ang):
   XX=            -14.2022   YY=             -0.1445   ZZ=             14.3467
   XY=             -1.7350   XZ=              4.2987   YZ=              6.9572
 Octapole moment (field-independent basis, Debye-Ang**2):
  XXX=              7.9350  YYY=             18.5922  ZZZ=              5.9117  XYY=             -0.5671
  XXY=              4.1147  XXZ=             -3.7954  XZZ=             11.5248  YZZ=             -2.9098
  YYZ=              1.6835  XYZ=              3.7579
 Hexadecapole moment (field-independent basis, Debye-Ang**3):
 XXXX=          -1848.6202 YYYY=          -1037.8735 ZZZZ=           -148.3662 XXXY=            -55.0690
 XXXZ=             55.8699 YYYX=             81.4330 YYYZ=             43.4852 ZZZX=              9.8676
 ZZZY=             18.1551 XXYY=           -426.7714 XXZZ=           -252.3412 YYZZ=           -165.2464
 XXYZ=             33.1340 YYXZ=            -15.1759 ZZXY=            -25.6359
 N-N= 8.239593049019D+02 E-N=-3.260594599048D+03  KE= 6.844427929540D+02
 R6APFD:  NTU= -4 IXU= 1 FactS= 1.050
 Calling FoFJK, ICntrl=      2127 FMM=F ISym2X=0 I1Cent= 0 IOpClX= 0 NMat=1 NMatS=1 NMatT=0.
 ***** Axes restored to original set *****
 -------------------------------------------------------------------
 Center     Atomic                   Forces (Hartrees/Bohr)
 Number     Number              X              Y              Z
 -------------------------------------------------------------------
      1        8           0.002302423    0.000744836   -0.000926286
      2        8           0.001838018   -0.003277431   -0.004624833
      3        8          -0.002443980   -0.002186614   -0.006369809
      4        8          -0.003452984   -0.000017106   -0.001496835
      5        8          -0.012412977   -0.020389851   -0.005444970
      6        8           0.000443368    0.006595226    0.000571108
      7        6          -0.004106666    0.001395572   -0.021309600
      8        6           0.001206400   -0.014317973    0.027487322
      9        6           0.002275338    0.000115080    0.014823217
     10        6           0.014834040   -0.010446221   -0.028446868
     11        6           0.004105537    0.021792478    0.032573430
     12        6          -0.001238745    0.019045457   -0.003443844
     13        1          -0.000104292   -0.000456613    0.000133273
     14        1          -0.005295441    0.006936421   -0.009456913
     15        1           0.001123051   -0.001606864   -0.006834736
     16        1          -0.001595120    0.000024349    0.001395380
     17        1          -0.000368191    0.000305918   -0.004563775
     18        1           0.006290649   -0.005834379    0.005078748
     19        1           0.001751435    0.000004055   -0.001641003
     20        1          -0.001578376   -0.001174597    0.011204519
     21        1           0.003082328    0.010648695    0.004023306
     22        1           0.003014595    0.000835208    0.012580462
     23        1          -0.005450873    0.001402649   -0.010850858
     24        1          -0.004219537   -0.010138296   -0.004460436
 -------------------------------------------------------------------
 Cartesian Forces:  Max     0.032573430 RMS     0.009539335

 GradGradGradGradGradGradGradGradGradGradGradGradGradGradGradGradGradGrad
 Berny optimization.
 FormGI is forming the generalized inverse of G from B-inverse, IUseBI=4.
 Internal  Forces:  Max     0.028402903 RMS     0.004911650
 Search for a local minimum.
 Step number   1 out of a maximum of  142
 All quantities printed in internal units (Hartrees-Bohrs-Radians)
 Mixed Optimization -- RFO/linear search
 Second derivative matrix not updated -- first step.
 ITU=  0
     Eigenvalues ---    0.00430   0.00597   0.00654   0.01316   0.01329
     Eigenvalues ---    0.01331   0.01359   0.01441   0.01481   0.02923
     Eigenvalues ---    0.03286   0.04409   0.04553   0.04685   0.04902
     Eigenvalues ---    0.05141   0.05286   0.05481   0.05608   0.05655
     Eigenvalues ---    0.06201   0.06894   0.07253   0.07420   0.07899
     Eigenvalues ---    0.09277   0.11291   0.11475   0.11819   0.13699
     Eigenvalues ---    0.14116   0.16000   0.16000   0.16000   0.16000
     Eigenvalues ---    0.16000   0.16440   0.17357   0.18513   0.19255
     Eigenvalues ---    0.19894   0.21996   0.27449   0.28615   0.28860
     Eigenvalues ---    0.29470   0.29852   0.33842   0.34017   0.34027
     Eigenvalues ---    0.34051   0.34121   0.34228   0.34386   0.39523
     Eigenvalues ---    0.40047   0.41215   0.41362   0.41381   0.41689
     Eigenvalues ---    0.43079   0.52844   0.52855   0.52865   0.52902
     Eigenvalues ---    0.53045
 RFO step:  Lambda=-1.57403638D-02 EMin= 4.29973039D-03
 Linear search not attempted -- first point.
 Iteration  1 RMS(Cart)=  0.05073588 RMS(Int)=  0.00156265
 Iteration  2 RMS(Cart)=  0.00200391 RMS(Int)=  0.00058162
 Iteration  3 RMS(Cart)=  0.00000275 RMS(Int)=  0.00058161
 Iteration  4 RMS(Cart)=  0.00000000 RMS(Int)=  0.00058161
 Variable       Old X    -DE/DX   Delta X   Delta X   Delta X     New X
                                 (Linear)    (Quad)   (Total)
    R1        2.69967  -0.00511   0.00000  -0.01435  -0.01475   2.68492
    R2        2.69426  -0.00872   0.00000  -0.02227  -0.02238   2.67188
    R3        2.69321   0.00103   0.00000   0.00239   0.00239   2.69560
    R4        1.83745  -0.01131   0.00000  -0.02076  -0.02076   1.81669
    R5        2.69935  -0.00666   0.00000  -0.01556  -0.01556   2.68379
    R6        1.83800  -0.01168   0.00000  -0.02146  -0.02146   1.81654
    R7        2.69743  -0.00527   0.00000  -0.01227  -0.01227   2.68516
    R8        1.83780  -0.01291   0.00000  -0.02372  -0.02372   1.81407
    R9        2.69719  -0.02840   0.00000  -0.06612  -0.06612   2.63106
   R10        1.83612  -0.01218   0.00000  -0.02230  -0.02230   1.81382
   R11        2.67572   0.00035   0.00000   0.00079   0.00079   2.67650
   R12        1.83790  -0.01176   0.00000  -0.02162  -0.02162   1.81628
   R13        2.88913   0.00005   0.00000   0.00314   0.00324   2.89237
   R14        2.89216  -0.00002   0.00000   0.00076   0.00054   2.89270
   R15        2.07284   0.00018   0.00000   0.00050   0.00050   2.07335
   R16        2.88882  -0.00080   0.00000   0.00055   0.00095   2.88977
   R17        2.07301   0.00757   0.00000   0.02126   0.02126   2.09427
   R18        2.88259  -0.00475   0.00000  -0.01513  -0.01513   2.86746
   R19        2.07598   0.00671   0.00000   0.01895   0.01895   2.09494
   R20        2.88874   0.00802   0.00000   0.02461   0.02479   2.91354
   R21        2.07244   0.00110   0.00000   0.00310   0.00310   2.07553
   R22        2.07127   0.00458   0.00000   0.01284   0.01284   2.08410
   R23        2.06948   0.00484   0.00000   0.01353   0.01353   2.08300
   R24        2.06683  -0.00025   0.00000  -0.00071  -0.00071   2.06613
    A1        1.96440  -0.00004   0.00000  -0.00387  -0.00377   1.96064
    A2        1.88471   0.00112   0.00000   0.00638   0.00638   1.89109
    A3        1.87472  -0.00078   0.00000  -0.00443  -0.00443   1.87029
    A4        1.88571   0.00210   0.00000   0.01195   0.01195   1.89766
    A5        1.89461  -0.00123   0.00000  -0.00698  -0.00698   1.88763
    A6        1.87825  -0.00180   0.00000  -0.01026  -0.01026   1.86799
    A7        1.90775   0.00193   0.00000   0.02540   0.02430   1.93205
    A8        1.90777   0.00420   0.00000   0.04408   0.04332   1.95109
    A9        1.87427  -0.00317   0.00000  -0.03583  -0.03526   1.83901
   A10        1.93357  -0.00165   0.00000   0.00406   0.00327   1.93683
   A11        1.90931  -0.00090   0.00000  -0.02186  -0.02189   1.88743
   A12        1.93011  -0.00042   0.00000  -0.01640  -0.01626   1.91385
   A13        1.88525   0.00423   0.00000   0.03671   0.03648   1.92173
   A14        1.91026  -0.00527   0.00000  -0.02015  -0.02082   1.88943
   A15        1.85697   0.00356   0.00000   0.04619   0.04662   1.90360
   A16        1.94116   0.00215   0.00000   0.01393   0.01461   1.95577
   A17        1.93745  -0.00351   0.00000  -0.03912  -0.03999   1.89745
   A18        1.93013  -0.00107   0.00000  -0.03446  -0.03499   1.89514
   A19        1.91899   0.00347   0.00000   0.00800   0.00800   1.92699
   A20        1.87705  -0.00640   0.00000  -0.03428  -0.03418   1.84288
   A21        1.89313   0.00129   0.00000   0.01425   0.01433   1.90746
   A22        1.94996   0.00389   0.00000   0.02107   0.02110   1.97105
   A23        1.93782  -0.00340   0.00000  -0.01632  -0.01632   1.92150
   A24        1.88487   0.00096   0.00000   0.00666   0.00671   1.89157
   A25        1.90913   0.00560   0.00000   0.05411   0.05266   1.96179
   A26        1.88938   0.00309   0.00000   0.04589   0.04434   1.93372
   A27        1.86431  -0.00366   0.00000  -0.03657  -0.03525   1.82905
   A28        1.94312  -0.00272   0.00000  -0.00292  -0.00437   1.93875
   A29        1.91625  -0.00157   0.00000  -0.02821  -0.02842   1.88783
   A30        1.93959  -0.00056   0.00000  -0.03085  -0.03119   1.90840
   A31        1.91518  -0.00836   0.00000  -0.02869  -0.03090   1.88428
   A32        1.92897   0.00370   0.00000   0.01739   0.01755   1.94652
   A33        1.91498  -0.00032   0.00000  -0.01321  -0.01373   1.90125
   A34        1.88382   0.01290   0.00000   0.07988   0.07974   1.96355
   A35        1.86398  -0.00402   0.00000  -0.03277  -0.03273   1.83124
   A36        1.95533  -0.00419   0.00000  -0.02342  -0.02298   1.93235
   A37        1.89486   0.00707   0.00000   0.03598   0.03609   1.93095
   A38        1.88074   0.00495   0.00000   0.06404   0.06452   1.94526
   A39        1.89115  -0.00320   0.00000  -0.01749  -0.01699   1.87417
   A40        1.94583  -0.00767   0.00000  -0.04415  -0.04567   1.90017
   A41        1.95008  -0.00297   0.00000  -0.03108  -0.03169   1.91840
   A42        1.89913   0.00220   0.00000  -0.00307  -0.00467   1.89447
    D1        1.10311  -0.00035   0.00000   0.00537   0.00556   1.10867
    D2       -3.05331   0.00247   0.00000   0.01448   0.01462  -3.03869
    D3       -1.01888   0.00087   0.00000   0.01151   0.01155  -1.00732
    D4        3.12250  -0.01038   0.00000  -0.08797  -0.08715   3.03535
    D5       -1.08516   0.00258   0.00000   0.00329   0.00299  -1.08217
    D6        1.07964  -0.00043   0.00000  -0.02368  -0.02376   1.05588
    D7       -1.07969  -0.00179   0.00000  -0.04691  -0.04763  -1.12732
    D8        1.03930   0.00001   0.00000   0.00146   0.00230   1.04160
    D9        3.13384   0.00003   0.00000  -0.01434  -0.01446   3.11938
   D10        1.01086  -0.00163   0.00000  -0.04247  -0.04210   0.96877
   D11        3.12676   0.00043   0.00000  -0.01511  -0.01454   3.11222
   D12       -1.07049  -0.00163   0.00000  -0.04049  -0.04143  -1.11192
   D13        1.06136   0.00100   0.00000   0.02888   0.03052   1.09188
   D14       -1.05878  -0.00095   0.00000  -0.02834  -0.02995  -1.08873
   D15        3.13436   0.00007   0.00000   0.00370   0.00367   3.13803
   D16        1.43861   0.00442   0.00000   0.01828   0.01766   1.45627
   D17       -0.66452  -0.00300   0.00000  -0.03447  -0.03457  -0.69910
   D18       -2.77000  -0.00282   0.00000  -0.03191  -0.03119  -2.80119
   D19       -1.01941   0.00096   0.00000   0.01030   0.00932  -1.01009
   D20        1.09046  -0.00131   0.00000   0.01526   0.01634   1.10680
   D21       -3.14054   0.00226   0.00000   0.03697   0.03687  -3.10367
   D22       -1.21839   0.00116   0.00000   0.04862   0.04912  -1.16927
   D23        2.96820   0.00364   0.00000   0.04161   0.04173   3.00993
   D24        0.81122   0.00600   0.00000   0.10431   0.10395   0.91516
   D25        2.96150  -0.00426   0.00000  -0.02510  -0.02463   2.93688
   D26        0.86491  -0.00178   0.00000  -0.03211  -0.03202   0.83289
   D27       -1.29208   0.00058   0.00000   0.03058   0.03020  -1.26188
   D28        0.82931  -0.00206   0.00000   0.00745   0.00778   0.83709
   D29       -1.26729   0.00042   0.00000   0.00044   0.00039  -1.26690
   D30        2.85891   0.00278   0.00000   0.06314   0.06260   2.92151
   D31       -3.07868  -0.00340   0.00000  -0.05435  -0.05456  -3.13324
   D32        1.12175  -0.00016   0.00000  -0.03020  -0.03049   1.09126
   D33       -0.98360  -0.00169   0.00000  -0.04180  -0.04201  -1.02561
   D34       -0.97540   0.00068   0.00000   0.00826   0.00840  -0.96700
   D35       -3.05815   0.00392   0.00000   0.03241   0.03247  -3.02569
   D36        1.11969   0.00238   0.00000   0.02081   0.02095   1.14064
   D37        1.14460  -0.00184   0.00000  -0.02770  -0.02757   1.11703
   D38       -0.93815   0.00139   0.00000  -0.00354  -0.00350  -0.94165
   D39       -3.04350  -0.00014   0.00000  -0.01515  -0.01502  -3.05852
   D40        1.26625  -0.00455   0.00000  -0.08308  -0.08320   1.18305
   D41       -2.92958   0.00122   0.00000   0.00725   0.00730  -2.92229
   D42       -0.77420  -0.00248   0.00000  -0.05406  -0.05358  -0.82779
   D43       -2.93520  -0.00135   0.00000  -0.04183  -0.04230  -2.97750
   D44       -0.84785   0.00443   0.00000   0.04850   0.04819  -0.79966
   D45        1.30753   0.00072   0.00000  -0.01281  -0.01269   1.29484
   D46       -0.77405  -0.00510   0.00000  -0.10706  -0.10734  -0.88139
   D47        1.31330   0.00067   0.00000  -0.01674  -0.01684   1.29646
   D48       -2.81451  -0.00303   0.00000  -0.07805  -0.07772  -2.89223
   D49        1.02607   0.00124   0.00000   0.03721   0.03719   1.06326
   D50       -1.04313  -0.00474   0.00000  -0.03787  -0.03696  -1.08009
   D51        3.11068   0.00004   0.00000   0.01987   0.01944   3.13012
   D52        3.13345   0.00370   0.00000   0.03749   0.03712  -3.11261
   D53        1.06425  -0.00227   0.00000  -0.03759  -0.03702   1.02722
   D54       -1.06513   0.00250   0.00000   0.02016   0.01937  -1.04576
   D55       -1.01377   0.00258   0.00000   0.03502   0.03489  -0.97888
   D56       -3.08298  -0.00339   0.00000  -0.04006  -0.03926  -3.12224
   D57        1.07083   0.00138   0.00000   0.01769   0.01714   1.08797
   D58        3.03950   0.00333   0.00000   0.06515   0.06493   3.10442
   D59       -1.14922   0.00331   0.00000   0.08987   0.09074  -1.05849
   D60        0.89807   0.00403   0.00000   0.08614   0.08625   0.98432
   D61        0.94046  -0.00392   0.00000  -0.02946  -0.02962   0.91084
   D62        3.03492  -0.00394   0.00000  -0.00474  -0.00381   3.03112
   D63       -1.20097  -0.00322   0.00000  -0.00847  -0.00829  -1.20926
   D64       -1.20157   0.00044   0.00000   0.03092   0.03017  -1.17139
   D65        0.89290   0.00041   0.00000   0.05564   0.05599   0.94888
   D66        2.94019   0.00114   0.00000   0.05190   0.05150   2.99169
         Item               Value     Threshold  Converged?
 Maximum Force            0.028403     0.000450     NO 
 RMS     Force            0.004912     0.000300     NO 
 Maximum Displacement     0.220124     0.001800     NO 
 RMS     Displacement     0.050392     0.001200     NO 
 Predicted change in Energy=-9.201253D-03
 GradGradGradGradGradGradGradGradGradGradGradGradGradGradGradGradGradGrad

                          Input orientation:                          
 ---------------------------------------------------------------------
 Center     Atomic      Atomic             Coordinates (Angstroms)
 Number     Number       Type             X           Y           Z
 ---------------------------------------------------------------------
      1          8           0       -0.661621    1.141794    0.280497
      2          8           0       -0.904686   -2.488032   -0.312719
      3          8           0        1.890139   -2.072324    0.428714
      4          8           0        2.907984    0.538231   -0.397353
      5          8           0        1.028937    2.655173    0.221866
      6          8           0       -3.380310    1.006465   -0.176734
      7          6           0       -0.379213   -1.264957    0.199854
      8          6           0        1.085344   -1.091627   -0.209650
      9          6           0       -1.216346   -0.059859   -0.236208
     10          6           0        1.626446    0.289093    0.163553
     11          6           0        0.631645    1.399448   -0.229590
     12          6           0       -2.640286   -0.109105    0.285761
     13          1           0       -0.418975   -1.366305    1.291607
     14          1           0        1.164744   -1.217047   -1.307902
     15          1           0       -1.251495   -0.000860   -1.342672
     16          1           0        1.786466    0.311962    1.249917
     17          1           0        0.570636    1.498158   -1.326326
     18          1           0       -2.615171   -0.147756    1.387074
     19          1           0       -3.141026   -1.008608   -0.082428
     20          1           0       -0.908172   -2.437219   -1.272718
     21          1           0        1.520841   -2.931325    0.205599
     22          1           0        2.832985    0.527404   -1.354324
     23          1           0        1.389898    2.554831    1.105563
     24          1           0       -2.916963    1.794366    0.120419
 ---------------------------------------------------------------------
                    Distance matrix (angstroms):
                    1          2          3          4          5
     1  O    0.000000
     2  O    3.686003   0.000000
     3  O    4.106580   2.921229   0.000000
     4  O    3.683184   4.868457   2.921198   0.000000
     5  O    2.269744   5.520619   4.809749   2.897532   0.000000
     6  O    2.760190   4.284707   6.133771   6.309561   4.724255
     7  C    2.424605   1.426451   2.419540   3.796552   4.165428
     8  C    2.877551   2.433267   1.420201   2.452282   3.771989
     9  C    1.420800   2.449288   3.760636   4.170584   3.552819
    10  C    2.444590   3.787596   2.390844   1.420924   2.441056
    11  C    1.413899   4.180876   3.751050   2.439581   1.392299
    12  C    2.340917   3.004959   4.939576   5.627520   4.594400
    13  H    2.715102   2.016940   2.564187   4.189093   4.406027
    14  H    3.379755   2.624563   2.067252   2.636093   4.165659
    15  H    2.070818   2.714241   4.159163   4.299478   3.834405
    16  H    2.760711   4.186179   2.523875   2.005617   2.668591
    17  H    2.056048   4.369632   4.191611   2.692145   1.986359
    18  H    2.589172   3.360350   4.992017   5.844656   4.742746
    19  H    3.302028   2.691272   5.167724   6.251592   5.559179
    20  H    3.909296   0.961348   3.295233   4.917582   5.649658
    21  H    4.621585   2.519592   0.961272   3.784910   5.608137
    22  H    3.906710   4.914059   3.290406   0.959966   3.204117
    23  H    2.624145   5.719013   4.703077   2.937689   0.959834
    24  H    2.353305   4.751399   6.176938   5.981301   4.039976
                    6          7          8          9         10
     6  O    0.000000
     7  C    3.782560   0.000000
     8  C    4.934080   1.530577   0.000000
     9  C    2.413157   1.530753   2.522504   0.000000
    10  C    5.069322   2.537530   1.529202   2.891892   0.000000
    11  C    4.031503   2.881894   2.532133   2.354717   1.541777
    12  C    1.416345   2.540831   3.884726   1.517393   4.287015
    13  H    4.068853   1.097167   2.142941   2.162595   2.862969
    14  H    5.184695   2.158571   1.108238   2.856081   2.155644
    15  H    2.627921   2.176742   2.816794   1.108594   3.261185
    16  H    5.404928   2.877407   2.142888   3.371008   1.098325
    17  H    4.144069   3.296400   2.866859   2.609422   2.190048
    18  H    2.088818   2.767154   4.139352   2.144640   4.436119
    19  H    2.031420   2.788011   4.229099   2.151317   4.947051
    20  H    4.378539   1.955112   2.629608   2.611737   3.989980
    21  H    6.298702   2.527255   1.935608   3.991579   3.222423
    22  H    6.342023   3.993275   2.643064   4.241714   1.953581
    23  H    5.176545   4.305909   3.888341   3.928035   2.465139
    24  H    0.961134   3.975669   4.945337   2.541147   4.786467
                   11         12         13         14         15
    11  C    0.000000
    12  C    3.639623   0.000000
    13  H    3.326745   2.743446   0.000000
    14  H    2.879756   4.271480   3.047604   0.000000
    15  H    2.597312   2.142954   3.081713   2.705278   0.000000
    16  H    2.169142   4.550058   2.771694   3.044149   4.006068
    17  H    1.102858   3.936006   4.004754   2.779504   2.359552
    18  H    3.943255   1.102278   2.513414   4.763826   3.054948
    19  H    4.478106   1.093347   3.070094   4.481616   2.484773
    20  H    4.263704   3.293810   2.821690   2.405627   2.461425
    21  H    4.442483   5.028551   2.718747   2.314356   4.320951
    22  H    2.621332   5.749062   4.600253   2.414186   4.118516
    23  H    1.921585   4.900104   4.322261   4.483589   4.416149
    24  H    3.587630   1.930567   4.195409   5.269633   2.852588
                   16         17         18         19         20
    16  H    0.000000
    17  H    3.085828   0.000000
    18  H    4.427704   4.496771   0.000000
    19  H    5.272497   4.648397   1.782422   0.000000
    20  H    4.602473   4.204396   3.902561   2.905745   0.000000
    21  H    3.417612   4.782260   5.123547   5.051020   2.886116
    22  H    2.814905   2.461984   6.136245   6.298083   4.774087
    23  H    2.282228   2.775218   4.839815   5.885464   5.988148
    24  H    5.059202   3.787369   2.338232   2.819222   4.886961
                   21         22         23         24
    21  H    0.000000
    22  H    4.014710   0.000000
    23  H    5.561024   3.499143   0.000000
    24  H    6.483326   6.069758   4.483065   0.000000
 Stoichiometry    C6H12O6
 Framework group  C1[X(C6H12O6)]
 Deg. of freedom    66
 Full point group                 C1      NOp   1
 Largest Abelian subgroup         C1      NOp   1
 Largest concise Abelian subgroup C1      NOp   1
                         Standard orientation:                         
 ---------------------------------------------------------------------
 Center     Atomic      Atomic             Coordinates (Angstroms)
 Number     Number       Type             X           Y           Z
 ---------------------------------------------------------------------
      1          8           0       -0.709408   -1.131121   -0.261971
      2          8           0       -0.793390    2.517338    0.256016
      3          8           0        1.974216    1.968116   -0.500482
      4          8           0        2.888778   -0.665434    0.372090
      5          8           0        0.916245   -2.713265   -0.185759
      6          8           0       -3.415490   -0.871125    0.215704
      7          6           0       -0.324911    1.262650   -0.234951
      8          6           0        1.134854    1.035965    0.165502
      9          6           0       -1.207977    0.103496    0.233834
     10          6           0        1.613620   -0.373946   -0.182914
     11          6           0        0.576624   -1.432674    0.242308
     12          6           0       -2.633471    0.202166   -0.276766
     13          1           0       -0.370745    1.342779   -1.328228
     14          1           0        1.229922    1.180804    1.260114
     15          1           0       -1.235057    0.069151    1.341564
     16          1           0        1.762189   -0.426253   -1.269886
     17          1           0        0.521940   -1.505792    1.341380
     18          1           0       -2.617227    0.216718   -1.378828
     19          1           0       -3.092272    1.129581    0.076520
     20          1           0       -0.789885    2.486771    1.216872
     21          1           0        1.643644    2.846473   -0.292504
     22          1           0        2.823411   -0.631462    1.329226
     23          1           0        1.272697   -2.646788   -1.074469
     24          1           0       -2.988660   -1.683995   -0.068616
 ---------------------------------------------------------------------
 Rotational constants (GHZ):           1.1491817           0.7893997           0.4939054
 Standard basis: 6-311++G(d,p) (5D, 7F)
 There are   360 symmetry adapted cartesian basis functions of A   symmetry.
 There are   348 symmetry adapted basis functions of A   symmetry.
   348 basis functions,   540 primitive gaussians,   360 cartesian basis functions
    48 alpha electrons       48 beta electrons
       nuclear repulsion energy       823.5422011504 Hartrees.
 NAtoms=   24 NActive=   24 NUniq=   24 SFac= 1.00D+00 NAtFMM=   60 NAOKFM=F Big=F
 Integral buffers will be    131072 words long.
 Raffenetti 2 integral format.
 Two-electron integral symmetry is turned on.
 R6APFD:  NTU= -4 IXU= 1 FactS= 1.050
 Nuclear repulsion after empirical dispersion term =      823.5189439037 Hartrees.
 One-electron integrals computed using PRISM.
 NBasis=   348 RedAO= T EigKep=  5.43D-06  NBF=   348
 NBsUse=   348 1.00D-06 EigRej= -1.00D+00 NBFU=   348
 Initial guess from the checkpoint file:  "DTRE0106.chk"
 B after Tr=    -0.000000    0.000000   -0.000000
         Rot=    0.999824    0.000357   -0.000335    0.018761 Ang=   2.15 deg.
 ExpMin= 3.60D-02 ExpMax= 8.59D+03 ExpMxC= 1.30D+03 IAcc=3 IRadAn=         5 AccDes= 0.00D+00
 Harris functional with IExCor= 1009 and IRadAn=       5 diagonalized for initial guess.
 HarFok:  IExCor= 1009 AccDes= 0.00D+00 IRadAn=         5 IDoV= 1 UseB2=F ITyADJ=14
 ICtDFT=  3500011 ScaDFX=  1.000000  1.000000  1.000000  1.000000
 FoFCou: FMM=F IPFlag=           0 FMFlag=      100000 FMFlg1=           0
         NFxFlg=           0 DoJE=T BraDBF=F KetDBF=T FulRan=T
         wScrn=  0.000000 ICntrl=       500 IOpCl=  0 I1Cent=   200000004 NGrid=           0
         NMat0=    1 NMatS0=      1 NMatT0=    0 NMatD0=    1 NMtDS0=    0 NMtDT0=    0
 Petite list used in FoFCou.
 Requested convergence on RMS density matrix=1.00D-08 within  32 cycles.
 Requested convergence on MAX density matrix=1.00D-06.
 Requested convergence on             energy=1.00D-06.
 No special actions if energy rises.
 SCF Done:  E(RM08HX) =  -687.175703515     A.U. after   12 cycles
            NFock= 12  Conv=0.57D-08     -V/T= 2.0038
 QCSCF skips out because SCF is already converged.
 R6APFD:  NTU= -4 IXU= 1 FactS= 1.050
 Calling FoFJK, ICntrl=      2127 FMM=F ISym2X=0 I1Cent= 0 IOpClX= 0 NMat=1 NMatS=1 NMatT=0.
 ***** Axes restored to original set *****
 -------------------------------------------------------------------
 Center     Atomic                   Forces (Hartrees/Bohr)
 Number     Number              X              Y              Z
 -------------------------------------------------------------------
      1        8           0.002392336   -0.007390625   -0.000334501
      2        8           0.003822763    0.003567740    0.001512872
      3        8          -0.002527099    0.004833426   -0.005699237
      4        8          -0.008220821   -0.001662120    0.003765416
      5        8           0.001458842   -0.008276115   -0.002072524
      6        8           0.002142979   -0.003565232    0.002822596
      7        6          -0.003452785   -0.001198720   -0.003458547
      8        6           0.004090488   -0.005971619    0.006790176
      9        6          -0.000110081    0.000798676    0.002547795
     10        6           0.006868604    0.000530254   -0.004997754
     11        6           0.001158128    0.013956959    0.003391701
     12        6          -0.003756080    0.003459499   -0.003340272
     13        1          -0.000339594    0.000984885    0.001557745
     14        1          -0.001748834    0.002218483   -0.002844581
     15        1           0.001293442    0.000251220   -0.001346894
     16        1          -0.002344784   -0.000181497    0.002329185
     17        1          -0.000529538   -0.003252169   -0.003121302
     18        1           0.000317484   -0.000327270    0.000638681
     19        1          -0.000532333   -0.001092778    0.000289400
     20        1          -0.000995207   -0.000262286   -0.000075329
     21        1          -0.000093542   -0.000288451    0.001612555
     22        1           0.000780659    0.000190071   -0.000337219
     23        1           0.000159565    0.002267286    0.001127576
     24        1           0.000165408    0.000410381   -0.000757540
 -------------------------------------------------------------------
 Cartesian Forces:  Max     0.013956959 RMS     0.003443775

 GradGradGradGradGradGradGradGradGradGradGradGradGradGradGradGradGradGrad
 Berny optimization.
 Using GEDIIS/GDIIS optimizer.
 FormGI is forming the generalized inverse of G from B-inverse, IUseBI=4.
 Internal  Forces:  Max     0.008321764 RMS     0.001590903
 Search for a local minimum.
 Step number   2 out of a maximum of  142
 All quantities printed in internal units (Hartrees-Bohrs-Radians)
 Mixed Optimization -- RFO/linear search
 Update second derivatives using D2CorX and points    1    2
 DE= -8.54D-03 DEPred=-9.20D-03 R= 9.28D-01
 TightC=F SS=  1.41D+00  RLast= 4.11D-01 DXNew= 5.0454D-01 1.2343D+00
 Trust test= 9.28D-01 RLast= 4.11D-01 DXMaxT set to 5.05D-01
 ITU=  1  0
 Use linear search instead of GDIIS.
     Eigenvalues ---    0.00430   0.00575   0.00650   0.01309   0.01329
     Eigenvalues ---    0.01330   0.01357   0.01444   0.01480   0.02789
     Eigenvalues ---    0.03195   0.04373   0.04636   0.04677   0.04859
     Eigenvalues ---    0.05122   0.05143   0.05341   0.05617   0.05908
     Eigenvalues ---    0.06053   0.06743   0.07151   0.07290   0.07982
     Eigenvalues ---    0.09589   0.11412   0.11656   0.11956   0.13726
     Eigenvalues ---    0.14628   0.15871   0.16000   0.16000   0.16000
     Eigenvalues ---    0.16074   0.16677   0.17775   0.19222   0.20167
     Eigenvalues ---    0.21098   0.21974   0.27403   0.28631   0.28893
     Eigenvalues ---    0.29685   0.30117   0.32999   0.33910   0.34035
     Eigenvalues ---    0.34080   0.34101   0.34240   0.34406   0.37895
     Eigenvalues ---    0.39672   0.40202   0.41261   0.41591   0.42440
     Eigenvalues ---    0.43659   0.52842   0.52859   0.52891   0.52950
     Eigenvalues ---    0.53631
 RFO step:  Lambda=-2.87793900D-03 EMin= 4.30156912D-03
 Quartic linear search produced a step of  0.07163.
 Iteration  1 RMS(Cart)=  0.04470969 RMS(Int)=  0.00103386
 Iteration  2 RMS(Cart)=  0.00124591 RMS(Int)=  0.00015960
 Iteration  3 RMS(Cart)=  0.00000076 RMS(Int)=  0.00015960
 Variable       Old X    -DE/DX   Delta X   Delta X   Delta X     New X
                                 (Linear)    (Quad)   (Total)
    R1        2.68492  -0.00152  -0.00106  -0.00254  -0.00340   2.68153
    R2        2.67188   0.00093  -0.00160   0.00223   0.00068   2.67257
    R3        2.69560  -0.00439   0.00017  -0.01094  -0.01077   2.68483
    R4        1.81669   0.00007  -0.00149  -0.00072  -0.00220   1.81448
    R5        2.68379  -0.00646  -0.00111  -0.01705  -0.01817   2.66562
    R6        1.81654  -0.00008  -0.00154  -0.00104  -0.00258   1.81397
    R7        2.68516  -0.00832  -0.00088  -0.02158  -0.02245   2.66270
    R8        1.81407   0.00027  -0.00170  -0.00043  -0.00213   1.81195
    R9        2.63106  -0.00526  -0.00474  -0.01599  -0.02072   2.61034
   R10        1.81382   0.00086  -0.00160   0.00079  -0.00080   1.81302
   R11        2.67650  -0.00437   0.00006  -0.01059  -0.01054   2.66597
   R12        1.81628   0.00018  -0.00155  -0.00052  -0.00207   1.81421
   R13        2.89237  -0.00095   0.00023  -0.00417  -0.00399   2.88838
   R14        2.89270  -0.00306   0.00004  -0.00884  -0.00878   2.88392
   R15        2.07335   0.00147   0.00004   0.00454   0.00458   2.07792
   R16        2.88977  -0.00124   0.00007  -0.00717  -0.00729   2.88248
   R17        2.09427   0.00244   0.00152   0.00836   0.00988   2.10414
   R18        2.86746   0.00148  -0.00108   0.00459   0.00350   2.87096
   R19        2.09494   0.00132   0.00136   0.00482   0.00618   2.10112
   R20        2.91354  -0.00158   0.00178  -0.00636  -0.00459   2.90895
   R21        2.07553   0.00196   0.00022   0.00614   0.00636   2.08189
   R22        2.08410   0.00284   0.00092   0.00922   0.01014   2.09424
   R23        2.08300   0.00066   0.00097   0.00254   0.00351   2.08652
   R24        2.06613   0.00105  -0.00005   0.00316   0.00311   2.06923
    A1        1.96064   0.00243  -0.00027   0.01345   0.01289   1.97352
    A2        1.89109   0.00114   0.00046   0.00763   0.00809   1.89918
    A3        1.87029   0.00170  -0.00032   0.01086   0.01054   1.88083
    A4        1.89766   0.00150   0.00086   0.01014   0.01099   1.90865
    A5        1.88763   0.00418  -0.00050   0.02680   0.02630   1.91393
    A6        1.86799   0.00082  -0.00073   0.00493   0.00419   1.87218
    A7        1.93205  -0.00084   0.00174  -0.00422  -0.00244   1.92961
    A8        1.95109   0.00076   0.00310   0.00839   0.01160   1.96269
    A9        1.83901   0.00020  -0.00253   0.00395   0.00143   1.84044
   A10        1.93683   0.00023   0.00023  -0.00906  -0.00908   1.92776
   A11        1.88743   0.00006  -0.00157   0.00263   0.00107   1.88849
   A12        1.91385  -0.00042  -0.00116  -0.00112  -0.00235   1.91150
   A13        1.92173   0.00088   0.00261   0.01604   0.01877   1.94050
   A14        1.88943  -0.00109  -0.00149  -0.00131  -0.00244   1.88700
   A15        1.90360   0.00064   0.00334   0.01523   0.01853   1.92213
   A16        1.95577   0.00023   0.00105  -0.01052  -0.01018   1.94559
   A17        1.89745  -0.00058  -0.00286  -0.01141  -0.01437   1.88308
   A18        1.89514  -0.00006  -0.00251  -0.00751  -0.01018   1.88495
   A19        1.92699  -0.00106   0.00057  -0.00828  -0.00782   1.91917
   A20        1.84288   0.00180  -0.00245   0.00967   0.00730   1.85017
   A21        1.90746  -0.00052   0.00103  -0.00513  -0.00420   1.90326
   A22        1.97105  -0.00103   0.00151  -0.00081   0.00074   1.97179
   A23        1.92150   0.00035  -0.00117  -0.00510  -0.00628   1.91522
   A24        1.89157   0.00053   0.00048   0.01028   0.01075   1.90232
   A25        1.96179  -0.00007   0.00377   0.00516   0.00919   1.97098
   A26        1.93372  -0.00073   0.00318   0.00422   0.00745   1.94117
   A27        1.82905   0.00064  -0.00253   0.01074   0.00823   1.83728
   A28        1.93875   0.00082  -0.00031  -0.01189  -0.01294   1.92581
   A29        1.88783  -0.00052  -0.00204  -0.00255  -0.00471   1.88312
   A30        1.90840  -0.00016  -0.00223  -0.00482  -0.00697   1.90143
   A31        1.88428   0.00366  -0.00221   0.02620   0.02404   1.90833
   A32        1.94652  -0.00267   0.00126  -0.02726  -0.02634   1.92019
   A33        1.90125   0.00033  -0.00098  -0.00099  -0.00284   1.89841
   A34        1.96355  -0.00134   0.00571   0.00185   0.00779   1.97135
[...]
 00219641,-0.01797188,-0.00237778,0.00024146,-0.02224811,0.00002239,0.0
 0001512,-0.00008562,-0.00034784,-0.00050934,0.00024499,-0.00049698,-0.
 00209680,-0.00057310,0.00011930,0.00002757,0.00025008,0.05897520,-0.00
 190127,0.00069729,-0.00152777,-0.00028872,-0.00028613,0.00073623,0.000
 14590,0.00300239,0.00157969,-0.00203045,0.00360287,0.00684612,-0.00042
 004,0.00286383,-0.00019461,-0.00004296,0.00005540,-0.00000128,0.000996
 73,0.00071193,-0.00115889,-0.00465972,-0.00185415,-0.03257887,-0.00012
 147,-0.00034109,-0.00007571,0.00144873,-0.05309934,-0.00073170,0.00425
 039,-0.00087514,0.02781499,0.00003075,0.00005613,-0.00006487,-0.000562
 19,-0.00025630,0.00058106,-0.00184493,-0.00489086,-0.00167920,-0.00002
 397,-0.00015524,0.00008450,0.00219414,0.05435076,0.00005692,-0.0006177
 5,0.00240440,-0.00039505,-0.00019945,0.00069233,0.00043212,0.00043909,
 0.00166890,0.01080115,0.00182695,-0.00577185,0.00070372,0.00004585,0.0
 0276509,-0.00002679,-0.00000084,0.00009220,0.00102214,-0.00002879,-0.0
 0099126,-0.00353095,0.00037045,-0.01334215,-0.00029293,-0.00006740,-0.
 00020830,-0.01842559,-0.00313323,-0.27795888,-0.00113615,-0.00167687,-
 0.01390742,0.00001451,0.00006181,-0.00011881,-0.00066960,-0.00021724,0
 .00055672,-0.00071348,-0.00157554,0.00009212,0.00021214,0.00004664,0.0
 0016532,0.01242189,0.00057775,0.30440850,-0.01222920,-0.00777408,0.037
 06568,0.00033961,-0.00027535,-0.00002776,-0.00002603,0.00031027,0.0004
 7434,0.00179525,-0.00107779,0.00135758,-0.00142941,-0.00547706,-0.0124
 2897,-0.00001886,0.00005538,-0.00016795,-0.00060112,-0.00012698,-0.000
 41337,-0.00010934,-0.00110347,-0.00080004,0.00270957,0.00411018,0.0041
 0230,0.00068913,0.00209683,-0.02201727,-0.05182382,0.00532829,-0.02794
 022,-0.00020153,-0.00008997,-0.00000988,-0.00016030,0.00005984,-0.0000
 0433,0.00020965,0.00039389,0.00048000,-0.00018877,-0.00025896,-0.00148
 615,-0.00228365,0.00272762,-0.00087758,0.06111698,-0.00335267,0.002008
 30,0.00385305,-0.00010236,-0.00003674,-0.00008593,-0.00008931,-0.00005
 250,-0.00056971,-0.00090454,0.00051496,-0.00140981,-0.01086215,-0.0093
 5480,-0.04067247,0.00005832,-0.00011265,0.00005274,0.00022974,-0.00011
 764,-0.00003848,0.00007104,0.00097750,0.00163219,0.00022463,0.00142849
 ,0.00209418,0.00349909,0.00030267,0.02394254,0.00609531,-0.05100142,0.
 01734627,-0.00021412,0.00008388,0.00004577,0.00002001,0.00007057,-0.00
 016414,0.00012698,-0.00074654,-0.00056797,-0.00028765,-0.00000239,-0.0
 0052277,0.00255101,-0.00289373,0.00112799,0.00319436,0.06459365,0.0104
 1354,0.00354676,-0.01192867,-0.00002742,0.00033184,0.00013096,0.000091
 20,-0.00013961,0.00064862,-0.00072341,-0.00007950,0.00125927,-0.005669
 60,-0.00744103,-0.01126242,0.00006974,0.00003784,0.00011909,0.00034929
 ,-0.00001536,0.00004666,-0.00026388,-0.00061727,-0.00082031,-0.0015350
 5,-0.00163595,-0.00013460,-0.00052347,0.00097531,-0.01037048,-0.026984
 30,0.00631869,-0.28982458,0.00023065,0.00019996,0.00070680,-0.00012029
 ,-0.00023866,0.00009629,0.00016903,0.00066938,0.00069121,0.00094748,0.
 00134843,0.00061253,-0.00048894,0.00107152,0.00033322,0.02362204,-0.00
 275651,0.31849816,0.00300278,0.00135270,-0.00138966,0.00020531,0.00013
 000,-0.00018863,-0.00011645,0.00006359,-0.00019339,0.00005095,-0.00005
 374,-0.00005361,0.00003542,-0.00000393,-0.00018421,-0.00353407,0.00847
 701,-0.02027485,0.00182231,-0.00111496,0.00123348,0.00000449,-0.000139
 07,0.00011788,-0.00157832,0.00083568,0.03408901,0.00010494,0.00007814,
 0.00004641,-0.00034671,-0.00008109,0.00048670,-0.05019858,-0.00320605,
 -0.01625512,-0.00047037,0.00046513,-0.00073952,0.00003305,0.00005290,-
 0.00027036,-0.00521307,-0.00060622,0.00209343,-0.00001887,0.00000258,-
 0.00006642,0.00006003,0.00000416,-0.00034427,0.05624889,0.00101188,0.0
 0074535,0.00051833,0.00026610,-0.00031863,0.00044341,-0.00004833,-0.00
 005506,0.00004827,0.00006793,-0.00003488,-0.00002018,0.00008828,0.0000
 7908,-0.00005403,0.00996812,-0.00708852,0.02934375,-0.00023589,0.00010
 618,-0.00097700,0.00004327,0.00013339,-0.00012558,-0.00194886,0.000920
 70,0.00210472,-0.00000926,0.00003913,0.00001948,-0.00030464,-0.0001035
 7,0.00019532,-0.00400484,-0.05067232,-0.00572094,0.00036031,-0.0000288
 0,0.00006716,0.00003717,-0.00002558,0.00004943,0.00035337,0.00054669,0
 .00029024,-0.00000129,0.00000744,-0.00001074,-0.00002032,-0.00006304,-
 0.00011211,-0.00468780,0.05297472,-0.00063244,-0.00008245,0.00170506,0
 .00044367,-0.00027721,0.00030439,0.00024963,-0.00009917,0.00012037,-0.
 00001758,-0.00002300,0.00007628,0.00014326,0.00003198,0.00007247,-0.00
 426616,0.00739108,0.00020297,-0.00059302,0.00070046,-0.00043647,0.0000
 8056,-0.00017892,0.00042554,-0.00022818,-0.00209405,-0.01741468,-0.000
 01493,0.00000778,-0.00013019,-0.00016769,0.00011528,0.00023484,-0.0144
 9819,-0.00233136,-0.28950950,0.00078344,-0.00064479,0.00046312,-0.0002
 6946,-0.00000352,0.00016661,0.00246101,0.00022699,0.00002131,0.0000635
 7,0.00001602,0.00007307,-0.00025453,-0.00009580,0.00013833,0.01715719,
 -0.00277577,0.31182856,-0.00848428,-0.00146995,0.00405926,0.00147517,0
 .00096386,0.00041884,0.00012690,0.00023397,-0.00001383,-0.00014132,0.0
 0028397,0.00003791,-0.00088418,-0.00080654,-0.00002533,0.01078964,0.02
 403217,0.00568905,-0.00064168,-0.00141375,-0.00080899,-0.00003056,-0.0
 0009822,0.00002208,-0.00824757,-0.02323274,-0.01366029,0.00008564,-0.0
 0033339,0.00011240,0.00167629,-0.00036007,-0.00129432,-0.11437565,-0.1
 1045627,-0.03923448,0.00000702,0.00014642,0.00007110,0.00002802,-0.000
 00469,0.00001943,0.00096413,0.00016995,0.00062326,0.00000033,0.0000221
 5,0.00002055,-0.00014012,0.00001797,0.00017064,0.00022258,-0.00068233,
 0.00055946,0.12066683,0.00080827,0.00110094,0.00016503,0.00179663,-0.0
 0096607,-0.00000620,-0.00009313,0.00009468,0.00000549,-0.00003670,0.00
 002804,0.00000979,0.00003623,0.00010996,-0.00000509,-0.00856144,-0.032
 61078,-0.00480411,-0.00108178,-0.00060855,0.00014010,0.00002143,0.0001
 1193,-0.00002842,-0.00241429,-0.00035244,-0.00063474,0.00005177,0.0000
 0643,-0.00000075,0.00031849,0.00020192,-0.00008742,-0.10286735,-0.2196
 0680,-0.06730710,-0.00011744,-0.00006997,0.00011549,-0.00003191,-0.000
 00273,0.00002504,-0.00025958,0.00012424,0.00024736,0.00000007,-0.00000
 523,-0.00000326,0.00000036,-0.00000673,0.00001217,-0.00035618,0.001881
 40,-0.00027435,0.10869719,0.25311437,0.00324201,0.00043893,-0.00055609
 ,0.00056224,-0.00013738,-0.00021713,-0.00010506,0.00003825,-0.00002268
 ,-0.00000331,-0.00002784,0.00002244,0.00028806,0.00026146,-0.00006348,
 0.00543167,0.01169751,0.00501375,-0.00080050,-0.00042126,0.00016971,0.
 00006316,0.00014155,-0.00006411,0.00645263,0.01195875,0.00427143,0.000
 00971,0.00001566,-0.00009220,0.00011226,0.00040362,0.00091517,-0.04197
 345,-0.07358554,-0.07954175,0.00002451,-0.00013928,0.00001368,0.000015
 65,0.00000061,-0.00000987,-0.00071070,0.00027372,0.00020938,0.00001560
 ,0.00000117,0.00002087,-0.00011424,-0.00001187,-0.00000453,-0.01576637
 ,-0.02491410,-0.00821653,0.04361183,0.07133625,0.07828481,-0.00157379,
 -0.00028216,-0.00019954,-0.02390383,-0.00799253,-0.08334248,-0.0002520
 7,0.00020339,0.00113877,0.00023225,0.00039122,0.00018532,-0.00039106,0
 .00021096,0.00006829,-0.00014369,-0.00066647,-0.00019343,-0.00389130,0
 .00025330,-0.01616173,0.00018760,0.00070997,-0.00346081,0.00175751,0.0
 0091083,0.00239488,-0.00029427,-0.00074834,0.00048327,0.00130690,-0.00
 023184,-0.00036958,0.00031059,0.00123785,0.00048396,-0.00018003,-0.001
 51703,0.00024919,-0.00063674,-0.00052227,0.00136837,0.00047370,-0.0002
 3951,-0.00024962,0.00009730,0.00039818,0.00026495,-0.00003127,-0.00000
 872,0.00007126,-0.00010940,-0.00032774,-0.00022896,-0.00079879,-0.0001
 1002,0.00024901,0.02841824,0.00112444,0.00119251,0.00146444,0.00167047
 ,-0.04518205,0.07025763,0.00081964,-0.00062735,0.00015422,0.00029044,-
 0.00009987,0.00004338,0.00036687,0.00033803,0.00010997,-0.00031576,0.0
 0041541,0.00018047,-0.00878273,-0.00138383,-0.04279747,-0.00006241,0.0
 0115770,-0.00119204,-0.00049098,-0.00005594,-0.00435559,-0.00014868,-0
 .00017278,0.00011977,-0.00114381,-0.00034930,0.00007223,0.00070095,-0.
 00049226,0.00000747,-0.00239676,-0.00543077,-0.00191195,-0.00049325,0.
 00002506,0.00106377,0.00035511,-0.00094852,0.00185490,0.00005827,0.000
 16523,0.00017267,0.00003277,-0.00006834,0.00003478,-0.00024280,0.00014
 935,0.00030167,0.00034460,0.00015980,-0.00006834,0.00845758,0.05098469
 ,-0.00005153,0.00155727,-0.00014844,-0.09700318,0.02605520,-0.50642063
 ,0.00025529,0.00017471,-0.00048016,0.00041675,0.00019420,-0.00007856,0
 .00018047,0.00021890,-0.00001171,-0.00016828,0.00047072,-0.00003849,-0
 .00189023,0.00128046,-0.01647825,-0.00014922,0.00109796,0.00296957,0.0
 0138297,0.00009489,0.00298819,0.00033412,-0.00011863,-0.00010486,-0.00
 057400,-0.00038626,0.00032494,0.00010614,-0.00059874,-0.00035908,-0.00
 121447,-0.00292965,0.00118959,-0.00084707,-0.00012543,-0.00051250,0.00
 050344,-0.00094569,-0.00064760,0.00007033,0.00011919,-0.00002396,0.000
 01785,-0.00000555,-0.00007487,0.00000704,0.00009968,0.00008272,0.00052
 650,-0.00013175,-0.00009411,0.09882267,-0.02608895,0.51796625,-0.00065
 452,-0.00120732,0.00007077,0.00272802,-0.00255595,-0.00026624,-0.12483
 433,-0.20718195,-0.04703648,0.00028595,-0.00114078,0.00017910,-0.00056
 430,0.00070635,-0.00003538,0.00023390,-0.00040206,0.00001009,-0.000112
 00,0.00507473,0.00165048,0.01066831,0.03057256,0.00433327,0.00011913,0
 .00062595,-0.00010818,-0.00561784,0.00400558,-0.00180911,0.00217099,0.
 00095336,0.00035448,-0.00018974,0.00021399,0.00010564,-0.00024536,-0.0
 0014026,0.00025812,-0.00019931,-0.00005937,-0.00083814,0.00008238,-0.0
 0010185,0.00002004,-0.00002839,-0.00014426,0.00007656,-0.00004463,-0.0
 0002825,0.00003250,-0.00001455,-0.00000223,0.00001115,-0.00016216,-0.0
 0004295,-0.00001651,-0.00066632,-0.00005488,-0.00061400,0.11605255,0.0
 0023536,0.00030944,0.00002948,-0.00006027,-0.00031273,-0.00005875,-0.1
 6236615,-0.43049616,-0.05780690,0.00058097,0.00128272,-0.00021633,0.00
 028741,-0.00028717,0.00009658,-0.00043055,0.00025558,0.00006709,-0.000
 49521,0.00141043,-0.00097363,-0.00923707,-0.02974297,-0.00425398,-0.00
 116751,-0.00112403,0.00019616,0.00414740,-0.00310264,0.00296186,-0.001
 28761,-0.00076844,-0.00071509,0.00032054,0.00030790,-0.00017890,0.0004
 2682,-0.00011094,-0.00015060,-0.00074421,0.00042607,-0.00016800,-0.000
 02705,0.00004426,0.00000944,0.00005424,0.00035894,0.00010107,0.0000247
 9,0.00000203,0.00008670,-0.00001814,-0.00000135,0.00002890,0.00001134,
 -0.00000729,-0.00003702,0.00010388,0.00031957,0.00001587,0.17007296,0.
 46181743,0.00023640,0.00008137,-0.00017886,0.00138420,-0.00080358,-0.0
 0227671,-0.04779999,-0.07661892,-0.02395576,0.00003682,0.00014219,-0.0
 0003804,-0.00001958,0.00008685,-0.00005789,-0.00011309,0.00009979,-0.0
 0006531,-0.00029679,-0.00001690,0.00203620,0.00442542,0.01440325,0.001
 46749,-0.00010298,-0.00061762,-0.00016719,-0.00052660,0.00027382,-0.00
 049514,-0.00020226,0.00017679,0.00077151,0.00009433,0.00004759,-0.0000
 0626,0.00047773,-0.00037298,-0.00060230,-0.00007513,0.00126631,-0.0005
 8782,-0.00012956,0.00017873,-0.00017328,-0.00003631,0.00010305,0.00011
 450,0.00008273,-0.00004462,-0.00003269,0.00002631,-0.00002256,-0.00006
 123,-0.00000865,-0.00000226,0.00000926,-0.00143091,0.00071532,-0.00002
 703,0.04423374,0.06093547,0.02460054,-0.00252698,0.00091891,-0.0002742
 2,0.00110988,0.00046526,0.00005657,0.00013150,0.00047866,0.00008840,-0
 .18426875,0.20032392,-0.02277481,0.00113901,-0.00071429,-0.00014293,0.
 00021875,-0.00024969,-0.00000919,-0.00074513,0.00061860,0.00037214,-0.
 00130084,0.00116445,-0.00153953,0.00038602,0.00096749,0.00011997,-0.03
 066187,0.03290610,-0.00487585,-0.00421790,-0.00389160,0.00390177,-0.00
 023842,-0.00001645,0.00000831,0.00005443,0.00001001,-0.00005606,-0.000
 22213,-0.00038119,-0.00009898,-0.00002886,-0.00008578,-0.00005290,0.00
 067750,0.00020474,0.00018642,0.00026243,-0.00011740,-0.00014557,0.0000
 1957,-0.00000178,-0.00000072,-0.00005445,-0.00000173,0.00001521,-0.000
 20607,-0.00005150,-0.00007063,0.00090722,-0.00049214,-0.00018911,0.219
 81482,-0.00201257,0.00030574,0.00013093,0.00015430,-0.00043691,-0.0001
 1955,0.00110500,-0.00032976,-0.00011427,0.24580984,-0.36747440,0.06693
 507,0.00034834,0.00013840,0.00002674,0.00005888,-0.00014171,-0.0000071
 3,0.00042312,-0.00045082,0.00025579,-0.00495993,0.00285094,-0.00027305
 ,0.00066825,0.00081089,0.00014175,-0.00781157,0.00873618,-0.00112484,-
 0.00186402,-0.00146051,0.00014134,-0.00009249,-0.00008430,0.00003086,0
 .00000999,0.00004835,-0.00002882,0.00025774,-0.00020979,0.00006019,0.0
 0000532,-0.00005789,-0.00007552,-0.00044624,-0.00019976,0.00084086,-0.
 00004556,0.00004039,-0.00009812,0.00001898,0.00001131,-0.00000573,-0.0
 0006019,-0.00001173,0.00000041,-0.00016136,0.00002835,0.00000781,0.000
 80435,-0.00045597,-0.00000124,-0.23239482,0.35843025,0.00071443,-0.000
 23067,0.00034039,0.00018957,0.00014013,-0.00015333,0.00052218,-0.00037
 407,-0.00147419,-0.04061337,0.08043209,-0.02606101,-0.00017186,-0.0000
 9684,0.00003938,0.00003994,-0.00002616,-0.00004039,-0.00037479,0.00012
 055,-0.00004087,0.00012477,0.00051010,0.00214263,-0.00001390,0.0001626
 4,0.00007078,0.01324912,-0.01391709,0.00142017,0.00079881,0.00100529,-
 0.00120161,-0.00004574,-0.00001563,0.00004875,0.00020425,0.00003404,-0
 .00015812,-0.00062556,-0.00015794,-0.00055044,0.00000497,0.00001409,-0
 .00004525,0.00112012,-0.00064066,-0.00041222,0.00018873,-0.00011911,0.
 00004599,0.00001205,-0.00000047,-0.00002262,-0.00001240,-0.00000425,-0
 .00000455,-0.00010705,-0.00002014,0.00001459,-0.00055231,0.00004070,-0
 .00030693,0.02524680,-0.06683420,0.02621364,0.00036319,0.00127994,-0.0
 0048959,-0.00041865,0.00029511,0.00007178,-0.00038673,-0.00011287,-0.0
 0006393,-0.00126143,-0.00091648,-0.00059959,-0.05549474,-0.00652894,-0
 .15054245,0.00006458,0.00016727,0.00006893,0.00049278,-0.00026062,-0.0
 0000856,0.00011610,0.00023425,0.00018988,-0.00094620,-0.00146749,0.000
 17226,0.00217256,0.00115377,0.00245194,-0.00472027,-0.00165621,-0.0136
 7828,0.00005627,-0.00002685,0.00000038,0.00001440,-0.00002049,0.000007
 53,-0.00004899,-0.00002783,-0.00011372,0.00008721,0.00037795,0.0003096
 3,0.00053083,-0.00037403,-0.00006728,0.00188526,-0.00014793,0.00087744
 ,-0.00005228,-0.00005993,0.00002652,0.00008710,0.00002915,0.00003093,0
 .00011638,-0.00010651,-0.00003943,0.00006526,0.00000389,-0.00005227,-0
 .00027385,0.00009964,0.00010634,0.05781501,0.00087248,0.00036021,0.000
 90639,0.00036696,0.00030521,0.00009292,0.00005557,0.00061804,0.0001212
 5,-0.00044293,-0.00001066,0.00083054,0.00856040,-0.04514615,0.04886992
 ,0.00024947,-0.00018963,-0.00003154,-0.00037172,-0.00009005,-0.0000633
 2,-0.00059145,-0.00066195,0.00022284,-0.00054812,-0.00037781,-0.000047
 42,0.00072034,0.00118980,-0.00369819,-0.01559346,-0.00510556,-0.047632
 45,-0.00012620,0.00005947,0.00011115,-0.00002086,-0.00004532,0.0000539
 1,0.00018219,0.00034743,0.00037684,0.00012350,0.00016797,0.00025100,0.
 00035921,-0.00099987,0.00192572,-0.00197364,-0.00560175,-0.00155950,-0
 .00004267,-0.00001154,0.00002521,0.00000674,-0.00000591,0.00000097,-0.
 00010116,-0.00002767,-0.00003641,-0.00003725,-0.00004660,0.00001666,0.
 00030587,-0.00010269,-0.00003995,0.00814572,0.05525501,0.00071674,0.00
 130696,0.00045476,0.00013692,0.00019952,-0.00000939,0.00006437,0.00068
 757,-0.00002762,0.00066278,0.00027192,-0.00057847,-0.15859331,0.001232
 86,-0.47806650,0.00013059,-0.00006075,-0.00008429,-0.00016752,-0.00014
 232,0.00016234,-0.00084328,0.00033614,-0.00025494,0.00024999,0.0001421
 9,-0.00043286,0.00068643,0.00113658,0.00407425,-0.00430249,-0.00107748
 ,-0.01514950,-0.00004927,0.00019785,0.00020726,0.00002137,0.00000762,-
 0.00003588,0.00002501,0.00014803,-0.00001070,0.00009260,0.00010179,-0.
 00001530,0.00068258,-0.00089121,-0.00059201,-0.00107324,-0.00296082,0.
 00131781,-0.00000362,0.00000822,-0.00003796,0.00007120,-0.00000573,-0.
 00003728,-0.00004164,-0.00002864,-0.00002453,-0.00007560,0.00002803,0.
 00001657,0.00020617,0.00010280,0.00010596,0.16150066,-0.00077249,0.488
 92154,0.00151145,-0.00061446,-0.00062218,-0.00048126,-0.00081315,-0.00
 014006,0.00011307,-0.00039519,0.00005945,0.00065028,-0.00042360,-0.000
 04517,0.00067314,0.00056735,0.00014474,-0.17660040,-0.23506087,-0.0730
 2697,-0.00007668,0.00031739,-0.00013254,-0.00009473,0.00041749,0.00004
 989,0.00095222,0.00542098,0.00113983,0.00006805,0.00061075,-0.00037177
 ,-0.00258413,-0.00225597,0.00105748,0.01139656,0.02566493,0.00456055,0
 .00010041,-0.00005880,0.00004024,-0.00002105,-0.00002751,0.00000244,-0
 .00022854,-0.00030365,-0.00008437,0.00001079,-0.00000795,-0.00001124,0
 .00022016,0.00002246,-0.00021861,-0.00015764,0.00013880,-0.00080760,-0
 .00216887,0.00421491,-0.00063435,0.00017816,0.00006894,-0.00000155,0.0
 0001975,0.00005634,-0.00001446,0.00002412,0.00008501,-0.00000508,-0.00
 026379,-0.00009900,-0.00009747,0.16675894,-0.00131578,-0.00042144,0.00
 040678,0.00019638,0.00021564,0.00011610,-0.00045280,0.00014843,0.00001
 380,-0.00032986,-0.00002051,0.00001340,0.00005268,-0.00084868,-0.00027
 724,-0.18860196,-0.36324526,-0.07579433,-0.00098436,-0.00099853,0.0001
 2335,0.00024988,0.00026348,-0.00013378,-0.00068314,0.00008518,-0.00121
 499,0.00003026,-0.00006343,0.00013250,0.00098545,0.00166819,-0.0002776
 8,-0.01486302,-0.03543027,-0.00722720,-0.00000700,-0.00000400,0.000016
 17,-0.00001723,-0.00001936,0.00001427,0.00025356,-0.00010122,-0.000078
 25,0.00000861,-0.00001537,-0.00000572,-0.00011141,0.00003580,0.0000602
 3,-0.00092821,0.00080856,0.00004077,0.00398780,-0.00267947,0.00277380,
 0.00003200,-0.00009701,-0.00001980,0.00006951,-0.00007807,-0.00002649,
 0.00003436,0.00001543,0.00001758,-0.00008051,0.00012002,0.00003136,0.2
 0247478,0.40066189,-0.00037042,0.00106447,-0.00160292,0.00002404,0.000
 16107,0.00003101,-0.00019033,0.00012945,-0.00006450,-0.00008504,-0.000
 00210,-0.00005698,-0.00013208,-0.00017118,-0.00030491,-0.07386302,-0.0
 9680115,-0.03863131,-0.00006400,-0.00047513,0.00000454,0.00009445,0.00
 002031,-0.00007613,-0.00083471,-0.00119254,0.00142539,0.00006493,-0.00
 001352,0.00004331,0.00049217,-0.00029687,0.00008961,0.00577113,0.01374
 552,0.00263790,-0.00012552,0.00015512,-0.00012585,0.00001954,-0.000005
 40,-0.00005666,0.00045100,-0.00029811,-0.00053079,-0.00003191,0.000013
 50,-0.00006040,0.00022428,-0.00006915,-0.00019179,0.00046053,0.0015454
 7,-0.00008646,-0.00095522,0.00123872,-0.00000621,0.00000580,-0.0000895
 5,-0.00001106,0.00001600,-0.00003816,0.00001638,0.00002873,0.00000791,
 0.00002924,-0.00015912,0.00007595,0.00009672,0.06915879,0.08129537,0.0
 3743186\\0.00001257,0.00000345,0.00000103,-0.00001090,-0.00000015,0.00
 000985,0.00000228,-0.00000448,0.00000252,-0.00000759,-0.00001025,0.000
 00073,-0.00000417,-0.00000550,-0.00000381,0.00000069,-0.00000161,-0.00
 000233,0.00000287,-0.00000013,-0.00000049,-0.00000917,-0.00000193,0.00
 000249,-0.00000082,0.00000047,-0.00000297,0.00000529,0.00002108,-0.000
 00884,0.00000210,-0.00001060,-0.00001445,0.00000113,0.00000740,0.00000
 666,0.00000340,0.00000386,0.00000423,-0.00000050,-0.00000396,0.0000013
 0,0.00000035,-0.00000198,0.00000265,-0.00000060,-0.00000090,-0.0000004
 0,-0.00000322,-0.00000495,-0.00000849,0.00000234,0.00000572,0.00000412
 ,-0.00000155,0.00000499,0.00000669,0.00000172,-0.00000489,0.00000646,-
 0.00000189,-0.00000246,0.00000668,-0.00000197,0.00000293,-0.00000664,0
 .00000670,0.00000590,-0.00000741,0.00000093,-0.00000200,0.00000044\\\@


 WE HAVE LEARNED THAT NOTHING IS SIMPLE AND
 RATIONAL EXCEPT WHAT WE OURSELVES HAVE INVENTED;
 THAT GOD THINKS IN TERMS NEITHER OF EUCLID OR RIEMANN; THAT SCIENCE HAS "EXPLAINED" NOTHING;
 THAT THE MORE WE KNOW THE MORE FANTASTIC THE WORLD BECOMES
 AND THE PROFOUNDER THE SURROUNDING DARKNESS.
   --  ALDOUS HUXLEY
 Job cpu time:       0 days  4 hours  0 minutes 33.2 seconds.
 Elapsed time:       0 days  0 hours 15 minutes  6.3 seconds.
 File lengths (MBytes):  RWF=    273 Int=      0 D2E=      0 Chk=     11 Scr=      1
 Normal termination of Gaussian 16 at Fri Sep 19 16:20:21 2025.
