 Entering Gaussian System, Link 0=g16
 Input=DXYB0108.gjf
 Output=DXYB0108.log
 Initial command:
 /usr/local/g16/l1.exe "/dados_01/scratch/Gau-2069532.inp" -scrdir="/dados_01/scratch/"
 Entering Link 1 = /usr/local/g16/l1.exe PID=   2069533.
  
 Copyright (c) 1988-2017, Gaussian, Inc.  All Rights Reserved.
  
 This is part of the Gaussian(R) 16 program.  It is based on
 the Gaussian(R) 09 system (copyright 2009, Gaussian, Inc.),
 the Gaussian(R) 03 system (copyright 2003, Gaussian, Inc.),
 the Gaussian(R) 98 system (copyright 1998, Gaussian, Inc.),
 the Gaussian(R) 94 system (copyright 1995, Gaussian, Inc.),
 the Gaussian 92(TM) system (copyright 1992, Gaussian, Inc.),
 the Gaussian 90(TM) system (copyright 1990, Gaussian, Inc.),
 the Gaussian 88(TM) system (copyright 1988, Gaussian, Inc.),
 the Gaussian 86(TM) system (copyright 1986, Carnegie Mellon
 University), and the Gaussian 82(TM) system (copyright 1983,
 Carnegie Mellon University). Gaussian is a federally registered
 trademark of Gaussian, Inc.
  
 This software contains proprietary and confidential information,
 including trade secrets, belonging to Gaussian, Inc.
  
 This software is provided under written license and may be
 used, copied, transmitted, or stored only in accord with that
 written license.
  
 The following legend is applicable only to US Government
 contracts under FAR:
  
                    RESTRICTED RIGHTS LEGEND
  
 Use, reproduction and disclosure by the US Government is
 subject to restrictions as set forth in subparagraphs (a)
 and (c) of the Commercial Computer Software - Restricted
 Rights clause in FAR 52.227-19.
  
 Gaussian, Inc.
 340 Quinnipiac St., Bldg. 40, Wallingford CT 06492
  
  
 ---------------------------------------------------------------
 Warning -- This program may not be used in any manner that
 competes with the business of Gaussian, Inc. or will provide
 assistance to any competitor of Gaussian, Inc.  The licensee
 of this program is prohibited from giving any competitor of
 Gaussian, Inc. access to this program.  By using this program,
 the user acknowledges that Gaussian, Inc. is engaged in the
 business of creating and licensing software in the field of
 computational chemistry and represents and warrants to the
 licensee that it is not a competitor of Gaussian, Inc. and that
 it will not use this program in any manner prohibited above.
 ---------------------------------------------------------------
  

 Cite this work as:
 Gaussian 16, Revision B.01,
 M. J. Frisch, G. W. Trucks, H. B. Schlegel, G. E. Scuseria, 
 M. A. Robb, J. R. Cheeseman, G. Scalmani, V. Barone, 
 G. A. Petersson, H. Nakatsuji, X. Li, M. Caricato, A. V. Marenich, 
 J. Bloino, B. G. Janesko, R. Gomperts, B. Mennucci, H. P. Hratchian, 
 J. V. Ortiz, A. F. Izmaylov, J. L. Sonnenberg, D. Williams-Young, 
 F. Ding, F. Lipparini, F. Egidi, J. Goings, B. Peng, A. Petrone, 
 T. Henderson, D. Ranasinghe, V. G. Zakrzewski, J. Gao, N. Rega, 
 G. Zheng, W. Liang, M. Hada, M. Ehara, K. Toyota, R. Fukuda, 
 J. Hasegawa, M. Ishida, T. Nakajima, Y. Honda, O. Kitao, H. Nakai, 
 T. Vreven, K. Throssell, J. A. Montgomery, Jr., J. E. Peralta, 
 F. Ogliaro, M. J. Bearpark, J. J. Heyd, E. N. Brothers, K. N. Kudin, 
 V. N. Staroverov, T. A. Keith, R. Kobayashi, J. Normand, 
 K. Raghavachari, A. P. Rendell, J. C. Burant, S. S. Iyengar, 
 J. Tomasi, M. Cossi, J. M. Millam, M. Klene, C. Adamo, R. Cammi, 
 J. W. Ochterski, R. L. Martin, K. Morokuma, O. Farkas, 
 J. B. Foresman, and D. J. Fox, Gaussian, Inc., Wallingford CT, 2016.
 
 ******************************************
 Gaussian 16:  ES64L-G16RevB.01 20-Dec-2017
                19-Sep-2025 
 ******************************************
 %nprocs=16
 Will use up to   16 processors via shared memory.
 %mem=40GB
 %chk=DXYB0108.chk
 ----------------------------------------------------------------------
 # opt freq=noraman M08HX/6-311++G** scf=xqc Empiricaldispersion=pfd In
 t(Grid=ultraFine)
 ----------------------------------------------------------------------
 1/18=20,19=15,26=4,38=1/1,3;
 2/9=110,12=2,17=6,18=5,40=1/2;
 3/5=4,6=6,7=1111,11=2,25=1,30=1,71=1,74=-74,75=-5,124=11/1,2,3;
 4//1;
 5/5=2,8=3,13=1,38=5/2,8;
 6/7=2,8=2,9=2,10=2,28=1/1;
 7//1,2,3,16;
 1/18=20,19=15,26=4/3(2);
 2/9=110/2;
 99//99;
 2/9=110/2;
 3/5=4,6=6,7=1111,11=2,25=1,30=1,71=1,74=-74,75=-5,124=11/1,2,3;
 4/5=5,16=3,69=1/1;
 5/5=2,8=3,13=1,38=5/2,8;
 7//1,2,3,16;
 1/18=20,19=15,26=4/3(-5);
 2/9=110/2;
 6/7=2,8=2,9=2,10=2,19=2,28=1/1;
 99/9=1/99;
 --------
 DXYB0108
 --------
 Symbolic Z-matrix:
 Charge =  0 Multiplicity = 1
 O                    -2.6842   -0.6248   -0.0002 
 O                     2.6842    0.6249   -0.0003 
 C                    -1.3586   -0.316     0.001 
 C                     1.3586    0.316    -0.0001 
 C                    -0.9531    1.0186    0.001 
 C                     0.4055    1.3345    0.0003 
 C                    -0.4056   -1.3346    0.0005 
 C                     0.953    -1.0187    0. 
 C                    -3.6048    0.4652   -0.0015 
 C                     3.6049   -0.4651   -0.0007 
 H                    -1.6394    1.8585    0.0012 
 H                     0.7166    2.3758    0.0003 
 H                    -0.7168   -2.3758    0.0002 
 H                     1.6394   -1.8585   -0.0005 
 H                    -3.5149    1.0689    0.908 
 H                    -4.6126    0.0372   -0.0026 
 H                    -3.5128    1.0686   -0.911 
 H                     3.5137   -1.0685   -0.9102 
 H                     3.5142   -1.0688    0.9088 
 H                     4.6126   -0.037    -0.0009 
 

 GradGradGradGradGradGradGradGradGradGradGradGradGradGradGradGradGradGrad
 Berny optimization.
 Initialization pass.
                           ----------------------------
                           !    Initial Parameters    !
                           ! (Angstroms and Degrees)  !
 --------------------------                            --------------------------
 ! Name  Definition              Value          Derivative Info.                !
 --------------------------------------------------------------------------------
 ! R1    R(1,3)                  1.3611         estimate D2E/DX2                !
 ! R2    R(1,9)                  1.4267         estimate D2E/DX2                !
 ! R3    R(2,4)                  1.3611         estimate D2E/DX2                !
 ! R4    R(2,10)                 1.4268         estimate D2E/DX2                !
 ! R5    R(3,5)                  1.3948         estimate D2E/DX2                !
 ! R6    R(3,7)                  1.3949         estimate D2E/DX2                !
 ! R7    R(4,6)                  1.3949         estimate D2E/DX2                !
 ! R8    R(4,8)                  1.395          estimate D2E/DX2                !
 ! R9    R(5,6)                  1.3948         estimate D2E/DX2                !
 ! R10   R(5,11)                 1.0846         estimate D2E/DX2                !
 ! R11   R(6,12)                 1.0868         estimate D2E/DX2                !
 ! R12   R(7,8)                  1.3948         estimate D2E/DX2                !
 ! R13   R(7,13)                 1.0867         estimate D2E/DX2                !
 ! R14   R(8,14)                 1.0846         estimate D2E/DX2                !
 ! R15   R(9,15)                 1.0953         estimate D2E/DX2                !
 ! R16   R(9,16)                 1.0949         estimate D2E/DX2                !
 ! R17   R(9,17)                 1.0953         estimate D2E/DX2                !
 ! R18   R(10,18)                1.0953         estimate D2E/DX2                !
 ! R19   R(10,19)                1.0954         estimate D2E/DX2                !
 ! R20   R(10,20)                1.0949         estimate D2E/DX2                !
 ! A1    A(3,1,9)              117.0708         estimate D2E/DX2                !
 ! A2    A(4,2,10)             117.0697         estimate D2E/DX2                !
 ! A3    A(1,3,5)              120.0139         estimate D2E/DX2                !
 ! A4    A(1,3,7)              119.981          estimate D2E/DX2                !
 ! A5    A(5,3,7)              120.005          estimate D2E/DX2                !
 ! A6    A(2,4,6)              119.9828         estimate D2E/DX2                !
 ! A7    A(2,4,8)              120.0208         estimate D2E/DX2                !
 ! A8    A(6,4,8)              119.9964         estimate D2E/DX2                !
 ! A9    A(3,5,6)              119.9904         estimate D2E/DX2                !
 ! A10   A(3,5,11)             123.8463         estimate D2E/DX2                !
 ! A11   A(6,5,11)             116.1632         estimate D2E/DX2                !
 ! A12   A(4,6,5)              120.0104         estimate D2E/DX2                !
 ! A13   A(4,6,12)             120.2658         estimate D2E/DX2                !
 ! A14   A(5,6,12)             119.7239         estimate D2E/DX2                !
 ! A15   A(3,7,8)              120.0046         estimate D2E/DX2                !
 ! A16   A(3,7,13)             120.265          estimate D2E/DX2                !
 ! A17   A(8,7,13)             119.7304         estimate D2E/DX2                !
 ! A18   A(4,8,7)              119.9932         estimate D2E/DX2                !
 ! A19   A(4,8,14)             123.8362         estimate D2E/DX2                !
 ! A20   A(7,8,14)             116.1707         estimate D2E/DX2                !
 ! A21   A(1,9,15)             111.5529         estimate D2E/DX2                !
 ! A22   A(1,9,16)             107.1737         estimate D2E/DX2                !
 ! A23   A(1,9,17)             111.5568         estimate D2E/DX2                !
 ! A24   A(15,9,16)            106.9674         estimate D2E/DX2                !
 ! A25   A(15,9,17)            112.269          estimate D2E/DX2                !
 ! A26   A(16,9,17)            106.9666         estimate D2E/DX2                !
 ! A27   A(2,10,18)            111.5536         estimate D2E/DX2                !
 ! A28   A(2,10,19)            111.5534         estimate D2E/DX2                !
 ! A29   A(2,10,20)            107.1699         estimate D2E/DX2                !
 ! A30   A(18,10,19)           112.269          estimate D2E/DX2                !
 ! A31   A(18,10,20)           106.9717         estimate D2E/DX2                !
 ! A32   A(19,10,20)           106.9692         estimate D2E/DX2                !
 ! D1    D(9,1,3,5)              0.0036         estimate D2E/DX2                !
 ! D2    D(9,1,3,7)           -179.9143         estimate D2E/DX2                !
 ! D3    D(3,1,9,15)           -63.2398         estimate D2E/DX2                !
 ! D4    D(3,1,9,16)           179.9859         estimate D2E/DX2                !
 ! D5    D(3,1,9,17)            63.2105         estimate D2E/DX2                !
 ! D6    D(10,2,4,6)           179.9996         estimate D2E/DX2                !
 ! D7    D(10,2,4,8)             0.0136         estimate D2E/DX2                !
 ! D8    D(4,2,10,18)           63.2177         estimate D2E/DX2                !
 ! D9    D(4,2,10,19)          -63.2304         estimate D2E/DX2                !
 ! D10   D(4,2,10,20)          179.9953         estimate D2E/DX2                !
 ! D11   D(1,3,5,6)           -179.9085         estimate D2E/DX2                !
 ! D12   D(1,3,5,11)             0.0711         estimate D2E/DX2                !
 ! D13   D(7,3,5,6)              0.0095         estimate D2E/DX2                !
 ! D14   D(7,3,5,11)           179.989          estimate D2E/DX2                !
 ! D15   D(1,3,7,8)            179.918          estimate D2E/DX2                !
 ! D16   D(1,3,7,13)            -0.0638         estimate D2E/DX2                !
 ! D17   D(5,3,7,8)              0.0            estimate D2E/DX2                !
 ! D18   D(5,3,7,13)          -179.9818         estimate D2E/DX2                !
 ! D19   D(2,4,6,5)           -179.9765         estimate D2E/DX2                !
 ! D20   D(2,4,6,12)             0.0093         estimate D2E/DX2                !
 ! D21   D(8,4,6,5)              0.0095         estimate D2E/DX2                !
 ! D22   D(8,4,6,12)           179.9954         estimate D2E/DX2                !
 ! D23   D(2,4,8,7)            179.986          estimate D2E/DX2                !
 ! D24   D(2,4,8,14)            -0.0272         estimate D2E/DX2                !
 ! D25   D(6,4,8,7)              0.0            estimate D2E/DX2                !
 ! D26   D(6,4,8,14)           179.9868         estimate D2E/DX2                !
 ! D27   D(3,5,6,4)             -0.0142         estimate D2E/DX2                !
 ! D28   D(3,5,6,12)           179.9998         estimate D2E/DX2                !
 ! D29   D(11,5,6,4)          -179.9953         estimate D2E/DX2                !
 ! D30   D(11,5,6,12)            0.0188         estimate D2E/DX2                !
 ! D31   D(3,7,8,4)             -0.0047         estimate D2E/DX2                !
 ! D32   D(3,7,8,14)          -179.9925         estimate D2E/DX2                !
 ! D33   D(13,7,8,4)           179.9772         estimate D2E/DX2                !
 ! D34   D(13,7,8,14)           -0.0106         estimate D2E/DX2                !
 --------------------------------------------------------------------------------
 Trust Radius=3.00D-01 FncErr=1.00D-07 GrdErr=1.00D-06 EigMax=2.50D+02 EigMin=1.00D-04
 Number of steps in this run=     96 maximum allowed number of steps=    120.
 GradGradGradGradGradGradGradGradGradGradGradGradGradGradGradGradGradGrad

                          Input orientation:                          
 ---------------------------------------------------------------------
 Center     Atomic      Atomic             Coordinates (Angstroms)
 Number     Number       Type             X           Y           Z
 ---------------------------------------------------------------------
      1          8           0       -2.684200   -0.624800   -0.000200
      2          8           0        2.684200    0.624900   -0.000300
      3          6           0       -1.358600   -0.316000    0.001000
      4          6           0        1.358600    0.316000   -0.000100
      5          6           0       -0.953100    1.018600    0.001000
      6          6           0        0.405500    1.334500    0.000300
      7          6           0       -0.405600   -1.334600    0.000500
      8          6           0        0.953000   -1.018700    0.000000
      9          6           0       -3.604800    0.465200   -0.001500
     10          6           0        3.604900   -0.465100   -0.000700
     11          1           0       -1.639400    1.858500    0.001200
     12          1           0        0.716600    2.375800    0.000300
     13          1           0       -0.716800   -2.375800    0.000200
     14          1           0        1.639400   -1.858500   -0.000500
     15          1           0       -3.514900    1.068900    0.908000
     16          1           0       -4.612600    0.037200   -0.002600
     17          1           0       -3.512800    1.068600   -0.911000
     18          1           0        3.513700   -1.068500   -0.910200
     19          1           0        3.514200   -1.068800    0.908800
     20          1           0        4.612600   -0.037000   -0.000900
 ---------------------------------------------------------------------
                    Distance matrix (angstroms):
                    1          2          3          4          5
     1  O    0.000000
     2  O    5.511939   0.000000
     3  C    1.361093   4.150846   0.000000
     4  C    4.150824   1.361115   2.789731   0.000000
     5  C    2.386938   3.658545   1.394843   2.416114   0.000000
     6  C    3.658566   2.386631   2.415823   1.394899   1.394843
     7  C    2.386595   3.658757   1.394903   2.415964   2.416052
     8  C    3.658467   2.387148   2.416047   1.394968   2.789948
     9  C    1.426747   6.291027   2.378170   4.965642   2.708832
    10  C    6.291127   1.426811   4.965739   2.378231   4.793405
    11  H    2.694140   4.496141   2.192555   3.371544   1.084638
    12  H    4.535310   2.633838   3.398859   2.157531   2.151718
    13  H    2.633755   4.535527   2.157472   3.398981   3.402615
    14  H    4.496169   2.694231   3.371545   2.192555   3.872824
    15  H    2.093683   6.281002   2.718497   5.014230   2.718087
    16  H    2.038866   7.320429   3.273115   5.977706   3.788812
    17  H    2.093738   6.279256   2.718352   5.012652   2.717776
    18  H    6.280043   2.093703   5.013566   2.718378   5.013838
    19  H    6.280412   2.093796   5.013481   2.718526   5.013792
    20  H    7.320437   2.038833   5.977715   3.273091   5.664919
                    6          7          8          9         10
     6  C    0.000000
     7  C    2.789620   0.000000
     8  C    2.416052   1.394843   0.000000
     9  C    4.103437   3.670717   4.793277   0.000000
    10  C    3.670793   4.103674   2.709068   7.269473   0.000000
    11  H    2.110970   3.423178   3.872831   2.409168   5.736009
    12  H    1.086779   3.876390   3.402722   4.724923   4.051295
    13  H    3.876323   1.086712   2.151732   4.051151   4.725237
    14  H    3.423121   2.111042   1.084624   5.735958   2.409306
    15  H    4.032865   4.033375   5.014446   1.095320   7.339649
    16  H    5.183080   4.425008   5.664877   1.094918   8.232838
    17  H    4.031655   4.032480   5.012994   1.095329   7.337747
    18  H    4.032905   4.032505   2.718111   7.338325   1.095262
    19  H    4.033019   4.032430   2.718119   7.339071   1.095386
    20  H    4.425009   5.183252   3.788985   8.232732   1.094865
                   11         12         13         14         15
    11  H    0.000000
    12  H    2.412123   0.000000
    13  H    4.333646   4.963098   0.000000
    14  H    4.956473   4.333689   2.412318   0.000000
    15  H    2.227836   4.520785   4.529837   5.996820   0.000000
    16  H    3.486698   5.819745   4.582558   6.533084   1.760268
    17  H    2.228380   4.519631   4.528995   5.995172   1.819001
    18  H    5.996034   4.529457   4.520508   2.228150   7.568061
    19  H    5.996033   4.529592   4.520527   2.228302   7.346973
    20  H    6.533026   4.582622   5.820008   3.486801   8.252598
                   16         17         18         19         20
    16  H    0.000000
    17  H    1.760266   0.000000
    18  H    8.251246   7.344311   0.000000
    19  H    8.252198   7.566960   1.819000   0.000000
    20  H    9.225499   8.250622   1.760227   1.760298   0.000000
 Stoichiometry    C8H10O2
 Framework group  C1[X(C8H10O2)]
 Deg. of freedom    54
 Full point group                 C1      NOp   1
 Largest Abelian subgroup         C1      NOp   1
 Largest concise Abelian subgroup C1      NOp   1
                         Standard orientation:                         
 ---------------------------------------------------------------------
 Center     Atomic      Atomic             Coordinates (Angstroms)
 Number     Number       Type             X           Y           Z
 ---------------------------------------------------------------------
      1          8           0       -2.661753    0.714382    0.000096
      2          8           0        2.661767   -0.714466    0.000196
      3          6           0       -1.347243    0.361346   -0.001104
      4          6           0        1.347259   -0.361330   -0.000004
      5          6           0       -0.986681   -0.986090   -0.001104
      6          6           0        0.360573   -1.347328   -0.000404
      7          6           0       -0.360653    1.347447   -0.000604
      8          6           0        0.986601    0.986209   -0.000104
      9          6           0       -3.618353   -0.344165    0.001396
     10          6           0        3.618466    0.344077    0.000596
     11          1           0       -1.700734   -1.802527   -0.001304
     12          1           0        0.636613   -2.398466   -0.000404
     13          1           0       -0.636796    2.398488   -0.000304
     14          1           0        1.700751    1.802542    0.000396
     15          1           0       -3.548728   -0.950538   -0.908104
     16          1           0       -4.611249    0.117358    0.002496
     17          1           0       -3.546620   -0.950308    0.910896
     18          1           0        3.547532    0.950194    0.910096
     19          1           0        3.548042    0.950477   -0.908904
     20          1           0        4.611259   -0.117542    0.000796
 ---------------------------------------------------------------------
 Rotational constants (GHZ):           4.4343046           0.7069267           0.6146692
 Standard basis: 6-311++G(d,p) (5D, 7F)
 There are   300 symmetry adapted cartesian basis functions of A   symmetry.
 There are   290 symmetry adapted basis functions of A   symmetry.
   290 basis functions,   450 primitive gaussians,   300 cartesian basis functions
    37 alpha electrons       37 beta electrons
       nuclear repulsion energy       510.0216392995 Hartrees.
 NAtoms=   20 NActive=   20 NUniq=   20 SFac= 1.00D+00 NAtFMM=   60 NAOKFM=F Big=F
 Integral buffers will be    131072 words long.
 Raffenetti 2 integral format.
 Two-electron integral symmetry is turned on.
 R6APFD:  NTU= -4 IXU= 1 FactS= 1.050
 Nuclear repulsion after empirical dispersion term =      510.0123547239 Hartrees.
 One-electron integrals computed using PRISM.
 NBasis=   290 RedAO= T EigKep=  4.40D-06  NBF=   290
 NBsUse=   289 1.00D-06 EigRej=  6.47D-07 NBFU=   289
 ExpMin= 3.60D-02 ExpMax= 8.59D+03 ExpMxC= 1.30D+03 IAcc=3 IRadAn=         5 AccDes= 0.00D+00
 Harris functional with IExCor= 1009 and IRadAn=       5 diagonalized for initial guess.
 HarFok:  IExCor= 1009 AccDes= 0.00D+00 IRadAn=         5 IDoV= 1 UseB2=F ITyADJ=14
 ICtDFT=  3500011 ScaDFX=  1.000000  1.000000  1.000000  1.000000
 FoFCou: FMM=F IPFlag=           0 FMFlag=      100000 FMFlg1=           0
         NFxFlg=           0 DoJE=T BraDBF=F KetDBF=T FulRan=T
         wScrn=  0.000000 ICntrl=       500 IOpCl=  0 I1Cent=   200000004 NGrid=           0
         NMat0=    1 NMatS0=      1 NMatT0=    0 NMatD0=    1 NMtDS0=    0 NMtDT0=    0
 Petite list used in FoFCou.
 Requested convergence on RMS density matrix=1.00D-08 within  32 cycles.
 Requested convergence on MAX density matrix=1.00D-06.
 Requested convergence on             energy=1.00D-06.
 No special actions if energy rises.
 SCF Done:  E(RM08HX) =  -461.272779481     A.U. after   14 cycles
            NFock= 14  Conv=0.22D-08     -V/T= 2.0046
 QCSCF skips out because SCF is already converged.

 **********************************************************************

            Population analysis using the SCF Density.

 **********************************************************************

 Orbital symmetries:
       Occupied  (A) (A) (A) (A) (A) (A) (A) (A) (A) (A) (A) (A)
                 (A) (A) (A) (A) (A) (A) (A) (A) (A) (A) (A) (A)
                 (A) (A) (A) (A) (A) (A) (A) (A) (A) (A) (A) (A)
                 (A)
       Virtual   (A) (A) (A) (A) (A) (A) (A) (A) (A) (A) (A) (A)
                 (A) (A) (A) (A) (A) (A) (A) (A) (A) (A) (A) (A)
                 (A) (A) (A) (A) (A) (A) (A) (A) (A) (A) (A) (A)
                 (A) (A) (A) (A) (A) (A) (A) (A) (A) (A) (A) (A)
                 (A) (A) (A) (A) (A) (A) (A) (A) (A) (A) (A) (A)
                 (A) (A) (A) (A) (A) (A) (A) (A) (A) (A) (A) (A)
                 (A) (A) (A) (A) (A) (A) (A) (A) (A) (A) (A) (A)
                 (A) (A) (A) (A) (A) (A) (A) (A) (A) (A) (A) (A)
                 (A) (A) (A) (A) (A) (A) (A) (A) (A) (A) (A) (A)
                 (A) (A) (A) (A) (A) (A) (A) (A) (A) (A) (A) (A)
                 (A) (A) (A) (A) (A) (A) (A) (A) (A) (A) (A) (A)
                 (A) (A) (A) (A) (A) (A) (A) (A) (A) (A) (A) (A)
                 (A) (A) (A) (A) (A) (A) (A) (A) (A) (A) (A) (A)
                 (A) (A) (A) (A) (A) (A) (A) (A) (A) (A) (A) (A)
                 (A) (A) (A) (A) (A) (A) (A) (A) (A) (A) (A) (A)
                 (A) (A) (A) (A) (A) (A) (A) (A) (A) (A) (A) (A)
                 (A) (A) (A) (A) (A) (A) (A) (A) (A) (A) (A) (A)
                 (A) (A) (A) (A) (A) (A) (A) (A) (A) (A) (A) (A)
                 (A) (A) (A) (A) (A) (A) (A) (A) (A) (A) (A) (A)
                 (A) (A) (A) (A) (A) (A) (A) (A) (A) (A) (A) (A)
                 (A) (A) (A) (A) (A) (A) (A) (A) (A) (A) (A) (A)
 The electronic state is 1-A.
 Alpha  occ. eigenvalues --  -19.63770 -19.63769 -10.59136 -10.59134 -10.58244
 Alpha  occ. eigenvalues --  -10.58244 -10.53602 -10.53599 -10.53496 -10.53496
 Alpha  occ. eigenvalues --   -1.18680  -1.18565  -0.96493  -0.86756  -0.85306
 Alpha  occ. eigenvalues --   -0.81826  -0.77142  -0.71032  -0.67282  -0.62523
 Alpha  occ. eigenvalues --   -0.59150  -0.58170  -0.55403  -0.54980  -0.53142
 Alpha  occ. eigenvalues --   -0.51691  -0.49949  -0.47090  -0.46562  -0.46004
 Alpha  occ. eigenvalues --   -0.44247  -0.42381  -0.41079  -0.38896  -0.36766
 Alpha  occ. eigenvalues --   -0.31562  -0.25943
 Alpha virt. eigenvalues --   -0.02790  -0.02197  -0.00853   0.00001   0.00250
 Alpha virt. eigenvalues --    0.00535   0.00609   0.01325   0.02376   0.02502
 Alpha virt. eigenvalues --    0.03108   0.03862   0.04691   0.05357   0.06152
 Alpha virt. eigenvalues --    0.07204   0.07213   0.07386   0.09559   0.10104
 Alpha virt. eigenvalues --    0.10393   0.10601   0.10992   0.11389   0.12305
 Alpha virt. eigenvalues --    0.12495   0.12565   0.12762   0.13012   0.13057
 Alpha virt. eigenvalues --    0.15028   0.15655   0.15759   0.15897   0.16377
 Alpha virt. eigenvalues --    0.16705   0.17255   0.18636   0.19746   0.19928
 Alpha virt. eigenvalues --    0.20286   0.20603   0.20614   0.21355   0.21583
 Alpha virt. eigenvalues --    0.23179   0.23967   0.25596   0.26598   0.26890
 Alpha virt. eigenvalues --    0.27379   0.28968   0.30099   0.30178   0.31430
 Alpha virt. eigenvalues --    0.31760   0.31805   0.32413   0.32913   0.33563
 Alpha virt. eigenvalues --    0.34562   0.34867   0.36898   0.37919   0.38906
 Alpha virt. eigenvalues --    0.39481   0.40747   0.42822   0.43389   0.45419
 Alpha virt. eigenvalues --    0.45877   0.46996   0.54043   0.54263   0.56106
 Alpha virt. eigenvalues --    0.56259   0.57448   0.57678   0.60967   0.62362
 Alpha virt. eigenvalues --    0.63236   0.64090   0.64743   0.65381   0.65547
 Alpha virt. eigenvalues --    0.67149   0.67278   0.67621   0.68225   0.69896
 Alpha virt. eigenvalues --    0.70768   0.72295   0.73188   0.74578   0.76885
 Alpha virt. eigenvalues --    0.77219   0.78081   0.80383   0.82595   0.82763
 Alpha virt. eigenvalues --    0.84541   0.86686   0.89421   0.91370   0.92651
 Alpha virt. eigenvalues --    0.94700   0.96098   0.96546   0.98610   1.02141
 Alpha virt. eigenvalues --    1.02918   1.04518   1.05482   1.05741   1.07061
 Alpha virt. eigenvalues --    1.07703   1.08156   1.11444   1.12515   1.15754
 Alpha virt. eigenvalues --    1.16619   1.17022   1.20478   1.28092   1.32743
 Alpha virt. eigenvalues --    1.33453   1.33771   1.34859   1.39993   1.41246
 Alpha virt. eigenvalues --    1.46739   1.46758   1.48448   1.51687   1.55078
 Alpha virt. eigenvalues --    1.55488   1.56753   1.57565   1.60493   1.61231
 Alpha virt. eigenvalues --    1.61777   1.62654   1.64573   1.67009   1.71374
 Alpha virt. eigenvalues --    1.71967   1.72420   1.72926   1.73125   1.73307
 Alpha virt. eigenvalues --    1.74880   1.78363   1.81104   1.82193   1.82784
 Alpha virt. eigenvalues --    1.85129   1.91670   1.94611   1.95525   1.95629
 Alpha virt. eigenvalues --    1.98395   2.00325   2.01424   2.04653   2.07680
 Alpha virt. eigenvalues --    2.10314   2.10644   2.11628   2.12732   2.14960
 Alpha virt. eigenvalues --    2.15111   2.15817   2.20869   2.21875   2.23599
 Alpha virt. eigenvalues --    2.34894   2.35193   2.38131   2.43484   2.45921
 Alpha virt. eigenvalues --    2.46872   2.47153   2.47385   2.47980   2.53381
 Alpha virt. eigenvalues --    2.54367   2.58188   2.60575   2.62826   2.65670
 Alpha virt. eigenvalues --    2.66446   2.71143   2.71226   2.73082   2.73239
 Alpha virt. eigenvalues --    2.73474   2.77115   2.78485   2.83302   2.83493
 Alpha virt. eigenvalues --    2.87840   2.90818   2.93186   2.93720   2.96197
 Alpha virt. eigenvalues --    2.98030   3.10835   3.11910   3.14272   3.15164
 Alpha virt. eigenvalues --    3.15371   3.17161   3.23015   3.28981   3.31321
 Alpha virt. eigenvalues --    3.32487   3.40388   3.40576   3.48669   3.50990
 Alpha virt. eigenvalues --    3.54967   3.63323   3.70322   3.72710   3.82444
 Alpha virt. eigenvalues --    3.82529   3.82787   3.86063   4.04635   4.13627
 Alpha virt. eigenvalues --    4.15438   4.21966   4.23216   4.25080   4.35067
 Alpha virt. eigenvalues --    4.93366   5.15951   5.17810   5.51752   5.52254
 Alpha virt. eigenvalues --    5.85184   5.92956  23.68603  23.97826  23.97997
 Alpha virt. eigenvalues --   23.98640  24.03627  24.11353  24.15903  24.23875
 Alpha virt. eigenvalues --   49.97378  50.00786
          Condensed to atoms (all electrons):
               1          2          3          4          5          6
     1  O    8.193920   0.000924   0.143884   0.000446   0.447153   0.106422
     2  O    0.000924   8.193861   0.000459   0.144231  -0.085098  -0.744325
     3  C    0.143884   0.000459  14.494981  -0.636146  -1.199600  -4.641421
     4  C    0.000446   0.144231  -0.636146  14.489724   0.034848  -1.572824
     5  C    0.447153  -0.085098  -1.199600   0.034848  13.928308  -2.234516
     6  C    0.106422  -0.744325  -4.641421  -1.572824  -2.234516  18.115835
     7  C   -0.744572   0.106267  -1.572837  -4.638730  -7.219270   4.982639
     8  C   -0.085072   0.446778   0.035292  -1.196555   1.318668  -7.215551
     9  C    0.159504  -0.001662   0.377614   0.001106  -0.224935  -0.465953
    10  C   -0.001662   0.159527   0.001210   0.377156   0.028556  -0.104261
    11  H   -0.004031  -0.001044  -0.277644   0.075562   0.704402  -0.116033
    12  H   -0.002103  -0.019778   0.065224  -0.233835  -0.061453   0.599509
    13  H   -0.019781  -0.002103  -0.233877   0.065181  -0.217954   0.149133
    14  H   -0.001044  -0.004031   0.075550  -0.277504   0.123238  -0.192091
    15  H   -0.038908   0.000159  -0.035243   0.003896   0.038399  -0.002423
    16  H   -0.066761  -0.000077   0.101691  -0.005785  -0.073355  -0.034034
    17  H   -0.038941   0.000162  -0.034535   0.003734   0.037306  -0.002669
    18  H    0.000161  -0.038916   0.003773  -0.034933  -0.004587  -0.021190
    19  H    0.000160  -0.038928   0.003851  -0.034811  -0.004433  -0.021182
    20  H   -0.000077  -0.066747  -0.005777   0.101615   0.002220   0.046284
               7          8          9         10         11         12
     1  O   -0.744572  -0.085072   0.159504  -0.001662  -0.004031  -0.002103
     2  O    0.106267   0.446778  -0.001662   0.159527  -0.001044  -0.019778
     3  C   -1.572837   0.035292   0.377614   0.001210  -0.277644   0.065224
     4  C   -4.638730  -1.196555   0.001106   0.377156   0.075562  -0.233835
     5  C   -7.219270   1.318668  -0.224935   0.028556   0.704402  -0.061453
     6  C    4.982639  -7.215551  -0.465953  -0.104261  -0.116033   0.599509
     7  C   18.120560  -2.238033  -0.104140  -0.465651  -0.192188   0.149173
     8  C   -2.238033  13.924583   0.028587  -0.224622   0.123242  -0.217859
     9  C   -0.104140   0.028587   5.616830   0.000370  -0.022713   0.003712
    10  C   -0.465651  -0.224622   0.000370   5.616642  -0.004012  -0.000959
    11  H   -0.192188   0.123242  -0.022713  -0.004012   0.487970  -0.020820
    12  H    0.149173  -0.217859   0.003712  -0.000959  -0.020820   0.435588
    13  H    0.599785  -0.061485  -0.000959   0.003705  -0.005476   0.004454
    14  H   -0.116193   0.704320  -0.004012  -0.022688   0.005637  -0.005475
    15  H   -0.021570  -0.004581   0.399251  -0.000068  -0.010355   0.000165
    16  H    0.046339   0.002220   0.385718   0.000121  -0.002105   0.000940
    17  H   -0.020846  -0.004434   0.399356  -0.000067  -0.010332   0.000166
    18  H   -0.002447   0.037886  -0.000071   0.399291  -0.000107  -0.000330
    19  H   -0.002648   0.037777  -0.000064   0.399292  -0.000106  -0.000334
    20  H   -0.033999  -0.073267   0.000121   0.385720  -0.000278   0.001167
              13         14         15         16         17         18
     1  O   -0.019781  -0.001044  -0.038908  -0.066761  -0.038941   0.000161
     2  O   -0.002103  -0.004031   0.000159  -0.000077   0.000162  -0.038916
     3  C   -0.233877   0.075550  -0.035243   0.101691  -0.034535   0.003773
     4  C    0.065181  -0.277504   0.003896  -0.005785   0.003734  -0.034933
     5  C   -0.217954   0.123238   0.038399  -0.073355   0.037306  -0.004587
     6  C    0.149133  -0.192091  -0.002423  -0.034034  -0.002669  -0.021190
     7  C    0.599785  -0.116193  -0.021570   0.046339  -0.020846  -0.002447
     8  C   -0.061485   0.704320  -0.004581   0.002220  -0.004434   0.037886
     9  C   -0.000959  -0.004012   0.399251   0.385718   0.399356  -0.000071
    10  C    0.003705  -0.022688  -0.000068   0.000121  -0.000067   0.399291
    11  H   -0.005476   0.005637  -0.010355  -0.002105  -0.010332  -0.000107
    12  H    0.004454  -0.005475   0.000165   0.000940   0.000166  -0.000330
    13  H    0.435577  -0.020819  -0.000326   0.001169  -0.000338   0.000168
    14  H   -0.020819   0.487962  -0.000110  -0.000278  -0.000102  -0.010335
    15  H   -0.000326  -0.000110   0.572272  -0.021647  -0.077456   0.000080
    16  H    0.001169  -0.000278  -0.021647   0.424656  -0.021485  -0.000019
    17  H   -0.000338  -0.000102  -0.077456  -0.021485   0.571929  -0.000064
    18  H    0.000168  -0.010335   0.000080  -0.000019  -0.000064   0.572103
    19  H    0.000164  -0.010348  -0.000064  -0.000018   0.000080  -0.077450
    20  H    0.000939  -0.002103  -0.000018   0.000015  -0.000018  -0.021573
              19         20
     1  O    0.000160  -0.000077
     2  O   -0.038928  -0.066747
     3  C    0.003851  -0.005777
     4  C   -0.034811   0.101615
     5  C   -0.004433   0.002220
     6  C   -0.021182   0.046284
     7  C   -0.002648  -0.033999
     8  C    0.037777  -0.073267
     9  C   -0.000064   0.000121
    10  C    0.399292   0.385720
    11  H   -0.000106  -0.000278
    12  H   -0.000334   0.001167
    13  H    0.000164   0.000939
    14  H   -0.010348  -0.002103
    15  H   -0.000064  -0.000018
    16  H   -0.000018   0.000015
    17  H    0.000080  -0.000018
    18  H   -0.077450  -0.021573
    19  H    0.572059  -0.021553
    20  H   -0.021553   0.424649
 Mulliken charges:
               1
     1  O   -0.049621
     2  O   -0.049659
     3  C   -0.666449
     4  C   -0.666374
     5  C    0.662102
     6  C   -0.631346
     7  C   -0.631637
     8  C    0.662108
     9  C   -0.547660
    10  C   -0.547601
    11  H    0.270429
    12  H    0.302847
    13  H    0.302843
    14  H    0.270425
    15  H    0.198545
    16  H    0.262695
    17  H    0.198556
    18  H    0.198562
    19  H    0.198556
    20  H    0.262680
 Sum of Mulliken charges =  -0.00000
 Mulliken charges with hydrogens summed into heavy atoms:
               1
     1  O   -0.049621
     2  O   -0.049659
     3  C   -0.666449
     4  C   -0.666374
     5  C    0.932532
     6  C   -0.328500
     7  C   -0.328794
     8  C    0.932533
     9  C    0.112136
    10  C    0.112197
 Electronic spatial extent (au):  <R**2>=           1820.8215
 Charge=             -0.0000 electrons
 Dipole moment (field-independent basis, Debye):
    X=              0.0003    Y=              0.0001    Z=              0.0023  Tot=              0.0024
 Quadrupole moment (field-independent basis, Debye-Ang):
   XX=            -48.4904   YY=            -57.7372   ZZ=            -63.5828
   XY=              9.5612   XZ=             -0.0025   YZ=              0.0017
 Traceless Quadrupole moment (field-independent basis, Debye-Ang):
   XX=              8.1130   YY=             -1.1337   ZZ=             -6.9793
   XY=              9.5612   XZ=             -0.0025   YZ=              0.0017
 Octapole moment (field-independent basis, Debye-Ang**2):
  XXX=              0.0123  YYY=              0.0006  ZZZ=              0.0143  XYY=             -0.0018
  XXY=             -0.0002  XXZ=              0.0342  XZZ=              0.0001  YZZ=             -0.0001
  YYZ=              0.0012  XYZ=              0.0009
 Hexadecapole moment (field-independent basis, Debye-Ang**3):
 XXXX=          -1649.1899 YYYY=           -349.2820 ZZZZ=            -85.2634 XXXY=             62.2487
 XXXZ=             -0.0491 YYYX=             -2.9904 YYYZ=              0.0078 ZZZX=              0.0152
 ZZZY=             -0.0062 XXYY=           -402.7741 XXZZ=           -340.4538 YYZZ=            -84.5628
 XXYZ=              0.0118 YYXZ=              0.0116 ZZXY=              0.4914
 N-N= 5.100123547239D+02 E-N=-2.095351548960D+03  KE= 4.591571170527D+02
 R6APFD:  NTU= -4 IXU= 1 FactS= 1.050
 Calling FoFJK, ICntrl=      2127 FMM=F ISym2X=0 I1Cent= 0 IOpClX= 0 NMat=1 NMatS=1 NMatT=0.
 ***** Axes restored to original set *****
 -------------------------------------------------------------------
 Center     Atomic                   Forces (Hartrees/Bohr)
 Number     Number              X              Y              Z
 -------------------------------------------------------------------
      1        8          -0.009200590   -0.002770389    0.000041467
      2        8           0.009194076    0.002733480   -0.000019106
      3        6          -0.009358483    0.011170461   -0.000131053
      4        6           0.009305046   -0.011231715    0.000021160
      5        6           0.018743208    0.004801875   -0.000006551
      6        6           0.001362256   -0.003822632    0.000040050
      7        6          -0.001319709    0.003887357    0.000008171
      8        6          -0.018700022   -0.004726152    0.000011416
      9        6          -0.002038354   -0.014988828    0.000012840
     10        6           0.001983435    0.014999803    0.000063648
     11        1          -0.003199746   -0.002838610    0.000002081
     12        1           0.002813258   -0.000264620   -0.000003355
     13        1          -0.002818192    0.000221262    0.000000234
     14        1           0.003197760    0.002819838    0.000005716
     15        1           0.003576732    0.003775005   -0.000091142
     16        1           0.002657380   -0.004126759    0.000007513
     17        1           0.003592102    0.003766761    0.000098635
     18        1          -0.003584175   -0.003790484    0.000063512
     19        1          -0.003580469   -0.003748654   -0.000125852
     20        1          -0.002625513    0.004132999    0.000000616
 -------------------------------------------------------------------
 Cartesian Forces:  Max     0.018743208 RMS     0.005853330

 GradGradGradGradGradGradGradGradGradGradGradGradGradGradGradGradGradGrad
 Berny optimization.
 FormGI is forming the generalized inverse of G from B-inverse, IUseBI=4.
 Internal  Forces:  Max     0.024159844 RMS     0.005816449
 Search for a local minimum.
 Step number   1 out of a maximum of   96
 All quantities printed in internal units (Hartrees-Bohrs-Radians)
 Mixed Optimization -- RFO/linear search
 Second derivative matrix not updated -- first step.
 ITU=  0
     Eigenvalues ---    0.01337   0.01338   0.02156   0.02156   0.02157
     Eigenvalues ---    0.02157   0.02157   0.02157   0.02157   0.02164
     Eigenvalues ---    0.02166   0.02206   0.02206   0.09819   0.09819
     Eigenvalues ---    0.10596   0.10596   0.16000   0.16000   0.16000
     Eigenvalues ---    0.16000   0.16000   0.16000   0.16000   0.16000
     Eigenvalues ---    0.16000   0.16000   0.22000   0.22982   0.24000
     Eigenvalues ---    0.25000   0.25000   0.25000   0.25000   0.34198
     Eigenvalues ---    0.34204   0.34205   0.34212   0.34250   0.34256
     Eigenvalues ---    0.35188   0.35195   0.35440   0.35441   0.41451
     Eigenvalues ---    0.41460   0.42136   0.42503   0.46471   0.46476
     Eigenvalues ---    0.46484   0.46486   0.52723   0.52727
 RFO step:  Lambda=-1.11255846D-02 EMin= 1.33712680D-02
 Linear search not attempted -- first point.
 Iteration  1 RMS(Cart)=  0.08775296 RMS(Int)=  0.00181385
 Iteration  2 RMS(Cart)=  0.00348289 RMS(Int)=  0.00005352
 Iteration  3 RMS(Cart)=  0.00000067 RMS(Int)=  0.00005352
 Variable       Old X    -DE/DX   Delta X   Delta X   Delta X     New X
                                 (Linear)    (Quad)   (Total)
    R1        2.57209   0.00463   0.00000   0.00860   0.00860   2.58069
    R2        2.69616  -0.01387   0.00000  -0.03257  -0.03257   2.66359
    R3        2.57213   0.00460   0.00000   0.00855   0.00855   2.58068
    R4        2.69628  -0.01389   0.00000  -0.03264  -0.03264   2.66364
    R5        2.63587   0.00493   0.00000   0.01035   0.01035   2.64622
    R6        2.63599  -0.00499   0.00000  -0.01048  -0.01048   2.62551
    R7        2.63598  -0.00499   0.00000  -0.01050  -0.01050   2.62548
    R8        2.63611   0.00484   0.00000   0.01018   0.01018   2.64628
    R9        2.63587  -0.00063   0.00000  -0.00132  -0.00132   2.63455
   R10        2.04967  -0.00017   0.00000  -0.00047  -0.00047   2.04919
   R11        2.05371   0.00055   0.00000   0.00152   0.00152   2.05523
   R12        2.63587  -0.00065   0.00000  -0.00136  -0.00136   2.63451
   R13        2.05359   0.00060   0.00000   0.00164   0.00164   2.05523
   R14        2.04964  -0.00016   0.00000  -0.00044  -0.00044   2.04921
   R15        2.06985   0.00230   0.00000   0.00651   0.00651   2.07636
   R16        2.06910  -0.00083   0.00000  -0.00236  -0.00236   2.06674
   R17        2.06987   0.00230   0.00000   0.00650   0.00650   2.07637
   R18        2.06975   0.00233   0.00000   0.00661   0.00661   2.07635
   R19        2.06998   0.00226   0.00000   0.00640   0.00640   2.07637
   R20        2.06899  -0.00080   0.00000  -0.00226  -0.00226   2.06673
    A1        2.04327   0.00722   0.00000   0.02763   0.02763   2.07090
    A2        2.04325   0.00720   0.00000   0.02759   0.02759   2.07084
    A3        2.09464   0.02416   0.00000   0.09297   0.09297   2.18761
    A4        2.09406  -0.01816   0.00000  -0.06909  -0.06909   2.02498
    A5        2.09448  -0.00600   0.00000  -0.02388  -0.02388   2.07060
    A6        2.09409  -0.01816   0.00000  -0.06907  -0.06907   2.02502
    A7        2.09476   0.02412   0.00000   0.09283   0.09283   2.18759
    A8        2.09433  -0.00596   0.00000  -0.02376  -0.02376   2.07057
    A9        2.09423   0.00232   0.00000   0.00903   0.00903   2.10326
   A10        2.16153  -0.00554   0.00000  -0.03011  -0.03011   2.13142
   A11        2.02743   0.00322   0.00000   0.02108   0.02108   2.04851
   A12        2.09458   0.00365   0.00000   0.01476   0.01476   2.10934
   A13        2.09903  -0.00467   0.00000  -0.02401  -0.02401   2.07502
   A14        2.08958   0.00102   0.00000   0.00925   0.00925   2.09883
   A15        2.09448   0.00367   0.00000   0.01484   0.01484   2.10932
   A16        2.09902  -0.00467   0.00000  -0.02400  -0.02400   2.07502
   A17        2.08969   0.00100   0.00000   0.00916   0.00916   2.09885
   A18        2.09428   0.00232   0.00000   0.00901   0.00901   2.10328
   A19        2.16135  -0.00553   0.00000  -0.03002  -0.03002   2.13133
   A20        2.02756   0.00320   0.00000   0.02101   0.02101   2.04857
   A21        1.94696  -0.00036   0.00000  -0.00495  -0.00508   1.94189
   A22        1.87053  -0.00522   0.00000  -0.02511  -0.02513   1.84541
   A23        1.94703  -0.00039   0.00000  -0.00512  -0.00524   1.94179
   A24        1.86693   0.00482   0.00000   0.03359   0.03357   1.90050
   A25        1.95946  -0.00330   0.00000  -0.02830  -0.02851   1.93095
   A26        1.86692   0.00483   0.00000   0.03365   0.03363   1.90055
   A27        1.94698  -0.00037   0.00000  -0.00503  -0.00516   1.94182
   A28        1.94697  -0.00038   0.00000  -0.00504  -0.00517   1.94180
   A29        1.87047  -0.00521   0.00000  -0.02505  -0.02507   1.84539
   A30        1.95946  -0.00330   0.00000  -0.02830  -0.02851   1.93096
   A31        1.86701   0.00482   0.00000   0.03358   0.03356   1.90057
   A32        1.86696   0.00482   0.00000   0.03360   0.03358   1.90054
    D1        0.00006   0.00001   0.00000   0.00042   0.00043   0.00049
    D2       -3.14010  -0.00003   0.00000  -0.00094  -0.00095  -3.14105
    D3       -1.10374   0.00249   0.00000   0.02270   0.02256  -1.08118
    D4        3.14135  -0.00000   0.00000  -0.00007  -0.00007   3.14128
    D5        1.10323  -0.00249   0.00000  -0.02282  -0.02268   1.08055
    D6        3.14159   0.00000   0.00000   0.00015   0.00015  -3.14145
    D7        0.00024   0.00000   0.00000  -0.00000  -0.00000   0.00024
    D8        1.10336  -0.00249   0.00000  -0.02271  -0.02257   1.08079
    D9       -1.10358   0.00249   0.00000   0.02281   0.02267  -1.08091
   D10        3.14151   0.00000   0.00000   0.00004   0.00004   3.14155
   D11       -3.14000  -0.00003   0.00000  -0.00135  -0.00140  -3.14140
   D12        0.00124  -0.00002   0.00000  -0.00091  -0.00095   0.00029
   D13        0.00017  -0.00000   0.00000  -0.00002  -0.00002   0.00014
   D14        3.14140   0.00001   0.00000   0.00042   0.00042  -3.14136
   D15        3.14016   0.00006   0.00000   0.00133   0.00126   3.14142
   D16       -0.00111   0.00005   0.00000   0.00106   0.00100  -0.00011
   D17        0.00000  -0.00001   0.00000  -0.00013  -0.00012  -0.00012
   D18       -3.14128  -0.00002   0.00000  -0.00040  -0.00038   3.14153
   D19       -3.14118  -0.00002   0.00000  -0.00036  -0.00035  -3.14153
   D20        0.00016  -0.00001   0.00000  -0.00020  -0.00020  -0.00003
   D21        0.00017  -0.00001   0.00000  -0.00020  -0.00019  -0.00003
   D22        3.14151   0.00000   0.00000  -0.00003  -0.00004   3.14147
   D23        3.14135   0.00000   0.00000   0.00019   0.00020   3.14155
   D24       -0.00047   0.00001   0.00000   0.00035   0.00035  -0.00013
   D25       -0.00000   0.00000   0.00000   0.00005   0.00005   0.00005
   D26        3.14136   0.00001   0.00000   0.00021   0.00020   3.14156
   D27       -0.00025   0.00001   0.00000   0.00018   0.00018  -0.00007
   D28        3.14159  -0.00000   0.00000   0.00002   0.00003  -3.14157
   D29       -3.14151  -0.00000   0.00000  -0.00021  -0.00024   3.14144
   D30        0.00033  -0.00001   0.00000  -0.00037  -0.00039  -0.00006
   D31       -0.00008   0.00001   0.00000   0.00012   0.00011   0.00002
   D32       -3.14146  -0.00000   0.00000  -0.00003  -0.00003  -3.14149
   D33        3.14119   0.00002   0.00000   0.00038   0.00036   3.14156
   D34       -0.00019   0.00001   0.00000   0.00024   0.00023   0.00004
         Item               Value     Threshold  Converged?
 Maximum Force            0.024160     0.000450     NO 
 RMS     Force            0.005816     0.000300     NO 
 Maximum Displacement     0.265780     0.001800     NO 
 RMS     Displacement     0.086513     0.001200     NO 
 Predicted change in Energy=-5.819765D-03
 GradGradGradGradGradGradGradGradGradGradGradGradGradGradGradGradGradGrad

                          Input orientation:                          
 ---------------------------------------------------------------------
 Center     Atomic      Atomic             Coordinates (Angstroms)
 Number     Number       Type             X           Y           Z
 ---------------------------------------------------------------------
      1          8           0       -2.707194   -0.597020   -0.000357
      2          8           0        2.707238    0.597093    0.000000
      3          6           0       -1.386551   -0.249339   -0.000131
      4          6           0        1.386588    0.249455   -0.000074
      5          6           0       -0.894056    1.061519    0.000093
      6          6           0        0.479261    1.301612    0.000079
      7          6           0       -0.479230   -1.301522   -0.000193
      8          6           0        0.894062   -1.061425   -0.000179
      9          6           0       -3.675714    0.427037   -0.000980
     10          6           0        3.675677   -0.427076   -0.000322
     11          1           0       -1.550993    1.924264    0.000367
     12          1           0        0.857245    2.321399    0.000277
     13          1           0       -0.857234   -2.321297   -0.000308
     14          1           0        1.551062   -1.924129   -0.000328
     15          1           0       -3.599871    1.047741    0.902490
     16          1           0       -4.644315   -0.080831   -0.001384
     17          1           0       -3.598895    1.047430   -0.904585
     18          1           0        3.599199   -1.047385   -0.904003
     19          1           0        3.599304   -1.047835    0.903072
     20          1           0        4.644316    0.080709   -0.000236
 ---------------------------------------------------------------------
                    Distance matrix (angstroms):
                    1          2          3          4          5
     1  O    0.000000
     2  O    5.544545   0.000000
     3  C    1.365643   4.180377   0.000000
     4  C    4.180379   1.365639   2.817640   0.000000
     5  C    2.457280   3.631117   1.400322   2.420905   0.000000
     6  C    3.709218   2.336713   2.426253   1.389344   1.394146
     7  C    2.336696   3.709220   1.389360   2.426274   2.399176
     8  C    3.631077   2.457292   2.420884   1.400353   2.775654
     9  C    1.409512   6.385217   2.386996   5.065415   2.853102
    10  C    6.385133   1.409538   5.065347   2.386970   4.806077
    11  H    2.773748   4.460259   2.179815   3.381474   1.084387
    12  H    4.606777   2.528973   3.412230   2.138494   2.157395
    13  H    2.528930   4.606784   2.138501   3.412258   3.383017
    14  H    4.460265   2.773680   3.381493   2.179798   3.859106
    15  H    2.077798   6.387268   2.719546   5.129976   2.852358
    16  H    2.004716   7.382744   3.262119   6.039940   3.920384
    17  H    2.077732   6.386578   2.719212   5.129321   2.852156
    18  H    6.386705   2.077769   5.129480   2.719289   5.045216
    19  H    6.386810   2.077766   5.129534   2.719329   5.045298
    20  H    7.382684   2.004726   6.039892   3.262096   5.624549
                    6          7          8          9         10
     6  C    0.000000
     7  C    2.773988   0.000000
     8  C    2.399167   1.394123   0.000000
     9  C    4.246021   3.633927   4.806076   0.000000
    10  C    3.633929   4.245928   2.853030   7.400842   0.000000
    11  H    2.123588   3.399172   3.859097   2.599256   5.731220
    12  H    1.087584   3.861570   3.383024   4.912873   3.936709
    13  H    3.861566   1.087579   2.157387   3.936645   4.912775
    14  H    3.399142   2.123611   1.084393   5.731245   2.599068
    15  H    4.185465   4.009025   5.045674   1.098764   7.478219
    16  H    5.306805   4.340278   5.624516   1.093672   8.327193
    17  H    4.185018   4.008467   5.044985   1.098768   7.477383
    18  H    4.008637   4.185098   2.852168   7.477549   1.098759
    19  H    4.008737   4.185055   2.852083   7.477863   1.098770
    20  H    4.340310   5.306721   3.920315   8.327235   1.093667
                   11         12         13         14         15
    11  H    0.000000
    12  H    2.440763   0.000000
    13  H    4.301871   4.949148   0.000000
    14  H    4.942962   4.301848   2.440826   0.000000
    15  H    2.404168   4.722508   4.437063   6.014915   0.000000
    16  H    3.686333   6.003155   4.400190   6.463779   1.783684
    17  H    2.404512   4.722177   4.436524   6.014141   1.807075
    18  H    6.014404   4.436749   4.722215   2.404199   7.712301
    19  H    6.014467   4.436854   4.722132   2.404021   7.497971
    20  H    6.463787   4.400296   6.003056   3.686136   8.349652
                   16         17         18         19         20
    16  H    0.000000
    17  H    1.783717   0.000000
    18  H    8.348920   7.496720   0.000000
    19  H    8.349274   7.711798   1.807076   0.000000
    20  H    9.290035   8.348827   1.783721   1.783712   0.000000
 Stoichiometry    C8H10O2
 Framework group  C1[X(C8H10O2)]
 Deg. of freedom    54
 Full point group                 C1      NOp   1
 Largest Abelian subgroup         C1      NOp   1
 Largest concise Abelian subgroup C1      NOp   1
                         Standard orientation:                         
 ---------------------------------------------------------------------
 Center     Atomic      Atomic             Coordinates (Angstroms)
 Number     Number       Type             X           Y           Z
 ---------------------------------------------------------------------
      1          8           0       -2.690922    0.666585    0.000118
      2          8           0        2.690955   -0.666599   -0.000240
      3          6           0       -1.379673    0.285002   -0.000109
      4          6           0        1.379698   -0.285059   -0.000166
      5          6           0       -0.921107   -1.038107   -0.000333
      6          6           0        0.445570   -1.313495   -0.000318
      7          6           0       -0.445550    1.313464   -0.000046
      8          6           0        0.921102    1.038073   -0.000061
      9          6           0       -3.685499   -0.332185    0.000740
     10          6           0        3.685454    0.332285    0.000082
     11          1           0       -1.600048   -1.883645   -0.000606
     12          1           0        0.797161   -2.342680   -0.000517
     13          1           0       -0.797161    2.342638    0.000068
     14          1           0        1.600105    1.883568    0.000089
     15          1           0       -3.625669   -0.954637   -0.902730
     16          1           0       -4.640696    0.200465    0.001145
     17          1           0       -3.624685   -0.954351    0.904345
     18          1           0        3.624979    0.954358    0.903763
     19          1           0        3.625096    0.954806   -0.903312
     20          1           0        4.640692   -0.200282   -0.000004
 ---------------------------------------------------------------------
 Rotational constants (GHZ):           4.5521520           0.6877028           0.6021309
 Standard basis: 6-311++G(d,p) (5D, 7F)
 There are   300 symmetry adapted cartesian basis functions of A   symmetry.
 There are   290 symmetry adapted basis functions of A   symmetry.
   290 basis functions,   450 primitive gaussians,   300 cartesian basis functions
    37 alpha electrons       37 beta electrons
       nuclear repulsion energy       508.0127164440 Hartrees.
 NAtoms=   20 NActive=   20 NUniq=   20 SFac= 1.00D+00 NAtFMM=   60 NAOKFM=F Big=F
 Integral buffers will be    131072 words long.
 Raffenetti 2 integral format.
 Two-electron integral symmetry is turned on.
 R6APFD:  NTU= -4 IXU= 1 FactS= 1.050
 Nuclear repulsion after empirical dispersion term =      508.0027156035 Hartrees.
 One-electron integrals computed using PRISM.
 NBasis=   290 RedAO= T EigKep=  4.16D-06  NBF=   290
 NBsUse=   289 1.00D-06 EigRej=  6.52D-07 NBFU=   289
 Initial guess from the checkpoint file:  "DXYB0108.chk"
 B after Tr=     0.000000    0.000000    0.000000
         Rot=    0.999978   -0.000024   -0.000022   -0.006670 Ang=  -0.76 deg.
 ExpMin= 3.60D-02 ExpMax= 8.59D+03 ExpMxC= 1.30D+03 IAcc=3 IRadAn=         5 AccDes= 0.00D+00
 Harris functional with IExCor= 1009 and IRadAn=       5 diagonalized for initial guess.
 HarFok:  IExCor= 1009 AccDes= 0.00D+00 IRadAn=         5 IDoV= 1 UseB2=F ITyADJ=14
 ICtDFT=  3500011 ScaDFX=  1.000000  1.000000  1.000000  1.000000
 FoFCou: FMM=F IPFlag=           0 FMFlag=      100000 FMFlg1=           0
         NFxFlg=           0 DoJE=T BraDBF=F KetDBF=T FulRan=T
         wScrn=  0.000000 ICntrl=       500 IOpCl=  0 I1Cent=   200000004 NGrid=           0
         NMat0=    1 NMatS0=      1 NMatT0=    0 NMatD0=    1 NMtDS0=    0 NMtDT0=    0
 Petite list used in FoFCou.
 Requested convergence on RMS density matrix=1.00D-08 within  32 cycles.
 Requested convergence on MAX density matrix=1.00D-06.
 Requested convergence on             energy=1.00D-06.
 No special actions if energy rises.
 SCF Done:  E(RM08HX) =  -461.277458035     A.U. after   12 cycles
            NFock= 12  Conv=0.58D-08     -V/T= 2.0046
 QCSCF skips out because SCF is already converged.
 R6APFD:  NTU= -4 IXU= 1 FactS= 1.050
 Calling FoFJK, ICntrl=      2127 FMM=F ISym2X=0 I1Cent= 0 IOpClX= 0 NMat=1 NMatS=1 NMatT=0.
 ***** Axes restored to original set *****
 -------------------------------------------------------------------
 Center     Atomic                   Forces (Hartrees/Bohr)
 Number     Number              X              Y              Z
 -------------------------------------------------------------------
      1        8           0.002629217   -0.000660836    0.000010094
      2        8          -0.002621386    0.000647470   -0.000005013
      3        6          -0.003038643    0.003669446   -0.000004927
      4        6           0.003023840   -0.003688177    0.000004613
      5        6           0.001817054    0.001202212    0.000000800
      6        6          -0.005042292   -0.000125110    0.000007694
      7        6           0.005034742    0.000135496   -0.000004286
      8        6          -0.001789662   -0.001189572   -0.000003590
      9        6           0.001209300   -0.003651908   -0.000002882
     10        6          -0.001221028    0.003665203    0.000010357
     11        1          -0.004028863   -0.000022666   -0.000007225
     12        1           0.000560740   -0.000064009   -0.000001456
     13        1          -0.000560995    0.000061679   -0.000001645
     14        1           0.004019035    0.000020929    0.000003173
     15        1           0.000807175    0.001986266   -0.000459413
     16        1           0.000253078    0.000924419   -0.000001242
     17        1           0.000801130    0.001987882    0.000463199
     18        1          -0.000801603   -0.001988164    0.000457592
     19        1          -0.000800381   -0.001985433   -0.000464460
     20        1          -0.000250459   -0.000925127   -0.000001383
 -------------------------------------------------------------------
 Cartesian Forces:  Max     0.005042292 RMS     0.001844178

 GradGradGradGradGradGradGradGradGradGradGradGradGradGradGradGradGradGrad
 Berny optimization.
 Using GEDIIS/GDIIS optimizer.
 FormGI is forming the generalized inverse of G from B-inverse, IUseBI=4.
 Internal  Forces:  Max     0.011026511 RMS     0.002617195
 Search for a local minimum.
 Step number   2 out of a maximum of   96
 All quantities printed in internal units (Hartrees-Bohrs-Radians)
 Mixed Optimization -- RFO/linear search
 Update second derivatives using D2CorX and points    1    2
 DE= -4.68D-03 DEPred=-5.82D-03 R= 8.04D-01
 TightC=F SS=  1.41D+00  RLast= 2.16D-01 DXNew= 5.0454D-01 6.4715D-01
 Trust test= 8.04D-01 RLast= 2.16D-01 DXMaxT set to 5.05D-01
 ITU=  1  0
 Use linear search instead of GDIIS.
     Eigenvalues ---    0.01337   0.01338   0.02156   0.02156   0.02157
     Eigenvalues ---    0.02157   0.02157   0.02157   0.02157   0.02165
     Eigenvalues ---    0.02167   0.02206   0.02206   0.09283   0.09992
     Eigenvalues ---    0.10684   0.10684   0.14677   0.16000   0.16000
     Eigenvalues ---    0.16000   0.16000   0.16000   0.16000   0.16000
     Eigenvalues ---    0.16000   0.16228   0.21808   0.22968   0.23303
     Eigenvalues ---    0.24125   0.25000   0.25000   0.33907   0.34199
     Eigenvalues ---    0.34204   0.34208   0.34212   0.34253   0.34428
     Eigenvalues ---    0.35186   0.35194   0.35441   0.36559   0.40709
     Eigenvalues ---    0.41456   0.42036   0.42593   0.46410   0.46473
     Eigenvalues ---    0.46482   0.48421   0.52725   0.55978
 RFO step:  Lambda=-1.49336786D-03 EMin= 1.33712682D-02
 Quartic linear search produced a step of -0.14096.
 Iteration  1 RMS(Cart)=  0.03926213 RMS(Int)=  0.00035554
 Iteration  2 RMS(Cart)=  0.00062474 RMS(Int)=  0.00001814
 Iteration  3 RMS(Cart)=  0.00000012 RMS(Int)=  0.00001814
 Variable       Old X    -DE/DX   Delta X   Delta X   Delta X     New X
                                 (Linear)    (Quad)   (Total)
    R1        2.58069  -0.00567  -0.00121  -0.00683  -0.00804   2.57265
    R2        2.66359  -0.00120   0.00459  -0.01147  -0.00688   2.65671
    R3        2.58068  -0.00566  -0.00120  -0.00683  -0.00804   2.57265
    R4        2.66364  -0.00121   0.00460  -0.01151  -0.00691   2.65673
    R5        2.64622  -0.00319  -0.00146  -0.00300  -0.00446   2.64176
    R6        2.62551   0.00330   0.00148   0.00319   0.00467   2.63018
    R7        2.62548   0.00331   0.00148   0.00319   0.00467   2.63015
    R8        2.64628  -0.00320  -0.00143  -0.00308  -0.00451   2.64177
    R9        2.63455  -0.00292   0.00019  -0.00573  -0.00554   2.62901
   R10        2.04919   0.00242   0.00007   0.00571   0.00578   2.05497
   R11        2.05523   0.00013  -0.00021   0.00075   0.00053   2.05577
   R12        2.63451  -0.00291   0.00019  -0.00572  -0.00553   2.62898
   R13        2.05523   0.00014  -0.00023   0.00079   0.00056   2.05578
   R14        2.04921   0.00242   0.00006   0.00571   0.00577   2.05498
   R15        2.07636   0.00080  -0.00092   0.00381   0.00289   2.07926
   R16        2.06674  -0.00066   0.00033  -0.00229  -0.00196   2.06478
   R17        2.07637   0.00080  -0.00092   0.00380   0.00288   2.07925
   R18        2.07635   0.00080  -0.00093   0.00384   0.00291   2.07926
   R19        2.07637   0.00080  -0.00090   0.00377   0.00287   2.07924
   R20        2.06673  -0.00065   0.00032  -0.00226  -0.00194   2.06479
    A1        2.07090  -0.01103  -0.00390  -0.02989  -0.03378   2.03712
    A2        2.07084  -0.01100  -0.00389  -0.02982  -0.03371   2.03713
    A3        2.18761  -0.00599  -0.01310   0.00532  -0.00778   2.17983
    A4        2.02498   0.00279   0.00974  -0.01002  -0.00028   2.02470
    A5        2.07060   0.00320   0.00337   0.00470   0.00806   2.07866
    A6        2.02502   0.00278   0.00974  -0.01005  -0.00032   2.02471
    A7        2.18759  -0.00599  -0.01309   0.00531  -0.00778   2.17981
    A8        2.07057   0.00321   0.00335   0.00474   0.00809   2.07866
    A9        2.10326  -0.00277  -0.00127  -0.00767  -0.00895   2.09432
   A10        2.13142  -0.00191   0.00424  -0.02094  -0.01669   2.11472
   A11        2.04851   0.00468  -0.00297   0.02861   0.02564   2.07415
   A12        2.10934  -0.00044  -0.00208   0.00294   0.00086   2.11020
   A13        2.07502  -0.00035   0.00338  -0.00920  -0.00581   2.06921
   A14        2.09883   0.00079  -0.00130   0.00625   0.00495   2.10378
   A15        2.10932  -0.00044  -0.00209   0.00298   0.00089   2.11020
   A16        2.07502  -0.00035   0.00338  -0.00920  -0.00582   2.06920
   A17        2.09885   0.00078  -0.00129   0.00622   0.00493   2.10378
   A18        2.10328  -0.00277  -0.00127  -0.00769  -0.00896   2.09432
   A19        2.13133  -0.00190   0.00423  -0.02086  -0.01663   2.11471
   A20        2.04857   0.00467  -0.00296   0.02855   0.02559   2.07416
   A21        1.94189   0.00009   0.00072  -0.00270  -0.00204   1.93985
   A22        1.84541   0.00181   0.00354   0.00571   0.00921   1.85462
   A23        1.94179   0.00010   0.00074  -0.00269  -0.00200   1.93979
   A24        1.90050   0.00035  -0.00473   0.01470   0.00993   1.91043
   A25        1.93095  -0.00249   0.00402  -0.02706  -0.02310   1.90785
   A26        1.90055   0.00035  -0.00474   0.01470   0.00992   1.91047
   A27        1.94182   0.00010   0.00073  -0.00269  -0.00201   1.93981
   A28        1.94180   0.00010   0.00073  -0.00267  -0.00199   1.93981
   A29        1.84539   0.00181   0.00353   0.00572   0.00922   1.85461
   A30        1.93096  -0.00249   0.00402  -0.02705  -0.02310   1.90786
   A31        1.90057   0.00035  -0.00473   0.01466   0.00989   1.91046
   A32        1.90054   0.00035  -0.00473   0.01468   0.00990   1.91045
    D1        0.00049  -0.00000  -0.00006   0.00003  -0.00003   0.00046
    D2       -3.14105  -0.00001   0.00013  -0.00053  -0.00040  -3.14144
    D3       -1.08118   0.00154  -0.00318   0.01948   0.01629  -1.06489
    D4        3.14128   0.00000   0.00001  -0.00004  -0.00003   3.14125
    D5        1.08055  -0.00154   0.00320  -0.01957  -0.01635   1.06420
    D6       -3.14145  -0.00000  -0.00002   0.00004   0.00002  -3.14143
    D7        0.00024  -0.00000   0.00000  -0.00010  -0.00010   0.00014
    D8        1.08079  -0.00154   0.00318  -0.01951  -0.01631   1.06448
    D9       -1.08091   0.00154  -0.00320   0.01951   0.01630  -1.06461
   D10        3.14155  -0.00000  -0.00001  -0.00001  -0.00002   3.14153
   D11       -3.14140  -0.00001   0.00020  -0.00070  -0.00049   3.14130
   D12        0.00029  -0.00001   0.00013  -0.00058  -0.00044  -0.00015
   D13        0.00014  -0.00000   0.00000  -0.00012  -0.00012   0.00002
   D14       -3.14136  -0.00000  -0.00006  -0.00000  -0.00006  -3.14142
   D15        3.14142   0.00000  -0.00018   0.00058   0.00042  -3.14134
   D16       -0.00011   0.00000  -0.00014   0.00043   0.00030   0.00019
   D17       -0.00012   0.00000   0.00002   0.00006   0.00008  -0.00004
   D18        3.14153   0.00000   0.00005  -0.00009  -0.00004   3.14149
   D19       -3.14153  -0.00000   0.00005  -0.00018  -0.00014   3.14152
   D20       -0.00003   0.00000   0.00003  -0.00006  -0.00003  -0.00007
   D21       -0.00003   0.00000   0.00003  -0.00006  -0.00003  -0.00006
   D22        3.14147   0.00000   0.00001   0.00007   0.00007   3.14154
   D23        3.14155   0.00000  -0.00003   0.00014   0.00011  -3.14153
   D24       -0.00013   0.00000  -0.00005   0.00023   0.00018   0.00005
   D25        0.00005  -0.00000  -0.00001  -0.00000  -0.00001   0.00004
   D26        3.14156   0.00000  -0.00003   0.00009   0.00006  -3.14156
   D27       -0.00007   0.00000  -0.00003   0.00012   0.00010   0.00003
   D28       -3.14157  -0.00000  -0.00000  -0.00000  -0.00001  -3.14158
   D29        3.14144   0.00000   0.00003   0.00000   0.00004   3.14147
   D30       -0.00006   0.00000   0.00005  -0.00012  -0.00007  -0.00013
   D31        0.00002  -0.00000  -0.00001  -0.00000  -0.00001   0.00001
   D32       -3.14149  -0.00000   0.00000  -0.00009  -0.00008  -3.14157
   D33        3.14156   0.00000  -0.00005   0.00015   0.00011  -3.14152
   D34        0.00004  -0.00000  -0.00003   0.00007   0.00004   0.00008
         Item               Value     Threshold  Converged?
 Maximum Force            0.011027     0.000450     NO 
 RMS     Force            0.002617     0.000300     NO 
 Maximum Displacement     0.135296     0.001800     NO 
 RMS     Displacement     0.039689     0.001200     NO 
 Predicted change in Energy=-8.807256D-04
 GradGradGradGradGradGradGradGradGradGradGradGradGradGradGradGradGradGrad

                          Input orientation:                          
 ---------------------------------------------------------------------
 Center     Atomic      Atomic             Coordinates (Angstroms)
 Number     Number       Type             X           Y           Z
 ---------------------------------------------------------------------
      1          8           0       -2.691147   -0.620291   -0.000474
      2          8           0        2.691139    0.620327    0.000091
      3          6           0       -1.377977   -0.261170   -0.000548
      4          6           0        1.377968    0.261228   -0.000073
      5          6           0       -0.909033    1.055791   -0.000305
      6          6           0        0.459342    1.306828   -0.000055
      7          6           0       -0.459339   -1.306776   -0.000507
      8          6           0        0.909019   -1.055737   -0.000277
      9          6           0       -3.632105    0.424252   -0.000701
     10          6           0        3.632093   -0.424233   -0.000124
     11          1           0       -1.596852    1.898072   -0.000170
     12          1           0        0.833943    2.328165    0.000150
     13          1           0       -0.833945   -2.328118   -0.000600
     14          1           0        1.596850   -1.898012   -0.000269
     15          1           0       -3.528276    1.052192    0.896829
     16          1           0       -4.616226   -0.050470   -0.000957
     17          1           0       -3.527757    1.052186   -0.898175
     18          1           0        3.527994   -1.051975   -0.897765
     19          1           0        3.527989   -1.052346    0.897243
     20          1           0        4.616220    0.050488   -0.000010
 ---------------------------------------------------------------------
                    Distance matrix (angstroms):
                    1          2          3          4          5
     1  O    0.000000
     2  O    5.523417   0.000000
     3  C    1.361390   4.163502   0.000000
     4  C    4.163505   1.361385   2.805020   0.000000
     5  C    2.446462   3.626413   1.397961   2.421097   0.000000
     6  C    3.693152   2.334995   2.415443   1.391817   1.391212
     7  C    2.335001   3.693134   1.391829   2.415436   2.404983
     8  C    3.626404   2.446455   2.421093   1.397966   2.786371
     9  C    1.405871   6.326284   2.356034   5.012725   2.795346
    10  C    6.326279   1.405880   5.012723   2.356042   4.776222
    11  H    2.745839   4.474316   2.170307   3.395411   1.087443
    12  H    4.595612   2.523071   3.405473   2.137333   2.157986
    13  H    2.523068   4.595601   2.137345   3.405477   3.384741
    14  H    4.474315   2.745815   3.395416   2.170305   3.873552
    15  H    2.074400   6.298553   2.674694   5.049880   2.768626
    16  H    2.007642   7.338089   3.245096   6.002293   3.868732
    17  H    2.074358   6.298258   2.674358   5.049589   2.768375
    18  H    6.298349   2.074383   5.049646   2.674502   4.993528
    19  H    6.298430   2.074375   5.049801   2.674554   4.993696
    20  H    7.338089   2.007648   6.002294   3.245101   5.615964
                    6          7          8          9         10
     6  C    0.000000
     7  C    2.770361   0.000000
     8  C    2.404979   1.391195   0.000000
     9  C    4.185556   3.614264   4.776210   0.000000
    10  C    3.614266   4.185534   2.795341   7.313584   0.000000
    11  H    2.139510   3.400733   3.873549   2.512847   5.721448
    12  H    1.087866   3.858156   3.384734   4.854943   3.924963
    13  H    3.858163   1.087874   2.157980   3.924951   4.854923
    14  H    3.400725   2.139503   1.087446   5.721441   2.512815
    15  H    4.095160   3.973451   4.993771   1.100295   7.365815
    16  H    5.253918   4.342581   5.615950   1.092637   8.256783
    17  H    4.094926   3.973122   4.993450   1.100294   7.365444
    18  H    3.973218   4.094975   2.768489   7.365528   1.100299
    19  H    3.973341   4.095054   2.768494   7.365704   1.100286
    20  H    4.342583   5.253899   3.868730   8.256789   1.092641
                   11         12         13         14         15
    11  H    0.000000
    12  H    2.468551   0.000000
    13  H    4.294497   4.945990   0.000000
    14  H    4.960846   4.294485   2.468554   0.000000
    15  H    2.291400   4.632612   4.414894   5.981254   0.000000
    16  H    3.593526   5.946616   4.415125   6.481954   1.790396
    17  H    2.291360   4.632444   4.414602   5.980928   1.795003
    18  H    5.981012   4.414692   4.632489   2.291417   7.578854
    19  H    5.981163   4.414806   4.632513   2.291282   7.363419
    20  H    6.481962   4.415136   5.946601   3.593500   8.254728
                   16         17         18         19         20
    16  H    0.000000
    17  H    1.790422   0.000000
    18  H    8.254429   7.362820   0.000000
    19  H    8.254620   7.578663   1.795007   0.000000
    20  H    9.232998   8.254360   1.790425   1.790406   0.000000
 Stoichiometry    C8H10O2
 Framework group  C1[X(C8H10O2)]
 Deg. of freedom    54
 Full point group                 C1      NOp   1
 Largest Abelian subgroup         C1      NOp   1
 Largest concise Abelian subgroup C1      NOp   1
                         Standard orientation:                         
 ---------------------------------------------------------------------
 Center     Atomic      Atomic             Coordinates (Angstroms)
 Number     Number       Type             X           Y           Z
 ---------------------------------------------------------------------
      1          8           0       -2.675278    0.685511    0.000173
      2          8           0        2.675279   -0.685504   -0.000393
      3          6           0       -1.371221    0.294592    0.000247
      4          6           0        1.371220   -0.294607   -0.000229
      5          6           0       -0.934411   -1.033373    0.000003
      6          6           0        0.427462   -1.317581   -0.000246
      7          6           0       -0.427450    1.317571    0.000205
      8          6           0        0.934405    1.033362   -0.000024
      9          6           0       -3.641336   -0.335863    0.000399
     10          6           0        3.641333    0.335886   -0.000178
     11          1           0       -1.642490   -1.858695   -0.000132
     12          1           0        0.777138   -2.347717   -0.000452
     13          1           0       -0.777132    2.347712    0.000298
     14          1           0        1.642496    1.858677   -0.000033
     15          1           0       -3.552793   -0.966140   -0.897131
     16          1           0       -4.613632    0.162628    0.000655
     17          1           0       -3.552274   -0.966146    0.897873
     18          1           0        3.552516    0.965973    0.897463
     19          1           0        3.552519    0.966343   -0.897545
     20          1           0        4.613635   -0.162604   -0.000291
 ---------------------------------------------------------------------
 Rotational constants (GHZ):           4.5161431           0.7002858           0.6110358
 Standard basis: 6-311++G(d,p) (5D, 7F)
 There are   300 symmetry adapted cartesian basis functions of A   symmetry.
 There are   290 symmetry adapted basis functions of A   symmetry.
   290 basis functions,   450 primitive gaussians,   300 cartesian basis functions
    37 alpha electrons       37 beta electrons
       nuclear repulsion energy       510.1553786459 Hartrees.
 NAtoms=   20 NActive=   20 NUniq=   20 SFac= 1.00D+00 NAtFMM=   60 NAOKFM=F Big=F
 Integral buffers will be    131072 words long.
 Raffenetti 2 integral format.
 Two-electron integral symmetry is turned on.
 R6APFD:  NTU= -4 IXU= 1 FactS= 1.050
 Nuclear repulsion after empirical dispersion term =      510.1454774978 Hartrees.
 One-electron integrals computed using PRISM.
 NBasis=   290 RedAO= T EigKep=  4.24D-06  NBF=   290
 NBsUse=   289 1.00D-06 EigRej=  6.38D-07 NBFU=   289
 Initial guess from the checkpoint file:  "DXYB0108.chk"
 B after Tr=    -0.000000   -0.000000   -0.000000
         Rot=    1.000000   -0.000010   -0.000009    0.000957 Ang=  -0.11 deg.
 ExpMin= 3.60D-02 ExpMax= 8.59D+03 ExpMxC= 1.30D+03 IAcc=3 IRadAn=         5 AccDes= 0.00D+00
 Harris functional with IExCor= 1009 and IRadAn=       5 diagonalized for initial guess.
 HarFok:  IExCor= 1009 AccDes= 0.00D+00 IRadAn=         5 IDoV= 1 UseB2=F ITyADJ=14
 ICtDFT=  3500011 ScaDFX=  1.000000  1.000000  1.000000  1.000000
 FoFCou: FMM=F IPFlag=           0 FMFlag=      100000 FMFlg1=           0
         NFxFlg=           0 DoJE=T BraDBF=F KetDBF=T FulRan=T
         wScrn=  0.000000 ICntrl=       500 IOpCl=  0 I1Cent=   200000004 NGrid=           0
         NMat0=    1 NMatS0=      1 NMatT0=    0 NMatD0=    1 NMtDS0=    0 NMtDT0=    0
 Petite list used in FoFCou.
 Requested convergence on RMS density matrix=1.00D-08 within  32 cycles.
 Requested convergence on MAX density matrix=1.00D-06.
 Requested convergence on             energy=1.00D-06.
 No special actions if energy rises.
 SCF Done:  E(RM08HX) =  -461.278240067     A.U. after   11 cycles
            NFock= 11  Conv=0.47D-08     -V/T= 2.0045
 QCSCF skips out because SCF is already converged.
 R6APFD:  NTU= -4 IXU= 1 FactS= 1.050
 Calling FoFJK, ICntrl=      2127 FMM=F ISym2X=0 I1Cent= 0 IOpClX= 0 NMat=1 NMatS=1 NMatT=0.
 ***** Axes restored to original set *****
 -------------------------------------------------------------------
 Center     Atomic                   Forces (Hartrees/Bohr)
 Number     Number              X              Y              Z
 -------------------------------------------------------------------
      1        8           0.000677864    0.000346700   -0.000011676
      2        8          -0.000671191   -0.000347398    0.000001264
      3        6           0.001204934   -0.001524351    0.000028213
      4        6          -0.001203442    0.001517812   -0.000003671
      5        6          -0.000155061    0.001630716    0.000004507
      6        6          -0.001860306    0.000334901   -0.000005222
      7        6           0.001844669   -0.000336696   -0.000002470
      8        6           0.000166604   -0.001630376   -0.000004571
      9        6          -0.001176804   -0.000586305   -0.000002957
     10        6           0.001174819    0.000593368   -0.000003264
     11        1           0.000400790   -0.000273587   -0.000003461
     12        1           0.000259390   -0.000080511   -0.000000429
     13        1          -0.000257789    0.000085031   -0.000000796
     14        1          -0.000403038    0.000274383    0.000000201
     15        1          -0.000578232    0.000271134   -0.000004121
     16        1          -0.000090877    0.000863669   -0.000001051
     17        1          -0.000585588    0.000272237    0.000004611
     18        1           0.000582653   -0.000270335    0.000006936
     19        1           0.000582538   -0.000274948   -0.000001208
     20        1           0.000088068   -0.000865444   -0.000000832
 -------------------------------------------------------------------
 Cartesian Forces:  Max     0.001860306 RMS     0.000687783

 GradGradGradGradGradGradGradGradGradGradGradGradGradGradGradGradGradGrad
 Berny optimization.
 Using GEDIIS/GDIIS optimizer.
 FormGI is forming the generalized inverse of G from B-inverse, IUseBI=4.
 Internal  Forces:  Max     0.003087411 RMS     0.000740657
 Search for a local minimum.
 Step number   3 out of a maximum of   96
 All quantities printed in internal units (Hartrees-Bohrs-Radians)
 Mixed Optimization -- En-DIIS/RFO-DIIS
 Update second derivatives using D2CorX and points    1    2    3
 DE= -7.82D-04 DEPred=-8.81D-04 R= 8.88D-01
 TightC=F SS=  1.41D+00  RLast= 8.87D-02 DXNew= 8.4853D-01 2.6604D-01
 Trust test= 8.88D-01 RLast= 8.87D-02 DXMaxT set to 5.05D-01
 ITU=  1  1  0
 Use linear search instead of GDIIS.
     Eigenvalues ---    0.01337   0.01338   0.02156   0.02156   0.02157
     Eigenvalues ---    0.02157   0.02157   0.02157   0.02157   0.02165
     Eigenvalues ---    0.02167   0.02206   0.02206   0.09167   0.10070
     Eigenvalues ---    0.10598   0.10598   0.14212   0.16000   0.16000
     Eigenvalues ---    0.16000   0.16000   0.16000   0.16000   0.16000
     Eigenvalues ---    0.16096   0.16519   0.21642   0.22971   0.23915
     Eigenvalues ---    0.25000   0.25000   0.26252   0.33928   0.34200
     Eigenvalues ---    0.34204   0.34209   0.34249   0.34255   0.34459
     Eigenvalues ---    0.35186   0.35194   0.35441   0.37582   0.41456
     Eigenvalues ---    0.42069   0.42425   0.42554   0.46229   0.46479
     Eigenvalues ---    0.46721   0.47875   0.52725   0.58323
 RFO step:  Lambda=-1.09593161D-04 EMin= 1.33712681D-02
 Quartic linear search produced a step of -0.11169.
 Iteration  1 RMS(Cart)=  0.00763505 RMS(Int)=  0.00001573
 Iteration  2 RMS(Cart)=  0.00001927 RMS(Int)=  0.00000174
 Iteration  3 RMS(Cart)=  0.00000000 RMS(Int)=  0.00000174
[...]
 00002003,-0.06897361,-0.00000503,-0.00000559,0.00367372,0.00000392,-0.
 00000433,0.00811288,-0.00000232,0.00000001,-0.00186324,0.00004362,0.00
 008189,0.12592612,0.00415012,-0.00092618,-0.00000316,-0.02426327,-0.04
 548434,-0.00000677,-0.04631933,0.07139225,0.00000654,-0.15018114,-0.00
 218176,-0.00000547,-0.04518310,-0.03627944,-0.00000842,0.06537810,-0.0
 0756391,0.00000302,-0.35065180,-0.07562892,-0.00002787,0.71818295,0.00
 186224,-0.00854836,-0.00000233,-0.01561062,-0.00797730,-0.00000278,0.0
 1051434,0.06395492,0.00000839,-0.08106629,-0.29997279,-0.00003475,-0.0
 3627941,-0.03394360,-0.00000643,0.04692771,-0.04935667,-0.00000389,-0.
 00564707,-0.13311052,-0.00001085,-0.03400738,0.70319560,-0.00000093,-0
 .00000221,0.00449206,-0.00000446,-0.00000570,0.00704857,-0.00000190,0.
 00001282,0.00392449,-0.00001509,-0.00002926,-0.06569725,-0.00000739,-0
 .00000677,-0.00262538,0.00000997,-0.00000757,0.00811290,-0.00001971,-0
 .00001506,-0.05408318,0.00003601,0.00007015,0.12395979,-0.14974956,0.0
 6092124,-0.00001837,0.00321687,0.00050307,0.00000042,-0.05014020,0.028
 49956,-0.00001036,-0.00172303,-0.00071108,-0.00000026,0.00172100,-0.00
 065307,-0.00000031,0.00017423,0.00184979,-0.00000010,-0.00091471,-0.00
 451352,-0.00000146,-0.00040734,0.00216365,0.00000048,0.57074802,0.0949
 4251,-0.19046019,0.00002554,-0.00359203,-0.00065438,-0.00000037,0.0050
 9467,0.01197723,-0.00000029,0.00183985,0.00171311,0.00000047,-0.008237
 23,0.00162620,-0.00000169,-0.00000686,-0.00078830,0.00000016,-0.004088
 04,-0.00066919,0.00000033,-0.00119783,-0.00087119,-0.00000024,0.068270
 04,0.53123391,-0.00002710,0.00002314,-0.05994336,0.00000027,0.00000013
 ,-0.00025172,-0.00000515,0.00000129,-0.00406724,0.00000008,-0.00000109
 ,0.00024253,0.00000141,0.00000073,-0.00070877,-0.00000098,0.00000069,0
 .00032852,0.00000037,0.00000021,0.00159148,0.00000097,0.00000023,0.001
 69193,-0.00000371,0.00001361,0.56060411,0.00321683,0.00050309,0.000000
 20,-0.14974767,0.06092027,0.00000725,-0.00172299,-0.00071111,-0.000000
 05,-0.05014032,0.02849999,0.00000345,-0.00040735,0.00216366,-0.0000000
 5,-0.00091474,-0.00451355,-0.00000050,0.00017418,0.00184986,0.00000042
 ,0.00172084,-0.00065314,0.00000010,-0.00078512,0.00079575,-0.00000009,
 0.57074926,-0.00359205,-0.00065441,-0.00000022,0.09494176,-0.19046099,
 -0.00002036,0.00183983,0.00171320,0.00000013,0.00509514,0.01197711,0.0
 0000330,-0.00119785,-0.00087125,-0.00000037,-0.00408806,-0.00066915,-0
 .00000091,-0.00000682,-0.00078834,-0.00000031,-0.00823734,0.00162620,0
 .00000005,0.00079577,-0.00086030,0.00000010,0.06827091,0.53123240,-0.0
 0000031,-0.00000002,-0.00025173,0.00001566,-0.00002335,-0.05994348,0.0
 0000004,0.00000051,0.00024254,-0.00000179,0.00000511,-0.00406716,-0.00
 000067,-0.00000028,0.00169195,-0.00000105,-0.00000088,0.00159147,0.000
 00031,-0.00000025,0.00032851,-0.00000163,0.00000010,-0.00070880,0.0000
 0007,-0.00000011,-0.00004308,0.00001357,-0.00000308,0.56060545,-0.0009
 2380,0.00204256,0.00000012,-0.00139180,0.00144468,0.00000012,0.0112659
 4,-0.00655886,-0.00000029,-0.00372699,-0.00254333,-0.00000103,-0.16751
 712,0.13780129,0.00000812,-0.01471959,0.02514950,0.00000216,0.00014666
 ,-0.00247953,-0.00000071,-0.00065926,-0.00101569,-0.00000019,-0.002743
 05,-0.00244739,-0.00000090,-0.00010461,-0.00044365,-0.00000013,0.18279
 260,0.00022256,0.00161927,0.00000042,0.00012658,0.00027832,0.00000001,
 0.02203512,-0.01455808,-0.00000082,-0.00242525,0.00165394,-0.00000091,
 0.13735088,-0.23072996,-0.00001673,-0.00473275,0.00780895,0.00000034,-
 0.00304556,-0.00511908,-0.00000156,-0.00154765,-0.00014178,0.,0.000588
 89,-0.00100599,0.00000005,-0.00017239,0.00003356,0.,-0.14863278,0.2395
 1288,0.,0.00000068,-0.00268528,-0.00000005,0.00000008,0.00038321,0.000
 00277,-0.00000265,0.00353601,-0.00000112,-0.00000077,0.00730267,0.0000
 0812,-0.00001611,-0.03276402,-0.00000155,0.00000224,0.00232986,-0.0000
 0069,-0.00000148,0.00549230,-0.00000024,-0.00000006,-0.00080323,-0.000
 00022,-0.00000084,-0.00017919,-0.00000006,0.00000002,-0.00012907,-0.00
 000720,0.00001852,0.02362065,-0.00094521,-0.00167745,-0.00000039,0.001
 14136,-0.00102860,0.00000015,-0.00506341,0.00041481,-0.00000073,0.0111
 0878,0.01893237,0.00000276,-0.00521249,-0.02858277,-0.00000432,-0.0889
 9193,-0.09017603,-0.00001501,-0.00117483,0.00045772,0.00000008,-0.0023
 4204,0.00322945,-0.00000013,0.00050120,-0.00037972,0.00000015,-0.00017
 850,0.00005549,0.00000008,0.00070664,0.00021022,0.00000036,0.08994291,
 -0.00022524,-0.00019815,-0.00000015,-0.00122420,0.00135722,0.00000058,
 -0.00011899,0.00265519,-0.00000058,-0.01266703,-0.01769055,-0.00000385
 ,0.00038553,-0.00034437,-0.00000030,-0.08835670,-0.30806783,-0.0000407
 2,0.00124696,0.00067936,0.00000036,0.00403261,-0.00294686,-0.00000079,
 0.00012326,-0.00016088,0.00000007,0.00045687,0.00004839,0.00000007,-0.
 00035669,0.00064969,0.00000061,0.09752572,0.32479438,-0.00000006,-0.00
 000028,0.00033659,0.00000004,0.00000054,-0.00355875,-0.00000104,-0.000
 00053,0.00718017,-0.00000132,-0.00000162,0.00553308,-0.00000040,-0.000
 00224,0.00230482,-0.00001477,-0.00004074,-0.03426973,0.00000018,0.0000
 0029,-0.00127012,-0.00000002,-0.00000091,0.00517919,0.00000012,-0.0000
 0008,-0.00014594,0.00000017,0.00000007,-0.00058323,0.00000029,0.000000
 65,-0.00430905,0.00001683,0.00004480,0.02409785,0.00114134,-0.00102854
 ,0.00000034,-0.00094521,-0.00167745,-0.00000028,0.01110874,0.01893236,
 0.00000286,-0.00506339,0.00041484,-0.00000085,-0.00234205,0.00322945,-
 0.00000009,-0.00117483,0.00045772,0.00000004,-0.08899258,-0.09017696,-
 0.00001588,-0.00521245,-0.02858275,-0.00000419,-0.00017851,0.00005549,
 -0.00000012,0.00050120,-0.00037972,-0.00000005,0.00037648,0.00111135,0
 .00000018,0.00004037,-0.00005598,0.00000003,0.08994357,-0.00122421,0.0
 0135721,0.00000044,-0.00022524,-0.00019815,-0.00000009,-0.01266706,-0.
 01769064,-0.00000399,-0.00011898,0.00265520,-0.00000062,0.00403262,-0.
 00294689,-0.00000074,0.00124697,0.00067936,0.00000032,-0.08835753,-0.3
 0806738,-0.00004278,0.00038554,-0.00034429,-0.00000024,0.00045687,0.00
 004841,0.00000026,0.00012325,-0.00016088,-0.00000001,-0.00060626,-0.00
 096995,-0.00000012,-0.00005598,-0.00007457,0.00000002,0.09752656,0.324
 79396,0.00000049,0.00000044,-0.00355868,-0.00000016,-0.00000014,0.0003
 3658,-0.00000083,-0.00000204,0.00553306,-0.00000082,-0.00000074,0.0071
 8028,-0.00000001,-0.00000057,0.00517911,0.00000003,0.00000032,-0.00127
 013,-0.00001615,-0.00004261,-0.03426977,-0.00000036,-0.00000234,0.0023
 0488,-0.00000010,0.00000009,-0.00058323,0.00000005,-0.00000002,-0.0001
 4595,0.00000003,0.,-0.00020657,0.00000002,0.00000004,-0.00035454,0.000
 01754,0.00004693,0.02409785,-0.00139180,0.00144467,-0.00000021,-0.0009
 2386,0.00204261,0.00000047,-0.00372695,-0.00254333,-0.00000115,0.01126
 596,-0.00655878,-0.00000029,-0.00065926,-0.00101568,-0.00000014,0.0001
 4664,-0.00247952,-0.00000067,-0.01471953,0.02514944,0.00000206,-0.1675
 1791,0.13780139,0.00000691,-0.00010460,-0.00044365,0.00000017,-0.00274
 331,-0.00244755,-0.00000035,-0.00001197,0.00007877,0.00000004,0.000376
 48,-0.00060626,-0.00000007,0.00070665,-0.00035670,0.00000035,0.1827937
 0,0.00012658,0.00027833,-0.00000008,0.00022256,0.00161926,0.00000061,-
 0.00242525,0.00165393,-0.00000080,0.02203517,-0.01455810,-0.00000070,-
 0.00154765,-0.00014177,-0.00000007,-0.00304556,-0.00511912,-0.00000159
 ,-0.00473277,0.00780903,0.00000039,0.13735077,-0.23072882,-0.00001489,
 -0.00017239,0.00003356,0.00000002,0.00058888,-0.00100601,-0.00000010,0
 .00007877,-0.00003254,0.00000009,0.00111135,-0.00096995,-0.00000003,0.
 00021024,0.00064968,0.00000063,-0.14863271,0.23951168,-0.00000020,0.00
 000002,0.00038321,0.00000031,0.00000066,-0.00268523,-0.00000106,-0.000
 00080,0.00730277,0.00000341,-0.00000250,0.00353598,-0.00000030,0.00000
 006,-0.00080323,-0.00000064,-0.00000161,0.00549220,-0.00000172,0.00000
 238,0.00232990,0.00000657,-0.00001513,-0.03276406,0.00000014,-0.000000
 10,-0.00012907,-0.00000011,-0.00000012,-0.00017915,0.00000006,0.000000
 06,-0.00059526,0.00000019,-0.00000014,-0.00020657,0.00000040,0.0000006
 4,-0.00430912,-0.00000674,0.00001626,0.02362070,-0.00384964,0.02007340
 ,0.02018310,-0.00000203,0.00003687,0.00005734,0.00558808,0.00139727,0.
 00154185,0.00024084,-0.00117662,0.00001024,0.00061108,-0.00085075,0.00
 003542,-0.00107754,0.00024307,-0.00055982,-0.00164497,0.00058256,-0.00
 034654,0.00095954,0.00065931,-0.00032620,-0.05468937,-0.01998846,-0.02
 864006,-0.00001269,0.00003066,0.00003363,-0.00178353,-0.00059472,0.001
 67524,-0.00001107,0.00001776,0.00006792,0.00007364,-0.00010866,0.00012
 007,-0.00000063,0.00001799,0.00003676,0.05532240,0.00895985,-0.0204929
 7,-0.01779562,0.00071704,0.00009535,0.00000032,-0.00514943,-0.00056634
 ,0.00013366,-0.00035124,-0.00000864,-0.00011182,0.00029738,0.00036596,
 0.00035074,0.00024004,0.00001493,-0.00000227,0.00086630,-0.00027396,0.
 00020955,-0.00013280,0.00013472,0.00021917,-0.01669234,-0.12133830,-0.
 11043024,-0.00016281,0.00017684,-0.00000213,-0.00056806,0.00013948,0.0
 0041256,0.00006042,0.00003203,0.00001479,-0.00009169,0.00011753,-0.000
 15569,0.00005441,-0.00002039,-0.00002752,0.01276412,0.13668132,0.00469
 639,0.00088713,0.00887487,0.00027662,0.00014694,0.00001720,-0.00180984
 ,-0.00042060,0.00037919,-0.00019712,-0.00017086,-0.00006604,0.00023327
 ,-0.00127382,-0.00008613,-0.00005356,0.00049092,-0.00003162,0.00041319
 ,0.00008981,-0.00018167,-0.00008462,0.00015820,-0.00002345,-0.02472748
 ,-0.11300169,-0.22426931,-0.00006315,0.00004655,0.00000371,0.00038442,
 0.00073905,-0.00023993,0.00005339,-0.00000362,0.00001575,-0.00006229,0
 .00007586,-0.00000336,0.00002897,0.00000266,-0.00000170,0.02521279,0.1
 2456780,0.23389932,-0.03125010,-0.00377589,-0.00000576,-0.00046515,-0.
 00004225,-0.00000002,0.00126275,0.00410783,-0.00000133,0.00035174,0.00
 006613,-0.00000003,0.00028090,0.00043818,0.00000015,-0.00010637,-0.000
 06462,-0.00000008,-0.00111467,-0.00054044,-0.00000042,-0.00011724,0.00
 030829,0.00000021,-0.26029651,-0.11050658,-0.00005475,0.00011235,-0.00
 012562,-0.00000002,0.00018680,-0.00000074,0.00000021,-0.00004348,-0.00
 001396,0.,0.00000904,0.00003576,-0.00000004,-0.00011046,-0.00001478,0.
 00000002,-0.00060359,-0.00169460,0.00011013,0.29253449,0.03580333,0.00
 940903,0.00000788,-0.00003057,0.00007537,0.00000003,0.00245310,-0.0037
 8862,0.00000131,-0.00014759,0.00015512,0.00000006,-0.00028467,-0.00139
 310,-0.00000046,0.00017073,0.00050591,-0.00000003,0.00138776,0.0005578
 2,0.00000018,-0.00015054,-0.00044289,-0.00000021,-0.12436968,-0.108811
 91,-0.00002907,0.00001262,-0.00003083,0.,-0.00051022,0.00074062,0.0000
 0017,0.00005030,-0.00000980,-0.00000001,-0.00002436,-0.00002027,0.0000
 0006,0.00010448,0.00002218,0.,-0.01397394,-0.00628792,0.00202845,0.113
 48115,0.11559160,-0.00000803,-0.00000109,0.00004975,-0.00000006,0.0000
 0002,-0.00002173,0.00000076,0.00000076,0.00053550,0.00000009,-0.000000
 25,0.00000794,0.00000029,-0.00000004,0.00033914,-0.00000026,0.00000006
 ,0.00018499,-0.00000059,-0.00000005,0.00041833,0.00000018,0.00000026,-
 0.00015241,-0.00005482,-0.00002592,-0.04990675,0.00000001,-0.00000001,
 0.00000773,0.00000024,0.00000013,-0.00047252,-0.00000002,0.,0.00003632
 ,0.00000001,0.,0.00000520,-0.00000002,0.,-0.00003546,-0.02351533,-0.01
 173486,0.00154734,0.00006316,0.00002768,0.04590065,-0.00383964,0.02007
 483,-0.02018912,-0.00000177,0.00003700,-0.00005733,0.00558894,0.001396
 84,-0.00154147,0.00024080,-0.00117723,-0.00001064,0.00061146,-0.000850
 97,-0.00003506,-0.00107820,0.00024322,0.00055975,-0.00164493,0.0005830
 8,0.00034628,0.00095993,0.00065954,0.00032663,-0.05471623,-0.02004629,
 0.02872943,-0.00001275,0.00003074,-0.00003360,-0.00178176,-0.00059378,
 -0.00167577,-0.00001103,0.00001779,-0.00006791,0.00007359,-0.00010856,
 -0.00012010,-0.00000056,0.00001801,-0.00003673,0.00091119,0.00086063,-
 0.00440893,-0.00061434,-0.01397189,0.02351442,0.05534699,0.00895099,-0
 .02049547,0.01780286,0.00071697,0.00009531,-0.00000017,-0.00514942,-0.
 00056510,-0.00013572,-0.00035118,-0.00000852,0.00011173,0.00029720,0.0
 0036604,-0.00035021,0.00024006,0.00001472,0.00000211,0.00086611,-0.000
 27416,-0.00020966,-0.00013290,0.00013477,-0.00021907,-0.01674708,-0.12
 133462,0.11041990,-0.00016279,0.00017683,0.00000218,-0.00056760,0.0001
 3929,-0.00041296,0.00006041,0.00003204,-0.00001474,-0.00009168,0.00011
 742,0.00015564,0.00005437,-0.00002040,0.00002757,0.00086829,0.01130147
 ,-0.01434508,-0.00169978,-0.00628726,0.01173329,0.01282522,0.13667878,
 -0.00470219,-0.00087540,0.00886000,-0.00027673,-0.00014691,0.00001705,
 0.00181221,0.00042112,0.00037951,0.00019721,0.00017014,-0.00006590,-0.
 00023288,0.00127288,-0.00008565,0.00005285,-0.00049050,-0.00003136,-0.
 00041418,-0.00008946,-0.00018156,0.00008522,-0.00015786,-0.00002347,0.
 02481602,0.11299110,-0.22424607,0.00006316,-0.00004657,0.00000369,-0.0
 0038514,-0.00073922,-0.00024171,-0.00005339,0.00000362,0.00001572,0.00
 006232,-0.00007590,-0.00000340,-0.00002898,-0.00000264,-0.00000173,0.0
 0441984,0.01434547,-0.01983688,-0.00011145,-0.00203602,0.00156001,-0.0
 2530606,-0.12456154,0.23387904,-0.00000190,0.00003693,0.00005738,-0.00
 384544,0.02007107,0.02018914,0.00024084,-0.00117703,0.00001031,0.00558
 862,0.00139671,0.00154232,0.00095985,0.00065951,-0.00032627,-0.0016449
 7,0.00058296,-0.00034640,-0.00107793,0.00024325,-0.00055984,0.00061127
 ,-0.00085080,0.00003520,-0.00001273,0.00003071,0.00003360,-0.05470257,
 -0.02001206,-0.02868686,-0.00000059,0.00001800,0.00003674,0.00007360,-
 0.00010862,0.00012008,-0.00001105,0.00001777,0.00006791,-0.00178261,-0
 .00059450,0.00167539,-0.00002450,-0.00000012,-0.00000398,0.00000268,0.
 00000364,-0.00000317,-0.00000988,-0.00000169,0.00000089,0.05533489,0.0
 0071694,0.00009530,0.00000028,0.00895506,-0.02049264,-0.01780478,-0.00
 035115,-0.00000851,-0.00011176,-0.00514921,-0.00056549,0.00013435,-0.0
 0013288,0.00013469,0.00021911,0.00086610,-0.00027414,0.00020968,0.0002
 4007,0.00001473,-0.00000211,0.00029716,0.00036614,0.00035051,-0.000162
 79,0.00017682,-0.00000218,-0.01671471,-0.12130025,-0.11040829,0.000054
 38,-0.00002040,-0.00002755,-0.00009166,0.00011747,-0.00015565,0.000060
 41,0.00003203,0.00001477,-0.00056793,0.00013918,0.00041286,-0.00000011
 ,-0.00003462,-0.00000779,0.00002461,0.00000461,0.00000090,-0.00000170,
 -0.00004112,0.00001302,0.01278938,0.13664055,0.00027679,0.00014694,0.0
 0001713,0.00470047,0.00087641,0.00886457,-0.00019719,-0.00017051,-0.00
 006600,-0.00181173,-0.00042097,0.00037932,-0.00008494,0.00015808,-0.00
 002345,0.00041383,0.00008964,-0.00018154,-0.00005317,0.00049070,-0.000
 03142,0.00023315,-0.00127326,-0.00008591,-0.00006319,0.00004659,0.0000
 0370,-0.02477286,-0.11298004,-0.22429713,0.00002899,0.00000265,-0.0000
 0172,-0.00006232,0.00007590,-0.00000339,0.00005340,-0.00000362,0.00001
 575,0.00038465,0.00073918,-0.00024071,-0.00000397,-0.00000780,-0.00000
 307,0.00000271,0.00000311,-0.00000072,-0.00000090,-0.00001303,0.000006
 50,0.02525982,0.12454911,0.23393306,-0.00000189,0.00003695,-0.00005729
 ,-0.00384350,0.02007706,-0.02018288,0.00024080,-0.00117687,-0.00001056
 ,0.00558835,0.00139732,-0.00154102,0.00095965,0.00065937,0.00032656,-0
 .00164495,0.00058269,0.00034642,-0.00107785,0.00024307,0.00055973,0.00
 061122,-0.00085095,-0.00003536,-0.00001272,0.00003069,-0.00003363,-0.0
 5470347,-0.02002405,0.02868496,-0.00000060,0.00001801,-0.00003674,0.00
 007362,-0.00010859,-0.00012009,-0.00001104,0.00001779,-0.00006792,-0.0
 0178279,-0.00059397,-0.00167571,-0.00000987,-0.00000170,-0.00000090,0.
 00000267,0.00000364,0.00000316,-0.00002450,-0.00000012,0.00000396,0.00
 091117,0.00086515,-0.00441404,0.05533510,0.00071706,0.00009537,-0.0000
 0021,0.00895577,-0.02049675,0.01779434,-0.00035127,-0.00000865,0.00011
 180,-0.00514976,-0.00056597,-0.00013499,-0.00013283,0.00013480,-0.0002
 1914,0.00086634,-0.00027400,-0.00020953,0.00024003,0.00001493,0.000002
 26,0.00029735,0.00036587,-0.00035048,-0.00016282,0.00017684,0.00000213
 ,-0.01672600,-0.12137198,0.11044178,0.00005440,-0.00002040,0.00002754,
 -0.00009171,0.00011747,0.00015569,0.00006043,0.00003204,-0.00001476,-0
 .00056777,0.00013964,-0.00041268,-0.00000169,-0.00004112,-0.00001301,0
 .00002461,0.00000462,-0.00000089,-0.00000013,-0.00003462,0.00000780,0.
 00086391,0.01130144,-0.01433987,0.01280140,0.13671955,-0.00027655,-0.0
 0014692,0.00001712,-0.00469817,-0.00088579,0.00887016,0.00019712,0.000
 17051,-0.00006595,0.00181033,0.00042074,0.00037937,0.00008490,-0.00015
 800,-0.00002347,-0.00041355,-0.00008964,-0.00018169,0.00005327,-0.0004
 9075,-0.00003155,-0.00023298,0.00127348,-0.00008584,0.00006313,-0.0000
 4652,0.00000370,0.02477275,0.11301270,-0.22421942,-0.00002897,-0.00000
 265,-0.00000171,0.00006229,-0.00007587,-0.00000337,-0.00005338,0.00000
 363,0.00001573,-0.00038491,-0.00073911,-0.00024094,0.00000089,0.000013
 01,0.00000649,-0.00000269,-0.00000311,-0.00000072,0.00000397,0.0000077
 9,-0.00000307,0.00441497,0.01435060,-0.01983681,-0.02526133,-0.1245803
 8,0.23384640,-0.00046515,-0.00004226,-0.00000004,-0.03124987,-0.003775
 61,-0.00000186,0.00035174,0.00006613,0.00000002,0.00126275,0.00410781,
 0.00000118,-0.00011724,0.00030828,0.,-0.00111467,-0.00054043,-0.000000
 12,-0.00010637,-0.00006462,-0.00000001,0.00028091,0.00043818,0.0000000
 5,0.00011235,-0.00012562,0.00000002,-0.26029855,-0.11050553,-0.0000218
 7,-0.00011046,-0.00001478,-0.00000001,0.00000903,0.00003576,0.00000002
 ,-0.00004348,-0.00001396,-0.00000001,0.00018679,-0.00000073,0.,0.00000
 267,0.00002461,0.00000270,-0.00002151,-0.00000730,0.,0.00000268,0.0000
 2461,-0.00000270,-0.00060874,-0.00169713,0.00011051,-0.00060942,-0.001
 69732,-0.00011110,0.29253652,-0.00003057,0.00007538,-0.00000002,0.0358
 0369,0.00940875,0.00000248,-0.00014760,0.00015511,0.00000004,0.0024530
 8,-0.00378870,-0.00000089,-0.00015054,-0.00044290,-0.00000004,0.001387
 78,0.00055782,0.00000012,0.00017073,0.00050592,0.00000008,-0.00028470,
 -0.00139314,-0.00000020,0.00001262,-0.00003083,0.,-0.12436866,-0.10881
 012,-0.00001126,0.00010449,0.00002218,0.00000002,-0.00002436,-0.000020
 27,-0.00000003,0.00005029,-0.00000980,0.,-0.00051025,0.00074064,0.0000
 0010,0.00000364,0.00000462,0.00000312,-0.00000730,0.00000573,0.,0.0000
 0364,0.00000461,-0.00000311,-0.01396900,-0.00628580,0.00203078,-0.0139
 7689,-0.00628908,-0.00203372,0.11347989,0.11558988,-0.00000003,0.,-0.0
 0002173,0.00000530,0.00000146,0.00004976,-0.00000002,0.00000011,0.0000
 0794,0.00000023,-0.00000056,0.00053550,-0.00000007,-0.00000010,-0.0001
 5241,0.00000024,0.,0.00041833,0.00000009,0.00000003,0.00018499,-0.0000
 0012,-0.00000023,0.00033916,0.,-0.00000002,0.00000773,-0.00002424,-0.0
 0001092,-0.04990688,0.00000002,0.,-0.00003546,0.,0.,0.00000520,0.,0.,0
 .00003632,-0.00000010,0.00000016,-0.00047252,-0.00000316,0.00000090,-0
 .00000072,0.,0.,-0.00000260,0.00000317,-0.00000090,-0.00000072,-0.0235
 1723,-0.01173509,0.00155182,0.02351270,0.01173262,0.00155558,0.0000232
 4,0.00001252,0.04590070\\0.00013292,-0.00012841,0.00000210,-0.00013352
 ,0.00012833,0.00000102,-0.00013657,0.00001298,-0.00000055,0.00013678,-
 0.00001037,-0.00000108,0.00003654,0.00002278,0.00000099,-0.00000164,-0
 .00001113,-0.00000003,0.00000367,0.00001025,-0.00000048,-0.00003797,-0
 .00002419,-0.00000011,-0.00010049,0.00010305,-0.00000183,0.00010037,-0
 .00010395,-0.00000052,0.00002049,0.00001730,-0.00000005,-0.00004853,0.
 00002195,-0.00000008,0.00004833,-0.00002176,-0.00000011,-0.00001993,-0
 .00001722,0.00000020,-0.00000795,0.00002203,-0.00000790,0.00006016,0.0
 0000384,-0.00000022,-0.00000807,0.00002211,0.00000846,0.00000787,-0.00
 002186,0.00000834,0.00000786,-0.00002201,-0.00000810,-0.00006034,-0.00
 000375,-0.00000006\\\@


 TO ERR IS HUMAN - AND TO BLAME IT ON A COMPUTER IS EVEN MORE SO.
 Job cpu time:       0 days  2 hours 29 minutes 38.6 seconds.
 Elapsed time:       0 days  0 hours  9 minutes 24.2 seconds.
 File lengths (MBytes):  RWF=    156 Int=      0 D2E=      0 Chk=      8 Scr=      1
 Normal termination of Gaussian 16 at Fri Sep 19 16:37:05 2025.
