 Entering Gaussian System, Link 0=g16
 Input=DXYE0109.gjf
 Output=DXYE0109.log
 Initial command:
 /usr/local/g16/l1.exe "/dados_01/scratch/Gau-2070885.inp" -scrdir="/dados_01/scratch/"
 Entering Link 1 = /usr/local/g16/l1.exe PID=   2070886.
  
 Copyright (c) 1988-2017, Gaussian, Inc.  All Rights Reserved.
  
 This is part of the Gaussian(R) 16 program.  It is based on
 the Gaussian(R) 09 system (copyright 2009, Gaussian, Inc.),
 the Gaussian(R) 03 system (copyright 2003, Gaussian, Inc.),
 the Gaussian(R) 98 system (copyright 1998, Gaussian, Inc.),
 the Gaussian(R) 94 system (copyright 1995, Gaussian, Inc.),
 the Gaussian 92(TM) system (copyright 1992, Gaussian, Inc.),
 the Gaussian 90(TM) system (copyright 1990, Gaussian, Inc.),
 the Gaussian 88(TM) system (copyright 1988, Gaussian, Inc.),
 the Gaussian 86(TM) system (copyright 1986, Carnegie Mellon
 University), and the Gaussian 82(TM) system (copyright 1983,
 Carnegie Mellon University). Gaussian is a federally registered
 trademark of Gaussian, Inc.
  
 This software contains proprietary and confidential information,
 including trade secrets, belonging to Gaussian, Inc.
  
 This software is provided under written license and may be
 used, copied, transmitted, or stored only in accord with that
 written license.
  
 The following legend is applicable only to US Government
 contracts under FAR:
  
                    RESTRICTED RIGHTS LEGEND
  
 Use, reproduction and disclosure by the US Government is
 subject to restrictions as set forth in subparagraphs (a)
 and (c) of the Commercial Computer Software - Restricted
 Rights clause in FAR 52.227-19.
  
 Gaussian, Inc.
 340 Quinnipiac St., Bldg. 40, Wallingford CT 06492
  
  
 ---------------------------------------------------------------
 Warning -- This program may not be used in any manner that
 competes with the business of Gaussian, Inc. or will provide
 assistance to any competitor of Gaussian, Inc.  The licensee
 of this program is prohibited from giving any competitor of
 Gaussian, Inc. access to this program.  By using this program,
 the user acknowledges that Gaussian, Inc. is engaged in the
 business of creating and licensing software in the field of
 computational chemistry and represents and warrants to the
 licensee that it is not a competitor of Gaussian, Inc. and that
 it will not use this program in any manner prohibited above.
 ---------------------------------------------------------------
  

 Cite this work as:
 Gaussian 16, Revision B.01,
 M. J. Frisch, G. W. Trucks, H. B. Schlegel, G. E. Scuseria, 
 M. A. Robb, J. R. Cheeseman, G. Scalmani, V. Barone, 
 G. A. Petersson, H. Nakatsuji, X. Li, M. Caricato, A. V. Marenich, 
 J. Bloino, B. G. Janesko, R. Gomperts, B. Mennucci, H. P. Hratchian, 
 J. V. Ortiz, A. F. Izmaylov, J. L. Sonnenberg, D. Williams-Young, 
 F. Ding, F. Lipparini, F. Egidi, J. Goings, B. Peng, A. Petrone, 
 T. Henderson, D. Ranasinghe, V. G. Zakrzewski, J. Gao, N. Rega, 
 G. Zheng, W. Liang, M. Hada, M. Ehara, K. Toyota, R. Fukuda, 
 J. Hasegawa, M. Ishida, T. Nakajima, Y. Honda, O. Kitao, H. Nakai, 
 T. Vreven, K. Throssell, J. A. Montgomery, Jr., J. E. Peralta, 
 F. Ogliaro, M. J. Bearpark, J. J. Heyd, E. N. Brothers, K. N. Kudin, 
 V. N. Staroverov, T. A. Keith, R. Kobayashi, J. Normand, 
 K. Raghavachari, A. P. Rendell, J. C. Burant, S. S. Iyengar, 
 J. Tomasi, M. Cossi, J. M. Millam, M. Klene, C. Adamo, R. Cammi, 
 J. W. Ochterski, R. L. Martin, K. Morokuma, O. Farkas, 
 J. B. Foresman, and D. J. Fox, Gaussian, Inc., Wallingford CT, 2016.
 
 ******************************************
 Gaussian 16:  ES64L-G16RevB.01 20-Dec-2017
                19-Sep-2025 
 ******************************************
 %nprocs=16
 Will use up to   16 processors via shared memory.
 %mem=40GB
 %chk=DXYE0109.chk
 ----------------------------------------------------------------------
 # opt freq=noraman M08HX/6-311++G** scf=xqc Empiricaldispersion=pfd In
 t(Grid=ultraFine)
 ----------------------------------------------------------------------
 1/18=20,19=15,26=4,38=1/1,3;
 2/9=110,12=2,17=6,18=5,40=1/2;
 3/5=4,6=6,7=1111,11=2,25=1,30=1,71=1,74=-74,75=-5,124=11/1,2,3;
 4//1;
 5/5=2,8=3,13=1,38=5/2,8;
 6/7=2,8=2,9=2,10=2,28=1/1;
 7//1,2,3,16;
 1/18=20,19=15,26=4/3(2);
 2/9=110/2;
 99//99;
 2/9=110/2;
 3/5=4,6=6,7=1111,11=2,25=1,30=1,71=1,74=-74,75=-5,124=11/1,2,3;
 4/5=5,16=3,69=1/1;
 5/5=2,8=3,13=1,38=5/2,8;
 7//1,2,3,16;
 1/18=20,19=15,26=4/3(-5);
 2/9=110/2;
 6/7=2,8=2,9=2,10=2,19=2,28=1/1;
 99/9=1/99;
 --------
 DXYE0109
 --------
 Symbolic Z-matrix:
 Charge =  0 Multiplicity = 1
 O                     1.7936    0.292    -0.0104 
 O                    -1.7936   -0.292    -0.0105 
 C                     0.5936   -0.4718   -0.0001 
 C                    -0.5936    0.4719   -0.0001 
 C                     2.9426   -0.5435    0.0113 
 C                    -2.9426    0.5433    0.0114 
 C                     4.1832    0.324    -0.0008 
 C                    -4.1831   -0.324    -0.0008 
 H                     0.5536   -1.123    -0.8817 
 H                     0.5594   -1.1128    0.8892 
 H                    -0.5536    1.123    -0.8818 
 H                    -0.5595    1.1131    0.8891 
 H                     2.9343   -1.1619    0.9158 
 H                     2.9415   -1.1981   -0.8673 
 H                    -2.9343    1.1619    0.9159 
 H                    -2.9415    1.1981   -0.8672 
 H                     5.0889   -0.2886    0.0154 
 H                     4.2016    0.9581   -0.8933 
 H                     4.194     0.9937    0.8654 
 H                    -5.0888    0.2887    0.0154 
 H                    -4.2015   -0.9582   -0.8934 
 H                    -4.1941   -0.9938    0.8654 
 

 GradGradGradGradGradGradGradGradGradGradGradGradGradGradGradGradGradGrad
 Berny optimization.
 Initialization pass.
                           ----------------------------
                           !    Initial Parameters    !
                           ! (Angstroms and Degrees)  !
 --------------------------                            --------------------------
 ! Name  Definition              Value          Derivative Info.                !
 --------------------------------------------------------------------------------
 ! R1    R(1,3)                  1.4225         estimate D2E/DX2                !
 ! R2    R(1,5)                  1.4208         estimate D2E/DX2                !
 ! R3    R(2,4)                  1.4226         estimate D2E/DX2                !
 ! R4    R(2,6)                  1.4207         estimate D2E/DX2                !
 ! R5    R(3,4)                  1.5166         estimate D2E/DX2                !
 ! R6    R(3,9)                  1.0968         estimate D2E/DX2                !
 ! R7    R(3,10)                 1.0968         estimate D2E/DX2                !
 ! R8    R(4,11)                 1.0968         estimate D2E/DX2                !
 ! R9    R(4,12)                 1.0968         estimate D2E/DX2                !
 ! R10   R(5,7)                  1.5139         estimate D2E/DX2                !
 ! R11   R(5,13)                 1.0957         estimate D2E/DX2                !
 ! R12   R(5,14)                 1.0956         estimate D2E/DX2                !
 ! R13   R(6,8)                  1.5137         estimate D2E/DX2                !
 ! R14   R(6,15)                 1.0958         estimate D2E/DX2                !
 ! R15   R(6,16)                 1.0958         estimate D2E/DX2                !
 ! R16   R(7,17)                 1.0935         estimate D2E/DX2                !
 ! R17   R(7,18)                 1.095          estimate D2E/DX2                !
 ! R18   R(7,19)                 1.095          estimate D2E/DX2                !
 ! R19   R(8,20)                 1.0936         estimate D2E/DX2                !
 ! R20   R(8,21)                 1.0951         estimate D2E/DX2                !
 ! R21   R(8,22)                 1.095          estimate D2E/DX2                !
 ! A1    A(3,1,5)              111.4903         estimate D2E/DX2                !
 ! A2    A(4,2,6)              111.4932         estimate D2E/DX2                !
 ! A3    A(1,3,4)              109.0417         estimate D2E/DX2                !
 ! A4    A(1,3,9)              110.1059         estimate D2E/DX2                !
 ! A5    A(1,3,10)             110.2422         estimate D2E/DX2                !
 ! A6    A(4,3,9)              109.9326         estimate D2E/DX2                !
 ! A7    A(4,3,10)             109.832          estimate D2E/DX2                !
 ! A8    A(9,3,10)             107.675          estimate D2E/DX2                !
 ! A9    A(2,4,3)              109.0383         estimate D2E/DX2                !
 ! A10   A(2,4,11)             110.1007         estimate D2E/DX2                !
 ! A11   A(2,4,12)             110.248          estimate D2E/DX2                !
 ! A12   A(3,4,11)             109.9287         estimate D2E/DX2                !
 ! A13   A(3,4,12)             109.8426         estimate D2E/DX2                !
 ! A14   A(11,4,12)            107.6711         estimate D2E/DX2                !
 ! A15   A(1,5,7)              109.0032         estimate D2E/DX2                !
 ! A16   A(1,5,13)             109.7769         estimate D2E/DX2                !
 ! A17   A(1,5,14)             109.7714         estimate D2E/DX2                !
 ! A18   A(7,5,13)             109.6464         estimate D2E/DX2                !
 ! A19   A(7,5,14)             109.6806         estimate D2E/DX2                !
 ! A20   A(13,5,14)            108.9509         estimate D2E/DX2                !
 ! A21   A(2,6,8)              109.0136         estimate D2E/DX2                !
 ! A22   A(2,6,15)             109.7852         estimate D2E/DX2                !
 ! A23   A(2,6,16)             109.7654         estimate D2E/DX2                !
 ! A24   A(8,6,15)             109.652          estimate D2E/DX2                !
 ! A25   A(8,6,16)             109.6794         estimate D2E/DX2                !
 ! A26   A(15,6,16)            108.9339         estimate D2E/DX2                !
 ! A27   A(5,7,17)             110.9524         estimate D2E/DX2                !
 ! A28   A(5,7,18)             110.6176         estimate D2E/DX2                !
 ! A29   A(5,7,19)             110.6246         estimate D2E/DX2                !
 ! A30   A(17,7,18)            108.8182         estimate D2E/DX2                !
 ! A31   A(17,7,19)            108.8289         estimate D2E/DX2                !
 ! A32   A(18,7,19)            106.8846         estimate D2E/DX2                !
 ! A33   A(6,8,20)             110.952          estimate D2E/DX2                !
 ! A34   A(6,8,21)             110.6195         estimate D2E/DX2                !
 ! A35   A(6,8,22)             110.6303         estimate D2E/DX2                !
 ! A36   A(20,8,21)            108.8211         estimate D2E/DX2                !
 ! A37   A(20,8,22)            108.8241         estimate D2E/DX2                !
 ! A38   A(21,8,22)            106.879          estimate D2E/DX2                !
 ! D1    D(5,1,3,4)            179.0393         estimate D2E/DX2                !
 ! D2    D(5,1,3,9)            -60.2704         estimate D2E/DX2                !
 ! D3    D(5,1,3,10)            58.3886         estimate D2E/DX2                !
 ! D4    D(3,1,5,7)           -179.9953         estimate D2E/DX2                !
 ! D5    D(3,1,5,13)           -59.8819         estimate D2E/DX2                !
 ! D6    D(3,1,5,14)            59.8526         estimate D2E/DX2                !
 ! D7    D(6,2,4,3)            179.0303         estimate D2E/DX2                !
 ! D8    D(6,2,4,11)           -60.2895         estimate D2E/DX2                !
 ! D9    D(6,2,4,12)            58.365          estimate D2E/DX2                !
 ! D10   D(4,2,6,8)           -179.9948         estimate D2E/DX2                !
 ! D11   D(4,2,6,15)           -59.8631         estimate D2E/DX2                !
 ! D12   D(4,2,6,16)            59.8519         estimate D2E/DX2                !
 ! D13   D(1,3,4,2)            179.118          estimate D2E/DX2                !
 ! D14   D(1,3,4,11)            58.3324         estimate D2E/DX2                !
 ! D15   D(1,3,4,12)           -59.9685         estimate D2E/DX2                !
 ! D16   D(9,3,4,2)             58.3216         estimate D2E/DX2                !
 ! D17   D(9,3,4,11)           -62.464          estimate D2E/DX2                !
 ! D18   D(9,3,4,12)           179.235          estimate D2E/DX2                !
 ! D19   D(10,3,4,2)           -59.9801         estimate D2E/DX2                !
 ! D20   D(10,3,4,11)          179.2343         estimate D2E/DX2                !
 ! D21   D(10,3,4,12)           60.9334         estimate D2E/DX2                !
 ! D22   D(1,5,7,17)           179.999          estimate D2E/DX2                !
 ! D23   D(1,5,7,18)           -59.1302         estimate D2E/DX2                !
 ! D24   D(1,5,7,19)            59.1101         estimate D2E/DX2                !
 ! D25   D(13,5,7,17)           59.8051         estimate D2E/DX2                !
 ! D26   D(13,5,7,18)         -179.3241         estimate D2E/DX2                !
 ! D27   D(13,5,7,19)          -61.0838         estimate D2E/DX2                !
 ! D28   D(14,5,7,17)          -59.793          estimate D2E/DX2                !
 ! D29   D(14,5,7,18)           61.0778         estimate D2E/DX2                !
 ! D30   D(14,5,7,19)          179.3181         estimate D2E/DX2                !
 ! D31   D(2,6,8,20)          -179.9924         estimate D2E/DX2                !
 ! D32   D(2,6,8,21)           -59.1169         estimate D2E/DX2                !
 ! D33   D(2,6,8,22)            59.1212         estimate D2E/DX2                !
 ! D34   D(15,6,8,20)           59.7938         estimate D2E/DX2                !
 ! D35   D(15,6,8,21)         -179.3308         estimate D2E/DX2                !
 ! D36   D(15,6,8,22)          -61.0927         estimate D2E/DX2                !
 ! D37   D(16,6,8,20)          -59.7861         estimate D2E/DX2                !
 ! D38   D(16,6,8,21)           61.0894         estimate D2E/DX2                !
 ! D39   D(16,6,8,22)          179.3275         estimate D2E/DX2                !
 --------------------------------------------------------------------------------
 Trust Radius=3.00D-01 FncErr=1.00D-07 GrdErr=1.00D-06 EigMax=2.50D+02 EigMin=1.00D-04
 Number of steps in this run=    108 maximum allowed number of steps=    132.
 GradGradGradGradGradGradGradGradGradGradGradGradGradGradGradGradGradGrad

                          Input orientation:                          
 ---------------------------------------------------------------------
 Center     Atomic      Atomic             Coordinates (Angstroms)
 Number     Number       Type             X           Y           Z
 ---------------------------------------------------------------------
      1          8           0        1.793600    0.292000   -0.010400
      2          8           0       -1.793600   -0.292000   -0.010500
      3          6           0        0.593600   -0.471800   -0.000100
      4          6           0       -0.593600    0.471900   -0.000100
      5          6           0        2.942600   -0.543500    0.011300
      6          6           0       -2.942600    0.543300    0.011400
      7          6           0        4.183200    0.324000   -0.000800
      8          6           0       -4.183100   -0.324000   -0.000800
      9          1           0        0.553600   -1.123000   -0.881700
     10          1           0        0.559400   -1.112800    0.889200
     11          1           0       -0.553600    1.123000   -0.881800
     12          1           0       -0.559500    1.113100    0.889100
     13          1           0        2.934300   -1.161900    0.915800
     14          1           0        2.941500   -1.198100   -0.867300
     15          1           0       -2.934300    1.161900    0.915900
     16          1           0       -2.941500    1.198100   -0.867200
     17          1           0        5.088900   -0.288600    0.015400
     18          1           0        4.201600    0.958100   -0.893300
     19          1           0        4.194000    0.993700    0.865400
     20          1           0       -5.088800    0.288700    0.015400
     21          1           0       -4.201500   -0.958200   -0.893400
     22          1           0       -4.194100   -0.993800    0.865400
 ---------------------------------------------------------------------
                    Distance matrix (angstroms):
                    1          2          3          4          5
     1  O    0.000000
     2  O    3.634427   0.000000
     3  C    1.422497   2.393984   0.000000
     4  C    2.393991   1.422551   1.516580   0.000000
     5  C    1.420821   4.742923   2.350122   3.679114   0.000000
     6  C    4.742912   1.420706   3.679031   2.350113   5.984707
     7  C    2.389834   6.008468   3.676755   4.779089   1.513866
     8  C    6.008368   2.389734   4.778986   3.676679   7.129090
     9  H    2.073400   2.637972   1.096759   2.153368   2.615452
    10  H    2.075089   2.649487   1.096770   2.152101   2.602778
    11  H    2.638038   2.073400   2.153335   1.096780   3.974703
    12  H    2.649601   2.075232   2.152260   1.096803   3.972350
    13  H    2.067092   4.895692   2.606528   3.994278   1.095722
    14  H    2.066966   4.896560   2.606181   4.004731   1.095646
    15  H    4.895692   2.067181   3.994260   2.606536   6.185842
    16  H    4.896560   2.066883   4.004667   2.606120   6.198997
    17  H    3.346157   6.882550   4.499058   5.733185   2.161387
    18  H    2.649843   6.187448   3.982472   4.901851   2.158283
    19  H    2.649779   6.186403   3.982419   4.893105   2.158350
    20  H    6.882449   3.346076   5.733086   4.498958   8.074402
    21  H    6.187400   2.649777   4.901791   3.982476   7.213087
    22  H    6.186506   2.649929   4.893224   3.982583   7.201718
                    6          7          8          9         10
     6  C    0.000000
     7  C    7.129184   0.000000
     8  C    1.513670   8.391357   0.000000
     9  H    3.974619   4.005470   4.883719   0.000000
    10  H    3.972053   3.998552   4.889337   1.770939   0.000000
    11  H    2.615565   4.883834   4.005401   2.504078   3.061701
    12  H    2.602728   4.889561   3.998457   3.061841   2.491298
    13  H    6.185758   2.146580   7.224930   2.983329   2.375556
    14  H    6.198969   2.146958   7.230131   2.389124   2.960907
    15  H    1.095835   7.225041   2.146564   4.540659   4.169042
    16  H    1.095766   7.230218   2.146860   4.195645   4.547692
    17  H    8.074470   1.093542   9.272082   4.697867   4.686065
    18  H    7.213192   1.094978   8.528982   4.199883   4.553192
    19  H    7.201613   1.094951   8.524227   4.559089   4.200979
    20  H    2.161252   9.272081   1.093598   5.885097   5.884717
    21  H    2.158239   8.529007   1.095118   4.757969   5.086033
    22  H    2.158297   8.524439   1.095014   5.060603   4.755049
                   11         12         13         14         15
    11  H    0.000000
    12  H    1.770938   0.000000
    13  H    4.540659   4.169290   0.000000
    14  H    4.195645   4.547921   1.783482   0.000000
    15  H    2.983450   2.375453   6.311934   6.578330   0.000000
    16  H    2.389125   2.960699   6.578276   6.352280   1.783482
    17  H    5.885184   5.884942   2.493125   2.493527   8.202840
    18  H    4.758072   5.086162   3.061583   2.497544   7.364496
    19  H    5.060547   4.755058   2.497198   3.061861   7.130463
    20  H    4.697772   4.685888   8.202749   8.214344   2.493040
    21  H    4.199846   4.553214   7.364397   7.147075   3.061729
    22  H    4.559253   4.201179   7.130560   7.345800   2.497336
                   16         17         18         19         20
    16  H    0.000000
    17  H    8.214413   0.000000
    18  H    7.147178   1.779690   0.000000
    19  H    7.345682   1.779786   1.759077   0.000000
    20  H    2.493369  10.194060   9.358705   9.348257   0.000000
    21  H    2.497582   9.358729   8.618834   8.797029   1.779882
    22  H    3.061917   9.348470   8.797199   8.620347   1.779830
                   21         22
    21  H    0.000000
    22  H    1.759176   0.000000
 Stoichiometry    C6H14O2
 Framework group  C1[X(C6H14O2)]
 Deg. of freedom    60
 Full point group                 C1      NOp   1
 Largest Abelian subgroup         C1      NOp   1
 Largest concise Abelian subgroup C1      NOp   1
                         Standard orientation:                         
 ---------------------------------------------------------------------
 Center     Atomic      Atomic             Coordinates (Angstroms)
 Number     Number       Type             X           Y           Z
 ---------------------------------------------------------------------
      1          8           0        1.793118    0.294894   -0.011083
      2          8           0       -1.793137   -0.294881   -0.011183
      3          6           0        0.594350   -0.470838   -0.000783
      4          6           0       -0.594368    0.470950   -0.000783
      5          6           0        2.943462   -0.538755    0.010617
      6          6           0       -2.943480    0.538567    0.010717
      7          6           0        4.182664    0.330741   -0.001483
      8          6           0       -4.182582   -0.330729   -0.001483
      9          1           0        0.555398   -1.122101   -0.882383
     10          1           0        0.561182   -1.111892    0.888517
     11          1           0       -0.555417    1.122113   -0.882483
     12          1           0       -0.561301    1.112204    0.888417
     13          1           0        2.936158   -1.157168    0.915117
     14          1           0        2.943416   -1.193356   -0.867983
     15          1           0       -2.936176    1.157180    0.915217
     16          1           0       -2.943434    1.193368   -0.867883
     17          1           0        5.089349   -0.280400    0.014717
     18          1           0        4.200043    0.964870   -0.893983
     19          1           0        4.192385    1.000458    0.864717
     20          1           0       -5.089267    0.280512    0.014717
     21          1           0       -4.199961   -0.964958   -0.894083
     22          1           0       -4.192504   -1.000546    0.864717
 ---------------------------------------------------------------------
 Rotational constants (GHZ):          12.0816740           0.5566305           0.5429686
 Standard basis: 6-311++G(d,p) (5D, 7F)
 There are   282 symmetry adapted cartesian basis functions of A   symmetry.
 There are   274 symmetry adapted basis functions of A   symmetry.
   274 basis functions,   414 primitive gaussians,   282 cartesian basis functions
    33 alpha electrons       33 beta electrons
       nuclear repulsion energy       387.9453344981 Hartrees.
 NAtoms=   22 NActive=   22 NUniq=   22 SFac= 1.00D+00 NAtFMM=   60 NAOKFM=F Big=F
 Integral buffers will be    131072 words long.
 Raffenetti 2 integral format.
 Two-electron integral symmetry is turned on.
 R6APFD:  NTU= -4 IXU= 1 FactS= 1.050
 Nuclear repulsion after empirical dispersion term =      387.9352301752 Hartrees.
 One-electron integrals computed using PRISM.
 NBasis=   274 RedAO= T EigKep=  1.08D-05  NBF=   274
 NBsUse=   274 1.00D-06 EigRej= -1.00D+00 NBFU=   274
 ExpMin= 3.60D-02 ExpMax= 8.59D+03 ExpMxC= 1.30D+03 IAcc=3 IRadAn=         5 AccDes= 0.00D+00
 Harris functional with IExCor= 1009 and IRadAn=       5 diagonalized for initial guess.
 HarFok:  IExCor= 1009 AccDes= 0.00D+00 IRadAn=         5 IDoV= 1 UseB2=F ITyADJ=14
 ICtDFT=  3500011 ScaDFX=  1.000000  1.000000  1.000000  1.000000
 FoFCou: FMM=F IPFlag=           0 FMFlag=      100000 FMFlg1=           0
         NFxFlg=           0 DoJE=T BraDBF=F KetDBF=T FulRan=T
         wScrn=  0.000000 ICntrl=       500 IOpCl=  0 I1Cent=   200000004 NGrid=           0
         NMat0=    1 NMatS0=      1 NMatT0=    0 NMatD0=    1 NMtDS0=    0 NMtDT0=    0
 Petite list used in FoFCou.
 Requested convergence on RMS density matrix=1.00D-08 within  32 cycles.
 Requested convergence on MAX density matrix=1.00D-06.
 Requested convergence on             energy=1.00D-06.
 No special actions if energy rises.
 SCF Done:  E(RM08HX) =  -387.489983942     A.U. after   12 cycles
            NFock= 12  Conv=0.26D-08     -V/T= 2.0048
 QCSCF skips out because SCF is already converged.

 **********************************************************************

            Population analysis using the SCF Density.

 **********************************************************************

 Orbital symmetries:
       Occupied  (A) (A) (A) (A) (A) (A) (A) (A) (A) (A) (A) (A)
                 (A) (A) (A) (A) (A) (A) (A) (A) (A) (A) (A) (A)
                 (A) (A) (A) (A) (A) (A) (A) (A) (A)
       Virtual   (A) (A) (A) (A) (A) (A) (A) (A) (A) (A) (A) (A)
                 (A) (A) (A) (A) (A) (A) (A) (A) (A) (A) (A) (A)
                 (A) (A) (A) (A) (A) (A) (A) (A) (A) (A) (A) (A)
                 (A) (A) (A) (A) (A) (A) (A) (A) (A) (A) (A) (A)
                 (A) (A) (A) (A) (A) (A) (A) (A) (A) (A) (A) (A)
                 (A) (A) (A) (A) (A) (A) (A) (A) (A) (A) (A) (A)
                 (A) (A) (A) (A) (A) (A) (A) (A) (A) (A) (A) (A)
                 (A) (A) (A) (A) (A) (A) (A) (A) (A) (A) (A) (A)
                 (A) (A) (A) (A) (A) (A) (A) (A) (A) (A) (A) (A)
                 (A) (A) (A) (A) (A) (A) (A) (A) (A) (A) (A) (A)
                 (A) (A) (A) (A) (A) (A) (A) (A) (A) (A) (A) (A)
                 (A) (A) (A) (A) (A) (A) (A) (A) (A) (A) (A) (A)
                 (A) (A) (A) (A) (A) (A) (A) (A) (A) (A) (A) (A)
                 (A) (A) (A) (A) (A) (A) (A) (A) (A) (A) (A) (A)
                 (A) (A) (A) (A) (A) (A) (A) (A) (A) (A) (A) (A)
                 (A) (A) (A) (A) (A) (A) (A) (A) (A) (A) (A) (A)
                 (A) (A) (A) (A) (A) (A) (A) (A) (A) (A) (A) (A)
                 (A) (A) (A) (A) (A) (A) (A) (A) (A) (A) (A) (A)
                 (A) (A) (A) (A) (A) (A) (A) (A) (A) (A) (A) (A)
                 (A) (A) (A) (A) (A) (A) (A) (A) (A) (A) (A) (A)
                 (A)
 The electronic state is 1-A.
 Alpha  occ. eigenvalues --  -19.61393 -19.61393 -10.57527 -10.57527 -10.57400
 Alpha  occ. eigenvalues --  -10.57358 -10.51690 -10.51689  -1.16147  -1.15166
 Alpha  occ. eigenvalues --   -0.89093  -0.85900  -0.80796  -0.71275  -0.69849
 Alpha  occ. eigenvalues --   -0.69495  -0.58500  -0.58429  -0.55795  -0.54620
 Alpha  occ. eigenvalues --   -0.53026  -0.51691  -0.47364  -0.46563  -0.45573
 Alpha  occ. eigenvalues --   -0.44883  -0.42453  -0.41517  -0.40760  -0.39839
 Alpha  occ. eigenvalues --   -0.39144  -0.33741  -0.33425
 Alpha virt. eigenvalues --   -0.02657  -0.01963  -0.01088  -0.00867  -0.00204
 Alpha virt. eigenvalues --    0.00415   0.00656   0.02096   0.02718   0.02738
 Alpha virt. eigenvalues --    0.03371   0.03861   0.04195   0.04642   0.05708
 Alpha virt. eigenvalues --    0.06910   0.07074   0.07366   0.08245   0.08935
 Alpha virt. eigenvalues --    0.09949   0.10722   0.11289   0.11478   0.12176
 Alpha virt. eigenvalues --    0.12249   0.12732   0.12912   0.13639   0.14258
 Alpha virt. eigenvalues --    0.14628   0.15732   0.16635   0.17078   0.17359
 Alpha virt. eigenvalues --    0.18171   0.18446   0.18945   0.19443   0.20296
 Alpha virt. eigenvalues --    0.20488   0.21523   0.22173   0.23009   0.23080
 Alpha virt. eigenvalues --    0.24157   0.25019   0.25184   0.25255   0.26161
 Alpha virt. eigenvalues --    0.28113   0.28617   0.29500   0.29731   0.29806
 Alpha virt. eigenvalues --    0.30452   0.31531   0.33607   0.34026   0.34190
 Alpha virt. eigenvalues --    0.36365   0.36845   0.37409   0.40288   0.40414
 Alpha virt. eigenvalues --    0.44063   0.45165   0.46242   0.46266   0.48576
 Alpha virt. eigenvalues --    0.49318   0.49700   0.50139   0.54012   0.54800
 Alpha virt. eigenvalues --    0.59049   0.59574   0.61176   0.63503   0.64076
 Alpha virt. eigenvalues --    0.67554   0.67734   0.67836   0.68643   0.68939
 Alpha virt. eigenvalues --    0.69250   0.70070   0.70421   0.70532   0.70837
 Alpha virt. eigenvalues --    0.71198   0.71570   0.71769   0.75637   0.75935
 Alpha virt. eigenvalues --    0.76507   0.78027   0.81369   0.82015   0.90038
 Alpha virt. eigenvalues --    0.91539   0.99657   1.00956   1.04663   1.05394
 Alpha virt. eigenvalues --    1.05945   1.07515   1.09353   1.09428   1.11049
 Alpha virt. eigenvalues --    1.18424   1.23515   1.23670   1.27661   1.29479
 Alpha virt. eigenvalues --    1.29820   1.30463   1.31044   1.31066   1.40493
 Alpha virt. eigenvalues --    1.48014   1.49568   1.49616   1.55385   1.55629
 Alpha virt. eigenvalues --    1.55935   1.57703   1.57888   1.58487   1.59730
 Alpha virt. eigenvalues --    1.61161   1.62441   1.63095   1.63367   1.64336
 Alpha virt. eigenvalues --    1.65621   1.65981   1.67151   1.68696   1.70019
 Alpha virt. eigenvalues --    1.70165   1.72034   1.74201   1.74662   1.77474
 Alpha virt. eigenvalues --    1.78399   1.83280   1.83856   1.84196   1.84643
 Alpha virt. eigenvalues --    1.86917   1.87419   1.90915   2.00378   2.02576
 Alpha virt. eigenvalues --    2.02659   2.04168   2.05567   2.12712   2.14888
 Alpha virt. eigenvalues --    2.18584   2.19113   2.20010   2.23597   2.24356
 Alpha virt. eigenvalues --    2.30089   2.30439   2.30508   2.34880   2.39008
 Alpha virt. eigenvalues --    2.39388   2.45819   2.45894   2.48946   2.49340
 Alpha virt. eigenvalues --    2.50823   2.50903   2.51783   2.51899   2.55728
 Alpha virt. eigenvalues --    2.56026   2.56459   2.59408   2.61469   2.61812
 Alpha virt. eigenvalues --    2.62380   2.63960   2.65187   2.66437   2.67040
 Alpha virt. eigenvalues --    2.67143   2.68170   2.69908   2.79268   2.79618
 Alpha virt. eigenvalues --    2.84969   2.86930   2.91298   2.94488   2.99104
 Alpha virt. eigenvalues --    3.02013   3.02644   3.10613   3.16187   3.20430
 Alpha virt. eigenvalues --    3.24361   3.26503   3.27150   3.33032   3.38022
 Alpha virt. eigenvalues --    3.39488   3.46317   3.81677   3.81744   3.82054
 Alpha virt. eigenvalues --    3.85208   3.85223   3.85963   3.87193   3.88664
 Alpha virt. eigenvalues --    4.04367   4.07282   4.16711   4.19801   4.28239
 Alpha virt. eigenvalues --    4.33241   4.38811   5.21079   5.22543   5.49336
 Alpha virt. eigenvalues --    5.55070   5.77418   5.84908  23.91299  23.92360
 Alpha virt. eigenvalues --   23.92674  23.94389  24.03677  24.04073  49.94611
 Alpha virt. eigenvalues --   49.96621
          Condensed to atoms (all electrons):
               1          2          3          4          5          6
     1  O    8.194906   0.020024  -0.131565   0.073265   0.149098   0.021286
     2  O    0.020024   8.194915   0.073376  -0.131655   0.021282   0.149060
     3  C   -0.131565   0.073376   8.019297  -1.781065  -0.287540  -0.075374
     4  C    0.073265  -0.131655  -1.781065   8.019658  -0.075498  -0.287639
     5  C    0.149098   0.021282  -0.287540  -0.075498   5.700720   0.001257
     6  C    0.021286   0.149060  -0.075374  -0.287639   0.001257   5.700828
     7  C   -0.091640   0.003364   0.060664  -0.150777  -0.035793   0.003572
     8  C    0.003366  -0.091641  -0.150850   0.060620   0.003572  -0.036032
     9  H   -0.054178   0.004883   0.367353  -0.032340  -0.010542   0.002231
    10  H   -0.053557   0.004403   0.367253  -0.034196  -0.006710   0.000647
    11  H    0.004896  -0.054169  -0.032410   0.367362   0.002245  -0.010511
    12  H    0.004396  -0.053541  -0.034094   0.367210   0.000646  -0.006738
    13  H   -0.061691   0.000463  -0.014041   0.009359   0.427923  -0.000460
    14  H   -0.061612   0.000506  -0.008290   0.005903   0.426441  -0.000368
    15  H    0.000463  -0.061687   0.009381  -0.014080  -0.000460   0.427918
    16  H    0.000506  -0.061651   0.005865  -0.008235  -0.000369   0.426493
    17  H    0.024558   0.000040  -0.008322   0.001865  -0.064198   0.000218
    18  H   -0.010605  -0.000038  -0.000916   0.004194  -0.029029  -0.000156
    19  H   -0.010762  -0.000042   0.000260   0.003334  -0.030115  -0.000167
    20  H    0.000040   0.024562   0.001866  -0.008323   0.000218  -0.064236
    21  H   -0.000037  -0.010604   0.004195  -0.000913  -0.000155  -0.029004
    22  H   -0.000042  -0.010763   0.003330   0.000270  -0.000168  -0.030116
               7          8          9         10         11         12
     1  O   -0.091640   0.003366  -0.054178  -0.053557   0.004896   0.004396
     2  O    0.003364  -0.091641   0.004883   0.004403  -0.054169  -0.053541
     3  C    0.060664  -0.150850   0.367353   0.367253  -0.032410  -0.034094
     4  C   -0.150777   0.060620  -0.032340  -0.034196   0.367362   0.367210
     5  C   -0.035793   0.003572  -0.010542  -0.006710   0.002245   0.000646
     6  C    0.003572  -0.036032   0.002231   0.000647  -0.010511  -0.006738
     7  C    5.928537  -0.000318   0.001707   0.000787   0.000456   0.001314
     8  C   -0.000318   5.929075   0.000453   0.001318   0.001714   0.000777
     9  H    0.001707   0.000453   0.613609  -0.109269  -0.034750   0.025770
    10  H    0.000787   0.001318  -0.109269   0.614782   0.025776  -0.034641
    11  H    0.000456   0.001714  -0.034750   0.025776   0.613559  -0.109253
    12  H    0.001314   0.000777   0.025770  -0.034641  -0.109253   0.614747
    13  H   -0.057074   0.000070  -0.010744   0.019129  -0.000126  -0.000258
    14  H   -0.056495   0.000019   0.018147  -0.011100   0.000058  -0.000136
    15  H    0.000071  -0.057073  -0.000127  -0.000257  -0.010736   0.019133
    16  H    0.000019  -0.056520   0.000062  -0.000137   0.018131  -0.011101
    17  H    0.423261   0.000029   0.000815   0.000827   0.000093   0.000077
    18  H    0.388615  -0.000002  -0.000661   0.000405  -0.001500   0.000657
    19  H    0.389376  -0.000004   0.000345  -0.000615   0.000683  -0.001487
    20  H    0.000029   0.423283   0.000092   0.000077   0.000816   0.000827
    21  H   -0.000002   0.388592  -0.001501   0.000657  -0.000661   0.000405
    22  H   -0.000004   0.389361   0.000684  -0.001488   0.000344  -0.000615
              13         14         15         16         17         18
     1  O   -0.061691  -0.061612   0.000463   0.000506   0.024558  -0.010605
     2  O    0.000463   0.000506  -0.061687  -0.061651   0.000040  -0.000038
     3  C   -0.014041  -0.008290   0.009381   0.005865  -0.008322  -0.000916
     4  C    0.009359   0.005903  -0.014080  -0.008235   0.001865   0.004194
     5  C    0.427923   0.426441  -0.000460  -0.000369  -0.064198  -0.029029
     6  C   -0.000460  -0.000368   0.427918   0.426493   0.000218  -0.000156
     7  C   -0.057074  -0.056495   0.000071   0.000019   0.423261   0.388615
     8  C    0.000070   0.000019  -0.057073  -0.056520   0.000029  -0.000002
     9  H   -0.010744   0.018147  -0.000127   0.000062   0.000815  -0.000661
    10  H    0.019129  -0.011100  -0.000257  -0.000137   0.000827   0.000405
    11  H   -0.000126   0.000058  -0.010736   0.018131   0.000093  -0.001500
    12  H   -0.000258  -0.000136   0.019133  -0.011101   0.000077   0.000657
    13  H    0.611458  -0.097218   0.000416  -0.000279  -0.006001   0.013104
    14  H   -0.097218   0.611511  -0.000279   0.000386  -0.006082  -0.018112
    15  H    0.000416  -0.000279   0.611554  -0.097266  -0.000002   0.000035
    16  H   -0.000279   0.000386  -0.097266   0.611588  -0.000002  -0.000029
    17  H   -0.006001  -0.006082  -0.000002  -0.000002   0.521185  -0.036654
    18  H    0.013104  -0.018112   0.000035  -0.000029  -0.036654   0.527906
    19  H   -0.018226   0.013168  -0.000032   0.000036  -0.036825  -0.049873
    20  H   -0.000002  -0.000002  -0.006005  -0.006086   0.000001  -0.000001
    21  H    0.000035  -0.000029   0.013111  -0.018125  -0.000001   0.000007
    22  H   -0.000032   0.000036  -0.018239   0.013176  -0.000001  -0.000004
              19         20         21         22
     1  O   -0.010762   0.000040  -0.000037  -0.000042
     2  O   -0.000042   0.024562  -0.010604  -0.010763
     3  C    0.000260   0.001866   0.004195   0.003330
     4  C    0.003334  -0.008323  -0.000913   0.000270
     5  C   -0.030115   0.000218  -0.000155  -0.000168
     6  C   -0.000167  -0.064236  -0.029004  -0.030116
     7  C    0.389376   0.000029  -0.000002  -0.000004
     8  C   -0.000004   0.423283   0.388592   0.389361
     9  H    0.000345   0.000092  -0.001501   0.000684
    10  H   -0.000615   0.000077   0.000657  -0.001488
    11  H    0.000683   0.000816  -0.000661   0.000344
    12  H   -0.001487   0.000827   0.000405  -0.000615
    13  H   -0.018226  -0.000002   0.000035  -0.000032
    14  H    0.013168  -0.000002  -0.000029   0.000036
    15  H   -0.000032  -0.006005   0.013111  -0.018239
    16  H    0.000036  -0.006086  -0.018125   0.013176
    17  H   -0.036825   0.000001  -0.000001  -0.000001
    18  H   -0.049873  -0.000001   0.000007  -0.000004
    19  H    0.528362  -0.000001  -0.000004   0.000006
    20  H   -0.000001   0.521190  -0.036641  -0.036828
    21  H   -0.000004  -0.036641   0.527941  -0.049893
    22  H    0.000006  -0.036828  -0.049893   0.528400
 Mulliken charges:
               1
     1  O   -0.021114
     2  O   -0.021089
     3  C   -0.388373
     4  C   -0.388320
     5  C   -0.192823
     6  C   -0.192710
     7  C   -0.809670
     8  C   -0.809811
     9  H    0.217960
    10  H    0.215911
    11  H    0.217983
    12  H    0.215906
    13  H    0.184196
    14  H    0.183548
    15  H    0.184163
    16  H    0.183539
    17  H    0.185119
    18  H    0.212658
    19  H    0.212584
    20  H    0.185124
    21  H    0.212629
    22  H    0.212587
 Sum of Mulliken charges =  -0.00000
 Mulliken charges with hydrogens summed into heavy atoms:
               1
     1  O   -0.021114
     2  O   -0.021089
     3  C    0.045498
     4  C    0.045569
     5  C    0.174921
     6  C    0.174992
     7  C   -0.199308
     8  C   -0.199470
 Electronic spatial extent (au):  <R**2>=           2113.3790
 Charge=              0.0000 electrons
 Dipole moment (field-independent basis, Debye):
    X=              0.0004    Y=             -0.0002    Z=              0.0575  Tot=              0.0575
 Quadrupole moment (field-independent basis, Debye-Ang):
   XX=            -45.6142   YY=            -53.2748   ZZ=            -51.7799
   XY=             -5.4062   XZ=             -0.0011   YZ=              0.0005
 Traceless Quadrupole moment (field-independent basis, Debye-Ang):
   XX=              4.6087   YY=             -3.0518   ZZ=             -1.5569
   XY=             -5.4062   XZ=             -0.0011   YZ=              0.0005
 Octapole moment (field-independent basis, Debye-Ang**2):
  XXX=              0.0076  YYY=             -0.0004  ZZZ=             -0.0671  XYY=              0.0020
  XXY=             -0.0031  XXZ=              0.2439  XZZ=              0.0036  YZZ=             -0.0009
  YYZ=             -0.0394  XYZ=              0.0597
 Hexadecapole moment (field-independent basis, Debye-Ang**3):
 XXXX=          -2502.2401 YYYY=           -177.3939 ZZZZ=            -97.9485 XXXY=            -32.9214
 XXXZ=             -0.0141 YYYX=              3.2400 YYYZ=              0.0000 ZZZX=              0.0012
 ZZZY=             -0.0017 XXYY=           -468.1457 XXZZ=           -456.0900 YYZZ=            -41.3599
 XXYZ=              0.0017 YYXZ=             -0.0008 ZZXY=              2.1656
 N-N= 3.879352301752D+02 E-N=-1.679563584618D+03  KE= 3.856496418709D+02
 R6APFD:  NTU= -4 IXU= 1 FactS= 1.050
 Calling FoFJK, ICntrl=      2127 FMM=F ISym2X=0 I1Cent= 0 IOpClX= 0 NMat=1 NMatS=1 NMatT=0.
 ***** Axes restored to original set *****
 -------------------------------------------------------------------
 Center     Atomic                   Forces (Hartrees/Bohr)
 Number     Number              X              Y              Z
 -------------------------------------------------------------------
      1        8          -0.004733448   -0.006740306    0.000494048
      2        8           0.004793427    0.006716426    0.000529018
      3        6           0.007330273    0.003857494   -0.000355421
      4        6          -0.007354415   -0.003847915   -0.000403692
      5        6          -0.002216257    0.009966643   -0.000170319
      6        6           0.002264841   -0.009761667   -0.000202906
      7        6          -0.000724075    0.006191734   -0.000213807
      8        6           0.000622932   -0.006310319   -0.000241379
      9        1          -0.000696856   -0.002538735   -0.003576715
     10        1          -0.000399281   -0.002480393    0.003638608
     11        1           0.000692149    0.002536680   -0.003566289
     12        1           0.000399454    0.002450728    0.003629359
     13        1          -0.002252196   -0.004854252    0.003102893
     14        1          -0.002194805   -0.005006223   -0.002986744
     15        1           0.002254017    0.004799376    0.003062916
     16        1           0.002185321    0.004965277   -0.002938178
     17        1           0.001078391   -0.000914561    0.000036520
     18        1           0.000306773   -0.000764432   -0.001656452
     19        1           0.000272141   -0.000702571    0.001703099
     20        1          -0.001049620    0.000891104    0.000028279
     21        1          -0.000310706    0.000819988   -0.001587928
     22        1          -0.000268058    0.000725924    0.001675089
 -------------------------------------------------------------------
 Cartesian Forces:  Max     0.009966643 RMS     0.003495679

 GradGradGradGradGradGradGradGradGradGradGradGradGradGradGradGradGradGrad
 Berny optimization.
 FormGI is forming the generalized inverse of G from B-inverse, IUseBI=4.
 Internal  Forces:  Max     0.010380805 RMS     0.002725506
 Search for a local minimum.
 Step number   1 out of a maximum of  108
 All quantities printed in internal units (Hartrees-Bohrs-Radians)
 Mixed Optimization -- RFO/linear search
 Second derivative matrix not updated -- first step.
 ITU=  0
     Eigenvalues ---    0.00547   0.00583   0.00585   0.01393   0.01394
     Eigenvalues ---    0.01416   0.01418   0.05287   0.05287   0.05372
     Eigenvalues ---    0.05372   0.05650   0.05651   0.05782   0.05783
     Eigenvalues ---    0.05994   0.05994   0.06028   0.06029   0.11238
     Eigenvalues ---    0.11240   0.11244   0.11244   0.13703   0.13704
     Eigenvalues ---    0.13722   0.13722   0.16000   0.16000   0.16000
     Eigenvalues ---    0.16000   0.16000   0.16000   0.21988   0.21988
     Eigenvalues ---    0.22041   0.22042   0.25000   0.25000   0.30698
     Eigenvalues ---    0.30965   0.30984   0.34038   0.34041   0.34042
     Eigenvalues ---    0.34043   0.34147   0.34155   0.34160   0.34168
     Eigenvalues ---    0.34228   0.34240   0.34244   0.34247   0.34400
     Eigenvalues ---    0.34407   0.42078   0.42087   0.42337   0.42354
 RFO step:  Lambda=-2.61867743D-03 EMin= 5.46631871D-03
 Linear search not attempted -- first point.
 Iteration  1 RMS(Cart)=  0.03416175 RMS(Int)=  0.00018426
 Iteration  2 RMS(Cart)=  0.00029725 RMS(Int)=  0.00007322
 Iteration  3 RMS(Cart)=  0.00000003 RMS(Int)=  0.00007322
 Variable       Old X    -DE/DX   Delta X   Delta X   Delta X     New X
                                 (Linear)    (Quad)   (Total)
    R1        2.68813  -0.01034   0.00000  -0.02443  -0.02443   2.66370
    R2        2.68496  -0.00694   0.00000  -0.01629  -0.01629   2.66867
    R3        2.68823  -0.01038   0.00000  -0.02452  -0.02452   2.66371
    R4        2.68475  -0.00689   0.00000  -0.01616  -0.01616   2.66858
    R5        2.86592  -0.00083   0.00000  -0.00269  -0.00269   2.86323
    R6        2.07257   0.00441   0.00000   0.01285   0.01285   2.08542
    R7        2.07260   0.00441   0.00000   0.01286   0.01286   2.08546
    R8        2.07261   0.00440   0.00000   0.01282   0.01282   2.08543
    R9        2.07266   0.00439   0.00000   0.01279   0.01279   2.08545
   R10        2.86079   0.00295   0.00000   0.00945   0.00945   2.87024
   R11        2.07062   0.00532   0.00000   0.01545   0.01545   2.08607
   R12        2.07047   0.00539   0.00000   0.01565   0.01565   2.08612
   R13        2.86042   0.00304   0.00000   0.00974   0.00974   2.87017
   R14        2.07083   0.00525   0.00000   0.01527   0.01527   2.08610
   R15        2.07070   0.00533   0.00000   0.01547   0.01547   2.08617
   R16        2.06649   0.00141   0.00000   0.00406   0.00406   2.07055
   R17        2.06921   0.00091   0.00000   0.00265   0.00265   2.07185
   R18        2.06916   0.00092   0.00000   0.00267   0.00267   2.07182
   R19        2.06660   0.00137   0.00000   0.00395   0.00395   2.07055
   R20        2.06947   0.00082   0.00000   0.00239   0.00239   2.07186
   R21        2.06928   0.00088   0.00000   0.00256   0.00256   2.07184
    A1        1.94587   0.00054   0.00000   0.00213   0.00213   1.94800
    A2        1.94592   0.00053   0.00000   0.00210   0.00210   1.94802
    A3        1.90314  -0.00624   0.00000  -0.03012  -0.03016   1.87298
    A4        1.92171   0.00240   0.00000   0.01072   0.01064   1.93235
    A5        1.92409   0.00208   0.00000   0.00771   0.00763   1.93172
    A6        1.91869   0.00099   0.00000   0.00239   0.00240   1.92108
    A7        1.91693   0.00132   0.00000   0.00427   0.00426   1.92119
    A8        1.87928  -0.00041   0.00000   0.00569   0.00562   1.88490
    A9        1.90308  -0.00622   0.00000  -0.03009  -0.03012   1.87296
   A10        1.92162   0.00240   0.00000   0.01079   0.01071   1.93233
   A11        1.92419   0.00207   0.00000   0.00757   0.00749   1.93168
   A12        1.91862   0.00100   0.00000   0.00253   0.00253   1.92115
   A13        1.91712   0.00130   0.00000   0.00411   0.00409   1.92120
   A14        1.87921  -0.00041   0.00000   0.00576   0.00568   1.88490
   A15        1.90247  -0.00266   0.00000  -0.01008  -0.01000   1.89247
   A16        1.91597  -0.00046   0.00000  -0.00795  -0.00791   1.90806
   A17        1.91587  -0.00043   0.00000  -0.00789  -0.00785   1.90803
   A18        1.91369   0.00310   0.00000   0.02330   0.02319   1.93688
   A19        1.91429   0.00303   0.00000   0.02268   0.02257   1.93686
   A20        1.90155  -0.00255   0.00000  -0.01986  -0.02022   1.88133
   A21        1.90265  -0.00269   0.00000  -0.01023  -0.01014   1.89251
   A22        1.91611  -0.00046   0.00000  -0.00807  -0.00803   1.90808
   A23        1.91577  -0.00041   0.00000  -0.00772  -0.00767   1.90809
   A24        1.91379   0.00310   0.00000   0.02321   0.02310   1.93689
   A25        1.91427   0.00303   0.00000   0.02271   0.02260   1.93687
   A26        1.90126  -0.00254   0.00000  -0.01971  -0.02007   1.88119
   A27        1.93648  -0.00037   0.00000  -0.00629  -0.00631   1.93017
   A28        1.93064  -0.00041   0.00000  -0.00049  -0.00051   1.93013
   A29        1.93076  -0.00046   0.00000  -0.00086  -0.00088   1.92988
   A30        1.89924  -0.00005   0.00000  -0.00404  -0.00406   1.89517
   A31        1.89942  -0.00004   0.00000  -0.00416  -0.00419   1.89524
   A32        1.86549   0.00140   0.00000   0.01653   0.01651   1.88200
   A33        1.93648  -0.00036   0.00000  -0.00626  -0.00629   1.93019
   A34        1.93067  -0.00041   0.00000  -0.00049  -0.00051   1.93017
   A35        1.93086  -0.00046   0.00000  -0.00088  -0.00090   1.92996
   A36        1.89929  -0.00006   0.00000  -0.00412  -0.00414   1.89515
   A37        1.89934  -0.00004   0.00000  -0.00412  -0.00415   1.89519
   A38        1.86539   0.00140   0.00000   0.01656   0.01654   1.88193
    D1        3.12483   0.00012   0.00000   0.00359   0.00361   3.12844
    D2       -1.05192  -0.00111   0.00000  -0.00582  -0.00591  -1.05783
    D3        1.01907   0.00116   0.00000   0.01261   0.01267   1.03175
    D4       -3.14151  -0.00004   0.00000  -0.00132  -0.00132   3.14035
    D5       -1.04514   0.00183   0.00000   0.01616   0.01609  -1.02905
    D6        1.04463  -0.00185   0.00000  -0.01808  -0.01801   1.02661
    D7        3.12467   0.00011   0.00000   0.00351   0.00353   3.12820
    D8       -1.05225  -0.00110   0.00000  -0.00566  -0.00575  -1.05800
    D9        1.01866   0.00117   0.00000   0.01281   0.01287   1.03153
   D10       -3.14150  -0.00004   0.00000  -0.00127  -0.00127   3.14042
   D11       -1.04481   0.00182   0.00000   0.01594   0.01588  -1.02893
   D12        1.04461  -0.00184   0.00000  -0.01807  -0.01801   1.02661
   D13        3.12620   0.00016   0.00000   0.00470   0.00471   3.13091
   D14        1.01809   0.00050   0.00000   0.00874   0.00873   1.02683
   D15       -1.04665  -0.00040   0.00000  -0.00232  -0.00230  -1.04895
   D16        1.01790   0.00051   0.00000   0.00894   0.00893   1.02683
   D17       -1.09020   0.00085   0.00000   0.01299   0.01295  -1.07725
   D18        3.12824  -0.00004   0.00000   0.00193   0.00192   3.13016
   D19       -1.04685  -0.00038   0.00000  -0.00206  -0.00205  -1.04890
   D20        3.12823  -0.00004   0.00000   0.00198   0.00198   3.13021
   D21        1.06349  -0.00094   0.00000  -0.00908  -0.00906   1.05443
   D22        3.14157  -0.00001   0.00000  -0.00033  -0.00033   3.14124
   D23       -1.03202  -0.00059   0.00000  -0.00995  -0.00995  -1.04197
   D24        1.03167   0.00060   0.00000   0.00969   0.00969   1.04136
   D25        1.04380   0.00031   0.00000   0.00145   0.00155   1.04534
   D26       -3.12980  -0.00028   0.00000  -0.00817  -0.00807  -3.13787
   D27       -1.06611   0.00091   0.00000   0.01148   0.01157  -1.05455
   D28       -1.04358  -0.00033   0.00000  -0.00241  -0.00251  -1.04609
   D29        1.06601  -0.00091   0.00000  -0.01204  -0.01213   1.05388
   D30        3.12969   0.00028   0.00000   0.00761   0.00751   3.13720
   D31       -3.14146  -0.00001   0.00000  -0.00045  -0.00045   3.14127
   D32       -1.03178  -0.00060   0.00000  -0.01015  -0.01015  -1.04193
   D33        1.03186   0.00059   0.00000   0.00952   0.00952   1.04138
   D34        1.04360   0.00032   0.00000   0.00162   0.00171   1.04531
   D35       -3.12991  -0.00027   0.00000  -0.00808  -0.00798  -3.13789
   D36       -1.06627   0.00092   0.00000   0.01159   0.01169  -1.05458
   D37       -1.04346  -0.00033   0.00000  -0.00239  -0.00249  -1.04595
   D38        1.06621  -0.00092   0.00000  -0.01209  -0.01218   1.05403
   D39        3.12985   0.00027   0.00000   0.00758   0.00748   3.13734
         Item               Value     Threshold  Converged?
 Maximum Force            0.010381     0.000450     NO 
 RMS     Force            0.002726     0.000300     NO 
 Maximum Displacement     0.086151     0.001800     NO 
 RMS     Displacement     0.034313     0.001200     NO 
 Predicted change in Energy=-1.326421D-03
 GradGradGradGradGradGradGradGradGradGradGradGradGradGradGradGradGradGrad

                          Input orientation:                          
 ---------------------------------------------------------------------
 Center     Atomic      Atomic             Coordinates (Angstroms)
 Number     Number       Type             X           Y           Z
 ---------------------------------------------------------------------
      1          8           0        1.766688    0.274271   -0.006469
      2          8           0       -1.766662   -0.274229   -0.006616
      3          6           0        0.580344   -0.486928    0.000696
      4          6           0       -0.580331    0.487002    0.000597
      5          6           0        2.913480   -0.549679    0.010328
      6          6           0       -2.913455    0.549638    0.010305
      7          6           0        4.144319    0.340191   -0.000415
      8          6           0       -4.144256   -0.340221   -0.000405
      9          1           0        0.528719   -1.137697   -0.889065
     10          1           0        0.535258   -1.129903    0.896482
     11          1           0       -0.528677    1.137739   -0.889195
     12          1           0       -0.535377    1.130025    0.896350
     13          1           0        2.893341   -1.185395    0.912576
     14          1           0        2.898676   -1.214289   -0.870995
     15          1           0       -2.893281    1.185362    0.912569
     16          1           0       -2.898766    1.214395   -0.870941
     17          1           0        5.057553   -0.265092    0.012494
     18          1           0        4.156011    0.971260   -0.896887
     19          1           0        4.150146    1.000312    0.874922
     20          1           0       -5.057506    0.265038    0.012569
     21          1           0       -4.156016   -0.971283   -0.896887
     22          1           0       -4.150108   -1.000416    0.874886
 ---------------------------------------------------------------------
                    Distance matrix (angstroms):
                    1          2          3          4          5
     1  O    0.000000
     2  O    3.575670   0.000000
     3  C    1.409570   2.356635   0.000000
     4  C    2.356651   1.409577   1.515159   0.000000
     5  C    1.412200   4.688272   2.334000   3.644382   0.000000
     6  C    4.688267   1.412153   3.644337   2.333985   5.929728
     7  C    2.378552   5.942831   3.658695   4.726930   1.518865
     8  C    5.942802   2.378518   4.726877   3.658670   7.060852
     9  H    2.074897   2.606352   1.103558   2.158967   2.615675
    10  H    2.074474   2.616601   1.103577   2.159058   2.603434
    11  H    2.606431   2.074898   2.159022   1.103565   3.937635
    12  H    2.616658   2.074449   2.159066   1.103572   3.937138
    13  H    2.060246   4.836400   2.582506   3.961693   1.103898
    14  H    2.060246   4.836966   2.581388   3.969578   1.103928
    15  H    4.836324   2.060237   3.961582   2.582467   6.127224
    16  H    4.837108   2.060271   3.969693   2.581438   6.137655
    17  H    3.334826   6.824248   4.482717   5.687840   2.162878
    18  H    2.643388   6.117342   3.964513   4.844885   2.163372
    19  H    2.642889   6.116387   3.964801   4.837907   2.163178
    20  H    6.824227   3.334790   5.687789   4.482690   8.012514
    21  H    6.117408   2.643384   4.844932   3.964543   7.139928
    22  H    6.116378   2.642954   4.837877   3.964859   7.130561
                    6          7          8          9         10
     6  C    0.000000
     7  C    7.060889   0.000000
     8  C    1.518827   8.316456   0.000000
     9  H    3.937579   4.005797   4.823109   0.000000
    10  H    3.936977   3.998865   4.829685   1.785576   0.000000
    11  H    2.615746   4.823163   4.005836   2.509122   3.076166
    12  H    2.603301   4.829863   3.998724   3.076129   2.500707
    13  H    6.127260   2.173917   7.146721   2.973150   2.358790
    14  H    6.137507   2.173924   7.150162   2.371263   2.952429
    15  H    1.103916   7.146724   2.173905   4.511383   4.137099
    16  H    1.103953   7.150322   2.173915   4.156961   4.517969
    17  H    8.012538   1.095688   9.202125   4.699424   4.688335
    18  H    7.139896   1.096378   8.450922   4.195831   4.554219
    19  H    7.130577   1.096362   8.447505   4.560424   4.195915
    20  H    2.162858   9.202141   1.095688   5.829796   5.831481
    21  H    2.163367   8.450988   1.096383   4.687697   5.024877
    22  H    2.163210   8.447538   1.096370   5.002179   4.687205
                   11         12         13         14         15
    11  H    0.000000
    12  H    1.785574   0.000000
    13  H    4.511489   4.137335   0.000000
    14  H    4.156815   4.517968   1.783813   0.000000
    15  H    2.973209   2.358609   6.253437   6.518143   0.000000
    16  H    2.371399   2.952295   6.518315   6.285606   1.783755
    17  H    5.829832   5.831674   2.518118   2.518388   8.132018
    18  H    4.687651   5.024940   3.085393   2.521544   7.280967
    19  H    5.002238   4.687368   2.521566   3.085266   7.045958
    20  H    4.699476   4.688168   8.132019   8.140634   2.518107
    21  H    4.195905   4.554143   7.281033   7.058924   3.085408
    22  H    4.560531   4.195893   7.045978   7.264929   2.521638
                   16         17         18         19         20
    16  H    0.000000
    17  H    8.140784   0.000000
    18  H    7.059013   1.779977   0.000000
    19  H    7.265056   1.780005   1.772057   0.000000
    20  H    2.518338  10.128941   9.285190   9.277130   0.000000
    21  H    2.521614   9.285232   8.535998   8.718878   1.779966
    22  H    3.085313   9.277146   8.718847   8.537982   1.779981
                   21         22
    21  H    0.000000
    22  H    1.772022   0.000000
 Stoichiometry    C6H14O2
 Framework group  C1[X(C6H14O2)]
 Deg. of freedom    60
 Full point group                 C1      NOp   1
 Largest Abelian subgroup         C1      NOp   1
 Largest concise Abelian subgroup C1      NOp   1
                         Standard orientation:                         
 ---------------------------------------------------------------------
 Center     Atomic      Atomic             Coordinates (Angstroms)
 Number     Number       Type             X           Y           Z
 ---------------------------------------------------------------------
      1          8           0        1.766367    0.276250   -0.007996
      2          8           0       -1.766365   -0.276221   -0.008144
      3          6           0        0.580879   -0.486282   -0.000832
      4          6           0       -0.580890    0.486344   -0.000931
      5          6           0        2.914084   -0.546410    0.008801
      6          6           0       -2.914083    0.546356    0.008777
      7          6           0        4.143922    0.344844   -0.001943
      8          6           0       -4.143883   -0.344886   -0.001933
      9          1           0        0.529986   -1.137108   -0.890593
     10          1           0        0.536516   -1.129307    0.894954
     11          1           0       -0.529968    1.137137   -0.890723
     12          1           0       -0.536659    1.129416    0.894822
     13          1           0        2.894660   -1.182148    0.911048
     14          1           0        2.900027   -1.211036   -0.872523
     15          1           0       -2.894624    1.182102    0.911041
     16          1           0       -2.900142    1.211129   -0.872469
     17          1           0        5.057836   -0.259413    0.010966
     18          1           0        4.154904    0.975925   -0.898415
     19          1           0        4.149007    1.004971    0.873395
     20          1           0       -5.057812    0.259346    0.011041
     21          1           0       -4.154934   -0.975960   -0.898414
     22          1           0       -4.148993   -1.005087    0.873358
 ---------------------------------------------------------------------
 Rotational constants (GHZ):          11.8189167           0.5681722           0.5534981
 Standard basis: 6-311++G(d,p) (5D, 7F)
 There are   282 symmetry adapted cartesian basis functions of A   symmetry.
 There are   274 symmetry adapted basis functions of A   symmetry.
   274 basis functions,   414 primitive gaussians,   282 cartesian basis functions
    33 alpha electrons       33 beta electrons
       nuclear repulsion energy       389.8901411248 Hartrees.
 NAtoms=   22 NActive=   22 NUniq=   22 SFac= 1.00D+00 NAtFMM=   60 NAOKFM=F Big=F
 Integral buffers will be    131072 words long.
 Raffenetti 2 integral format.
 Two-electron integral symmetry is turned on.
 R6APFD:  NTU= -4 IXU= 1 FactS= 1.050
 Nuclear repulsion after empirical dispersion term =      389.8798645202 Hartrees.
 One-electron integrals computed using PRISM.
 NBasis=   274 RedAO= T EigKep=  1.14D-05  NBF=   274
 NBsUse=   274 1.00D-06 EigRej= -1.00D+00 NBFU=   274
 Initial guess from the checkpoint file:  "DXYE0109.chk"
 B after Tr=    -0.000000   -0.000000    0.000000
         Rot=    1.000000    0.000007    0.000002    0.000267 Ang=   0.03 deg.
 ExpMin= 3.60D-02 ExpMax= 8.59D+03 ExpMxC= 1.30D+03 IAcc=3 IRadAn=         5 AccDes= 0.00D+00
 Harris functional with IExCor= 1009 and IRadAn=       5 diagonalized for initial guess.
 HarFok:  IExCor= 1009 AccDes= 0.00D+00 IRadAn=         5 IDoV= 1 UseB2=F ITyADJ=14
 ICtDFT=  3500011 ScaDFX=  1.000000  1.000000  1.000000  1.000000
 FoFCou: FMM=F IPFlag=           0 FMFlag=      100000 FMFlg1=           0
         NFxFlg=           0 DoJE=T BraDBF=F KetDBF=T FulRan=T
         wScrn=  0.000000 ICntrl=       500 IOpCl=  0 I1Cent=   200000004 NGrid=           0
         NMat0=    1 NMatS0=      1 NMatT0=    0 NMatD0=    1 NMtDS0=    0 NMtDT0=    0
 Petite list used in FoFCou.
 Requested convergence on RMS density matrix=1.00D-08 within  32 cycles.
 Requested convergence on MAX density matrix=1.00D-06.
 Requested convergence on             energy=1.00D-06.
 No special actions if energy rises.
 SCF Done:  E(RM08HX) =  -387.491364338     A.U. after   10 cycles
            NFock= 10  Conv=0.30D-08     -V/T= 2.0048
 QCSCF skips out because SCF is already converged.
 R6APFD:  NTU= -4 IXU= 1 FactS= 1.050
 Calling FoFJK, ICntrl=      2127 FMM=F ISym2X=0 I1Cent= 0 IOpClX= 0 NMat=1 NMatS=1 NMatT=0.
 ***** Axes restored to original set *****
 -------------------------------------------------------------------
 Center     Atomic                   Forces (Hartrees/Bohr)
 Number     Number              X              Y              Z
 -------------------------------------------------------------------
      1        8          -0.000879008   -0.003724223    0.000153845
      2        8           0.000896944    0.003711075    0.000152185
      3        6           0.002759626    0.004364521   -0.000044417
      4        6          -0.002767504   -0.004361705   -0.000040921
      5        6           0.000052546    0.004461025   -0.000152307
      6        6          -0.000057882   -0.004412537   -0.000150339
      7        6          -0.000424262    0.000091896   -0.000014103
      8        6           0.000402034   -0.000113523   -0.000015321
      9        1          -0.000448345   -0.000323673   -0.000151364
     10        1          -0.000496163   -0.000337133    0.000130712
     11        1           0.000452160    0.000318531   -0.000148869
     12        1           0.000498833    0.000339587    0.000132951
     13        1           0.000445699   -0.001005514    0.000113057
     14        1           0.000447231   -0.001022192   -0.000078470
     15        1          -0.000446393    0.000994358    0.000112347
     16        1          -0.000444902    0.001006365   -0.000075427
     17        1           0.000428106    0.000099476    0.000009555
     18        1          -0.000279713   -0.000732590   -0.000051887
     19        1          -0.000270655   -0.000718293    0.000081527
     20        1          -0.000427367   -0.000096996    0.000008419
     21        1           0.000281789    0.000737050   -0.000052979
     22        1           0.000277224    0.000724496    0.000081806
 -------------------------------------------------------------------
 Cartesian Forces:  Max     0.004461025 RMS     0.001411764

 GradGradGradGradGradGradGradGradGradGradGradGradGradGradGradGradGradGrad
 Berny optimization.
 Using GEDIIS/GDIIS optimizer.
 FormGI is forming the generalized inverse of G from B-inverse, IUseBI=4.
 Internal  Forces:  Max     0.003631854 RMS     0.000725580
 Search for a local minimum.
 Step number   2 out of a maximum of  108
 All quantities printed in internal units (Hartrees-Bohrs-Radians)
 Mixed Optimization -- En-DIIS/RFO-DIIS
 Update second derivatives using D2CorX and points    1    2
 DE= -1.38D-03 DEPred=-1.33D-03 R= 1.04D+00
 TightC=F SS=  1.41D+00  RLast= 1.15D-01 DXNew= 5.0454D-01 3.4412D-01
 Trust test= 1.04D+00 RLast= 1.15D-01 DXMaxT set to 3.44D-01
 ITU=  1  0
 Use linear search instead of GDIIS.
     Eigenvalues ---    0.00547   0.00583   0.00585   0.01393   0.01394
     Eigenvalues ---    0.01416   0.01418   0.05351   0.05352   0.05478
     Eigenvalues ---    0.05478   0.05609   0.05724   0.05726   0.05763
     Eigenvalues ---    0.05851   0.05878   0.06005   0.06157   0.10850
     Eigenvalues ---    0.11049   0.11328   0.11433   0.13584   0.13586
     Eigenvalues ---    0.13693   0.13693   0.15712   0.16000   0.16000
     Eigenvalues ---    0.16000   0.16000   0.16018   0.21424   0.21966
     Eigenvalues ---    0.21966   0.22353   0.25000   0.25957   0.30705
     Eigenvalues ---    0.30974   0.31270   0.33711   0.34039   0.34041
     Eigenvalues ---    0.34043   0.34097   0.34150   0.34157   0.34165
     Eigenvalues ---    0.34232   0.34241   0.34245   0.34391   0.34404
     Eigenvalues ---    0.35088   0.40338   0.42083   0.42345   0.42612
 RFO step:  Lambda=-2.60744024D-04 EMin= 5.46524423D-03
 Quartic linear search produced a step of  0.02031.
 Iteration  1 RMS(Cart)=  0.01053867 RMS(Int)=  0.00005386
 Iteration  2 RMS(Cart)=  0.00011039 RMS(Int)=  0.00000637
 Iteration  3 RMS(Cart)=  0.00000000 RMS(Int)=  0.00000637
 Variable       Old X    -DE/DX   Delta X   Delta X   Delta X     New X
                                 (Linear)    (Quad)   (Total)
    R1        2.66370  -0.00178  -0.00050  -0.00625  -0.00674   2.65696
    R2        2.66867  -0.00036  -0.00033  -0.00216  -0.00249   2.66618
    R3        2.66371  -0.00178  -0.00050  -0.00626  -0.00675   2.65696
    R4        2.66858  -0.00034  -0.00033  -0.00210  -0.00243   2.66615
    R5        2.86323   0.00028  -0.00005   0.00072   0.00067   2.86390
    R6        2.08542   0.00033   0.00026   0.00201   0.00227   2.08770
    R7        2.08546   0.00032   0.00026   0.00198   0.00224   2.08770
    R8        2.08543   0.00033   0.00026   0.00200   0.00226   2.08769
    R9        2.08545   0.00033   0.00026   0.00198   0.00224   2.08769
   R10        2.87024  -0.00118   0.00019  -0.00314  -0.00295   2.86729
   R11        2.08607   0.00066   0.00031   0.00320   0.00351   2.08958
   R12        2.08612   0.00067   0.00032   0.00324   0.00356   2.08968
   R13        2.87017  -0.00117   0.00020  -0.00307  -0.00287   2.86730
   R14        2.08610   0.00066   0.00031   0.00316   0.00347   2.08957
   R15        2.08617   0.00066   0.00031   0.00319   0.00350   2.08967
   R16        2.07055   0.00030   0.00008   0.00121   0.00130   2.07185
   R17        2.07185  -0.00038   0.00005  -0.00093  -0.00088   2.07098
   R18        2.07182  -0.00037   0.00005  -0.00089  -0.00083   2.07099
   R19        2.07055   0.00030   0.00008   0.00121   0.00129   2.07184
   R20        2.07186  -0.00038   0.00005  -0.00095  -0.00091   2.07096
   R21        2.07184  -0.00037   0.00005  -0.00091  -0.00085   2.07098
    A1        1.94800   0.00363   0.00004   0.01497   0.01501   1.96301
    A2        1.94802   0.00363   0.00004   0.01496   0.01500   1.96302
    A3        1.87298   0.00129  -0.00061   0.00481   0.00420   1.87718
    A4        1.93235  -0.00011   0.00022   0.00297   0.00319   1.93554
    A5        1.93172  -0.00010   0.00016   0.00309   0.00324   1.93497
    A6        1.92108  -0.00061   0.00005  -0.00430  -0.00427   1.91681
    A7        1.92119  -0.00058   0.00009  -0.00375  -0.00368   1.91751
    A8        1.88490   0.00009   0.00011  -0.00288  -0.00279   1.88211
    A9        1.87296   0.00129  -0.00061   0.00483   0.00422   1.87717
   A10        1.93233  -0.00011   0.00022   0.00298   0.00321   1.93554
   A11        1.93168  -0.00009   0.00015   0.00311   0.00327   1.93495
   A12        1.92115  -0.00062   0.00005  -0.00436  -0.00432   1.91683
   A13        1.92120  -0.00058   0.00008  -0.00376  -0.00369   1.91751
   A14        1.88490   0.00009   0.00012  -0.00287  -0.00278   1.88211
   A15        1.89247  -0.00010  -0.00020   0.00063   0.00042   1.89289
   A16        1.90806   0.00038  -0.00016   0.00438   0.00422   1.91228
   A17        1.90803   0.00039  -0.00016   0.00457   0.00441   1.91244
   A18        1.93688  -0.00010   0.00047  -0.00007   0.00039   1.93727
   A19        1.93686  -0.00010   0.00046  -0.00004   0.00041   1.93727
   A20        1.88133  -0.00045  -0.00041  -0.00928  -0.00970   1.87163
   A21        1.89251  -0.00010  -0.00021   0.00059   0.00039   1.89289
   A22        1.90808   0.00038  -0.00016   0.00437   0.00421   1.91229
   A23        1.90809   0.00039  -0.00016   0.00453   0.00437   1.91247
   A24        1.93689  -0.00011   0.00047  -0.00008   0.00038   1.93727
   A25        1.93687  -0.00010   0.00046  -0.00006   0.00039   1.93726
   A26        1.88119  -0.00044  -0.00041  -0.00917  -0.00959   1.87160
   A27        1.93017   0.00066  -0.00013   0.00344   0.00331   1.93348
   A28        1.93013  -0.00073  -0.00001  -0.00455  -0.00457   1.92557
   A29        1.92988  -0.00072  -0.00002  -0.00449  -0.00451   1.92537
   A30        1.89517   0.00000  -0.00008  -0.00054  -0.00062   1.89456
   A31        1.89524  -0.00001  -0.00009  -0.00064  -0.00073   1.89451
   A32        1.88200   0.00081   0.00034   0.00699   0.00732   1.88932
   A33        1.93019   0.00066  -0.00013   0.00343   0.00331   1.93349
   A34        1.93017  -0.00073  -0.00001  -0.00457  -0.00458   1.92558
   A35        1.92996  -0.00073  -0.00002  -0.00456  -0.00458   1.92539
   A36        1.89515   0.00001  -0.00008  -0.00053  -0.00061   1.89454
   A37        1.89519  -0.00000  -0.00008  -0.00061  -0.00069   1.89450
   A38        1.88193   0.00082   0.00034   0.00704   0.00737   1.88930
    D1        3.12844   0.00007   0.00007   0.00404   0.00412   3.13255
    D2       -1.05783   0.00005  -0.00012   0.00351   0.00339  -1.05443
    D3        1.03175   0.00003   0.00026   0.00385   0.00410   1.03585
    D4        3.14035  -0.00000  -0.00003  -0.00041  -0.00044   3.13992
    D5       -1.02905   0.00004   0.00033   0.00252   0.00285  -1.02620
    D6        1.02661  -0.00005  -0.00037  -0.00349  -0.00386   1.02275
    D7        3.12820   0.00007   0.00007   0.00415   0.00422   3.13243
    D8       -1.05800   0.00005  -0.00012   0.00357   0.00345  -1.05455
    D9        1.03153   0.00003   0.00026   0.00394   0.00420   1.03573
   D10        3.14042  -0.00000  -0.00003  -0.00046  -0.00049   3.13993
   D11       -1.02893   0.00004   0.00032   0.00242   0.00275  -1.02618
   D12        1.02661  -0.00005  -0.00037  -0.00348  -0.00385   1.02276
   D13        3.13091  -0.00001   0.00010   0.00260   0.00269   3.13360
   D14        1.02683  -0.00031   0.00018  -0.00144  -0.00125   1.02557
   D15       -1.04895   0.00033  -0.00005   0.00713   0.00708  -1.04187
   D16        1.02683  -0.00031   0.00018  -0.00145  -0.00126   1.02558
   D17       -1.07725  -0.00060   0.00026  -0.00548  -0.00520  -1.08245
   D18        3.13016   0.00003   0.00004   0.00309   0.00313   3.13329
   D19       -1.04890   0.00033  -0.00004   0.00709   0.00704  -1.04185
   D20        3.13021   0.00003   0.00004   0.00306   0.00310   3.13331
   D21        1.05443   0.00066  -0.00018   0.01163   0.01143   1.06586
   D22        3.14124  -0.00001  -0.00001  -0.00046  -0.00047   3.14077
   D23       -1.04197  -0.00005  -0.00020  -0.00187  -0.00207  -1.04404
   D24        1.04136   0.00004   0.00020   0.00103   0.00123   1.04259
   D25        1.04534  -0.00035   0.00003  -0.00622  -0.00618   1.03916
   D26       -3.13787  -0.00039  -0.00016  -0.00762  -0.00778   3.13753
   D27       -1.05455  -0.00031   0.00023  -0.00472  -0.00448  -1.05903
   D28       -1.04609   0.00035  -0.00005   0.00554   0.00548  -1.04061
   D29        1.05388   0.00031  -0.00025   0.00414   0.00388   1.05776
   D30        3.13720   0.00039   0.00015   0.00704   0.00719  -3.13879
   D31        3.14127  -0.00001  -0.00001  -0.00046  -0.00047   3.14081
   D32       -1.04193  -0.00005  -0.00021  -0.00187  -0.00208  -1.04401
   D33        1.04138   0.00004   0.00019   0.00104   0.00123   1.04261
   D34        1.04531  -0.00035   0.00003  -0.00617  -0.00613   1.03918
   D35       -3.13789  -0.00039  -0.00016  -0.00758  -0.00774   3.13755
   D36       -1.05458  -0.00030   0.00024  -0.00467  -0.00443  -1.05901
   D37       -1.04595   0.00034  -0.00005   0.00546   0.00541  -1.04054
   D38        1.05403   0.00030  -0.00025   0.00405   0.00380   1.05782
   D39        3.13734   0.00039   0.00015   0.00696   0.00711  -3.13874
         Item               Value     Threshold  Converged?
 Maximum Force            0.003632     0.000450     NO 
 RMS     Force            0.000726     0.000300     NO 
 Maximum Displacement     0.027782     0.001800     NO 
 RMS     Displacement     0.010529     0.001200     NO 
 Predicted change in Energy=-1.315626D-04
 GradGradGradGradGradGradGradGradGradGradGradGradGradGradGradGradGradGrad

                          Input orientation:                          
 ---------------------------------------------------------------------
 Center     Atomic      Atomic             Coordinates (Angstroms)
 Number     Number       Type             X           Y           Z
 ---------------------------------------------------------------------
      1          8           0        1.767955    0.260889   -0.002547
      2          8           0       -1.767934   -0.260854   -0.002612
      3          6           0        0.578725   -0.489140    0.002805
      4          6           0       -0.578710    0.489186    0.002749
      5          6           0        2.919590   -0.554091    0.008804
      6          6           0       -2.919575    0.554095    0.008803
      7          6           0        4.143100    0.343209   -0.000464
      8          6           0       -4.143076   -0.343227   -0.000465
      9          1           0        0.519263   -1.139958   -0.887923
     10          1           0        0.524632   -1.134620    0.897753
     11          1           0       -0.519222    1.139959   -0.888007
     12          1           0       -0.524674    1.134705    0.897668
     13          1           0        2.908004   -1.199018    0.906930
     14          1           0        2.910418   -1.220722   -0.873428
     15          1           0       -2.907983    1.198994    0.906946
     16          1           0       -2.910461    1.220777   -0.873389
     17          1           0        5.062984   -0.253249    0.008784
     18          1           0        4.145687    0.974168   -0.896519
     19          1           0        4.142435    0.996606    0.879374
     20          1           0       -5.062973    0.253204    0.008799
     21          1           0       -4.145679   -0.974172   -0.896515
     22          1           0       -4.142406   -0.996643    0.879354
 ---------------------------------------------------------------------
                    Distance matrix (angstroms):
                    1          2          3          4          5
     1  O    0.000000
     2  O    3.574175   0.000000
     3  C    1.406002   2.357743   0.000000
     4  C    2.357750   1.406003   1.515512   0.000000
     5  C    1.410881   4.696702   2.341774   3.650557   0.000000
     6  C    4.696706   1.410868   3.650545   2.341773   5.943394
     7  C    2.376572   5.941820   3.660272   4.724066   1.517303
     8  C    5.941823   2.376571   4.724056   3.660278   7.065820
     9  H    2.074969   2.605355   1.104761   2.157070   2.628484
    10  H    2.074570   2.613424   1.104763   2.157577   2.619746
    11  H    2.605376   2.074965   2.157081   1.104758   3.936941
    12  H    2.613444   2.074556   2.157577   1.104760   3.937648
    13  H    2.063538   4.855082   2.597482   3.978033   1.105756
    14  H    2.063692   4.854549   2.596111   3.983150   1.105809
    15  H    4.855061   2.063532   3.977989   2.597482   6.151469
    16  H    4.854620   2.063698   3.983209   2.596134   6.157753
    17  H    3.334919   6.830932   4.490464   5.690339   2.164404
    18  H    2.638477   6.106985   3.958949   4.833613   2.158356
    19  H    2.637654   6.106683   3.959274   4.828577   2.158218
    20  H    6.830942   3.334916   5.690331   4.490473   8.023282
    21  H    6.107014   2.638476   4.833635   3.958960   7.135412
    22  H    6.106677   2.637682   4.828558   3.959300   7.129201
                    6          7          8          9         10
     6  C    0.000000
     7  C    7.065829   0.000000
     8  C    1.517309   8.314560   0.000000
     9  H    3.936946   4.014917   4.812460   0.000000
    10  H    3.937583   4.010496   4.818776   1.785692   0.000000
    11  H    2.628536   4.812462   4.014958   2.505289   3.074456
    12  H    2.619683   4.818840   4.010456   3.074448   2.500176
    13  H    6.151481   2.174234   7.160550   2.988489   2.384259
    14  H    6.157689   2.174270   7.161274   2.392562   2.972620
    15  H    1.105754   7.160553   2.174235   4.520870   4.150745
    16  H    1.105807   7.161344   2.174269   4.163688   4.526004
    17  H    8.023283   1.096374   9.206505   4.715479   4.707836
    18  H    7.135405   1.095915   8.440500   4.197684   4.558337
    19  H    7.129215   1.095921   8.439134   4.562414   4.198924
    20  H    2.164414   9.206518   1.096369   5.822918   5.825601
    21  H    2.158363   8.440513   1.095904   4.667895   5.005692
    22  H    2.158232   8.439129   1.095917   4.987481   4.669114
                   11         12         13         14         15
    11  H    0.000000
    12  H    1.785691   0.000000
    13  H    4.520895   4.150858   0.000000
    14  H    4.163587   4.526000   1.780492   0.000000
    15  H    2.988565   2.384193   6.290959   6.548171   0.000000
    16  H    2.392649   2.972546   6.548243   6.312175   1.780470
    17  H    5.822911   5.825672   2.518946   2.519493   8.151811
    18  H    4.667862   5.005712   3.083347   2.518723   7.284043
    19  H    4.987508   4.669188   2.518997   3.083298   7.053376
    20  H    4.715535   4.707790   8.151814   8.156332   2.518963
    21  H    4.197715   4.558304   7.284052   7.060441   3.083345
    22  H    4.562466   4.198924   7.053368   7.270817   2.519005
                   16         17         18         19         20
    16  H    0.000000
    17  H    8.156397   0.000000
    18  H    7.060494   1.779764   0.000000
    19  H    7.270886   1.779740   1.776038   0.000000
    20  H    2.519476  10.138615   9.281100   9.276319   0.000000
    21  H    2.518750   9.281098   8.517205   8.702333   1.779740
    22  H    3.083302   9.276300   8.702316   8.521246   1.779727
                   21         22
    21  H    0.000000
    22  H    1.776015   0.000000
 Stoichiometry    C6H14O2
 Framework group  C1[X(C6H14O2)]
 Deg. of freedom    60
 Full point group                 C1      NOp   1
 Largest Abelian subgroup         C1      NOp   1
 Largest concise Abelian subgroup C1      NOp   1
                         Standard orientation:                         
 ---------------------------------------------------------------------
 Center     Atomic      Atomic             Coordinates (Angstroms)
 Number     Number       Type             X           Y           Z
 ---------------------------------------------------------------------
      1          8           0        1.767388    0.264647   -0.005001
      2          8           0       -1.767382   -0.264627   -0.005066
      3          6           0        0.579757   -0.487914    0.000352
      4          6           0       -0.579758    0.487944    0.000296
      5          6           0        2.920756   -0.547878    0.006350
      6          6           0       -2.920757    0.547867    0.006349
      7          6           0        4.142352    0.352026   -0.002918
      8          6           0       -4.142344   -0.352059   -0.002919
      9          1           0        0.521683   -1.138857   -0.890377
     10          1           0        0.527040   -1.133508    0.895299
     11          1           0       -0.521657    1.138842   -0.890461
     12          1           0       -0.527098    1.133577    0.895214
     13          1           0        2.910544   -1.192829    0.904476
[...]
 018115,-0.12382388,-0.10676116,0.00024493,0.00005747,0.00016771,0.0025
 5508,-0.00027551,0.00098507,0.00001513,0.00001023,0.00007101,-0.000102
 60,0.00030600,0.00029638,0.00295697,-0.00206552,0.00026345,-0.00072411
 ,0.00043358,0.00009159,0.00119325,0.01077404,0.01467548,0.00737602,0.1
 4038369,0.00107170,0.00031930,0.00039274,-0.00471649,-0.00071143,0.007
 92639,-0.00103987,0.00080574,0.00034658,-0.00238486,-0.11003722,-0.217
 65379,0.00011617,0.00028522,0.00009738,0.00142206,-0.00003670,0.000926
 87,0.00004873,-0.00007644,-0.00005773,-0.00020553,0.00043592,0.0003937
 5,-0.00043279,0.00026346,0.00142587,0.00049314,-0.00009158,0.00091595,
 0.00033723,-0.01467508,-0.02104059,0.00651325,0.12311962,0.22712288,-0
 .01477626,0.02586706,-0.02420170,-0.00034870,-0.00005290,0.00012747,0.
 00467665,0.00464840,-0.00315572,0.00011507,0.00001106,-0.00000703,-0.0
 4926269,-0.00874785,0.00970123,0.00010657,-0.00009205,0.00001423,-0.00
 013688,-0.01603575,0.02327418,-0.00001269,0.00001564,-0.00000245,-0.00
 044395,-0.00041919,0.00011741,0.00002516,-0.00106452,0.00141433,0.0000
 0319,-0.00022373,0.00013150,0.00003939,-0.00001282,-0.00001144,0.06109
 530,0.01424023,-0.02002266,0.01810525,0.00051673,-0.00005060,-0.000091
 70,-0.00300728,-0.00060827,-0.00068856,-0.00021795,0.00031891,-0.00024
 505,-0.00682194,-0.12383022,0.10578392,-0.00015921,0.00013914,0.000024
 38,-0.00190905,-0.01019374,0.01581892,0.00002522,-0.00002729,0.0000019
 2,0.00045932,0.00016304,-0.00001229,0.00107786,0.00078599,-0.00026467,
 -0.00020418,0.00013320,-0.00007561,0.00001076,-0.00004871,-0.00000143,
 -0.00120202,0.14308253,-0.00596818,0.00286892,0.00638940,-0.00036487,0
 .00003864,0.00002800,0.00141917,0.00001238,0.00090267,-0.00002438,-0.0
 0043278,0.00038796,0.00764734,0.10891226,-0.21436660,0.00006472,-0.000
 06425,-0.00001875,0.00020582,-0.00165743,0.00161390,-0.00001426,0.0000
 1798,-0.00000784,0.00013346,0.00001065,-0.00056587,-0.00140700,-0.0001
 5891,-0.00018438,0.00023422,-0.00013613,0.00000078,0.00000522,-0.00001
 464,-0.00001574,-0.00448915,-0.12378936,0.22534202,-0.01477392,0.02587
 481,0.02419379,-0.00034865,-0.00005297,-0.00012742,0.00467616,0.004649
 12,0.00315537,0.00011519,0.00001110,0.00000722,-0.04926713,-0.00876194
 ,-0.00971488,0.00010656,-0.00009203,-0.00001425,-0.00013671,-0.0160454
 9,-0.02326725,-0.00001269,0.00001564,0.00000246,0.00002510,-0.00106435
 ,-0.00141420,-0.00044399,-0.00041927,-0.00011726,0.00003946,-0.0000128
 7,0.00001149,0.00000315,-0.00022372,-0.00013151,0.00184592,-0.00035305
 ,0.00177660,0.06109829,0.01423870,-0.02002964,-0.01809867,0.00051675,-
 0.00005055,0.00009166,-0.00300827,-0.00060764,0.00068865,-0.00021792,0
 .00031894,0.00024547,-0.00683283,-0.12390535,-0.10581464,-0.00015919,0
 .00013911,-0.00002434,-0.00191056,-0.01019930,-0.01581339,0.00002522,-
 0.00002729,-0.00000195,0.00107842,0.00078606,0.00026480,0.00045922,0.0
 0016297,0.00001221,0.00001076,-0.00004869,0.00000138,-0.00020430,0.000
 13328,0.00007562,-0.00035223,0.01102817,0.01443089,-0.00118762,0.14316
 988,0.00596471,-0.00286266,0.00639200,0.00036473,-0.00003863,0.0000279
 6,-0.00141860,-0.00001184,0.00090324,0.00002443,0.00043285,0.00038774,
 -0.00766042,-0.10894420,-0.21428674,-0.00006466,0.00006419,-0.00001872
 ,-0.00020472,0.00166378,0.00162144,0.00001424,-0.00001797,-0.00000784,
 0.00140667,0.00015858,-0.00018430,-0.00013329,-0.00001083,-0.00056618,
 -0.00000530,0.00001471,-0.00001573,-0.00023419,0.00013610,0.00000077,-
 0.00177875,-0.01444220,-0.02164926,0.00450468,0.12381819,0.22525193,-0
 .00034870,-0.00005290,-0.00012747,-0.01477631,0.02586735,0.02420137,0.
 00011507,0.00001106,0.00000702,0.00467666,0.00464840,0.00315566,0.0001
 0657,-0.00009205,-0.00001423,-0.04926272,-0.00874774,-0.00970074,-0.00
 001269,0.00001564,0.00000245,-0.00013684,-0.01603597,-0.02327406,0.000
 00319,-0.00022373,-0.00013149,0.00003939,-0.00001283,0.00001144,-0.000
 44395,-0.00041919,-0.00011740,0.00002517,-0.00106453,-0.00141433,-0.00
 000990,0.00001394,-0.00000509,0.00000734,0.00000982,0.00000639,0.06109
 533,0.00051673,-0.00005060,0.00009170,0.01424034,-0.02002289,-0.018104
 93,-0.00021794,0.00031892,0.00024506,-0.00300728,-0.00060826,0.0006885
 6,-0.00015921,0.00013914,-0.00002438,-0.00682184,-0.12383246,-0.105784
 83,0.00002522,-0.00002729,-0.00000192,-0.00190900,-0.01019385,-0.01581
 879,-0.00020418,0.00013320,0.00007561,0.00001076,-0.00004871,0.0000014
 3,0.00045932,0.00016304,0.00001228,0.00107787,0.00078599,0.00026466,0.
 00001394,-0.00002641,0.00001251,0.00000982,-0.00002110,-0.00000225,-0.
 00120224,0.14308509,0.00036487,-0.00003864,0.00002799,0.00596796,-0.00
 286855,0.00638971,0.00002438,0.00043277,0.00038795,-0.00141910,-0.0000
 1235,0.00090268,-0.00006472,0.00006425,-0.00001875,-0.00764689,-0.1089
 1317,-0.21436417,0.00001426,-0.00001798,-0.00000784,-0.00020581,0.0016
 5750,0.00161398,-0.00023422,0.00013613,0.00000078,-0.00000522,0.000014
 64,-0.00001574,-0.00013347,-0.00001066,-0.00056587,0.00140698,0.000158
 89,-0.00018439,0.00000509,-0.00001251,0.00000408,0.00000639,-0.0000022
 5,0.00000304,0.00448880,0.12379015,0.22533925,-0.00034865,-0.00005297,
 0.00012742,-0.01477380,0.02587448,-0.02419406,0.00011519,0.00001111,-0
 .00000722,0.00467615,0.00464913,-0.00315544,0.00010655,-0.00009203,0.0
 0001425,-0.04926719,-0.00876229,0.00971563,-0.00001269,0.00001563,-0.0
 0000246,-0.00013675,-0.01604527,0.02326740,0.00003946,-0.00001287,-0.0
 0001149,0.00000315,-0.00022372,0.00013151,0.00002509,-0.00106434,0.001
 41421,-0.00044399,-0.00041927,0.00011727,0.00000734,0.00000982,-0.0000
 0639,-0.00000989,0.00001393,0.00000508,0.00184593,-0.00035310,-0.00177
 653,0.06109829,0.00051675,-0.00005055,-0.00009166,0.01423856,-0.020029
 43,0.01809899,-0.00021792,0.00031894,-0.00024547,-0.00300827,-0.000607
 65,-0.00068864,-0.00015919,0.00013911,0.00002434,-0.00683317,-0.123903
 16,0.10581364,0.00002522,-0.00002729,0.00000195,-0.00191060,-0.0101991
 5,0.01581347,0.00001076,-0.00004869,-0.00000138,-0.00020430,0.00013328
 ,-0.00007562,0.00107841,0.00078606,-0.00026481,0.00045922,0.00016297,-
 0.00001221,0.00000982,-0.00002110,0.00000225,0.00001393,-0.00002641,-0
 .00001249,-0.00035215,0.01102817,-0.01443122,-0.00118714,0.14316735,-0
 .00036473,0.00003863,0.00002796,-0.00596491,0.00286302,0.00639168,-0.0
 0002443,-0.00043285,0.00038775,0.00141866,0.00001187,0.00090324,0.0000
 6466,-0.00006420,-0.00001872,0.00766113,0.10894322,-0.21428884,-0.0000
 1424,0.00001797,-0.00000784,0.00020472,-0.00166373,0.00162137,0.000005
 30,-0.00001471,-0.00001573,0.00023419,-0.00013610,0.00000077,-0.001406
 68,-0.00015860,-0.00018429,0.00013328,0.00001082,-0.00056618,-0.000006
 39,0.00000225,0.00000304,-0.00000508,0.00001249,0.00000407,0.00177884,
 0.01444186,-0.02164929,-0.00450533,-0.12381729,0.22525443,-0.00606492,
 -0.00527992,0.00000053,-0.00051700,0.00019356,0.,0.00007425,0.00168430
 ,0.00000015,-0.00004181,-0.00052694,0.00000002,-0.01646716,0.01967170,
 -0.00000671,0.00013826,-0.00016039,-0.00000002,-0.23395483,0.12048430,
 -0.00005162,-0.00003269,0.00003083,0.00000001,-0.00011281,-0.00011414,
 -0.00011631,-0.00011289,-0.00011418,0.00011634,0.00000260,0.00000443,-
 0.00002440,0.00000259,0.00000444,0.00002440,0.00034836,-0.00031181,0.0
 0077726,0.00034755,-0.00031278,-0.00077675,-0.00001153,0.00002085,0.00
 001011,-0.00001153,0.00002085,-0.00001010,0.25477780,-0.00476660,-0.00
 241009,0.00000036,-0.00014531,0.00014826,0.,-0.00099720,0.00103285,0.0
 0000015,-0.00019651,-0.00045283,0.00000003,-0.01531748,0.01334319,-0.0
 0000521,-0.00002040,-0.00004497,0.,0.12343352,-0.12794625,0.00003602,-
 0.00001290,0.00001470,0.,0.00002134,0.00000343,-0.00005063,0.00002129,
 0.00000340,0.00005063,-0.00000089,0.00000420,-0.00003363,-0.00000088,0
 .00000420,0.00003362,0.00079319,0.00043414,0.00043300,0.00079314,0.000
 43294,-0.00043331,-0.00000260,0.00000393,0.00000516,-0.00000260,0.0000
 0393,-0.00000516,-0.13258641,0.13485814,0.00000189,0.00000064,0.000685
 53,0.00000005,-0.00000004,0.00001310,0.00000031,-0.00000014,0.00069793
 ,0.00000004,0.00000013,-0.00003763,0.00000389,-0.00000358,-0.00237578,
 0.,0.00000002,-0.00000619,-0.00005334,0.00003687,-0.04487780,0.,0.,0.0
 0000288,0.00010607,0.00004393,-0.00004038,-0.00010602,-0.00004388,-0.0
 0004038,0.00000247,0.00000258,0.00001108,-0.00000246,-0.00000260,0.000
 01107,0.00000938,-0.00003456,-0.00013177,-0.00000949,0.00003429,-0.000
 13192,-0.00000091,-0.00000072,0.00000057,0.00000091,0.00000071,0.00000
 057,0.00005612,-0.00004026,0.04416285,0.00271392,0.00092623,-0.0004972
 5,0.00013870,0.00001557,-0.00002441,-0.00037188,-0.00027995,0.00004295
 ,-0.00000431,0.00005803,-0.00006445,-0.00101074,-0.01790262,0.02469282
 ,-0.00003070,0.00002202,0.00001281,-0.04580683,0.00237578,-0.00288523,
 0.00000559,-0.00000464,0.00000043,0.00005515,0.00001437,0.00004314,0.0
 0008967,0.00023352,-0.00023236,-0.00007043,0.00005131,-0.00003038,-0.0
 0000747,0.00000203,0.00000324,-0.00424943,-0.00301642,-0.00028663,0.00
 098837,0.00083308,-0.00031395,0.00000105,-0.00000402,-0.00000173,0.,-0
 .00000096,-0.00000310,0.00082702,0.01448809,-0.02280235,0.04801366,0.0
 0074221,0.00140683,-0.00104769,-0.00008354,0.00001907,-0.00001439,0.00
 013246,0.00016623,-0.00006628,0.00005950,0.00001518,-0.00005125,0.0008
 1989,-0.01413353,0.01828449,0.00004386,-0.00003748,0.00001164,0.000462
 52,-0.13602104,0.12512055,-0.00000832,0.00000566,0.00000218,-0.0000138
 1,-0.00006577,-0.00000057,0.00020114,0.00004478,-0.00009581,-0.0000419
 0,0.00003899,-0.00000159,0.00000206,0.00000116,-0.00000737,-0.00370849
 ,-0.00134581,-0.00067681,0.00056031,0.00007296,-0.00019853,-0.00000216
 ,0.00000471,-0.00000113,-0.00000256,0.00000818,-0.00000405,-0.00134695
 ,-0.00971187,0.01291537,0.00252598,0.14759576,0.00069603,-0.00035965,0
 .00007927,0.00002953,-0.00006974,0.00001961,0.00005267,-0.00028174,0.0
 0012878,0.00003689,0.00011152,-0.00006147,-0.00028013,-0.00072691,0.00
 085637,-0.00000943,0.00002420,-0.00000984,-0.00150583,0.12626600,-0.22
 529298,0.00000446,-0.00000187,0.00000120,-0.00002941,-0.00001922,-0.00
 001247,-0.00013461,-0.00004621,-0.00001720,0.00001894,-0.00000662,0.00
 004322,0.00000840,-0.00000030,-0.00001502,-0.00052226,-0.00013267,0.00
 146153,0.00062162,-0.00005608,0.00080219,0.00000142,-0.00000047,-0.000
 00402,0.00000239,-0.00000353,0.00000874,-0.00006657,-0.00211622,0.0010
 2321,0.00171102,-0.13836342,0.24018110,0.00271411,0.00092625,0.0004965
 5,0.00013878,0.00001557,0.00002439,-0.00037196,-0.00027991,-0.00004333
 ,-0.00000425,0.00005810,0.00006445,-0.00100927,-0.01791841,-0.02468278
 ,-0.00003071,0.00002204,-0.00001279,-0.04580917,0.00239666,0.00291012,
 0.00000559,-0.00000465,-0.00000043,0.00008957,0.00023354,0.00023240,0.
 00005529,0.00001444,-0.00004323,-0.00000751,0.00000205,-0.00000325,-0.
 00007044,0.00005130,0.00003039,0.00098800,0.00083315,0.00031362,-0.004
 24964,-0.00301608,0.00028819,0.,-0.00000096,0.00000310,0.00000105,-0.0
 0000402,0.00000172,0.00082335,0.01450196,0.02279343,-0.00128495,-0.000
 33929,-0.00063364,0.04801855,0.00074266,0.00140763,0.00104720,-0.00008
 353,0.00001911,0.00001441,0.00013236,0.00016642,0.00006658,0.00005948,
 0.00001512,0.00005114,0.00082173,-0.01414315,-0.01827656,0.00004386,-0
 .00003749,-0.00001166,0.00048161,-0.13616930,-0.12517104,-0.00000833,0
 .00000566,-0.00000217,0.00020123,0.00004482,0.00009581,-0.00001376,-0.
 00006572,0.00000049,0.00000204,0.00000118,0.00000738,-0.00004191,0.000
 03900,0.00000162,0.00055976,0.00007286,0.00019892,-0.00370724,-0.00134
 517,0.00067842,-0.00000256,0.00000818,0.00000406,-0.00000216,0.0000047
 1,0.00000113,-0.00134559,-0.00971877,-0.01290876,-0.00034120,0.0119399
 7,0.01578434,0.00250445,0.14775890,-0.00069562,0.00035909,0.00007855,-
 0.00002942,0.00006973,0.00001957,-0.00005281,0.00028178,0.00012869,-0.
 00003693,-0.00011153,-0.00006139,0.00027781,0.00073226,0.00086284,0.00
 000938,-0.00002417,-0.00000982,0.00153173,-0.12631525,-0.22513212,-0.0
 0000445,0.00000187,0.00000120,0.00013457,0.00004620,-0.00001724,0.0000
 2951,0.00001932,-0.00001246,-0.00000842,0.00000030,-0.00001505,-0.0000
 1891,0.00000659,0.00004321,-0.00062182,0.00005630,0.00080157,0.0005236
 0,0.00013332,0.00146103,-0.00000239,0.00000351,0.00000873,-0.00000142,
 0.00000047,-0.00000403,0.00006756,0.00212546,0.00103351,0.00063629,-0.
 01580339,-0.01919239,-0.00173978,0.13841673,0.24000542,-0.00051700,0.0
 0019356,-0.00000001,-0.00606492,-0.00527992,-0.00000048,-0.00004181,-0
 .00052694,-0.00000002,0.00007425,0.00168430,-0.00000017,0.00013826,-0.
 00016039,0.00000003,-0.01646716,0.01967172,0.00000658,-0.00003269,0.00
 003083,-0.00000001,-0.23395480,0.12048433,0.00005100,0.00000260,0.0000
 0443,0.00002440,0.00000259,0.00000444,-0.00002440,-0.00011281,-0.00011
 413,0.00011631,-0.00011289,-0.00011418,-0.00011634,-0.00001153,0.00002
 085,-0.00001011,-0.00001153,0.00002085,0.00001010,0.00034837,-0.000311
 82,-0.00077725,0.00034754,-0.00031278,0.00077675,-0.00002337,-0.000004
 02,0.,0.00000437,-0.00000606,0.00000240,0.00000438,-0.00000606,-0.0000
 0240,0.25477776,-0.00014531,0.00014826,0.,-0.00476660,-0.00241008,-0.0
 0000033,-0.00019651,-0.00045283,-0.00000003,-0.00099719,0.00103285,-0.
 00000016,-0.00002040,-0.00004497,0.,-0.01531747,0.01334319,0.00000510,
 -0.00001290,0.00001470,0.,0.12343355,-0.12794634,-0.00003558,-0.000000
 89,0.00000420,0.00003363,-0.00000088,0.00000419,-0.00003362,0.00002134
 ,0.00000343,0.00005063,0.00002129,0.00000340,-0.00005063,-0.00000260,0
 .00000393,-0.00000516,-0.00000260,0.00000393,0.00000516,0.00079318,0.0
 0043414,-0.00043300,0.00079314,0.00043293,0.00043331,-0.00000402,-0.00
 000397,0.,0.00000064,0.00000073,-0.00000026,0.00000064,0.00000073,0.00
 000026,-0.13258647,0.13485824,-0.00000006,0.00000004,0.00001310,-0.000
 00189,-0.00000063,0.00068553,-0.00000004,-0.00000013,-0.00003763,-0.00
 000031,0.00000015,0.00069793,0.,-0.00000002,-0.00000619,-0.00000380,0.
 00000349,-0.00237578,0.,0.,0.00000288,0.00005272,-0.00003645,-0.044877
 78,-0.00000247,-0.00000258,0.00001108,0.00000246,0.00000260,0.00001107
 ,-0.00010607,-0.00004393,-0.00004038,0.00010602,0.00004387,-0.00004038
 ,0.00000091,0.00000072,0.00000057,-0.00000091,-0.00000071,0.00000057,-
 0.00000939,0.00003455,-0.00013177,0.00000948,-0.00003429,-0.00013193,0
 .,0.,0.00000048,0.00000027,-0.00000007,-0.00000046,-0.00000027,0.00000
 007,-0.00000046,-0.00005541,0.00003979,0.04416283,0.00013870,0.0000155
 7,0.00002441,0.00271390,0.00092623,0.00049725,-0.00000430,0.00005802,0
 .00006445,-0.00037188,-0.00027994,-0.00004294,-0.00003070,0.00002202,-
 0.00001281,-0.00101072,-0.01790278,-0.02469272,0.00000559,-0.00000464,
 -0.00000043,-0.04580691,0.00237565,0.00288504,-0.00007043,0.00005131,0
 .00003038,-0.00000747,0.00000203,-0.00000324,0.00005515,0.00001437,-0.
 00004314,0.00008967,0.00023352,0.00023236,0.00000105,-0.00000402,0.000
 00173,0.,-0.00000096,0.00000310,-0.00424942,-0.00301641,0.00028665,0.0
 0098838,0.00083308,0.00031394,0.00000437,0.00000064,-0.00000027,-0.000
 00110,0.00000080,-0.00000139,0.00000033,0.00000236,0.00000252,0.000827
 03,0.01448822,0.02280226,0.04801371,-0.00008354,0.00001907,0.00001439,
 0.00074218,0.00140683,0.00104768,0.00005950,0.00001518,0.00005125,0.00
 013246,0.00016623,0.00006628,0.00004386,-0.00003748,-0.00001164,0.0008
 1989,-0.01413365,-0.01828437,-0.00000832,0.00000566,-0.00000218,0.0004
 6239,-0.13602261,-0.12512114,-0.00004190,0.00003899,0.00000159,0.00000
 206,0.00000116,0.00000737,-0.00001381,-0.00006577,0.00000057,0.0002011
 4,0.00004478,0.00009580,-0.00000216,0.00000471,0.00000113,-0.00000256,
 0.00000818,0.00000405,-0.00370849,-0.00134579,0.00067682,0.00056031,0.
 00007296,0.00019853,-0.00000606,0.00000073,0.00000007,0.00000080,-0.00
 000340,0.00000036,0.00000236,-0.00000130,0.00000152,-0.00134696,-0.009
 71195,-0.01291532,0.00252613,0.14759750,-0.00002953,0.00006974,0.00001
 961,-0.00069604,0.00035964,0.00007925,-0.00003689,-0.00011152,-0.00006
 147,-0.00005268,0.00028173,0.00012878,0.00000942,-0.00002420,-0.000009
 84,0.00028014,0.00072703,0.00085650,-0.00000446,0.00000187,0.00000120,
 0.00150565,-0.12626661,-0.22529134,-0.00001894,0.00000662,0.00004322,-
 0.00000840,0.00000030,-0.00001502,0.00002941,0.00001922,-0.00001247,0.
 00013460,0.00004621,-0.00001720,-0.00000142,0.00000047,-0.00000402,-0.
 00000239,0.00000353,0.00000874,0.00052229,0.00013270,0.00146152,-0.000
 62162,0.00005609,0.00080220,-0.00000240,0.00000026,-0.00000046,0.00000
 139,-0.00000036,-0.00000119,0.00000252,0.00000152,0.00000184,0.0000665
 8,0.00211629,0.00102326,-0.00171087,0.13836402,0.24017932,0.00013879,0
 .00001557,-0.00002439,0.00271412,0.00092626,-0.00049655,-0.00000425,0.
 00005810,-0.00006445,-0.00037196,-0.00027992,0.00004334,-0.00003071,0.
 00002204,0.00001279,-0.00100929,-0.01791826,0.02468292,0.00000559,-0.0
 0000465,0.00000043,-0.04580913,0.00239657,-0.00291008,-0.00000751,0.00
 000205,0.00000325,-0.00007044,0.00005130,-0.00003039,0.00008956,0.0002
 3354,-0.00023241,0.00005529,0.00001445,0.00004323,0.,-0.00000096,-0.00
 000310,0.00000105,-0.00000402,-0.00000172,0.00098799,0.00083315,-0.000
 31363,-0.00424965,-0.00301608,-0.00028818,0.00000438,0.00000064,0.0000
 0027,0.00000033,0.00000236,-0.00000252,-0.00000110,0.00000081,0.000001
 39,0.00082335,0.01450184,-0.02279351,-0.00128494,-0.00033927,0.0006336
 3,0.04801852,-0.00008353,0.00001911,-0.00001441,0.00074268,0.00140762,
 -0.00104721,0.00005948,0.00001512,-0.00005114,0.00013236,0.00016642,-0
 .00006658,0.00004386,-0.00003749,0.00001166,0.00082173,-0.01414300,0.0
 1827665,-0.00000833,0.00000566,0.00000217,0.00048150,-0.13616788,0.125
 17052,0.00000204,0.00000118,-0.00000738,-0.00004191,0.00003900,-0.0000
 0162,0.00020123,0.00004482,-0.00009582,-0.00001376,-0.00006572,-0.0000
 0049,-0.00000256,0.00000818,-0.00000406,-0.00000216,0.00000471,-0.0000
 0113,0.00055976,0.00007286,-0.00019891,-0.00370722,-0.00134517,-0.0006
 7842,-0.00000606,0.00000073,-0.00000007,0.00000236,-0.00000130,-0.0000
 0152,0.00000081,-0.00000340,-0.00000035,-0.00134558,-0.00971872,0.0129
 0884,-0.00034120,0.01193997,-0.01578454,0.00250451,0.14775729,0.000029
 42,-0.00006973,0.00001957,0.00069561,-0.00035910,0.00007856,0.00003693
 ,0.00011153,-0.00006139,0.00005280,-0.00028179,0.00012869,-0.00000938,
 0.00002417,-0.00000982,-0.00027780,-0.00073215,0.00086272,0.00000445,-
 0.00000187,0.00000120,-0.00153166,0.12631470,-0.22513357,0.00000842,-0
 .00000030,-0.00001505,0.00001891,-0.00000659,0.00004321,-0.00013458,-0
 .00004620,-0.00001724,-0.00002951,-0.00001932,-0.00001246,0.00000239,-
 0.00000351,0.00000873,0.00000142,-0.00000047,-0.00000403,0.00062181,-0
 .00005629,0.00080156,-0.00052358,-0.00013330,0.00146104,0.00000240,-0.
 00000026,-0.00000046,-0.00000252,-0.00000152,0.00000184,-0.00000139,0.
 00000035,-0.00000119,-0.00006755,-0.00212540,0.00103346,-0.00063628,0.
 01580320,-0.01919242,0.00173968,-0.13841619,0.24000706\\-0.00001076,-0
 .00000558,0.00000193,0.00001096,0.00000555,0.00000208,0.00000862,0.000
 01465,-0.00000155,-0.00000868,-0.00001477,-0.00000162,-0.00001062,-0.0
 0000980,-0.00000013,0.00001027,0.00000968,-0.00000019,0.00000705,-0.00
 001423,-0.00000160,-0.00000686,0.00001439,-0.00000166,-0.00000151,-0.0
 0000558,-0.00000204,-0.00000153,-0.00000544,0.00000246,0.00000149,0.00
 000566,-0.00000205,0.00000155,0.00000542,0.00000247,0.00000223,0.00000
 515,0.00000091,0.00000113,0.00000536,-0.00000081,-0.00000219,-0.000005
 08,0.00000090,-0.00000109,-0.00000529,-0.00000082,-0.00000152,0.000000
 59,0.00000079,0.00000188,0.00000806,0.00000024,0.00000071,0.00000848,-
 0.00000019,0.00000152,-0.00000063,0.00000083,-0.00000192,-0.00000807,0
 .00000028,-0.00000074,-0.00000853,-0.00000022\\\@


 THERE ARE PEOPLE SO ADDICTED TO EXAGERATING THEY
 CAN'T TELL THE TRUTH WITHOUT LYING. -- FORTUNE COOKIE
 Job cpu time:       0 days  1 hours 59 minutes  2.4 seconds.
 Elapsed time:       0 days  0 hours  7 minutes 30.8 seconds.
 File lengths (MBytes):  RWF=    147 Int=      0 D2E=      0 Chk=      7 Scr=      1
 Normal termination of Gaussian 16 at Fri Sep 19 16:50:15 2025.
