 Entering Gaussian System, Link 0=g16
 Input=DXYL0110.gjf
 Output=DXYL0110.log
 Initial command:
 /usr/local/g16/l1.exe "/dados_01/scratch/Gau-2072779.inp" -scrdir="/dados_01/scratch/"
 Entering Link 1 = /usr/local/g16/l1.exe PID=   2072780.
  
 Copyright (c) 1988-2017, Gaussian, Inc.  All Rights Reserved.
  
 This is part of the Gaussian(R) 16 program.  It is based on
 the Gaussian(R) 09 system (copyright 2009, Gaussian, Inc.),
 the Gaussian(R) 03 system (copyright 2003, Gaussian, Inc.),
 the Gaussian(R) 98 system (copyright 1998, Gaussian, Inc.),
 the Gaussian(R) 94 system (copyright 1995, Gaussian, Inc.),
 the Gaussian 92(TM) system (copyright 1992, Gaussian, Inc.),
 the Gaussian 90(TM) system (copyright 1990, Gaussian, Inc.),
 the Gaussian 88(TM) system (copyright 1988, Gaussian, Inc.),
 the Gaussian 86(TM) system (copyright 1986, Carnegie Mellon
 University), and the Gaussian 82(TM) system (copyright 1983,
 Carnegie Mellon University). Gaussian is a federally registered
 trademark of Gaussian, Inc.
  
 This software contains proprietary and confidential information,
 including trade secrets, belonging to Gaussian, Inc.
  
 This software is provided under written license and may be
 used, copied, transmitted, or stored only in accord with that
 written license.
  
 The following legend is applicable only to US Government
 contracts under FAR:
  
                    RESTRICTED RIGHTS LEGEND
  
 Use, reproduction and disclosure by the US Government is
 subject to restrictions as set forth in subparagraphs (a)
 and (c) of the Commercial Computer Software - Restricted
 Rights clause in FAR 52.227-19.
  
 Gaussian, Inc.
 340 Quinnipiac St., Bldg. 40, Wallingford CT 06492
  
  
 ---------------------------------------------------------------
 Warning -- This program may not be used in any manner that
 competes with the business of Gaussian, Inc. or will provide
 assistance to any competitor of Gaussian, Inc.  The licensee
 of this program is prohibited from giving any competitor of
 Gaussian, Inc. access to this program.  By using this program,
 the user acknowledges that Gaussian, Inc. is engaged in the
 business of creating and licensing software in the field of
 computational chemistry and represents and warrants to the
 licensee that it is not a competitor of Gaussian, Inc. and that
 it will not use this program in any manner prohibited above.
 ---------------------------------------------------------------
  

 Cite this work as:
 Gaussian 16, Revision B.01,
 M. J. Frisch, G. W. Trucks, H. B. Schlegel, G. E. Scuseria, 
 M. A. Robb, J. R. Cheeseman, G. Scalmani, V. Barone, 
 G. A. Petersson, H. Nakatsuji, X. Li, M. Caricato, A. V. Marenich, 
 J. Bloino, B. G. Janesko, R. Gomperts, B. Mennucci, H. P. Hratchian, 
 J. V. Ortiz, A. F. Izmaylov, J. L. Sonnenberg, D. Williams-Young, 
 F. Ding, F. Lipparini, F. Egidi, J. Goings, B. Peng, A. Petrone, 
 T. Henderson, D. Ranasinghe, V. G. Zakrzewski, J. Gao, N. Rega, 
 G. Zheng, W. Liang, M. Hada, M. Ehara, K. Toyota, R. Fukuda, 
 J. Hasegawa, M. Ishida, T. Nakajima, Y. Honda, O. Kitao, H. Nakai, 
 T. Vreven, K. Throssell, J. A. Montgomery, Jr., J. E. Peralta, 
 F. Ogliaro, M. J. Bearpark, J. J. Heyd, E. N. Brothers, K. N. Kudin, 
 V. N. Staroverov, T. A. Keith, R. Kobayashi, J. Normand, 
 K. Raghavachari, A. P. Rendell, J. C. Burant, S. S. Iyengar, 
 J. Tomasi, M. Cossi, J. M. Millam, M. Klene, C. Adamo, R. Cammi, 
 J. W. Ochterski, R. L. Martin, K. Morokuma, O. Farkas, 
 J. B. Foresman, and D. J. Fox, Gaussian, Inc., Wallingford CT, 2016.
 
 ******************************************
 Gaussian 16:  ES64L-G16RevB.01 20-Dec-2017
                19-Sep-2025 
 ******************************************
 %nprocs=16
 Will use up to   16 processors via shared memory.
 %mem=40GB
 %chk=DXYL0110.chk
 ----------------------------------------------------------------------
 # opt freq=noraman M08HX/6-311++G** scf=xqc Empiricaldispersion=pfd In
 t(Grid=ultraFine)
 ----------------------------------------------------------------------
 1/18=20,19=15,26=4,38=1/1,3;
 2/9=110,12=2,17=6,18=5,40=1/2;
 3/5=4,6=6,7=1111,11=2,25=1,30=1,71=1,74=-74,75=-5,124=11/1,2,3;
 4//1;
 5/5=2,8=3,13=1,38=5/2,8;
 6/7=2,8=2,9=2,10=2,28=1/1;
 7//1,2,3,16;
 1/18=20,19=15,26=4/3(2);
 2/9=110/2;
 99//99;
 2/9=110/2;
 3/5=4,6=6,7=1111,11=2,25=1,30=1,71=1,74=-74,75=-5,124=11/1,2,3;
 4/5=5,16=3,69=1/1;
 5/5=2,8=3,13=1,38=5/2,8;
 7//1,2,3,16;
 1/18=20,19=15,26=4/3(-5);
 2/9=110/2;
 6/7=2,8=2,9=2,10=2,19=2,28=1/1;
 99/9=1/99;
 --------
 DXYL0110
 --------
 Symbolic Z-matrix:
 Charge =  0 Multiplicity = 1
 O                     0.6887   -1.6397   -0.265 
 O                    -1.3483    1.9236   -0.4842 
 O                     1.3748    1.884     0.4753 
 O                    -2.7477   -0.5516    0.2966 
 O                     2.7375   -0.5199   -0.2352 
 C                    -0.7489    0.811     0.181 
 C                     0.7367    0.7869   -0.1778 
 C                    -1.4397   -0.4791   -0.2592 
 C                     1.3994   -0.5201    0.2603 
 C                    -0.6525   -1.6952    0.2082 
 H                    -0.8932    0.976     1.2559 
 H                     0.855     0.945    -1.2574 
 H                    -1.538    -0.4932   -1.3515 
 H                     1.4638   -0.5979    1.3517 
 H                    -0.6612   -1.7872    1.3018 
 H                    -1.1142   -2.6099   -0.1798 
 H                    -0.8783    2.724    -0.1939 
 H                     2.3202    1.8461    0.2508 
 H                    -3.2269    0.2472    0.0171 
 H                     2.7378   -0.1279   -1.1243 
 

 GradGradGradGradGradGradGradGradGradGradGradGradGradGradGradGradGradGrad
 Berny optimization.
 Initialization pass.
                           ----------------------------
                           !    Initial Parameters    !
                           ! (Angstroms and Degrees)  !
 --------------------------                            --------------------------
 ! Name  Definition              Value          Derivative Info.                !
 --------------------------------------------------------------------------------
 ! R1    R(1,9)                  1.4264         estimate D2E/DX2                !
 ! R2    R(1,10)                 1.4233         estimate D2E/DX2                !
 ! R3    R(2,6)                  1.4282         estimate D2E/DX2                !
 ! R4    R(2,17)                 0.9725         estimate D2E/DX2                !
 ! R5    R(3,7)                  1.4274         estimate D2E/DX2                !
 ! R6    R(3,18)                 0.9724         estimate D2E/DX2                !
 ! R7    R(4,8)                  1.423          estimate D2E/DX2                !
 ! R8    R(4,19)                 0.9725         estimate D2E/DX2                !
 ! R9    R(5,9)                  1.4269         estimate D2E/DX2                !
 ! R10   R(5,20)                 0.9717         estimate D2E/DX2                !
 ! R11   R(6,7)                  1.5285         estimate D2E/DX2                !
 ! R12   R(6,8)                  1.5282         estimate D2E/DX2                !
 ! R13   R(6,11)                 1.097          estimate D2E/DX2                !
 ! R14   R(7,9)                  1.5295         estimate D2E/DX2                !
 ! R15   R(7,12)                 1.0975         estimate D2E/DX2                !
 ! R16   R(8,10)                 1.5222         estimate D2E/DX2                !
 ! R17   R(8,13)                 1.0968         estimate D2E/DX2                !
 ! R18   R(9,14)                 1.0961         estimate D2E/DX2                !
 ! R19   R(10,15)                1.0975         estimate D2E/DX2                !
 ! R20   R(10,16)                1.0956         estimate D2E/DX2                !
 ! A1    A(9,1,10)             112.1901         estimate D2E/DX2                !
 ! A2    A(6,2,17)             107.4152         estimate D2E/DX2                !
 ! A3    A(7,3,18)             107.3996         estimate D2E/DX2                !
 ! A4    A(8,4,19)             107.3859         estimate D2E/DX2                !
 ! A5    A(9,5,20)             108.5475         estimate D2E/DX2                !
 ! A6    A(2,6,7)              108.1115         estimate D2E/DX2                !
 ! A7    A(2,6,8)              109.4985         estimate D2E/DX2                !
 ! A8    A(2,6,11)             106.4991         estimate D2E/DX2                !
 ! A9    A(7,6,8)              111.0034         estimate D2E/DX2                !
 ! A10   A(7,6,11)             111.1139         estimate D2E/DX2                !
 ! A11   A(8,6,11)             110.4726         estimate D2E/DX2                !
 ! A12   A(3,7,6)              108.3594         estimate D2E/DX2                !
 ! A13   A(3,7,9)              109.3935         estimate D2E/DX2                !
 ! A14   A(3,7,12)             106.9288         estimate D2E/DX2                !
 ! A15   A(6,7,9)              111.5526         estimate D2E/DX2                !
 ! A16   A(6,7,12)             109.4754         estimate D2E/DX2                !
 ! A17   A(9,7,12)             110.987          estimate D2E/DX2                !
 ! A18   A(4,8,6)              110.243          estimate D2E/DX2                !
 ! A19   A(4,8,10)             108.3435         estimate D2E/DX2                !
 ! A20   A(4,8,13)             107.8144         estimate D2E/DX2                !
 ! A21   A(6,8,10)             110.6236         estimate D2E/DX2                !
 ! A22   A(6,8,13)             109.7696         estimate D2E/DX2                !
 ! A23   A(10,8,13)            109.9912         estimate D2E/DX2                !
 ! A24   A(1,9,5)              109.8448         estimate D2E/DX2                !
 ! A25   A(1,9,7)              110.449          estimate D2E/DX2                !
 ! A26   A(1,9,14)             109.8933         estimate D2E/DX2                !
 ! A27   A(5,9,7)              107.8623         estimate D2E/DX2                !
 ! A28   A(5,9,14)             106.8993         estimate D2E/DX2                !
 ! A29   A(7,9,14)             111.7976         estimate D2E/DX2                !
 ! A30   A(1,10,8)             110.737          estimate D2E/DX2                !
 ! A31   A(1,10,15)            110.0001         estimate D2E/DX2                !
 ! A32   A(1,10,16)            108.1744         estimate D2E/DX2                !
 ! A33   A(8,10,15)            111.6441         estimate D2E/DX2                !
 ! A34   A(8,10,16)            109.8964         estimate D2E/DX2                !
 ! A35   A(15,10,16)           106.2336         estimate D2E/DX2                !
 ! D1    D(10,1,9,5)           179.4727         estimate D2E/DX2                !
 ! D2    D(10,1,9,7)           -61.672          estimate D2E/DX2                !
 ! D3    D(10,1,9,14)           62.1338         estimate D2E/DX2                !
 ! D4    D(9,1,10,8)            63.2276         estimate D2E/DX2                !
 ! D5    D(9,1,10,15)          -60.6557         estimate D2E/DX2                !
 ! D6    D(9,1,10,16)         -176.2886         estimate D2E/DX2                !
 ! D7    D(17,2,6,7)           -58.0649         estimate D2E/DX2                !
 ! D8    D(17,2,6,8)          -179.1201         estimate D2E/DX2                !
 ! D9    D(17,2,6,11)           61.4174         estimate D2E/DX2                !
 ! D10   D(18,3,7,6)           179.0051         estimate D2E/DX2                !
 ! D11   D(18,3,7,9)            57.191          estimate D2E/DX2                !
 ! D12   D(18,3,7,12)          -63.077          estimate D2E/DX2                !
 ! D13   D(19,4,8,6)            56.7243         estimate D2E/DX2                !
 ! D14   D(19,4,8,10)          177.9082         estimate D2E/DX2                !
 ! D15   D(19,4,8,13)          -63.0883         estimate D2E/DX2                !
 ! D16   D(20,5,9,1)            81.7379         estimate D2E/DX2                !
 ! D17   D(20,5,9,7)           -38.6964         estimate D2E/DX2                !
 ! D18   D(20,5,9,14)         -159.0709         estimate D2E/DX2                !
 ! D19   D(2,6,7,3)             70.8472         estimate D2E/DX2                !
 ! D20   D(2,6,7,9)           -168.6726         estimate D2E/DX2                !
 ! D21   D(2,6,7,12)           -45.4341         estimate D2E/DX2                !
 ! D22   D(8,6,7,3)           -169.037          estimate D2E/DX2                !
 ! D23   D(8,6,7,9)            -48.5567         estimate D2E/DX2                !
 ! D24   D(8,6,7,12)            74.6817         estimate D2E/DX2                !
 ! D25   D(11,6,7,3)           -45.679          estimate D2E/DX2                !
 ! D26   D(11,6,7,9)            74.8013         estimate D2E/DX2                !
 ! D27   D(11,6,7,12)         -161.9603         estimate D2E/DX2                !
 ! D28   D(2,6,8,4)            -71.5669         estimate D2E/DX2                !
 ! D29   D(2,6,8,10)           168.6188         estimate D2E/DX2                !
 ! D30   D(2,6,8,13)            47.0562         estimate D2E/DX2                !
 ! D31   D(7,6,8,4)            169.1453         estimate D2E/DX2                !
 ! D32   D(7,6,8,10)            49.331          estimate D2E/DX2                !
 ! D33   D(7,6,8,13)           -72.2317         estimate D2E/DX2                !
 ! D34   D(11,6,8,4)            45.42           estimate D2E/DX2                !
 ! D35   D(11,6,8,10)          -74.3943         estimate D2E/DX2                !
 ! D36   D(11,6,8,13)          164.0431         estimate D2E/DX2                !
 ! D37   D(3,7,9,1)            173.7459         estimate D2E/DX2                !
 ! D38   D(3,7,9,5)            -66.2            estimate D2E/DX2                !
 ! D39   D(3,7,9,14)            51.046          estimate D2E/DX2                !
 ! D40   D(6,7,9,1)             53.8738         estimate D2E/DX2                !
 ! D41   D(6,7,9,5)            173.9278         estimate D2E/DX2                !
 ! D42   D(6,7,9,14)           -68.8262         estimate D2E/DX2                !
 ! D43   D(12,7,9,1)           -68.5004         estimate D2E/DX2                !
 ! D44   D(12,7,9,5)            51.5536         estimate D2E/DX2                !
 ! D45   D(12,7,9,14)          168.7997         estimate D2E/DX2                !
 ! D46   D(4,8,10,1)          -177.0765         estimate D2E/DX2                !
 ! D47   D(4,8,10,15)          -54.141          estimate D2E/DX2                !
 ! D48   D(4,8,10,16)           63.4702         estimate D2E/DX2                !
 ! D49   D(6,8,10,1)           -56.128          estimate D2E/DX2                !
 ! D50   D(6,8,10,15)           66.8074         estimate D2E/DX2                !
 ! D51   D(6,8,10,16)         -175.5814         estimate D2E/DX2                !
 ! D52   D(13,8,10,1)           65.3039         estimate D2E/DX2                !
 ! D53   D(13,8,10,15)        -171.7607         estimate D2E/DX2                !
 ! D54   D(13,8,10,16)         -54.1495         estimate D2E/DX2                !
 --------------------------------------------------------------------------------
 Trust Radius=3.00D-01 FncErr=1.00D-07 GrdErr=1.00D-06 EigMax=2.50D+02 EigMin=1.00D-04
 Number of steps in this run=    119 maximum allowed number of steps=    120.
 GradGradGradGradGradGradGradGradGradGradGradGradGradGradGradGradGradGrad

                          Input orientation:                          
 ---------------------------------------------------------------------
 Center     Atomic      Atomic             Coordinates (Angstroms)
 Number     Number       Type             X           Y           Z
 ---------------------------------------------------------------------
      1          8           0        0.688700   -1.639700   -0.265000
      2          8           0       -1.348300    1.923600   -0.484200
      3          8           0        1.374800    1.884000    0.475300
      4          8           0       -2.747700   -0.551600    0.296600
      5          8           0        2.737500   -0.519900   -0.235200
      6          6           0       -0.748900    0.811000    0.181000
      7          6           0        0.736700    0.786900   -0.177800
      8          6           0       -1.439700   -0.479100   -0.259200
      9          6           0        1.399400   -0.520100    0.260300
     10          6           0       -0.652500   -1.695200    0.208200
     11          1           0       -0.893200    0.976000    1.255900
     12          1           0        0.855000    0.945000   -1.257400
     13          1           0       -1.538000   -0.493200   -1.351500
     14          1           0        1.463800   -0.597900    1.351700
     15          1           0       -0.661200   -1.787200    1.301800
     16          1           0       -1.114200   -2.609900   -0.179800
     17          1           0       -0.878300    2.724000   -0.193900
     18          1           0        2.320200    1.846100    0.250800
     19          1           0       -3.226900    0.247200    0.017100
     20          1           0        2.737800   -0.127900   -1.124300
 ---------------------------------------------------------------------
                    Distance matrix (angstroms):
                    1          2          3          4          5
     1  O    0.000000
     2  O    4.110295   0.000000
     3  O    3.665411   2.887470   0.000000
     4  O    3.648041   2.948658   4.791564   0.000000
     5  O    2.335042   4.767227   2.853156   5.511010   0.000000
     6  C    2.876029   1.428163   2.397508   2.421826   3.754930
     7  C    2.428641   2.394409   1.427354   3.762669   2.390444
     8  C    2.424276   2.414942   3.747685   1.423037   4.177468
     9  C    1.426373   3.751774   2.413820   4.147378   1.426896
    10  C    1.423312   3.749569   4.122131   2.388619   3.615250
    11  H    3.414298   2.032981   2.564688   2.587081   4.200366
    12  H    2.773660   2.531803   2.038176   4.199306   2.595117
    13  H    2.730043   2.574707   4.180034   2.045243   4.418907
    14  H    2.073607   4.199571   2.633596   4.341902   2.036332
    15  H    2.073366   4.175157   4.278564   2.624998   3.939490
    16  H    2.049145   4.549735   5.178746   2.670558   4.382552
    17  H    4.637070   0.972530   2.495974   3.803262   4.857839
    18  H    3.883123   3.742208   0.972429   5.606663   2.451182
    19  H    4.355674   2.567247   4.905579   0.972540   6.018818
    20  H    2.687517   4.616773   2.909335   5.682358   0.971680
                    6          7          8          9         10
     6  C    0.000000
     7  C    1.528504   0.000000
     8  C    1.528181   2.519146   0.000000
     9  C    2.528499   1.529494   2.886529   0.000000
    10  C    2.508201   2.870487   1.522185   2.365136   0.000000
    11  H    1.097022   2.178951   2.170600   2.912997   2.879396
    12  H    2.158575   1.097509   2.879255   2.178601   3.375085
    13  H    2.161521   2.861903   1.096805   3.350663   2.159069
    14  H    2.872556   2.187628   3.322563   1.096063   2.643934
    15  H    2.830994   3.281666   2.180346   2.633693   1.097497
    16  H    3.459216   3.868344   2.156980   3.298354   1.095622
    17  H    1.953679   2.522071   3.252581   3.989787   4.443197
    18  H    3.239704   1.952710   4.450113   2.539068   4.623804
    19  H    2.546609   4.004920   1.948830   4.695801   3.230630
    20  H    3.839586   2.395229   4.280566   1.965261   3.965617
                   11         12         13         14         15
    11  H    0.000000
    12  H    3.061673   0.000000
    13  H    3.061511   2.793514   0.000000
    14  H    2.835805   3.091695   4.040923   0.000000
    15  H    2.773302   4.038971   3.079483   2.435683   0.000000
    16  H    3.868947   4.204317   2.456198   3.611055   1.754190
    17  H    2.271045   2.701889   3.482186   4.348486   4.757644
    18  H    3.477534   2.287676   4.788047   2.813990   4.816037
    19  H    2.740790   4.332803   2.296441   4.949547   3.517393
    20  H    4.479744   2.171121   4.297386   2.823925   4.493600
                   16         17         18         19         20
    16  H    0.000000
    17  H    5.339133   0.000000
    18  H    5.642380   3.346471   0.000000
    19  H    3.558833   3.419793   5.777665   0.000000
    20  H    4.678708   4.698421   2.441714   6.084500   0.000000
 Stoichiometry    C5H10O5
 Framework group  C1[X(C5H10O5)]
 Deg. of freedom    54
 Full point group                 C1      NOp   1
 Largest Abelian subgroup         C1      NOp   1
 Largest concise Abelian subgroup C1      NOp   1
                         Standard orientation:                         
 ---------------------------------------------------------------------
 Center     Atomic      Atomic             Coordinates (Angstroms)
 Number     Number       Type             X           Y           Z
 ---------------------------------------------------------------------
      1          8           0        0.633458   -1.698792   -0.270362
      2          8           0       -1.291553    1.927138   -0.474057
      3          8           0        1.420014    1.795246    0.509554
      4          8           0       -2.773160   -0.511104    0.270525
      5          8           0        2.715160   -0.642636   -0.211436
      6          6           0       -0.732657    0.790601    0.185920
      7          6           0        0.754788    0.724289   -0.159674
      8          6           0       -1.458437   -0.473605   -0.272737
      9          6           0        1.373124   -0.606394    0.271946
     10          6           0       -0.713159   -1.717520    0.190168
     11          1           0       -0.881847    0.950025    1.260994
     12          1           0        0.887910    0.888640   -1.236611
     13          1           0       -1.546949   -0.474610   -1.365964
     14          1           0        1.424953   -0.696194    1.363094
     15          1           0       -0.734848   -1.819293    1.282721
     16          1           0       -1.198968   -2.614022   -0.210658
     17          1           0       -0.800032    2.710045   -0.171934
     18          1           0        2.365863    1.730459    0.293244
     19          1           0       -3.225098    0.304552   -0.005683
     20          1           0        2.735718   -0.242646   -1.096731
 ---------------------------------------------------------------------
 Rotational constants (GHZ):           1.8652211           1.1755290           0.7732663
 Standard basis: 6-311++G(d,p) (5D, 7F)
 There are   300 symmetry adapted cartesian basis functions of A   symmetry.
 There are   290 symmetry adapted basis functions of A   symmetry.
   290 basis functions,   450 primitive gaussians,   300 cartesian basis functions
    40 alpha electrons       40 beta electrons
       nuclear repulsion energy       614.0860705138 Hartrees.
 NAtoms=   20 NActive=   20 NUniq=   20 SFac= 1.00D+00 NAtFMM=   60 NAOKFM=F Big=F
 Integral buffers will be    131072 words long.
 Raffenetti 2 integral format.
 Two-electron integral symmetry is turned on.
 R6APFD:  NTU= -4 IXU= 1 FactS= 1.050
 Nuclear repulsion after empirical dispersion term =      614.0692006905 Hartrees.
 One-electron integrals computed using PRISM.
 NBasis=   290 RedAO= T EigKep=  8.83D-06  NBF=   290
 NBsUse=   290 1.00D-06 EigRej= -1.00D+00 NBFU=   290
 ExpMin= 3.60D-02 ExpMax= 8.59D+03 ExpMxC= 1.30D+03 IAcc=3 IRadAn=         5 AccDes= 0.00D+00
 Harris functional with IExCor= 1009 and IRadAn=       5 diagonalized for initial guess.
 HarFok:  IExCor= 1009 AccDes= 0.00D+00 IRadAn=         5 IDoV= 1 UseB2=F ITyADJ=14
 ICtDFT=  3500011 ScaDFX=  1.000000  1.000000  1.000000  1.000000
 FoFCou: FMM=F IPFlag=           0 FMFlag=      100000 FMFlg1=           0
         NFxFlg=           0 DoJE=T BraDBF=F KetDBF=T FulRan=T
         wScrn=  0.000000 ICntrl=       500 IOpCl=  0 I1Cent=   200000004 NGrid=           0
         NMat0=    1 NMatS0=      1 NMatT0=    0 NMatD0=    1 NMtDS0=    0 NMtDT0=    0
 Petite list used in FoFCou.
 Requested convergence on RMS density matrix=1.00D-08 within  32 cycles.
 Requested convergence on MAX density matrix=1.00D-06.
 Requested convergence on             energy=1.00D-06.
 No special actions if energy rises.
 SCF Done:  E(RM08HX) =  -572.641792228     A.U. after   13 cycles
            NFock= 13  Conv=0.30D-08     -V/T= 2.0040
 QCSCF skips out because SCF is already converged.

 **********************************************************************

            Population analysis using the SCF Density.

 **********************************************************************

 Orbital symmetries:
       Occupied  (A) (A) (A) (A) (A) (A) (A) (A) (A) (A) (A) (A)
                 (A) (A) (A) (A) (A) (A) (A) (A) (A) (A) (A) (A)
                 (A) (A) (A) (A) (A) (A) (A) (A) (A) (A) (A) (A)
                 (A) (A) (A) (A)
       Virtual   (A) (A) (A) (A) (A) (A) (A) (A) (A) (A) (A) (A)
                 (A) (A) (A) (A) (A) (A) (A) (A) (A) (A) (A) (A)
                 (A) (A) (A) (A) (A) (A) (A) (A) (A) (A) (A) (A)
                 (A) (A) (A) (A) (A) (A) (A) (A) (A) (A) (A) (A)
                 (A) (A) (A) (A) (A) (A) (A) (A) (A) (A) (A) (A)
                 (A) (A) (A) (A) (A) (A) (A) (A) (A) (A) (A) (A)
                 (A) (A) (A) (A) (A) (A) (A) (A) (A) (A) (A) (A)
                 (A) (A) (A) (A) (A) (A) (A) (A) (A) (A) (A) (A)
                 (A) (A) (A) (A) (A) (A) (A) (A) (A) (A) (A) (A)
                 (A) (A) (A) (A) (A) (A) (A) (A) (A) (A) (A) (A)
                 (A) (A) (A) (A) (A) (A) (A) (A) (A) (A) (A) (A)
                 (A) (A) (A) (A) (A) (A) (A) (A) (A) (A) (A) (A)
                 (A) (A) (A) (A) (A) (A) (A) (A) (A) (A) (A) (A)
                 (A) (A) (A) (A) (A) (A) (A) (A) (A) (A) (A) (A)
                 (A) (A) (A) (A) (A) (A) (A) (A) (A) (A) (A) (A)
                 (A) (A) (A) (A) (A) (A) (A) (A) (A) (A) (A) (A)
                 (A) (A) (A) (A) (A) (A) (A) (A) (A) (A) (A) (A)
                 (A) (A) (A) (A) (A) (A) (A) (A) (A) (A) (A) (A)
                 (A) (A) (A) (A) (A) (A) (A) (A) (A) (A) (A) (A)
                 (A) (A) (A) (A) (A) (A) (A) (A) (A) (A) (A) (A)
                 (A) (A) (A) (A) (A) (A) (A) (A) (A) (A)
 The electronic state is 1-A.
 Alpha  occ. eigenvalues --  -19.64169 -19.63748 -19.63561 -19.62750 -19.62165
 Alpha  occ. eigenvalues --  -10.65449 -10.60807 -10.60274 -10.59970 -10.59334
 Alpha  occ. eigenvalues --   -1.21241  -1.17632  -1.16563  -1.14460  -1.14192
 Alpha  occ. eigenvalues --   -0.90274  -0.86909  -0.76205  -0.75397  -0.69600
 Alpha  occ. eigenvalues --   -0.64707  -0.63616  -0.60944  -0.58947  -0.58498
 Alpha  occ. eigenvalues --   -0.56183  -0.55267  -0.53100  -0.50659  -0.49047
 Alpha  occ. eigenvalues --   -0.47140  -0.46775  -0.44922  -0.42692  -0.41688
 Alpha  occ. eigenvalues --   -0.40745  -0.38764  -0.37639  -0.36364  -0.34861
 Alpha virt. eigenvalues --   -0.03876  -0.02418  -0.01836  -0.01498   0.00440
 Alpha virt. eigenvalues --    0.00717   0.01373   0.01768   0.02051   0.04576
 Alpha virt. eigenvalues --    0.05246   0.06293   0.06816   0.07233   0.07669
 Alpha virt. eigenvalues --    0.07862   0.08683   0.09547   0.10215   0.10448
 Alpha virt. eigenvalues --    0.11209   0.11767   0.11939   0.12284   0.12612
 Alpha virt. eigenvalues --    0.12927   0.13515   0.13831   0.14340   0.16468
 Alpha virt. eigenvalues --    0.17201   0.18140   0.18664   0.19272   0.20251
 Alpha virt. eigenvalues --    0.20515   0.21778   0.22523   0.23984   0.24808
 Alpha virt. eigenvalues --    0.24993   0.25604   0.26501   0.26621   0.27146
 Alpha virt. eigenvalues --    0.27905   0.28885   0.29243   0.30314   0.30567
 Alpha virt. eigenvalues --    0.30762   0.31227   0.31893   0.32345   0.32688
 Alpha virt. eigenvalues --    0.32839   0.33731   0.34023   0.34646   0.35393
 Alpha virt. eigenvalues --    0.35833   0.36484   0.37240   0.38222   0.39042
 Alpha virt. eigenvalues --    0.40295   0.41833   0.42818   0.43561   0.44023
 Alpha virt. eigenvalues --    0.49803   0.52140   0.52695   0.54895   0.56444
 Alpha virt. eigenvalues --    0.57854   0.58461   0.61089   0.62266   0.63050
 Alpha virt. eigenvalues --    0.64535   0.67318   0.68100   0.69933   0.69993
 Alpha virt. eigenvalues --    0.70218   0.73299   0.73672   0.74812   0.76700
 Alpha virt. eigenvalues --    0.77187   0.78185   0.78895   0.80214   0.92131
 Alpha virt. eigenvalues --    0.95039   0.97471   1.00285   1.01161   1.06063
 Alpha virt. eigenvalues --    1.08000   1.10021   1.11844   1.12370   1.15529
 Alpha virt. eigenvalues --    1.17093   1.18232   1.19289   1.19968   1.20376
 Alpha virt. eigenvalues --    1.21960   1.23248   1.25177   1.26112   1.27104
 Alpha virt. eigenvalues --    1.28054   1.30683   1.34641   1.36476   1.38957
 Alpha virt. eigenvalues --    1.40807   1.43211   1.45854   1.47388   1.48104
 Alpha virt. eigenvalues --    1.50681   1.53273   1.55767   1.57296   1.58735
 Alpha virt. eigenvalues --    1.59307   1.61041   1.61740   1.62621   1.63040
 Alpha virt. eigenvalues --    1.65108   1.65876   1.68109   1.70212   1.71686
 Alpha virt. eigenvalues --    1.72024   1.74365   1.75660   1.77666   1.81176
 Alpha virt. eigenvalues --    1.85231   1.86379   1.87481   1.89125   1.90324
 Alpha virt. eigenvalues --    1.94571   1.96105   1.99341   2.01206   2.04043
 Alpha virt. eigenvalues --    2.06930   2.09679   2.10851   2.12575   2.14883
 Alpha virt. eigenvalues --    2.17148   2.17845   2.19396   2.21384   2.23905
 Alpha virt. eigenvalues --    2.25283   2.27420   2.35361   2.40008   2.49550
 Alpha virt. eigenvalues --    2.50844   2.54710   2.55536   2.58697   2.61398
 Alpha virt. eigenvalues --    2.63591   2.64711   2.67628   2.70822   2.78121
 Alpha virt. eigenvalues --    2.80007   2.81280   2.82829   2.86763   2.89920
 Alpha virt. eigenvalues --    2.93753   2.96860   2.99221   3.01518   3.02110
 Alpha virt. eigenvalues --    3.04117   3.10513   3.10705   3.14188   3.15400
 Alpha virt. eigenvalues --    3.17152   3.18622   3.19141   3.21918   3.23745
 Alpha virt. eigenvalues --    3.25758   3.29425   3.30964   3.33343   3.37592
 Alpha virt. eigenvalues --    3.40669   3.41386   3.45721   3.53118   3.57123
 Alpha virt. eigenvalues --    3.80644   3.86668   3.89106   3.91775   3.93413
 Alpha virt. eigenvalues --    3.95458   3.98307   4.01785   4.08039   4.11160
 Alpha virt. eigenvalues --    4.15375   4.22635   4.24571   4.34860   4.40016
 Alpha virt. eigenvalues --    5.18610   5.18994   5.22783   5.23216   5.25830
 Alpha virt. eigenvalues --    5.41704   5.51393   5.53115   5.53154   5.55803
 Alpha virt. eigenvalues --    5.66083   5.68999   5.71717   5.77003   5.85055
 Alpha virt. eigenvalues --   23.77638  23.81831  23.84972  23.87771  23.93938
 Alpha virt. eigenvalues --   49.90933  49.92034  49.93953  49.97170  49.98751
          Condensed to atoms (all electrons):
               1          2          3          4          5          6
     1  O    8.024586  -0.008272   0.005273   0.008393  -0.008493   0.017426
     2  O   -0.008272   7.984015  -0.013339  -0.014821  -0.002121   0.286065
     3  O    0.005273  -0.013339   7.993679  -0.000504  -0.020384  -0.375840
     4  O    0.008393  -0.014821  -0.000504   7.880048   0.000612  -0.322998
     5  O   -0.008493  -0.002121  -0.020384   0.000612   7.917421   0.007730
     6  C    0.017426   0.286065  -0.375840  -0.322998   0.007730  11.422455
     7  C   -0.003745  -0.133159   0.385390   0.040792   0.043611  -3.218663
     8  C   -0.057929  -0.216732   0.098048   0.606289   0.024207  -1.527048
     9  C    0.062110   0.038046  -0.112357   0.008240   0.085972   0.282946
    10  C    0.160449   0.093954   0.029952  -0.247292   0.006265  -0.836843
    11  H    0.002759  -0.034119  -0.029950  -0.015467   0.001509   0.548640
    12  H    0.004632  -0.011507  -0.053729  -0.003982  -0.036127  -0.034400
    13  H    0.013144  -0.036347  -0.007272  -0.038858  -0.000297   0.208515
    14  H   -0.083743  -0.002875   0.002906   0.004578  -0.091446   0.077650
    15  H   -0.017875  -0.004316   0.000586  -0.003233  -0.002602   0.074608
    16  H   -0.076730   0.001629   0.003020   0.007964   0.003331  -0.095784
    17  H    0.000145   0.233683   0.007326   0.001972   0.000415  -0.068994
    18  H   -0.000600   0.003747   0.247181   0.000138   0.035080  -0.030104
    19  H   -0.000495   0.016252   0.000322   0.249254   0.000165  -0.015856
    20  H   -0.022139  -0.000248  -0.010915   0.000300   0.256420  -0.016991
               7          8          9         10         11         12
     1  O   -0.003745  -0.057929   0.062110   0.160449   0.002759   0.004632
     2  O   -0.133159  -0.216732   0.038046   0.093954  -0.034119  -0.011507
     3  O    0.385390   0.098048  -0.112357   0.029952  -0.029950  -0.053729
     4  O    0.040792   0.606289   0.008240  -0.247292  -0.015467  -0.003982
     5  O    0.043611   0.024207   0.085972   0.006265   0.001509  -0.036127
     6  C   -3.218663  -1.527048   0.282946  -0.836843   0.548640  -0.034400
     7  C   11.086748  -0.932951  -2.531610   1.522590  -0.084102   0.528736
     8  C   -0.932951   9.378941   0.843443  -1.921793  -0.168226  -0.176499
     9  C   -2.531610   0.843443   8.862490  -1.241520  -0.026568  -0.209679
    10  C    1.522590  -1.921793  -1.241520   8.555005  -0.038320   0.097349
    11  H   -0.084102  -0.168226  -0.026568  -0.038320   0.557059   0.009174
    12  H    0.528736  -0.176499  -0.209679   0.097349   0.009174   0.624354
    13  H   -0.150826   0.513721   0.056256  -0.392479   0.010691  -0.015999
    14  H   -0.220298   0.017942   0.433707  -0.045476  -0.024443  -0.011705
    15  H   -0.042065  -0.071248  -0.005185   0.341481  -0.019160   0.006048
    16  H    0.054730  -0.038712  -0.032042   0.495004  -0.001944   0.002997
    17  H    0.067206   0.027220   0.008641   0.002108  -0.026179  -0.011622
    18  H    0.048474   0.006312  -0.002128  -0.000562   0.003220  -0.028438
    19  H    0.037442  -0.059806   0.005563   0.041376  -0.016813  -0.001101
    20  H    0.017712   0.006627  -0.006750  -0.019348   0.001426  -0.015375
              13         14         15         16         17         18
     1  O    0.013144  -0.083743  -0.017875  -0.076730   0.000145  -0.000600
     2  O   -0.036347  -0.002875  -0.004316   0.001629   0.233683   0.003747
     3  O   -0.007272   0.002906   0.000586   0.003020   0.007326   0.247181
     4  O   -0.038858   0.004578  -0.003233   0.007964   0.001972   0.000138
     5  O   -0.000297  -0.091446  -0.002602   0.003331   0.000415   0.035080
     6  C    0.208515   0.077650   0.074608  -0.095784  -0.068994  -0.030104
     7  C   -0.150826  -0.220298  -0.042065   0.054730   0.067206   0.048474
     8  C    0.513721   0.017942  -0.071248  -0.038712   0.027220   0.006312
     9  C    0.056256   0.433707  -0.005185  -0.032042   0.008641  -0.002128
    10  C   -0.392479  -0.045476   0.341481   0.495004   0.002108  -0.000562
    11  H    0.010691  -0.024443  -0.019160  -0.001944  -0.026179   0.003220
    12  H   -0.015999  -0.011705   0.006048   0.002997  -0.011622  -0.028438
    13  H    0.557101   0.004343   0.006978  -0.043508   0.003358  -0.000573
    14  H    0.004343   0.543978   0.021310  -0.007254   0.000183  -0.008374
    15  H    0.006978   0.021310   0.467582  -0.030230   0.000080  -0.000889
    16  H   -0.043508  -0.007254  -0.030230   0.466361  -0.000113   0.000399
    17  H    0.003358   0.000183   0.000080  -0.000113   0.458258   0.001557
    18  H   -0.000573  -0.008374  -0.000889   0.000399   0.001557   0.448381
    19  H   -0.024931  -0.000125   0.003879   0.002558   0.002182   0.000125
    20  H    0.003614   0.023876  -0.002266   0.000116   0.000648  -0.008865
              19         20
     1  O   -0.000495  -0.022139
     2  O    0.016252  -0.000248
     3  O    0.000322  -0.010915
     4  O    0.249254   0.000300
     5  O    0.000165   0.256420
     6  C   -0.015856  -0.016991
     7  C    0.037442   0.017712
     8  C   -0.059806   0.006627
     9  C    0.005563  -0.006750
    10  C    0.041376  -0.019348
    11  H   -0.016813   0.001426
    12  H   -0.001101  -0.015375
    13  H   -0.024931   0.003614
    14  H   -0.000125   0.023876
    15  H    0.003879  -0.002266
    16  H    0.002558   0.000116
    17  H    0.002182   0.000648
    18  H    0.000125  -0.008865
    19  H    0.467870  -0.000050
    20  H   -0.000050   0.510966
 Mulliken charges:
               1
     1  O   -0.018897
     2  O   -0.179534
     3  O   -0.149393
     4  O   -0.161424
     5  O   -0.221269
     6  C   -0.382512
     7  C   -0.516013
     8  C   -0.351806
     9  C   -0.519574
    10  C   -0.601902
    11  H    0.350814
    12  H    0.336871
    13  H    0.333371
    14  H    0.365267
    15  H    0.276516
    16  H    0.288210
    17  H    0.291925
    18  H    0.285918
    19  H    0.292191
    20  H    0.281243
 Sum of Mulliken charges =  -0.00000
 Mulliken charges with hydrogens summed into heavy atoms:
               1
     1  O   -0.018897
     2  O    0.112391
     3  O    0.136524
     4  O    0.130767
     5  O    0.059974
     6  C   -0.031699
     7  C   -0.179142
     8  C   -0.018435
     9  C   -0.154308
    10  C   -0.037175
 Electronic spatial extent (au):  <R**2>=           1462.3725
 Charge=              0.0000 electrons
 Dipole moment (field-independent basis, Debye):
    X=              0.6284    Y=              1.8243    Z=             -0.7848  Tot=              2.0830
 Quadrupole moment (field-independent basis, Debye-Ang):
   XX=            -63.5718   YY=            -62.6509   ZZ=            -59.0973
   XY=              4.1900   XZ=             -2.2844   YZ=             -1.3691
 Traceless Quadrupole moment (field-independent basis, Debye-Ang):
   XX=             -1.7985   YY=             -0.8776   ZZ=              2.6760
   XY=              4.1900   XZ=             -2.2844   YZ=             -1.3691
 Octapole moment (field-independent basis, Debye-Ang**2):
  XXX=              6.5274  YYY=             14.1198  ZZZ=             -2.9379  XYY=             -5.7350
  XXY=             28.6473  XXZ=            -16.3001  XZZ=              8.5954  YZZ=             -2.6062
  YYZ=              2.9360  XYZ=             -9.4498
 Hexadecapole moment (field-independent basis, Debye-Ang**3):
 XXXX=           -997.0633 YYYY=           -604.8197 ZZZZ=           -130.2741 XXXY=              9.9774
 XXXZ=            -11.4659 YYYX=             14.4758 YYYZ=             -3.9247 ZZZX=             -8.5689
 ZZZY=             -0.3604 XXYY=           -289.3560 XXZZ=           -176.9094 YYZZ=           -136.9276
 XXYZ=              6.8940 YYXZ=             -4.6645 ZZXY=             -2.2345
 N-N= 6.140692006905D+02 E-N=-2.572246215527D+03  KE= 5.703379223186D+02
 R6APFD:  NTU= -4 IXU= 1 FactS= 1.050
 Calling FoFJK, ICntrl=      2127 FMM=F ISym2X=0 I1Cent= 0 IOpClX= 0 NMat=1 NMatS=1 NMatT=0.
 ***** Axes restored to original set *****
 -------------------------------------------------------------------
 Center     Atomic                   Forces (Hartrees/Bohr)
 Number     Number              X              Y              Z
 -------------------------------------------------------------------
      1        8           0.005080331    0.006618674   -0.000530706
      2        8           0.000084702    0.004314067    0.002577457
      3        8           0.004726868   -0.001021770   -0.003786447
      4        8          -0.001377113    0.008156305   -0.002869479
      5        8          -0.016737144    0.002791586    0.003390758
      6        6           0.007275008    0.013480395   -0.012273543
      7        6           0.002159294    0.003845125    0.019693339
      8        6          -0.014040961    0.007976099    0.006047578
      9        6           0.011863952   -0.006946147   -0.024376810
     10        6           0.005074514   -0.002270230   -0.001291475
     11        1           0.004431949   -0.008210453    0.006132177
     12        1          -0.004133240   -0.008042411   -0.006906010
     13        1           0.006625345    0.000942149   -0.004841641
     14        1           0.000492908    0.001137119    0.003097663
     15        1          -0.001356597    0.004362399    0.004716637
     16        1           0.002778800    0.000816374   -0.002109987
     17        1          -0.005858911   -0.009664391   -0.003187370
     18        1          -0.011175860    0.001412510    0.005245203
     19        1           0.006007919   -0.009496729    0.003627347
     20        1          -0.001921763   -0.010200673    0.007645308
 -------------------------------------------------------------------
 Cartesian Forces:  Max     0.024376810 RMS     0.007529971

 GradGradGradGradGradGradGradGradGradGradGradGradGradGradGradGradGradGrad
 Berny optimization.
 FormGI is forming the generalized inverse of G from B-inverse, IUseBI=4.
 Internal  Forces:  Max     0.021332002 RMS     0.004624233
 Search for a local minimum.
 Step number   1 out of a maximum of  119
 All quantities printed in internal units (Hartrees-Bohrs-Radians)
 Mixed Optimization -- RFO/linear search
 Second derivative matrix not updated -- first step.
 ITU=  0
     Eigenvalues ---    0.00604   0.00695   0.01319   0.01330   0.01336
     Eigenvalues ---    0.01387   0.01439   0.02944   0.03382   0.04582
     Eigenvalues ---    0.04710   0.04993   0.05143   0.05506   0.05695
     Eigenvalues ---    0.06212   0.06278   0.06859   0.07252   0.07401
     Eigenvalues ---    0.09232   0.10408   0.11456   0.11613   0.12613
     Eigenvalues ---    0.16000   0.16000   0.16000   0.16000   0.16125
     Eigenvalues ---    0.16656   0.17664   0.19375   0.20385   0.27981
     Eigenvalues ---    0.28715   0.28913   0.29870   0.33959   0.33960
     Eigenvalues ---    0.34014   0.34038   0.34121   0.34171   0.39912
     Eigenvalues ---    0.40393   0.41254   0.41372   0.41439   0.42006
     Eigenvalues ---    0.52861   0.52863   0.52884   0.53035
 RFO step:  Lambda=-1.24045610D-02 EMin= 6.03548773D-03
 Linear search not attempted -- first point.
 Iteration  1 RMS(Cart)=  0.05939457 RMS(Int)=  0.00258057
 Iteration  2 RMS(Cart)=  0.00266453 RMS(Int)=  0.00036847
 Iteration  3 RMS(Cart)=  0.00000558 RMS(Int)=  0.00036845
 Iteration  4 RMS(Cart)=  0.00000000 RMS(Int)=  0.00036845
 Variable       Old X    -DE/DX   Delta X   Delta X   Delta X     New X
                                 (Linear)    (Quad)   (Total)
    R1        2.69545  -0.01247   0.00000  -0.03084  -0.03091   2.66454
    R2        2.68967  -0.00329   0.00000  -0.01019  -0.01018   2.67949
    R3        2.69884  -0.00146   0.00000  -0.00343  -0.00343   2.69540
    R4        1.83782  -0.01174   0.00000  -0.02169  -0.02169   1.81612
    R5        2.69731  -0.00192   0.00000  -0.00450  -0.00450   2.69281
    R6        1.83762  -0.01213   0.00000  -0.02241  -0.02241   1.81521
    R7        2.68915  -0.00389   0.00000  -0.00900  -0.00900   2.68015
    R8        1.83783  -0.01180   0.00000  -0.02181  -0.02181   1.81602
    R9        2.69644  -0.02133   0.00000  -0.04998  -0.04998   2.64646
   R10        1.83621  -0.01111   0.00000  -0.02048  -0.02048   1.81573
   R11        2.88845  -0.00656   0.00000  -0.01792  -0.01792   2.87053
   R12        2.88784  -0.00673   0.00000  -0.01936  -0.01929   2.86855
   R13        2.07307   0.00419   0.00000   0.01188   0.01188   2.08496
   R14        2.89032   0.00205   0.00000   0.00568   0.00567   2.89600
   R15        2.07399   0.00519   0.00000   0.01474   0.01474   2.08873
   R16        2.87651   0.00088   0.00000   0.00346   0.00346   2.87997
   R17        2.07266   0.00422   0.00000   0.01195   0.01195   2.08461
   R18        2.07126   0.00303   0.00000   0.00858   0.00858   2.07984
   R19        2.07397   0.00435   0.00000   0.01235   0.01235   2.08632
   R20        2.07043  -0.00111   0.00000  -0.00312  -0.00312   2.06730
    A1        1.95809  -0.00267   0.00000  -0.01228  -0.01217   1.94591
    A2        1.87475  -0.00014   0.00000  -0.00080  -0.00080   1.87395
    A3        1.87448   0.00408   0.00000   0.02365   0.02365   1.89812
    A4        1.87424  -0.00019   0.00000  -0.00107  -0.00107   1.87316
    A5        1.89451  -0.00179   0.00000  -0.01037  -0.01037   1.88414
    A6        1.88690   0.00799   0.00000   0.05215   0.05220   1.93910
    A7        1.91111  -0.00674   0.00000  -0.03377  -0.03376   1.87735
    A8        1.85876   0.00288   0.00000   0.04962   0.04957   1.90833
    A9        1.93738  -0.00127   0.00000  -0.00234  -0.00234   1.93504
   A10        1.93930  -0.00331   0.00000  -0.03266  -0.03412   1.90518
   A11        1.92811   0.00066   0.00000  -0.02946  -0.02994   1.89817
   A12        1.89123  -0.00683   0.00000  -0.03934  -0.03912   1.85211
   A13        1.90928   0.00467   0.00000   0.03438   0.03431   1.94359
   A14        1.86626   0.00444   0.00000   0.06061   0.06059   1.92685
   A15        1.94696   0.00255   0.00000   0.00353   0.00338   1.95034
   A16        1.91071  -0.00089   0.00000  -0.02327  -0.02336   1.88735
   A17        1.93709  -0.00394   0.00000  -0.03358  -0.03446   1.90263
   A18        1.92410   0.00205   0.00000   0.00801   0.00774   1.93185
   A19        1.89095  -0.00159   0.00000  -0.01245  -0.01235   1.87861
   A20        1.88172   0.00246   0.00000   0.04269   0.04281   1.92452
   A21        1.93075  -0.00170   0.00000  -0.01541  -0.01550   1.91525
   A22        1.91584  -0.00166   0.00000  -0.01774  -0.01801   1.89783
   A23        1.91971   0.00057   0.00000  -0.00349  -0.00388   1.91583
   A24        1.91715  -0.00752   0.00000  -0.03231  -0.03297   1.88418
   A25        1.92770   0.00111   0.00000   0.00706   0.00706   1.93475
   A26        1.91800   0.00243   0.00000   0.01152   0.01130   1.92930
   A27        1.88255   0.01157   0.00000   0.06338   0.06368   1.94624
   A28        1.86574  -0.00248   0.00000  -0.01731  -0.01692   1.84883
   A29        1.95124  -0.00525   0.00000  -0.03288  -0.03263   1.91861
   A30        1.93272   0.00452   0.00000   0.01156   0.01141   1.94413
   A31        1.91986   0.00121   0.00000   0.01551   0.01574   1.93560
   A32        1.88800  -0.00371   0.00000  -0.02569  -0.02567   1.86233
   A33        1.94856  -0.00559   0.00000  -0.03148  -0.03139   1.91716
   A34        1.91805   0.00057   0.00000   0.00555   0.00564   1.92370
   A35        1.85413   0.00293   0.00000   0.02495   0.02504   1.87917
    D1        3.13239  -0.00681   0.00000  -0.04807  -0.04777   3.08462
    D2       -1.07638   0.00344   0.00000   0.01427   0.01421  -1.06217
    D3        1.08444  -0.00078   0.00000  -0.01463  -0.01459   1.06985
    D4        1.10353  -0.00091   0.00000   0.00686   0.00691   1.11044
    D5       -1.05864   0.00224   0.00000   0.02810   0.02800  -1.03064
    D6       -3.07682   0.00018   0.00000   0.00440   0.00435  -3.07247
    D7       -1.01342  -0.00106   0.00000  -0.01049  -0.01168  -1.02510
    D8       -3.12624  -0.00038   0.00000  -0.01937  -0.01965   3.13730
    D9        1.07194   0.00082   0.00000   0.00545   0.00692   1.07886
   D10        3.12423   0.00042   0.00000  -0.02925  -0.02900   3.09522
   D11        0.99817  -0.00130   0.00000  -0.03010  -0.02894   0.96923
   D12       -1.10090  -0.00179   0.00000  -0.04452  -0.04593  -1.14684
   D13        0.99003   0.00063   0.00000   0.00262   0.00283   0.99285
   D14        3.10508  -0.00120   0.00000  -0.01929  -0.01922   3.08586
   D15       -1.10110  -0.00004   0.00000  -0.00650  -0.00677  -1.10786
   D16        1.42659  -0.00154   0.00000  -0.13152  -0.13205   1.29455
   D17       -0.67538  -0.00551   0.00000  -0.15970  -0.15940  -0.83478
   D18       -2.77631  -0.00420   0.00000  -0.14559  -0.14536  -2.92167
   D19        1.23652   0.00180   0.00000  -0.01339  -0.01354   1.22298
   D20       -2.94389   0.00470   0.00000   0.00569   0.00536  -2.93853
   D21       -0.79297   0.00080   0.00000  -0.05103  -0.05147  -0.84445
   D22       -2.95025  -0.00218   0.00000  -0.02323  -0.02326  -2.97352
   D23       -0.84747   0.00073   0.00000  -0.00415  -0.00437  -0.85184
   D24        1.30344  -0.00318   0.00000  -0.06087  -0.06120   1.24224
   D25       -0.79725  -0.00459   0.00000  -0.08616  -0.08559  -0.88284
   D26        1.30553  -0.00169   0.00000  -0.06707  -0.06670   1.23883
   D27       -2.82674  -0.00559   0.00000  -0.12380  -0.12353  -2.95027
   D28       -1.24908   0.00064   0.00000   0.03240   0.03224  -1.21684
   D29        2.94295   0.00239   0.00000   0.05262   0.05248   2.99543
   D30        0.82128   0.00389   0.00000   0.07880   0.07844   0.89973
   D31        2.95214  -0.00417   0.00000  -0.00915  -0.00912   2.94302
   D32        0.86099  -0.00242   0.00000   0.01107   0.01112   0.87211
   D33       -1.26068  -0.00092   0.00000   0.03725   0.03709  -1.22359
   D34        0.79273   0.00050   0.00000   0.05532   0.05544   0.84816
   D35       -1.29842   0.00225   0.00000   0.07554   0.07568  -1.22275
   D36        2.86309   0.00375   0.00000   0.10172   0.10164   2.96473
   D37        3.03244  -0.00306   0.00000  -0.02825  -0.02827   3.00416
   D38       -1.15541  -0.00443   0.00000  -0.02434  -0.02375  -1.17916
   D39        0.89092  -0.00330   0.00000  -0.02509  -0.02501   0.86591
   D40        0.94027   0.00077   0.00000  -0.00401  -0.00406   0.93621
   D41        3.03561  -0.00060   0.00000  -0.00010   0.00046   3.03607
   D42       -1.20124   0.00053   0.00000  -0.00085  -0.00079  -1.20204
   D43       -1.19556   0.00292   0.00000   0.04728   0.04668  -1.14888
   D44        0.89978   0.00155   0.00000   0.05119   0.05120   0.95098
   D45        2.94611   0.00268   0.00000   0.05045   0.04995   2.99606
   D46       -3.09057  -0.00034   0.00000  -0.01292  -0.01304  -3.10361
   D47       -0.94494   0.00051   0.00000  -0.00694  -0.00703  -0.95197
   D48        1.10776   0.00106   0.00000   0.00814   0.00806   1.11583
   D49       -0.97962   0.00013   0.00000  -0.02043  -0.02049  -1.00011
   D50        1.16601   0.00098   0.00000  -0.01445  -0.01448   1.15153
   D51       -3.06447   0.00153   0.00000   0.00062   0.00062  -3.06386
   D52        1.13977  -0.00269   0.00000  -0.05510  -0.05517   1.08460
   D53       -2.99779  -0.00184   0.00000  -0.04912  -0.04916  -3.04695
   D54       -0.94509  -0.00129   0.00000  -0.03405  -0.03406  -0.97915
         Item               Value     Threshold  Converged?
 Maximum Force            0.021332     0.000450     NO 
 RMS     Force            0.004624     0.000300     NO 
 Maximum Displacement     0.410453     0.001800     NO 
 RMS     Displacement     0.059532     0.001200     NO 
 Predicted change in Energy=-7.358497D-03
 GradGradGradGradGradGradGradGradGradGradGradGradGradGradGradGradGradGrad

                          Input orientation:                          
 ---------------------------------------------------------------------
 Center     Atomic      Atomic             Coordinates (Angstroms)
 Number     Number       Type             X           Y           Z
 ---------------------------------------------------------------------
      1          8           0        0.705372   -1.622411   -0.276567
      2          8           0       -1.400783    1.918186   -0.451522
      3          8           0        1.326687    1.917325    0.475746
      4          8           0       -2.724368   -0.544245    0.285462
      5          8           0        2.728500   -0.588020   -0.214366
      6          6           0       -0.736095    0.823904    0.177130
      7          6           0        0.739096    0.799459   -0.184304
      8          6           0       -1.424774   -0.451136   -0.274793
      9          6           0        1.406030   -0.513338    0.240326
     10          6           0       -0.629571   -1.661530    0.199775
     11          1           0       -0.839226    0.913949    1.271913
     12          1           0        0.826610    0.909653   -1.280620
     13          1           0       -1.482653   -0.451298   -1.376403
     14          1           0        1.460499   -0.568465    1.338198
     15          1           0       -0.652958   -1.716576    1.302185
     16          1           0       -1.074989   -2.582329   -0.188169
     17          1           0       -0.965185    2.723914   -0.160536
     18          1           0        2.272110    1.914359    0.305870
     19          1           0       -3.205537    0.245799    0.025038
     20          1           0        2.736237   -0.345103   -1.143965
 ---------------------------------------------------------------------
                    Distance matrix (angstroms):
                    1          2          3          4          5
     1  O    0.000000
     2  O    4.123388   0.000000
     3  O    3.671749   2.880784   0.000000
     4  O    3.638878   2.891122   4.744110   0.000000
     5  O    2.273077   4.836144   2.952641   5.475903   0.000000
     6  C    2.875435   1.426347   2.353680   2.415946   3.761678
     7  C    2.423862   2.429411   1.424975   3.744569   2.425640
     8  C    2.430929   2.376025   3.707217   1.418273   4.155969
     9  C    1.410015   3.777454   2.443326   4.130760   1.400446
    10  C    1.417923   3.719317   4.087947   2.375677   3.549730
    11  H    3.349134   2.072212   2.516312   2.579374   4.146518
    12  H    2.726568   2.581825   2.085738   4.144379   2.645205
    13  H    2.714517   2.544909   4.115000   2.076606   4.370679
    14  H    2.070866   4.192072   2.634555   4.315316   2.004661
    15  H    2.084799   4.104415   4.219862   2.588208   3.873994
    16  H    2.024585   4.519970   5.143512   2.664312   4.294705
    17  H    4.657764   0.961050   2.511597   3.738248   4.961362
    18  H    3.911860   3.750174   0.960568   5.568657   2.596313
    19  H    4.344697   2.506216   4.851617   0.960997   5.997113
    20  H    2.551139   4.766224   3.119115   5.648108   0.960845
                    6          7          8          9         10
     6  C    0.000000
     7  C    1.519019   0.000000
     8  C    1.517972   2.500902   0.000000
     9  C    2.526046   1.532497   2.877963   0.000000
    10  C    2.487819   2.842047   1.524013   2.337448   0.000000
    11  H    1.103311   2.150529   2.144440   2.853506   2.797593
    12  H    2.138793   1.105311   2.816410   2.161923   3.304999
    13  H    2.144050   2.814545   1.103129   3.310914   2.162579
    14  H    2.848122   2.170173   3.307614   1.100604   2.619006
    15  H    2.779694   3.236958   2.164232   2.610510   1.104031
    16  H    3.442486   3.837630   2.161443   3.258802   1.093969
    17  H    1.943332   2.570733   3.210174   4.032760   4.413001
    18  H    3.202337   1.957909   4.427154   2.578392   4.606299
    19  H    2.540764   3.988796   1.935648   4.678588   3.209990
    20  H    3.894735   2.493901   4.252143   1.927178   3.855812
                   11         12         13         14         15
    11  H    0.000000
    12  H    3.048025   0.000000
    13  H    3.048192   2.682174   0.000000
    14  H    2.736911   3.073249   4.005613   0.000000
    15  H    2.637285   3.969520   3.076387   2.405444   0.000000
    16  H    3.796233   4.123526   2.473738   3.579685   1.774484
    17  H    2.311655   2.785079   3.439197   4.355446   4.685615
    18  H    3.408001   2.369780   4.746011   2.808706   4.767846
    19  H    2.756909   4.289948   2.327726   4.915212   3.463767
    20  H    4.495066   2.289053   4.226623   2.799737   4.399004
                   16         17         18         19         20
    16  H    0.000000
    17  H    5.307450   0.000000
    18  H    5.627375   3.369420   0.000000
    19  H    3.547252   3.345843   5.733025   0.000000
    20  H    4.521524   4.907802   2.724446   6.084440   0.000000
 Stoichiometry    C5H10O5
 Framework group  C1[X(C5H10O5)]
 Deg. of freedom    54
 Full point group                 C1      NOp   1
 Largest Abelian subgroup         C1      NOp   1
 Largest concise Abelian subgroup C1      NOp   1
                         Standard orientation:                         
 ---------------------------------------------------------------------
 Center     Atomic      Atomic             Coordinates (Angstroms)
 Number     Number       Type             X           Y           Z
 ---------------------------------------------------------------------
      1          8           0        0.741863   -1.652629   -0.260853
      2          8           0       -1.443611    1.838107   -0.462821
      3          8           0        1.276249    1.902772    0.484332
      4          8           0       -2.715758   -0.651756    0.272573
      5          8           0        2.740216   -0.571864   -0.187285
      6          6           0       -0.758649    0.761344    0.174261
      7          6           0        0.719340    0.769653   -0.176310
      8          6           0       -1.414547   -0.530578   -0.278482
      9          6           0        1.413064   -0.526151    0.257492
     10          6           0       -0.595308   -1.720906    0.205857
     11          1           0       -0.871889    0.852412    1.267960
     12          1           0        0.812385    0.878407   -1.272315
     13          1           0       -1.464281   -0.535506   -1.380479
     14          1           0        1.460686   -0.576588    1.355908
     15          1           0       -0.625555   -1.773034    1.308242
     16          1           0       -1.016613   -2.652896   -0.182299
     17          1           0       -1.028768    2.654530   -0.171314
     18          1           0        2.222718    1.920986    0.321374
     19          1           0       -3.212991    0.126214    0.006046
     20          1           0        2.749234   -0.331734   -1.117596
 ---------------------------------------------------------------------
 Rotational constants (GHZ):           1.8692197           1.1860756           0.7773198
 Standard basis: 6-311++G(d,p) (5D, 7F)
 There are   300 symmetry adapted cartesian basis functions of A   symmetry.
 There are   290 symmetry adapted basis functions of A   symmetry.
   290 basis functions,   450 primitive gaussians,   300 cartesian basis functions
    40 alpha electrons       40 beta electrons
       nuclear repulsion energy       616.3373685439 Hartrees.
 NAtoms=   20 NActive=   20 NUniq=   20 SFac= 1.00D+00 NAtFMM=   60 NAOKFM=F Big=F
 Integral buffers will be    131072 words long.
 Raffenetti 2 integral format.
 Two-electron integral symmetry is turned on.
 R6APFD:  NTU= -4 IXU= 1 FactS= 1.050
 Nuclear repulsion after empirical dispersion term =      616.3202824198 Hartrees.
 One-electron integrals computed using PRISM.
 NBasis=   290 RedAO= T EigKep=  8.84D-06  NBF=   290
 NBsUse=   290 1.00D-06 EigRej= -1.00D+00 NBFU=   290
 Initial guess from the checkpoint file:  "DXYL0110.chk"
 B after Tr=     0.000000    0.000000    0.000000
         Rot=    0.999610    0.004974   -0.000511   -0.027480 Ang=   3.20 deg.
 ExpMin= 3.60D-02 ExpMax= 8.59D+03 ExpMxC= 1.30D+03 IAcc=3 IRadAn=         5 AccDes= 0.00D+00
 Harris functional with IExCor= 1009 and IRadAn=       5 diagonalized for initial guess.
 HarFok:  IExCor= 1009 AccDes= 0.00D+00 IRadAn=         5 IDoV= 1 UseB2=F ITyADJ=14
 ICtDFT=  3500011 ScaDFX=  1.000000  1.000000  1.000000  1.000000
 FoFCou: FMM=F IPFlag=           0 FMFlag=      100000 FMFlg1=           0
         NFxFlg=           0 DoJE=T BraDBF=F KetDBF=T FulRan=T
         wScrn=  0.000000 ICntrl=       500 IOpCl=  0 I1Cent=   200000004 NGrid=           0
         NMat0=    1 NMatS0=      1 NMatT0=    0 NMatD0=    1 NMtDS0=    0 NMtDT0=    0
 Petite list used in FoFCou.
 Requested convergence on RMS density matrix=1.00D-08 within  32 cycles.
 Requested convergence on MAX density matrix=1.00D-06.
 Requested convergence on             energy=1.00D-06.
 No special actions if energy rises.
 SCF Done:  E(RM08HX) =  -572.649120741     A.U. after   11 cycles
            NFock= 11  Conv=0.72D-08     -V/T= 2.0038
 QCSCF skips out because SCF is already converged.
 R6APFD:  NTU= -4 IXU= 1 FactS= 1.050
 Calling FoFJK, ICntrl=      2127 FMM=F ISym2X=0 I1Cent= 0 IOpClX= 0 NMat=1 NMatS=1 NMatT=0.
 ***** Axes restored to original set *****
 -------------------------------------------------------------------
 Center     Atomic                   Forces (Hartrees/Bohr)
 Number     Number              X              Y              Z
 -------------------------------------------------------------------
      1        8          -0.003445228    0.004523910    0.000559978
      2        8           0.002994007   -0.004726106    0.004183757
      3        8          -0.001797199   -0.005001662   -0.004786688
      4        8           0.003415930   -0.000151759   -0.002962480
      5        8          -0.004341797    0.008674487    0.004192394
      6        6          -0.001253793    0.004791619   -0.003719164
      7        6           0.002136552    0.007761521    0.004827274
      8        6          -0.007126147    0.001454770    0.002119620
      9        6           0.008165555   -0.006626839   -0.004146373
     10        6          -0.000584572   -0.004899282   -0.001112936
     11        1           0.001538318   -0.002050824    0.001473559
     12        1           0.000129589   -0.001466427   -0.001803219
     13        1           0.001817291   -0.000217775   -0.000900090
     14        1          -0.001215109   -0.000284671    0.002082755
     15        1           0.000384437    0.001664315    0.000544425
     16        1          -0.000378065    0.000209095    0.000287892
     17        1          -0.000811235    0.000478781   -0.000422101
     18        1           0.000004325    0.000078899    0.000693349
     19        1          -0.000031790   -0.000019918    0.000677951
     20        1           0.000398931   -0.004192133   -0.001789905
 -------------------------------------------------------------------
 Cartesian Forces:  Max     0.008674487 RMS     0.003298071

 GradGradGradGradGradGradGradGradGradGradGradGradGradGradGradGradGradGrad
 Berny optimization.
 Using GEDIIS/GDIIS optimizer.
 FormGI is forming the generalized inverse of G from B-inverse, IUseBI=4.
 Internal  Forces:  Max     0.006496723 RMS     0.001440514
 Search for a local minimum.
 Step number   2 out of a maximum of  119
 All quantities printed in internal units (Hartrees-Bohrs-Radians)
 Mixed Optimization -- RFO/linear search
 Update second derivatives using D2CorX and points    1    2
 DE= -7.33D-03 DEPred=-7.36D-03 R= 9.96D-01
 TightC=F SS=  1.41D+00  RLast= 4.36D-01 DXNew= 5.0454D-01 1.3088D+00
 Trust test= 9.96D-01 RLast= 4.36D-01 DXMaxT set to 5.05D-01
 ITU=  1  0
 Use linear search instead of GDIIS.
     Eigenvalues ---    0.00588   0.00710   0.01246   0.01319   0.01333
     Eigenvalues ---    0.01387   0.01438   0.02956   0.03381   0.04710
     Eigenvalues ---    0.04843   0.05045   0.05259   0.05460   0.05791
     Eigenvalues ---    0.06175   0.06302   0.06659   0.07012   0.07245
     Eigenvalues ---    0.09316   0.10170   0.11434   0.11558   0.12723
     Eigenvalues ---    0.15517   0.16000   0.16000   0.16006   0.16227
     Eigenvalues ---    0.16756   0.17942   0.20333   0.21832   0.28008
     Eigenvalues ---    0.28896   0.28971   0.29857   0.33397   0.33969
     Eigenvalues ---    0.33994   0.34030   0.34127   0.34173   0.38395
     Eigenvalues ---    0.40377   0.40482   0.41307   0.41898   0.43041
     Eigenvalues ---    0.52862   0.52875   0.52933   0.53816
 RFO step:  Lambda=-3.28096208D-03 EMin= 5.87701850D-03
 Quartic linear search produced a step of  0.19759.
 Iteration  1 RMS(Cart)=  0.05540009 RMS(Int)=  0.00331144
 Iteration  2 RMS(Cart)=  0.00332263 RMS(Int)=  0.00022536
 Iteration  3 RMS(Cart)=  0.00002669 RMS(Int)=  0.00022474
 Iteration  4 RMS(Cart)=  0.00000000 RMS(Int)=  0.00022474
 Variable       Old X    -DE/DX   Delta X   Delta X   Delta X     New X
                                 (Linear)    (Quad)   (Total)
    R1        2.66454   0.00027  -0.00611   0.00323  -0.00276   2.66178
    R2        2.67949  -0.00029  -0.00201   0.00289   0.00118   2.68066
    R3        2.69540  -0.00593  -0.00068  -0.01629  -0.01697   2.67844
    R4        1.81612  -0.00010  -0.00429   0.00089  -0.00340   1.81272
    R5        2.69281  -0.00650  -0.00089  -0.01775  -0.01864   2.67418
    R6        1.81521  -0.00012  -0.00443   0.00087  -0.00356   1.81165
    R7        2.68015  -0.00399  -0.00178  -0.01042  -0.01220   2.66795
    R8        1.81602  -0.00019  -0.00431   0.00070  -0.00361   1.81241
    R9        2.64646  -0.00474  -0.00988  -0.01053  -0.02040   2.62606
   R10        1.81573   0.00068  -0.00405   0.00249  -0.00156   1.81418
   R11        2.87053   0.00031  -0.00354  -0.00230  -0.00615   2.86439
   R12        2.86855   0.00081  -0.00381   0.00299  -0.00093   2.86762
   R13        2.08496   0.00115   0.00235   0.00324   0.00559   2.09054
   R14        2.89600   0.00006   0.00112  -0.00183  -0.00078   2.89522
   R15        2.08873   0.00165   0.00291   0.00479   0.00770   2.09643
   R16        2.87997   0.00041   0.00068   0.00336   0.00413   2.88410
   R17        2.08461   0.00080   0.00236   0.00207   0.00443   2.08904
   R18        2.07984   0.00203   0.00170   0.00635   0.00805   2.08789
   R19        2.08632   0.00045   0.00244   0.00087   0.00331   2.08963
   R20        2.06730  -0.00012  -0.00062  -0.00025  -0.00087   2.06643
    A1        1.94591   0.00247  -0.00241   0.01874   0.01590   1.96182
    A2        1.87395   0.00183  -0.00016   0.01296   0.01280   1.88676
    A3        1.89812   0.00081   0.00467   0.00432   0.00899   1.90712
    A4        1.87316   0.00067  -0.00021   0.00482   0.00460   1.87777
    A5        1.88414   0.00186  -0.00205   0.01375   0.01170   1.89584
    A6        1.93910   0.00045   0.01032   0.00858   0.01927   1.95837
    A7        1.87735  -0.00141  -0.00667   0.00014  -0.00615   1.87120
    A8        1.90833   0.00058   0.00980   0.00560   0.01523   1.92356
    A9        1.93504   0.00111  -0.00046  -0.00657  -0.00806   1.92698
   A10        1.90518  -0.00076  -0.00674  -0.00719  -0.01422   1.89097
   A11        1.89817   0.00003  -0.00592  -0.00041  -0.00628   1.89189
   A12        1.85211   0.00061  -0.00773   0.01112   0.00384   1.85594
   A13        1.94359  -0.00032   0.00678  -0.00064   0.00630   1.94989
   A14        1.92685  -0.00006   0.01197  -0.00042   0.01137   1.93822
   A15        1.95034  -0.00064   0.00067  -0.02199  -0.02211   1.92823
   A16        1.88735   0.00049  -0.00462   0.01254   0.00778   1.89513
   A17        1.90263  -0.00005  -0.00681  -0.00006  -0.00685   1.89577
   A18        1.93185   0.00146   0.00153   0.01049   0.01212   1.94397
   A19        1.87861  -0.00081  -0.00244   0.00063  -0.00153   1.87708
   A20        1.92452   0.00020   0.00846   0.00557   0.01399   1.93851
   A21        1.91525  -0.00067  -0.00306  -0.01272  -0.01622   1.89903
   A22        1.89783  -0.00070  -0.00356  -0.00270  -0.00645   1.89138
   A23        1.91583   0.00053  -0.00077  -0.00139  -0.00234   1.91349
   A24        1.88418   0.00347  -0.00652   0.03270   0.02628   1.91046
   A25        1.93475  -0.00119   0.00139  -0.01502  -0.01397   1.92078
   A26        1.92930   0.00016   0.00223   0.00338   0.00518   1.93448
   A27        1.94624  -0.00230   0.01258  -0.01244   0.00033   1.94657
   A28        1.84883   0.00041  -0.00334   0.00505   0.00162   1.85045
   A29        1.91861  -0.00042  -0.00645  -0.01197  -0.01839   1.90021
   A30        1.94413  -0.00090   0.00225  -0.00621  -0.00416   1.93997
   A31        1.93560  -0.00003   0.00311  -0.00754  -0.00464   1.93096
   A32        1.86233   0.00113  -0.00507   0.01415   0.00916   1.87149
   A33        1.91716  -0.00079  -0.00620  -0.01355  -0.01981   1.89735
   A34        1.92370   0.00013   0.00111   0.00736   0.00854   1.93223
   A35        1.87917   0.00056   0.00495   0.00721   0.01223   1.89140
    D1        3.08462   0.00104  -0.00944  -0.00176  -0.01108   3.07354
    D2       -1.06217  -0.00028   0.00281  -0.00510  -0.00228  -1.06445
    D3        1.06985  -0.00151  -0.00288  -0.02822  -0.03134   1.03851
    D4        1.11044  -0.00010   0.00137  -0.01934  -0.01798   1.09247
    D5       -1.03064   0.00157   0.00553   0.00779   0.01335  -1.01729
    D6       -3.07247   0.00025   0.00086  -0.00504  -0.00417  -3.07664
    D7       -1.02510   0.00021  -0.00231  -0.00818  -0.01122  -1.03632
    D8        3.13730  -0.00052  -0.00388  -0.00539  -0.00896   3.12834
    D9        1.07886  -0.00007   0.00137  -0.00802  -0.00624   1.07262
   D10        3.09522  -0.00079  -0.00573  -0.02819  -0.03414   3.06108
   D11        0.96923  -0.00021  -0.00572  -0.00807  -0.01324   0.95599
   D12       -1.14684   0.00011  -0.00908  -0.00729  -0.01669  -1.16353
   D13        0.99285  -0.00009   0.00056  -0.01419  -0.01341   0.97944
   D14        3.08586  -0.00055  -0.00380  -0.02318  -0.02708   3.05878
   D15       -1.10786  -0.00029  -0.00134  -0.02127  -0.02273  -1.13059
   D16        1.29455  -0.00345  -0.02609  -0.15876  -0.18501   1.10954
   D17       -0.83478  -0.00284  -0.03150  -0.15406  -0.18549  -1.02027
   D18       -2.92167  -0.00132  -0.02872  -0.13584  -0.16448  -3.08616
   D19        1.22298  -0.00005  -0.00267  -0.07012  -0.07279   1.15019
   D20       -2.93853  -0.00042   0.00106  -0.07656  -0.07546  -3.01399
   D21       -0.84445  -0.00055  -0.01017  -0.08186  -0.09223  -0.93667
   D22       -2.97352  -0.00079  -0.00460  -0.06864  -0.07326  -3.04678
   D23       -0.85184  -0.00117  -0.00086  -0.07509  -0.07594  -0.92778
   D24        1.24224  -0.00130  -0.01209  -0.08039  -0.09271   1.14954
   D25       -0.88284  -0.00056  -0.01691  -0.07780  -0.09461  -0.97745
   D26        1.23883  -0.00093  -0.01318  -0.08425  -0.09729   1.14155
   D27       -2.95027  -0.00107  -0.02441  -0.08955  -0.11405  -3.06432
   D28       -1.21684   0.00051   0.00637   0.05897   0.06524  -1.15160
   D29        2.99543   0.00103   0.01037   0.05971   0.06994   3.06537
   D30        0.89973   0.00122   0.01550   0.07069   0.08608   0.98580
   D31        2.94302   0.00019  -0.00180   0.05232   0.05039   2.99342
   D32        0.87211   0.00071   0.00220   0.05306   0.05510   0.92721
   D33       -1.22359   0.00090   0.00733   0.06404   0.07123  -1.15236
   D34        0.84816   0.00044   0.01095   0.06547   0.07649   0.92466
   D35       -1.22275   0.00095   0.01495   0.06621   0.08120  -1.14155
   D36        2.96473   0.00114   0.02008   0.07719   0.09733   3.06206
   D37        3.00416  -0.00047  -0.00559   0.04072   0.03498   3.03914
   D38       -1.17916   0.00158  -0.00469   0.06361   0.05897  -1.12020
   D39        0.86591   0.00041  -0.00494   0.05473   0.04974   0.91565
   D40        0.93621  -0.00061  -0.00080   0.04164   0.04057   0.97678
   D41        3.03607   0.00144   0.00009   0.06452   0.06455   3.10062
   D42       -1.20204   0.00028  -0.00016   0.05565   0.05532  -1.14671
   D43       -1.14888  -0.00079   0.00922   0.03975   0.04873  -1.10015
   D44        0.95098   0.00126   0.01012   0.06263   0.07271   1.02370
   D45        2.99606   0.00009   0.00987   0.05376   0.06349   3.05954
   D46       -3.10361   0.00056  -0.00258  -0.00033  -0.00291  -3.10652
   D47       -0.95197  -0.00066  -0.00139  -0.02378  -0.02514  -0.97711
   D48        1.11583  -0.00037   0.00159  -0.01876  -0.01721   1.09862
   D49       -1.00011   0.00145  -0.00405   0.00537   0.00147  -0.99865
   D50        1.15153   0.00023  -0.00286  -0.01809  -0.02076   1.13076
   D51       -3.06386   0.00052   0.00012  -0.01307  -0.01284  -3.07670
   D52        1.08460   0.00050  -0.01090  -0.00664  -0.01755   1.06705
   D53       -3.04695  -0.00072  -0.00971  -0.03009  -0.03978  -3.08673
   D54       -0.97915  -0.00043  -0.00673  -0.02507  -0.03186  -1.01100
         Item               Value     Threshold  Converged?
 Maximum Force            0.006497     0.000450     NO 
 RMS     Force            0.001441     0.000300     NO 
 Maximum Displacement     0.260125     0.001800     NO 
 RMS     Displacement     0.056083     0.001200     NO 
 Predicted change in Energy=-2.239922D-03
 GradGradGradGradGradGradGradGradGradGradGradGradGradGradGradGradGradGrad

                          Input orientation:                          
 ---------------------------------------------------------------------
 Center     Atomic      Atomic             Coordinates (Angstroms)
 Number     Number       Type             X           Y           Z
 ---------------------------------------------------------------------
      1          8           0        0.711540   -1.605157   -0.262567
      2          8           0       -1.425491    1.921156   -0.353460
      3          8           0        1.323378    1.942169    0.391067
      4          8           0       -2.726731   -0.545375    0.234524
      5          8           0        2.734977   -0.549687   -0.157018
      6          6           0       -0.726467    0.816779    0.194854
      7          6           0        0.734084    0.804820   -0.210362
      8          6           0       -1.421150   -0.441222   -0.292581
      9          6           0        1.407258   -0.492458    0.249198
     10          6           0       -0.632589   -1.656355    0.187954
     11          1           0       -0.781131    0.840104    1.299525
     12          1           0        0.794547    0.862642   -1.316588
     13          1           0       -1.439041   -0.423330   -1.397765
     14          1           0        1.425055   -0.514057    1.353707
     15          1           0       -0.672345   -1.690882    1.292484
     16          1           0       -1.069807   -2.579833   -0.201652
     17          1           0       -1.003508    2.724812   -0.043253
     18          1           0        2.266814    1.937011    0.220838
     19          1           0       -3.200290    0.253716   -0.004301
     20          1           0        2.765896   -0.482755   -1.114204
 ---------------------------------------------------------------------
                    Distance matrix (angstroms):
                    1          2          3          4          5
     1  O    0.000000
     2  O    4.124324   0.000000
     3  O    3.658566   2.847989   0.000000
     4  O    3.632072   2.850040   4.755604   0.000000
     5  O    2.284613   4.842846   2.915881   5.475727   0.000000
     6  C    2.853571   1.417368   2.346671   2.420350   3.738000
     7  C    2.410648   2.435251   1.415114   3.741416   2.416839
     8  C    2.429817   2.363167   3.698697   1.411818   4.159752
     9  C    1.408555   3.770040   2.440199   4.134354   1.389649
    10  C    1.418546   3.704107   4.100785   2.371049   3.561492
    11  H    3.263050   2.077555   2.543383   2.615175   4.051673
    12  H    2.684749   2.641332   2.088331   4.097299   2.665436
    13  H    2.703773   2.566587   4.052957   2.082645   4.356357
    14  H    2.076522   4.119502   2.640088   4.300103   1.999864
    15  H    2.083427   4.040196   4.241995   2.579141   3.874691
    16  H    2.031477   4.517572   5.150451   2.659824   4.312756
    17  H    4.662416   0.959250   2.493103   3.706857   4.971073
    18  H    3.898654   3.736735   0.958685   5.576551   2.558441
    19  H    4.338724   2.460118   4.844663   0.959085   5.991342
    20  H    2.491075   4.891344   3.197962   5.656143   0.960022
                    6          7          8          9         10
     6  C    0.000000
     7  C    1.515768   0.000000
     8  C    1.517480   2.490866   0.000000
     9  C    2.503964   1.532086   2.880285   0.000000
    10  C    2.474925   2.843208   1.526201   2.349338   0.000000
    11  H    1.106268   2.139364   2.141547   2.769107   2.736779
    12  H    2.144771   1.109385   2.767303   2.159490   3.262776
    13  H    2.140576   2.764190   1.105474   3.289177   2.164537
    14  H    2.782645   2.159442   3.288838   1.104864   2.626352
    15  H    2.737898   3.234983   2.152856   2.617139   1.105784
    16  H    3.436869   3.835358   2.169185   3.270513   1.093509
    17  H    1.942688   2.594903   3.203180   4.030899   4.402916
    18  H    3.196142   1.953727   4.418220   2.577199   4.617348
    19  H    2.544898   3.978125   1.931679   4.674456   3.205998
    20  H    3.949560   2.569639   4.267101   1.924801   3.823959
                   11         12         13         14         15
    11  H    0.000000
    12  H    3.054065   0.000000
    13  H    3.050325   2.578609   0.000000
    14  H    2.589198   3.069742   3.972641   0.000000
    15  H    2.533333   3.934401   3.071148   2.405775   0.000000
    16  H    3.746042   4.070568   2.493497   3.593175   1.783438
    17  H    2.324786   2.884799   3.454734   4.282487   4.625172
    18  H    3.414196   2.384433   4.682354   2.828371   4.790479
    19  H    2.810008   4.248718   2.345662   4.881340   3.442909
    20  H    4.489704   2.395260   4.214906   2.808812   4.367290
                   16         17         18         19         20
    16  H    0.000000
    17  H    5.307424   0.000000
    18  H    5.631466   3.374224   0.000000
    19  H    3.550621   3.306612   5.724806   0.000000
    20  H    4.465770   5.063975   2.808325   6.113073   0.000000
 Stoichiometry    C5H10O5
 Framework group  C1[X(C5H10O5)]
 Deg. of freedom    54
 Full point group                 C1      NOp   1
 Largest Abelian subgroup         C1      NOp   1
 Largest concise Abelian subgroup C1      NOp   1
                         Standard orientation:                         
 ---------------------------------------------------------------------
 Center     Atomic      Atomic             Coordinates (Angstroms)
 Number     Number       Type             X           Y           Z
 ---------------------------------------------------------------------
      1          8           0        0.739311   -1.649532   -0.243305
      2          8           0       -1.458346    1.838204   -0.369964
      3          8           0        1.285735    1.912363    0.388693
      4          8           0       -2.719508   -0.646565    0.228466
      5          8           0        2.743453   -0.558178   -0.134608
      6          6           0       -0.743108    0.750014    0.189686
      7          6           0        0.719567    0.760773   -0.207830
      8          6           0       -1.413152   -0.523262   -0.292552
      9          6           0        1.412794   -0.521348    0.264284
     10          6           0       -0.606102   -1.721092    0.200561
     11          1           0       -0.804051    0.779999    1.293868
     12          1           0        0.784903    0.812010   -1.314103
     13          1           0       -1.425467   -0.513308   -1.397912
     14          1           0        1.425083   -0.535014    1.368994
     15          1           0       -0.651131   -1.748689    1.305084
     16          1           0       -1.025075   -2.654731   -0.184851
     17          1           0       -1.052093    2.651229   -0.063189
     18          1           0        2.230012    1.922510    0.223417
     19          1           0       -3.205645    0.142467   -0.018400
     20          1           0        2.778298   -0.497320   -1.092065
 ---------------------------------------------------------------------
 Rotational constants (GHZ):           1.8941834           1.1905380           0.7765719
 Standard basis: 6-311++G(d,p) (5D, 7F)
 There are   300 symmetry adapted cartesian basis functions of A   symmetry.
 There are   290 symmetry adapted basis functions of A   symmetry.
   290 basis functions,   450 primitive gaussians,   300 cartesian basis functions
    40 alpha electrons       40 beta electrons
       nuclear repulsion energy       617.8376986217 Hartrees.
 NAtoms=   20 NActive=   20 NUniq=   20 SFac= 1.00D+00 NAtFMM=   60 NAOKFM=F Big=F
 Integral buffers will be    131072 words long.
 Raffenetti 2 integral format.
 Two-electron integral symmetry is turned on.
[...]
 33,-0.04264360,-0.00879608,0.00574177,0.00208950,-0.00071998,-0.031908
 55,-0.09536828,0.02301221,-0.00030541,-0.00268797,0.00000710,-0.027106
 18,-0.15000101,-0.04041606,-0.01052629,0.00266716,0.00354002,-0.020784
 92,0.52324718,0.01503750,-0.00998437,0.00401557,0.00673940,0.01707923,
 0.00573836,0.00379854,0.00015071,-0.00098165,0.06648222,0.01033706,-0.
 09521367,0.00078519,0.00055259,-0.00025504,-0.02051480,-0.04713523,-0.
 10740627,0.00160726,0.01110821,0.00606142,-0.00147407,-0.01514010,0.59
 770550,-0.09771042,-0.01977983,-0.00280611,-0.00572780,-0.00158011,0.0
 0145017,0.00069795,-0.02526381,0.00149375,0.00363190,-0.00149826,-0.00
 003156,-0.23263383,0.03094117,0.06723201,-0.01738962,0.02862824,-0.010
 01545,-0.09332745,0.05094187,-0.02171376,-0.00275668,0.00075582,-0.002
 32494,0.53331140,-0.04575961,-0.18564180,-0.06037306,-0.01013333,0.003
 61140,0.00080358,0.00246933,-0.04414213,0.00108377,0.00078095,-0.00550
 767,0.00001378,0.01008509,-0.07082808,-0.01479775,0.01612437,0.0038433
 8,-0.00463286,0.03371818,-0.13456360,0.04810315,0.00395361,0.01012362,
 -0.00195190,-0.02135002,0.48520934,-0.02045363,-0.06700460,-0.11205544
 ,0.00319213,-0.00150781,-0.00028968,0.00468282,-0.02121134,0.00303292,
 0.00114873,-0.00127426,-0.00051615,0.02175791,-0.01953819,-0.11857781,
 0.00227687,-0.00914847,0.00589800,-0.01496500,0.04004054,-0.11063229,-
 0.00115109,0.00148582,-0.00034177,-0.03225695,0.01317215,0.64969436,-0
 .20783773,-0.01675137,0.04152706,-0.00358701,-0.00869032,-0.00125952,-
 0.00209079,0.00471845,-0.00030262,-0.02406236,0.02515702,-0.00517787,0
 .00398438,0.00131465,-0.00015078,0.01556449,-0.00225033,0.00753726,0.0
 0618747,-0.00102753,0.00229793,-0.09034519,0.03898560,-0.02514673,-0.0
 3623155,-0.01803327,0.00061546,0.46690354,0.00972974,-0.08236494,-0.01
 816651,-0.00381186,-0.00537511,-0.00179832,0.00129677,0.00156923,0.000
 29528,-0.00716025,0.01142241,-0.00172929,-0.00459106,-0.00323432,-0.00
 047189,0.01715501,-0.03127296,0.01027895,-0.00138150,-0.00171930,0.000
 14766,0.04074884,-0.17229964,0.03583404,-0.03350964,-0.00493183,0.0099
 4261,0.06089218,0.58680916,0.05940972,-0.00707149,-0.09196750,-0.00088
 692,-0.00325925,-0.00089377,0.00003895,-0.00161063,-0.00047486,0.01189
 217,-0.01349582,0.00412156,-0.00534355,-0.00438498,0.00028138,0.006868
 55,-0.00751619,0.00550862,-0.00049530,0.00156488,0.00039933,-0.0272367
 7,0.03990628,-0.10084735,-0.01000977,0.00519230,0.00444427,0.02092028,
 0.04734383,0.57887025,-0.00013141,0.00021734,-0.00032251,-0.00174278,0
 .00829963,-0.02152876,0.00284119,0.00086394,-0.00158713,0.00164785,0.0
 0146597,0.00082199,-0.00017763,0.00020651,-0.00079207,-0.05080594,-0.0
 0229120,0.01314071,-0.00373894,0.00153150,0.03436500,0.00078727,-0.002
 33106,-0.01651180,0.00104184,-0.00086769,0.00203249,-0.00012663,0.0007
 4286,0.00030619,0.05697936,0.00014995,-0.00020955,0.00049020,0.0088137
 7,-0.01046689,0.03290947,0.00073473,0.00042590,0.00045989,0.00191015,0
 .00186510,0.00230373,-0.00024855,0.00009688,-0.00007592,-0.00300796,-0
 .04841419,-0.00622169,-0.00183791,0.00155483,0.00192118,0.00138517,-0.
 00193170,-0.02924015,0.00014451,-0.00045602,-0.00083432,-0.00005771,0.
 00158438,-0.00163938,-0.00568739,0.05963918,-0.00001748,-0.00038769,0.
 00048058,-0.00556987,0.00924387,-0.00668622,-0.00056071,0.00019249,0.0
 0160538,0.00007382,0.00103140,0.00237084,0.00021646,-0.00015986,0.0007
 6538,0.01275831,-0.00417974,-0.28293087,0.00110953,-0.00270777,-0.0123
 1554,0.00190732,-0.00168048,-0.01368420,-0.00040456,0.00103862,-0.0014
 5834,-0.00011627,0.00081382,-0.00058399,-0.00954609,-0.00062428,0.3109
 9616,0.00011380,-0.00082396,0.00134171,0.00333609,-0.00069296,-0.00259
 968,0.00120927,-0.00584893,-0.01631288,-0.00024978,-0.00025607,-0.0009
 0834,0.00215109,-0.00175345,0.00048636,-0.00243800,-0.00323601,0.03417
 932,-0.05210593,0.00239716,0.01482412,0.00079770,0.00080701,0.00155682
 ,0.00087289,0.00362125,-0.01821705,-0.00047236,-0.00003458,0.00016606,
 -0.00547085,-0.00003916,0.00142338,0.05443647,0.00045109,0.00260501,-0
 .00146583,-0.00076752,0.00034804,-0.00030827,-0.00449420,-0.00777075,-
 0.03215773,0.00012991,-0.00003627,-0.00003632,-0.00184559,0.00187349,-
 0.00185506,0.00116994,0.00080335,-0.00026684,0.00138908,-0.04804027,0.
 01601592,-0.00046019,-0.00014880,0.00062013,-0.00131604,-0.00270853,0.
 03042370,-0.00014401,-0.00002010,0.00019596,-0.00018326,0.00028361,-0.
 00011869,0.00303321,0.05675500,0.00057719,0.00042432,0.00220272,-0.000
 51042,-0.00071703,0.00194282,-0.00455109,-0.00722158,-0.00463435,0.000
 01610,0.00020048,0.00081407,-0.00025618,-0.00064845,0.00295658,0.00065
 272,0.00305872,-0.01130197,0.01533946,0.01479101,-0.28232266,-0.000334
 79,-0.00097434,-0.00123730,0.00287065,0.00004393,-0.01464971,-0.000033
 15,0.00020415,-0.00015728,0.00139093,0.00004362,0.00027534,-0.01361201
 ,-0.01085854,0.30665637,0.00154953,-0.00054149,0.00085356,0.00033704,0
 .00056087,0.00122044,-0.00001554,-0.00005780,0.00028753,-0.01307495,-0
 .00296327,0.03775643,-0.00008458,0.00006347,0.00008146,0.00087818,0.00
 024579,-0.01561247,0.00015561,0.00016622,-0.00105440,-0.04735084,0.001
 25331,-0.01287429,0.00001357,-0.00029272,-0.00032453,0.00003779,0.0009
 6863,-0.01684581,-0.00099895,-0.00245534,-0.00074016,-0.00070347,-0.00
 053747,0.00022123,0.05962703,-0.00118298,0.00132373,-0.00184099,0.0004
 4776,0.00284260,0.00133790,-0.00026611,-0.00024621,0.00051896,-0.00110
 212,0.00323581,0.00295290,-0.00002174,0.00021023,-0.00001439,-0.003523
 98,-0.00106208,-0.03070543,0.00112359,0.00049698,-0.00102521,0.0011357
 5,-0.05267419,0.00582093,-0.00002772,-0.00068994,-0.00005003,0.0020077
 6,-0.00189748,0.02970258,-0.00209516,-0.00399039,-0.00141052,-0.000556
 91,-0.00002450,0.00048038,0.00191979,0.05520005,-0.00107241,-0.0007196
 2,0.00164914,0.00048771,0.00037564,0.00175816,-0.00016249,0.00016365,0
 .00080248,0.01003744,0.00064124,-0.00436362,-0.00016086,0.00000158,0.0
 0013401,-0.00281885,0.00097778,-0.01508065,0.00109304,-0.00035886,-0.0
 0129200,-0.01178170,0.00477521,-0.28751013,0.00003962,0.00030015,-0.00
 019311,-0.00000038,0.00039518,-0.01008166,-0.00098706,-0.00164447,0.00
 016964,-0.00069272,-0.00003606,0.00078477,0.00587054,-0.00694081,0.312
 39898,-0.00293039,-0.00661441,-0.01593878,-0.00001247,-0.00016428,0.00
 047898,0.00023737,-0.00019812,0.00135490,-0.00009552,0.00008693,0.0001
 2743,-0.01191465,0.00267919,0.04154021,0.00066093,-0.00017325,-0.00121
 829,0.00254523,0.00214913,-0.01538632,-0.00009531,0.00004970,0.0001296
 9,-0.04856372,0.00205758,-0.00859625,0.00315880,0.00000885,-0.00303933
 ,-0.00056749,0.00037221,0.00034677,-0.00113362,0.00209975,-0.00081215,
 0.00008423,-0.00005309,0.00020389,0.06441337,-0.00916071,-0.00727839,-
 0.03361212,0.00058693,-0.00018008,-0.00082558,-0.00042775,0.00302450,-
 0.00219641,-0.00008392,0.00043654,-0.00004344,0.00150440,0.00348102,-0
 .00334862,-0.00151570,0.00025009,0.00135541,0.00296378,-0.00091879,0.0
 2898085,-0.00033113,-0.00070531,0.00048370,0.00042731,-0.05347588,0.02
 018784,0.00400848,0.00094383,-0.00271336,0.00061548,-0.00004208,-0.000
 60189,0.00220284,-0.00388329,0.00122758,-0.00000712,-0.00013437,-0.000
 06832,-0.00049606,0.05807402,-0.00580026,-0.00852640,-0.00825939,-0.00
 016723,0.00004101,0.00073144,0.00120259,0.00045356,0.00217366,-0.00030
 398,0.00016836,0.00016415,0.00855860,-0.00116437,-0.01000587,0.0009391
 2,-0.00002564,-0.00103074,-0.00164093,0.00004609,-0.01288752,-0.000038
 35,-0.00038870,-0.00006051,0.00107335,0.01647313,-0.28928555,0.0020261
 7,0.00067185,0.00029068,-0.00075141,0.00004853,0.00068985,-0.00101413,
 0.00113527,0.00016596,0.00023170,0.00004632,0.00013467,-0.00360754,-0.
 01048191,0.31617380,-0.01432026,-0.00470755,0.03536320,-0.00003644,0.0
 0012692,0.00022859,0.00027219,-0.00036526,-0.00005501,0.00142785,-0.00
 078453,0.00072103,-0.00050484,-0.00034772,-0.00073204,-0.00009456,-0.0
 0088765,-0.00025085,-0.00044856,-0.00016147,-0.00050893,0.00161804,0.0
 0134322,-0.01841408,0.00291010,0.00400142,0.00563822,-0.04770146,-0.00
 228594,-0.00377255,0.00023836,0.00013589,0.00032426,-0.00013776,0.0001
 0883,-0.00008817,-0.00172318,0.00291681,-0.00034317,-0.00006589,-0.000
 25059,-0.00151899,0.05616338,-0.00107229,0.00189326,0.00023814,-0.0000
 8219,0.00000143,-0.00065662,-0.00004884,0.00007635,-0.00013955,-0.0016
 0353,0.00110860,-0.00152542,0.00005462,-0.00004914,-0.00018713,0.00001
 115,0.00118961,0.00194157,0.00009542,-0.00017858,0.00008659,0.00140768
 ,-0.00260503,0.02956967,-0.00015271,0.00041373,0.00255181,-0.00064530,
 -0.05356030,0.01017303,-0.00000645,-0.00069004,-0.00058521,0.00007793,
 0.00006562,-0.00018857,0.00243651,-0.00356989,0.00108759,-0.00015258,0
 .00021410,-0.00032662,-0.00072193,0.05274387,0.00846277,0.00083698,-0.
 00286392,-0.00014849,-0.00018086,0.00059454,0.00011431,0.00039130,0.00
 015732,-0.00067338,-0.00030991,0.00149274,0.00013906,0.00038733,0.0007
 7567,0.00018499,-0.00101134,-0.00028639,0.00001348,-0.00012095,0.00002
 693,0.00014082,0.00044904,-0.01346325,-0.00160154,-0.00182154,0.000308
 30,-0.00058847,0.01219792,-0.29231589,0.00029666,0.00073463,0.00060602
 ,-0.00015280,-0.00017675,0.00011918,-0.00072820,0.00186982,0.00058738,
 0.00109538,0.00128971,0.00035455,-0.00542871,-0.01577071,0.31416957,-0
 .02555321,-0.03341226,-0.01294812,0.00075926,0.00173721,0.00020315,0.0
 0027153,-0.00045273,0.00004691,0.00140345,-0.00167991,-0.00032314,-0.0
 0229438,-0.00171712,0.00003276,-0.00305127,0.00127456,-0.00147394,-0.0
 0057889,-0.00000909,-0.00029283,0.00843774,0.01544041,0.00777416,-0.00
 260253,0.00323944,0.00386128,-0.07788935,-0.07568916,-0.03613273,-0.00
 007205,-0.00011353,0.00002235,0.00006450,-0.00001189,-0.00002414,0.000
 62514,-0.00076263,0.00002592,0.00005070,0.00007823,-0.00022133,0.00177
 855,0.00068385,-0.00057861,0.09854288,-0.00261140,0.00156489,0.0011539
 5,-0.00069284,-0.00203689,-0.00050493,-0.00026355,-0.00006277,-0.00002
 859,0.00008685,0.00185175,0.00023613,-0.00003400,0.00014595,-0.0001071
 2,0.00394803,-0.00072194,0.00297061,0.00065370,0.00040718,-0.00005327,
 -0.01052123,-0.02309016,-0.01171587,0.00116881,0.00159669,0.00081676,-
 0.08452741,-0.24393170,-0.09179300,0.00006439,0.00019135,-0.00008659,-
 0.00008230,-0.00001157,0.00004520,-0.00032575,0.00084685,0.00035575,-0
 .00000874,-0.00001716,-0.00005852,0.00167760,0.00304562,0.00167263,0.0
 9101282,0.26040909,0.00743818,0.01204804,0.00541862,0.00018250,0.00074
 431,0.00050046,0.00000044,0.00004952,0.00000442,0.00084114,-0.00091444
 ,-0.00018499,0.00063729,0.00037807,0.00043617,-0.00155117,0.00090028,-
 0.00095121,-0.00005282,0.00003240,0.00007257,0.00400497,0.01252767,0.0
 0523370,0.00127148,-0.00010444,-0.00113544,-0.04322659,-0.09706184,-0.
 09578206,0.00015464,0.00024529,0.00044139,0.00002209,-0.00001715,0.000
 00667,0.00072225,-0.00014943,0.00053408,0.00013852,0.00025112,0.000519
 93,-0.01107809,-0.02596932,-0.01035969,0.04050927,0.09683417,0.0952973
 4,-0.00062237,-0.00118364,-0.00000923,-0.15453843,-0.22137919,-0.08577
 927,0.00052813,-0.00140943,0.00004271,0.00031752,-0.00085232,0.0001797
 2,-0.00002686,-0.00053746,0.00006753,0.01080023,0.02344573,0.00632994,
 0.00115308,0.00489324,0.00127404,-0.00384965,0.00378066,-0.00149933,0.
 00018417,0.00071954,-0.00022048,0.00159996,0.00105351,0.00023837,-0.00
 003129,0.00007154,-0.00076312,-0.00023452,-0.00022696,-0.00000999,-0.0
 0005167,-0.00008048,0.00011540,0.00005056,-0.00008515,0.00005893,-0.00
 003862,-0.00002226,0.00005817,-0.00025690,0.00034127,-0.00009751,0.144
 38767,0.00020447,0.00054292,0.00005693,-0.17896016,-0.37277218,-0.1009
 0938,-0.00026688,-0.00055131,0.00014705,0.00063914,0.00121924,-0.00017
 522,-0.00080391,0.00063595,0.00014292,-0.01453480,-0.03168839,-0.00925
 338,0.00000183,0.00083032,-0.00147556,0.00435663,-0.00405093,0.0034919
 0,-0.00040142,-0.00131437,0.00007670,-0.00143711,-0.00110955,-0.000811
 13,-0.00073158,0.00076797,0.00002366,0.00019239,-0.00009999,0.00000009
 ,0.00011090,0.00036602,0.00009578,0.00000834,0.00004064,0.00001391,-0.
 00001491,-0.00002755,0.00003525,0.00031898,-0.00028072,0.00019355,0.19
 175329,0.40738452,0.00016721,0.00008578,-0.00017682,-0.08623404,-0.126
 67043,-0.05596958,0.00012199,0.00060728,-0.00126709,0.00003051,0.00007
 248,-0.00009697,-0.00021268,0.00018065,-0.00014011,0.00648587,0.015825
 49,0.00379155,-0.00047529,-0.00042883,0.00131457,-0.00100510,0.0011700
 1,-0.00093067,0.00003478,-0.00056717,0.00012435,-0.00001067,0.00051732
 ,0.00083348,0.00027891,0.00128715,-0.00027083,0.00031772,-0.00036893,-
 0.00043954,-0.00000317,0.00016538,0.00017866,-0.00007856,0.00017568,-0
 .00017414,0.00009649,-0.00010765,-0.00002530,-0.00014981,0.00018345,-0
 .00002223,0.08062734,0.10838483,0.05373231,-0.00073634,0.00158149,-0.0
 0005636,0.00097091,-0.00025034,0.00011012,-0.51186167,0.00961945,0.078
 18503,0.00003522,-0.00010602,-0.00007112,-0.00110382,-0.00069641,0.000
 40065,-0.00073528,-0.00254535,-0.00250553,-0.01829944,-0.00120208,0.00
 264881,-0.00049122,0.00046189,0.00057561,0.00315744,0.00001964,0.00048
 886,-0.00031993,-0.00027145,0.00011253,0.00029853,0.00007979,-0.000091
 68,0.00020682,0.00092151,0.00040878,0.00001247,-0.00001716,-0.00011593
 ,-0.00012556,-0.00020292,-0.00000004,0.00001598,-0.00001023,-0.0000149
 8,-0.00000171,0.00001958,0.00001906,-0.00016245,0.00011708,0.00015081,
 0.52898442,0.00196804,0.00166318,0.00023683,0.00115342,0.00051024,0.00
 028176,0.05281558,-0.03702692,-0.02610956,-0.00050892,-0.00078497,-0.0
 0010339,0.00121444,0.00266298,0.00000355,-0.00204622,-0.00747427,-0.00
 325785,-0.03930722,-0.00162766,0.00592913,-0.00138779,0.00125526,0.000
 72658,-0.00576043,-0.00277160,0.00131878,-0.00103234,0.00023335,0.0003
 1021,0.00024628,0.00003510,0.00005767,0.00027352,0.00034147,-0.0007218
 3,0.00005743,-0.00003035,-0.00005814,0.00024407,-0.00020769,0.00019479
 ,0.00009859,-0.00005988,-0.00004887,0.00016644,-0.00001248,0.00000624,
 -0.00100580,0.00058076,-0.00039732,-0.00766898,0.04303641,-0.00010374,
 -0.00036633,-0.00077358,0.00012200,0.00008888,-0.00009838,0.10053186,-
 0.01947502,-0.03006441,-0.00015149,-0.00017496,-0.00008086,0.00059354,
 0.00148890,-0.00239167,-0.00032873,-0.00163538,-0.00096843,-0.01888052
 ,-0.00123471,0.00222503,-0.00043441,0.00007189,0.00086055,0.00021061,0
 .00025984,0.00249133,0.00029741,0.00000179,0.00000078,-0.00009900,-0.0
 0007669,0.00017162,-0.00122194,-0.00032291,-0.00056053,0.00002744,0.00
 011962,-0.00004317,0.00016127,0.00043641,-0.00055526,0.00000698,0.0000
 1796,-0.00002773,-0.00002767,0.00000630,0.00000071,-0.00008662,-0.0000
 6699,-0.00025751,-0.08042364,0.02224122,0.02993683,-0.00207999,0.00127
 980,-0.00055625,0.00043018,0.00040758,0.00013740,0.00097637,0.00011686
 ,0.00005003,-0.13526172,0.17165025,-0.01655045,0.00031784,-0.00048240,
 -0.00006563,-0.00168763,0.00157087,-0.00161785,-0.00045006,0.00059216,
 0.00044239,-0.02689358,0.03728499,-0.00570999,0.00015324,0.00135327,0.
 00024820,-0.00511336,-0.00350412,0.00367171,-0.00021462,-0.00036821,-0
 .00015506,0.00009678,0.00000364,-0.00008610,0.00071837,0.00014688,0.00
 034701,-0.00003466,-0.00009798,-0.00004508,0.00015534,-0.00020122,-0.0
 0011723,0.00018666,0.00005780,0.00014132,0.00084819,-0.00061782,-0.000
 17739,-0.00004011,0.00006360,0.00000210,0.16792153,-0.00161760,0.00027
 207,0.00009088,0.00141319,-0.00027159,-0.00003378,-0.00016628,-0.00037
 505,-0.00004210,0.21762512,-0.41601050,0.07401572,0.00002832,-0.000288
 14,0.00000203,-0.00430375,0.00315202,-0.00024603,0.00042488,-0.0006347
 8,0.00026018,-0.00362948,0.00537866,-0.00040162,0.00059558,0.00074133,
 0.00015769,-0.00094450,-0.00018388,-0.00034847,0.00023423,-0.00020070,
 0.00004849,0.00003660,0.00002521,-0.00007613,-0.00060113,-0.00019495,0
 .00063495,-0.00000443,-0.00003109,-0.00003888,-0.00011198,0.00005819,-
 0.00010992,-0.00013591,0.00012990,0.00007582,0.00055734,-0.00039549,-0
 .00002646,-0.00005377,-0.00005086,-0.00003658,-0.20939153,0.40880292,0
 .00065734,-0.00031034,0.00056563,0.00056800,-0.00042076,-0.00151595,0.
 00017916,0.00003046,-0.00015017,-0.03260353,0.08816481,-0.02499349,0.0
 0008733,-0.00008161,-0.00005192,-0.00016057,0.00056214,0.00188843,-0.0
 0034453,0.00019463,-0.00001034,0.01087816,-0.01448951,0.00198589,-0.00
 004777,0.00022647,0.00013672,0.00069149,0.00086657,-0.00133209,-0.0005
 9942,-0.00009971,-0.00060720,0.00021811,-0.00000280,-0.00018376,0.0009
 3321,-0.00088783,-0.00049714,-0.00000290,0.00002697,-0.00003166,0.0001
 0364,-0.00012797,0.00017434,-0.00004685,0.00012039,-0.00013199,-0.0005
 5528,0.00009634,-0.00021548,0.00000647,0.00001990,0.00000742,0.0200376
 2,-0.07391824,0.02493944,0.00437180,0.00057531,-0.00144337,0.00005414,
 -0.00032525,-0.00009545,-0.00009046,-0.00108839,-0.00046900,0.00050488
 ,-0.00022509,-0.00009552,-0.04393997,-0.00948709,-0.01983370,-0.000390
 68,0.00040792,-0.00024551,0.00024816,-0.00007147,0.00150796,-0.0001067
 7,0.00028772,-0.00001637,-0.00903090,0.01429297,0.05024200,-0.00165869
 ,-0.00035683,0.00013820,0.00024418,0.00001806,-0.00021719,-0.00033912,
 0.00068017,-0.00115886,-0.00003577,-0.00000825,-0.00008498,-0.00566192
 ,0.00027159,0.00101882,0.00049178,-0.00004760,-0.00047324,0.00017990,0
 .00003638,-0.00007697,-0.00005674,0.00006555,0.00003507,0.00019575,0.0
 0041628,-0.00019544,-0.00002876,0.00004512,0.00000032,0.05504920,0.001
 74186,0.00021425,0.00115353,-0.00039146,-0.00002564,0.00007734,0.00011
 277,-0.00043377,0.00089262,-0.00003638,-0.00048605,0.00000172,0.008398
 67,-0.04982713,-0.15181303,0.00071859,0.00005599,0.00058992,-0.0000860
 9,-0.00020231,-0.00215331,0.00026993,0.00064112,-0.00020552,-0.0029633
 1,0.00149195,0.00039461,-0.00154296,-0.00066124,0.00025464,-0.00029434
 ,-0.00004275,0.00009270,0.00068241,-0.00035676,0.00088699,-0.00000082,
 -0.00000792,0.00002178,-0.00189077,0.00040940,0.00171824,0.00023025,-0
 .00006997,-0.00031376,0.00003230,-0.00002387,-0.00006985,0.00016658,-0
 .00007785,-0.00008871,0.00020428,-0.00027208,-0.00134324,0.00013558,0.
 00007675,0.00003010,-0.00548711,0.04959788,-0.00331882,-0.00021430,0.0
 0094999,-0.00041077,0.00033580,-0.00004936,-0.00042565,0.00025544,-0.0
 0044325,-0.00025240,0.00017446,-0.00007075,0.02551273,-0.14550711,-0.4
 7674215,-0.00002783,0.00035748,-0.00032780,-0.00114227,-0.00058605,0.0
 0242831,0.00009587,-0.00021012,0.00033082,0.00553598,-0.00246216,-0.01
 699498,0.00010000,-0.00028312,-0.00031388,-0.00006228,0.00001291,-0.00
 003501,0.00019588,-0.00039910,-0.00043737,-0.00002276,0.00000985,-0.00
 007049,0.00310308,-0.00052364,0.00089196,-0.00029184,-0.00008161,-0.00
 002435,-0.00025662,-0.00004746,0.00010156,0.00002869,-0.00006726,0.000
 01134,0.00017256,-0.00062969,0.00012725,0.00000324,-0.00000755,0.00002
 333,-0.02853678,0.14987324,0.49064483\\0.00003206,0.00002582,0.0000151
 1,-0.00001561,0.00000412,0.00000304,-0.00000074,0.00000311,-0.00000191
 ,-0.00000909,-0.00001156,-0.00000028,-0.00001296,-0.00000585,0.0000053
 5,0.00001349,-0.00001155,0.00000106,-0.00000989,-0.00000684,0.00001331
 ,0.00002140,0.00001274,-0.00001029,-0.00000029,-0.00002658,-0.00003336
 ,-0.00002489,-0.00000838,0.00000426,-0.00000696,-0.00000229,-0.0000001
 8,-0.00000255,0.00000545,-0.00000824,-0.00000386,0.00000069,0.00000070
 ,0.00000215,0.00000981,0.00001189,0.00000251,0.00000539,0.00000057,0.0
 0001181,0.00000269,-0.00000449,0.00000185,-0.00000478,-0.00000268,-0.0
 0000623,0.00000211,0.00000529,0.00000228,-0.00000628,0.00000155,0.0000
 0551,0.00001217,-0.00000071\\\@


 The juvenile sea squirt wanders through the sea searching
 for a suitable rock or hunk of coral to cling to and make
 its home for life.  For this task it has a rudimentary
 nervous system.  When it finds its spot and takes root, it
 doesn't need its brain any more so it eats it.
 It's rather like getting tenure.

                               -- source unknown
 Job cpu time:       0 days  2 hours 38 minutes 29.1 seconds.
 Elapsed time:       0 days  0 hours  9 minutes 57.5 seconds.
 File lengths (MBytes):  RWF=    162 Int=      0 D2E=      0 Chk=      8 Scr=      1
 Normal termination of Gaussian 16 at Fri Sep 19 17:10:36 2025.
