 Entering Gaussian System, Link 0=g16
 Input=DYLE0111.gjf
 Output=DYLE0111.log
 Initial command:
 /usr/local/g16/l1.exe "/dados_01/scratch/Gau-2075049.inp" -scrdir="/dados_01/scratch/"
 Entering Link 1 = /usr/local/g16/l1.exe PID=   2075050.
  
 Copyright (c) 1988-2017, Gaussian, Inc.  All Rights Reserved.
  
 This is part of the Gaussian(R) 16 program.  It is based on
 the Gaussian(R) 09 system (copyright 2009, Gaussian, Inc.),
 the Gaussian(R) 03 system (copyright 2003, Gaussian, Inc.),
 the Gaussian(R) 98 system (copyright 1998, Gaussian, Inc.),
 the Gaussian(R) 94 system (copyright 1995, Gaussian, Inc.),
 the Gaussian 92(TM) system (copyright 1992, Gaussian, Inc.),
 the Gaussian 90(TM) system (copyright 1990, Gaussian, Inc.),
 the Gaussian 88(TM) system (copyright 1988, Gaussian, Inc.),
 the Gaussian 86(TM) system (copyright 1986, Carnegie Mellon
 University), and the Gaussian 82(TM) system (copyright 1983,
 Carnegie Mellon University). Gaussian is a federally registered
 trademark of Gaussian, Inc.
  
 This software contains proprietary and confidential information,
 including trade secrets, belonging to Gaussian, Inc.
  
 This software is provided under written license and may be
 used, copied, transmitted, or stored only in accord with that
 written license.
  
 The following legend is applicable only to US Government
 contracts under FAR:
  
                    RESTRICTED RIGHTS LEGEND
  
 Use, reproduction and disclosure by the US Government is
 subject to restrictions as set forth in subparagraphs (a)
 and (c) of the Commercial Computer Software - Restricted
 Rights clause in FAR 52.227-19.
  
 Gaussian, Inc.
 340 Quinnipiac St., Bldg. 40, Wallingford CT 06492
  
  
 ---------------------------------------------------------------
 Warning -- This program may not be used in any manner that
 competes with the business of Gaussian, Inc. or will provide
 assistance to any competitor of Gaussian, Inc.  The licensee
 of this program is prohibited from giving any competitor of
 Gaussian, Inc. access to this program.  By using this program,
 the user acknowledges that Gaussian, Inc. is engaged in the
 business of creating and licensing software in the field of
 computational chemistry and represents and warrants to the
 licensee that it is not a competitor of Gaussian, Inc. and that
 it will not use this program in any manner prohibited above.
 ---------------------------------------------------------------
  

 Cite this work as:
 Gaussian 16, Revision B.01,
 M. J. Frisch, G. W. Trucks, H. B. Schlegel, G. E. Scuseria, 
 M. A. Robb, J. R. Cheeseman, G. Scalmani, V. Barone, 
 G. A. Petersson, H. Nakatsuji, X. Li, M. Caricato, A. V. Marenich, 
 J. Bloino, B. G. Janesko, R. Gomperts, B. Mennucci, H. P. Hratchian, 
 J. V. Ortiz, A. F. Izmaylov, J. L. Sonnenberg, D. Williams-Young, 
 F. Ding, F. Lipparini, F. Egidi, J. Goings, B. Peng, A. Petrone, 
 T. Henderson, D. Ranasinghe, V. G. Zakrzewski, J. Gao, N. Rega, 
 G. Zheng, W. Liang, M. Hada, M. Ehara, K. Toyota, R. Fukuda, 
 J. Hasegawa, M. Ishida, T. Nakajima, Y. Honda, O. Kitao, H. Nakai, 
 T. Vreven, K. Throssell, J. A. Montgomery, Jr., J. E. Peralta, 
 F. Ogliaro, M. J. Bearpark, J. J. Heyd, E. N. Brothers, K. N. Kudin, 
 V. N. Staroverov, T. A. Keith, R. Kobayashi, J. Normand, 
 K. Raghavachari, A. P. Rendell, J. C. Burant, S. S. Iyengar, 
 J. Tomasi, M. Cossi, J. M. Millam, M. Klene, C. Adamo, R. Cammi, 
 J. W. Ochterski, R. L. Martin, K. Morokuma, O. Farkas, 
 J. B. Foresman, and D. J. Fox, Gaussian, Inc., Wallingford CT, 2016.
 
 ******************************************
 Gaussian 16:  ES64L-G16RevB.01 20-Dec-2017
                19-Sep-2025 
 ******************************************
 %nprocs=16
 Will use up to   16 processors via shared memory.
 %mem=40GB
 %chk=DYLE0111.chk
 ----------------------------------------------------------------------
 # opt freq=noraman M08HX/6-311++G** scf=xqc Empiricaldispersion=pfd In
 t(Grid=ultraFine)
 ----------------------------------------------------------------------
 1/18=20,19=15,26=4,38=1/1,3;
 2/9=110,12=2,17=6,18=5,40=1/2;
 3/5=4,6=6,7=1111,11=2,25=1,30=1,71=1,74=-74,75=-5,124=11/1,2,3;
 4//1;
 5/5=2,8=3,13=1,38=5/2,8;
 6/7=2,8=2,9=2,10=2,28=1/1;
 7//1,2,3,16;
 1/18=20,19=15,26=4/3(2);
 2/9=110/2;
 99//99;
 2/9=110/2;
 3/5=4,6=6,7=1111,11=2,25=1,30=1,71=1,74=-74,75=-5,124=11/1,2,3;
 4/5=5,16=3,69=1/1;
 5/5=2,8=3,13=1,38=5/2,8;
 7//1,2,3,16;
 1/18=20,19=15,26=4/3(-5);
 2/9=110/2;
 6/7=2,8=2,9=2,10=2,19=2,28=1/1;
 99/9=1/99;
 --------
 DYLE0111
 --------
 Symbolic Z-matrix:
 Charge =  0 Multiplicity = 1
 O                     0.5488   -0.0278    1.039 
 C                    -0.4049    0.0011   -0.0474 
 C                     0.7062   -0.0589   -1.0894 
 C                     1.6515    0.0099    0.1047 
 C                    -1.3051   -1.2092    0.011 
 C                    -1.1965    1.2848   -0.0179 
 H                     0.7728    0.7926   -1.7725 
 H                     0.773    -0.988    -1.6629 
 H                     2.3139   -0.8513    0.2277 
 H                     2.2224    0.9381    0.1987 
 H                    -1.9516   -1.1838    0.8953 
 H                    -1.9487   -1.2653   -0.8738 
 H                    -0.7268   -2.1389    0.0572 
 H                    -0.5411    2.163     0.0032 
 H                    -1.8369    1.3741   -0.9021 
 H                    -1.8392    1.3375    0.8679 
 

 GradGradGradGradGradGradGradGradGradGradGradGradGradGradGradGradGradGrad
 Berny optimization.
 Initialization pass.
                           ----------------------------
                           !    Initial Parameters    !
                           ! (Angstroms and Degrees)  !
 --------------------------                            --------------------------
 ! Name  Definition              Value          Derivative Info.                !
 --------------------------------------------------------------------------------
 ! R1    R(1,2)                  1.4459         estimate D2E/DX2                !
 ! R2    R(1,4)                  1.4458         estimate D2E/DX2                !
 ! R3    R(2,3)                  1.5244         estimate D2E/DX2                !
 ! R4    R(2,5)                  1.5095         estimate D2E/DX2                !
 ! R5    R(2,6)                  1.5084         estimate D2E/DX2                !
 ! R6    R(3,4)                  1.5245         estimate D2E/DX2                !
 ! R7    R(3,7)                  1.0937         estimate D2E/DX2                !
 ! R8    R(3,8)                  1.0939         estimate D2E/DX2                !
 ! R9    R(4,9)                  1.0934         estimate D2E/DX2                !
 ! R10   R(4,10)                 1.0938         estimate D2E/DX2                !
 ! R11   R(5,11)                 1.0957         estimate D2E/DX2                !
 ! R12   R(5,12)                 1.0956         estimate D2E/DX2                !
 ! R13   R(5,13)                 1.0959         estimate D2E/DX2                !
 ! R14   R(6,14)                 1.096          estimate D2E/DX2                !
 ! R15   R(6,15)                 1.0954         estimate D2E/DX2                !
 ! R16   R(6,16)                 1.0957         estimate D2E/DX2                !
 ! A1    A(2,1,4)               90.9739         estimate D2E/DX2                !
 ! A2    A(1,2,3)               91.8365         estimate D2E/DX2                !
 ! A3    A(1,2,5)              110.3805         estimate D2E/DX2                !
 ! A4    A(1,2,6)              110.3928         estimate D2E/DX2                !
 ! A5    A(3,2,5)              115.4388         estimate D2E/DX2                !
 ! A6    A(3,2,6)              115.4266         estimate D2E/DX2                !
 ! A7    A(5,2,6)              111.6304         estimate D2E/DX2                !
 ! A8    A(2,3,4)               85.1113         estimate D2E/DX2                !
 ! A9    A(2,3,7)              116.1467         estimate D2E/DX2                !
 ! A10   A(2,3,8)              115.8679         estimate D2E/DX2                !
 ! A11   A(4,3,7)              114.6026         estimate D2E/DX2                !
 ! A12   A(4,3,8)              114.2745         estimate D2E/DX2                !
 ! A13   A(7,3,8)              109.2752         estimate D2E/DX2                !
 ! A14   A(1,4,3)               91.8374         estimate D2E/DX2                !
 ! A15   A(1,4,9)              111.6426         estimate D2E/DX2                !
 ! A16   A(1,4,10)             111.3885         estimate D2E/DX2                !
 ! A17   A(3,4,9)              115.3534         estimate D2E/DX2                !
 ! A18   A(3,4,10)             115.4204         estimate D2E/DX2                !
 ! A19   A(9,4,10)             110.0307         estimate D2E/DX2                !
 ! A20   A(2,5,11)             111.3769         estimate D2E/DX2                !
 ! A21   A(2,5,12)             111.1094         estimate D2E/DX2                !
 ! A22   A(2,5,13)             111.5395         estimate D2E/DX2                !
 ! A23   A(11,5,12)            107.8403         estimate D2E/DX2                !
 ! A24   A(11,5,13)            107.2779         estimate D2E/DX2                !
 ! A25   A(12,5,13)            107.4948         estimate D2E/DX2                !
 ! A26   A(2,6,14)             111.6204         estimate D2E/DX2                !
 ! A27   A(2,6,15)             111.1243         estimate D2E/DX2                !
 ! A28   A(2,6,16)             111.3812         estimate D2E/DX2                !
 ! A29   A(14,6,15)            107.4467         estimate D2E/DX2                !
 ! A30   A(14,6,16)            107.2575         estimate D2E/DX2                !
 ! A31   A(15,6,16)            107.8021         estimate D2E/DX2                !
 ! D1    D(4,1,2,3)              3.8082         estimate D2E/DX2                !
 ! D2    D(4,1,2,5)            121.8672         estimate D2E/DX2                !
 ! D3    D(4,1,2,6)           -114.2402         estimate D2E/DX2                !
 ! D4    D(2,1,4,3)             -3.808          estimate D2E/DX2                !
 ! D5    D(2,1,4,9)           -122.079          estimate D2E/DX2                !
 ! D6    D(2,1,4,10)           114.4738         estimate D2E/DX2                !
 ! D7    D(1,2,3,4)             -3.6239         estimate D2E/DX2                !
 ! D8    D(1,2,3,7)           -118.6789         estimate D2E/DX2                !
 ! D9    D(1,2,3,8)            111.0266         estimate D2E/DX2                !
 ! D10   D(5,2,3,4)           -117.2705         estimate D2E/DX2                !
 ! D11   D(5,2,3,7)            127.6746         estimate D2E/DX2                !
 ! D12   D(5,2,3,8)             -2.6199         estimate D2E/DX2                !
 ! D13   D(6,2,3,4)            110.0335         estimate D2E/DX2                !
 ! D14   D(6,2,3,7)             -5.0214         estimate D2E/DX2                !
 ! D15   D(6,2,3,8)           -135.3159         estimate D2E/DX2                !
 ! D16   D(1,2,5,11)            66.8131         estimate D2E/DX2                !
 ! D17   D(1,2,5,12)          -172.9365         estimate D2E/DX2                !
 ! D18   D(1,2,5,13)           -53.0148         estimate D2E/DX2                !
 ! D19   D(3,2,5,11)           169.2036         estimate D2E/DX2                !
 ! D20   D(3,2,5,12)           -70.5461         estimate D2E/DX2                !
 ! D21   D(3,2,5,13)            49.3757         estimate D2E/DX2                !
 ! D22   D(6,2,5,11)           -56.3622         estimate D2E/DX2                !
 ! D23   D(6,2,5,12)            63.8882         estimate D2E/DX2                !
 ! D24   D(6,2,5,13)          -176.1901         estimate D2E/DX2                !
 ! D25   D(1,2,6,14)            53.2585         estimate D2E/DX2                !
 ! D26   D(1,2,6,15)           173.1838         estimate D2E/DX2                !
 ! D27   D(1,2,6,16)           -66.6013         estimate D2E/DX2                !
 ! D28   D(3,2,6,14)           -49.133          estimate D2E/DX2                !
 ! D29   D(3,2,6,15)            70.7923         estimate D2E/DX2                !
 ! D30   D(3,2,6,16)          -168.9928         estimate D2E/DX2                !
 ! D31   D(5,2,6,14)           176.4268         estimate D2E/DX2                !
 ! D32   D(5,2,6,15)           -63.6479         estimate D2E/DX2                !
 ! D33   D(5,2,6,16)            56.567          estimate D2E/DX2                !
 ! D34   D(2,3,4,1)              3.6242         estimate D2E/DX2                !
 ! D35   D(2,3,4,9)            118.6823         estimate D2E/DX2                !
 ! D36   D(2,3,4,10)          -111.1622         estimate D2E/DX2                !
 ! D37   D(7,3,4,1)            120.1933         estimate D2E/DX2                !
 ! D38   D(7,3,4,9)           -124.7487         estimate D2E/DX2                !
 ! D39   D(7,3,4,10)             5.4068         estimate D2E/DX2                !
 ! D40   D(8,3,4,1)           -112.5938         estimate D2E/DX2                !
 ! D41   D(8,3,4,9)              2.4642         estimate D2E/DX2                !
 ! D42   D(8,3,4,10)           132.6197         estimate D2E/DX2                !
 --------------------------------------------------------------------------------
 Trust Radius=3.00D-01 FncErr=1.00D-07 GrdErr=1.00D-06 EigMax=2.50D+02 EigMin=1.00D-04
 Number of steps in this run=     99 maximum allowed number of steps=    100.
 GradGradGradGradGradGradGradGradGradGradGradGradGradGradGradGradGradGrad

                          Input orientation:                          
 ---------------------------------------------------------------------
 Center     Atomic      Atomic             Coordinates (Angstroms)
 Number     Number       Type             X           Y           Z
 ---------------------------------------------------------------------
      1          8           0        0.548800   -0.027800    1.039000
      2          6           0       -0.404900    0.001100   -0.047400
      3          6           0        0.706200   -0.058900   -1.089400
      4          6           0        1.651500    0.009900    0.104700
      5          6           0       -1.305100   -1.209200    0.011000
      6          6           0       -1.196500    1.284800   -0.017900
      7          1           0        0.772800    0.792600   -1.772500
      8          1           0        0.773000   -0.988000   -1.662900
      9          1           0        2.313900   -0.851300    0.227700
     10          1           0        2.222400    0.938100    0.198700
     11          1           0       -1.951600   -1.183800    0.895300
     12          1           0       -1.948700   -1.265300   -0.873800
     13          1           0       -0.726800   -2.138900    0.057200
     14          1           0       -0.541100    2.163000    0.003200
     15          1           0       -1.836900    1.374100   -0.902100
     16          1           0       -1.839200    1.337500    0.867900
 ---------------------------------------------------------------------
                    Distance matrix (angstroms):
                    1          2          3          4          5
     1  O    0.000000
     2  C    1.445906   0.000000
     3  C    2.134439   1.524437   0.000000
     4  C    1.445782   2.062036   1.524533   0.000000
     5  C    2.426816   1.509502   2.565034   3.199448   0.000000
     6  C    2.426114   1.508438   2.563964   3.122740   2.496531
     7  H    2.937306   2.233701   1.093670   2.215539   3.392012
     8  H    2.876198   2.230607   1.093888   2.211781   2.677568
     9  H    2.109962   2.862541   2.224264   1.093420   3.643105
    10  H    2.107132   2.800221   2.225325   1.093763   4.133931
    11  H    2.758439   2.164475   3.502618   3.877151   1.095716
    12  H    3.380491   2.161024   2.924103   3.942720   1.095554
    13  H    2.654775   2.166601   2.773911   3.205606   1.095859
    14  H    2.657135   2.166777   2.772431   3.074677   3.457671
    15  H    3.380053   2.160154   2.925052   3.878611   2.791057
    16  H    2.756059   2.163552   3.501431   3.811821   2.739566
                    6          7          8          9         10
     6  C    0.000000
     7  H    2.683100   0.000000
     8  H    3.427911   1.783970   0.000000
     9  H    4.116570   3.013005   2.442832   0.000000
    10  H    3.443253   2.451151   3.045682   1.791973   0.000000
    11  H    2.738265   4.294842   3.742482   4.330212   4.733919
    12  H    2.793095   3.528339   2.847319   4.422042   4.837696
    13  H    3.456585   3.767001   2.555918   3.306485   4.264473
    14  H    1.096006   2.599508   3.798888   4.157816   3.029114
    15  H    1.095398   2.811809   3.601376   4.843345   4.228448
    16  H    1.095665   3.753821   4.317000   4.738031   4.135691
                   11         12         13         14         15
    11  H    0.000000
    12  H    1.770979   0.000000
    13  H    1.764869   1.767195   0.000000
    14  H    3.739843   3.808373   4.306245   0.000000
    15  H    3.128363   2.641918   3.807065   1.766643   0.000000
    16  H    2.523953   3.133700   3.738987   1.764715   1.770380
                   16
    16  H    0.000000
 Stoichiometry    C5H10O
 Framework group  C1[X(C5H10O)]
 Deg. of freedom    42
 Full point group                 C1      NOp   1
 Largest Abelian subgroup         C1      NOp   1
 Largest concise Abelian subgroup C1      NOp   1
                         Standard orientation:                         
 ---------------------------------------------------------------------
 Center     Atomic      Atomic             Coordinates (Angstroms)
 Number     Number       Type             X           Y           Z
 ---------------------------------------------------------------------
      1          8           0       -0.568541   -0.030134   -1.065514
      2          6           0        0.369783   -0.000137    0.034164
      3          6           0       -0.755528   -0.066553    1.060406
      4          6           0       -1.684312    0.001420   -0.146632
      5          6           0        1.275203   -1.206977   -0.014285
      6          6           0        1.156940    1.286535    0.018519
      7          1           0       -0.834824    0.783173    1.744359
      8          1           0       -0.826875   -0.997167    1.630895
      9          1           0       -2.341724   -0.861940   -0.280747
     10          1           0       -2.257290    0.927716   -0.246580
     11          1           0        1.933889   -1.177225   -0.889409
     12          1           0        1.906590   -1.262674    0.879296
     13          1           0        0.701065   -2.138698   -0.070582
     14          1           0        0.498639    2.162358   -0.009826
     15          1           0        1.784595    1.376226    0.911772
     16          1           0        1.811746    1.343576   -0.858099
 ---------------------------------------------------------------------
 Rotational constants (GHZ):           5.1802755           3.3500807           3.0316643
 Standard basis: 6-311++G(d,p) (5D, 7F)
 There are   208 symmetry adapted cartesian basis functions of A   symmetry.
 There are   202 symmetry adapted basis functions of A   symmetry.
   202 basis functions,   306 primitive gaussians,   208 cartesian basis functions
    24 alpha electrons       24 beta electrons
       nuclear repulsion energy       259.8837159826 Hartrees.
 NAtoms=   16 NActive=   16 NUniq=   16 SFac= 1.00D+00 NAtFMM=   60 NAOKFM=F Big=F
 Integral buffers will be    131072 words long.
 Raffenetti 2 integral format.
 Two-electron integral symmetry is turned on.
 R6APFD:  NTU= -4 IXU= 1 FactS= 1.050
 Nuclear repulsion after empirical dispersion term =      259.8746753588 Hartrees.
 One-electron integrals computed using PRISM.
 NBasis=   202 RedAO= T EigKep=  2.59D-05  NBF=   202
 NBsUse=   202 1.00D-06 EigRej= -1.00D+00 NBFU=   202
 ExpMin= 3.60D-02 ExpMax= 8.59D+03 ExpMxC= 1.30D+03 IAcc=3 IRadAn=         5 AccDes= 0.00D+00
 Harris functional with IExCor= 1009 and IRadAn=       5 diagonalized for initial guess.
 HarFok:  IExCor= 1009 AccDes= 0.00D+00 IRadAn=         5 IDoV= 1 UseB2=F ITyADJ=14
 ICtDFT=  3500011 ScaDFX=  1.000000  1.000000  1.000000  1.000000
 FoFCou: FMM=F IPFlag=           0 FMFlag=      100000 FMFlg1=           0
         NFxFlg=           0 DoJE=T BraDBF=F KetDBF=T FulRan=T
         wScrn=  0.000000 ICntrl=       500 IOpCl=  0 I1Cent=   200000004 NGrid=           0
         NMat0=    1 NMatS0=      1 NMatT0=    0 NMatD0=    1 NMtDS0=    0 NMtDT0=    0
 Petite list used in FoFCou.
 Requested convergence on RMS density matrix=1.00D-08 within  32 cycles.
 Requested convergence on MAX density matrix=1.00D-06.
 Requested convergence on             energy=1.00D-06.
 No special actions if energy rises.
 SCF Done:  E(RM08HX) =  -271.749103645     A.U. after   12 cycles
            NFock= 12  Conv=0.84D-08     -V/T= 2.0046
 QCSCF skips out because SCF is already converged.

 **********************************************************************

            Population analysis using the SCF Density.

 **********************************************************************

 Orbital symmetries:
       Occupied  (A) (A) (A) (A) (A) (A) (A) (A) (A) (A) (A) (A)
                 (A) (A) (A) (A) (A) (A) (A) (A) (A) (A) (A) (A)
       Virtual   (A) (A) (A) (A) (A) (A) (A) (A) (A) (A) (A) (A)
                 (A) (A) (A) (A) (A) (A) (A) (A) (A) (A) (A) (A)
                 (A) (A) (A) (A) (A) (A) (A) (A) (A) (A) (A) (A)
                 (A) (A) (A) (A) (A) (A) (A) (A) (A) (A) (A) (A)
                 (A) (A) (A) (A) (A) (A) (A) (A) (A) (A) (A) (A)
                 (A) (A) (A) (A) (A) (A) (A) (A) (A) (A) (A) (A)
                 (A) (A) (A) (A) (A) (A) (A) (A) (A) (A) (A) (A)
                 (A) (A) (A) (A) (A) (A) (A) (A) (A) (A) (A) (A)
                 (A) (A) (A) (A) (A) (A) (A) (A) (A) (A) (A) (A)
                 (A) (A) (A) (A) (A) (A) (A) (A) (A) (A) (A) (A)
                 (A) (A) (A) (A) (A) (A) (A) (A) (A) (A) (A) (A)
                 (A) (A) (A) (A) (A) (A) (A) (A) (A) (A) (A) (A)
                 (A) (A) (A) (A) (A) (A) (A) (A) (A) (A) (A) (A)
                 (A) (A) (A) (A) (A) (A) (A) (A) (A) (A) (A) (A)
                 (A) (A) (A) (A) (A) (A) (A) (A) (A) (A)
 The electronic state is 1-A.
 Alpha  occ. eigenvalues --  -19.59700 -10.58856 -10.57338 -10.52865 -10.51616
 Alpha  occ. eigenvalues --  -10.51536  -1.16409  -0.89007  -0.84096  -0.79092
 Alpha  occ. eigenvalues --   -0.72270  -0.61018  -0.57091  -0.55963  -0.54264
 Alpha  occ. eigenvalues --   -0.48749  -0.47215  -0.46777  -0.44668  -0.43092
 Alpha  occ. eigenvalues --   -0.41918  -0.37954  -0.37276  -0.32218
 Alpha virt. eigenvalues --   -0.02827  -0.01226  -0.00959  -0.00227   0.01490
 Alpha virt. eigenvalues --    0.01618   0.01830   0.02661   0.03446   0.05252
 Alpha virt. eigenvalues --    0.05782   0.05962   0.06827   0.07533   0.09065
 Alpha virt. eigenvalues --    0.09139   0.10919   0.11677   0.12007   0.12525
 Alpha virt. eigenvalues --    0.12842   0.13187   0.13934   0.14231   0.14618
 Alpha virt. eigenvalues --    0.15323   0.16031   0.16620   0.17927   0.18500
 Alpha virt. eigenvalues --    0.18830   0.20193   0.20962   0.22872   0.22983
 Alpha virt. eigenvalues --    0.23778   0.25982   0.26769   0.28917   0.29624
 Alpha virt. eigenvalues --    0.29851   0.32291   0.32758   0.33494   0.34736
 Alpha virt. eigenvalues --    0.35419   0.37641   0.37961   0.40014   0.44318
 Alpha virt. eigenvalues --    0.45840   0.46397   0.48988   0.50299   0.54781
 Alpha virt. eigenvalues --    0.55839   0.56449   0.61056   0.63570   0.64564
 Alpha virt. eigenvalues --    0.65200   0.66530   0.68062   0.68418   0.68954
 Alpha virt. eigenvalues --    0.69651   0.70656   0.71062   0.72522   0.72805
 Alpha virt. eigenvalues --    0.73709   0.75291   0.76138   0.77660   0.79078
 Alpha virt. eigenvalues --    0.88265   0.94169   1.01880   1.04419   1.06330
 Alpha virt. eigenvalues --    1.12450   1.14341   1.20805   1.23243   1.25325
 Alpha virt. eigenvalues --    1.26895   1.31303   1.35635   1.44199   1.45947
 Alpha virt. eigenvalues --    1.46739   1.49984   1.51613   1.53693   1.55774
 Alpha virt. eigenvalues --    1.57427   1.59464   1.60885   1.63005   1.63828
 Alpha virt. eigenvalues --    1.67543   1.68535   1.69494   1.70914   1.71954
 Alpha virt. eigenvalues --    1.73249   1.76050   1.77932   1.79773   1.80312
 Alpha virt. eigenvalues --    1.83366   1.86554   1.91038   1.94292   1.95504
 Alpha virt. eigenvalues --    1.97272   1.98971   2.06321   2.08645   2.16694
 Alpha virt. eigenvalues --    2.17231   2.22959   2.24553   2.25765   2.33079
 Alpha virt. eigenvalues --    2.35221   2.37815   2.45272   2.47369   2.49570
 Alpha virt. eigenvalues --    2.50571   2.52965   2.55165   2.56513   2.58795
 Alpha virt. eigenvalues --    2.59167   2.60065   2.61003   2.62841   2.65651
 Alpha virt. eigenvalues --    2.67341   2.69436   2.71106   2.78725   2.80431
 Alpha virt. eigenvalues --    2.82399   2.88601   2.90452   2.94406   2.96411
 Alpha virt. eigenvalues --    3.05446   3.20119   3.20883   3.24636   3.27211
 Alpha virt. eigenvalues --    3.33981   3.37446   3.63699   3.67679   3.81329
 Alpha virt. eigenvalues --    3.82781   3.85994   3.87044   3.94840   3.97502
 Alpha virt. eigenvalues --    4.16460   4.31463   4.39982   4.56522   5.32641
 Alpha virt. eigenvalues --    5.66713   5.70332  23.84123  23.93345  23.97420
 Alpha virt. eigenvalues --   24.03063  24.05337  50.01861
          Condensed to atoms (all electrons):
               1          2          3          4          5          6
     1  O    7.963126   0.694729  -0.220995   0.174863  -0.238141  -0.233869
     2  C    0.694729   7.273094  -0.385971  -0.397163  -0.579639  -0.606920
     3  C   -0.220995  -0.385971   6.603711  -0.541186   0.200087   0.033911
     4  C    0.174863  -0.397163  -0.541186   6.372154   0.072515   0.141756
     5  C   -0.238141  -0.579639   0.200087   0.072515   7.604455  -1.467290
     6  C   -0.233869  -0.606920   0.033911   0.141756  -1.467290   7.626477
     7  H    0.017108  -0.012264   0.409837  -0.054306   0.162327  -0.181858
     8  H    0.024424   0.017407   0.371576  -0.044005  -0.201958   0.160864
     9  H   -0.062876  -0.036101   0.015076   0.367769   0.094429  -0.065816
    10  H   -0.066882  -0.053076  -0.004236   0.373186  -0.073988   0.108513
    11  H   -0.007981  -0.048881   0.007073   0.012154   0.381670   0.005030
    12  H    0.013487  -0.020003  -0.015773  -0.009272   0.359329   0.019853
    13  H   -0.015028  -0.015819   0.003092  -0.007181   0.396291  -0.009464
    14  H   -0.017483  -0.025052  -0.001826  -0.006811  -0.009684   0.406527
    15  H    0.013069  -0.026288  -0.020503  -0.007040   0.009368   0.380454
    16  H   -0.008079  -0.050769   0.008313   0.010335   0.005819   0.386633
               7          8          9         10         11         12
     1  O    0.017108   0.024424  -0.062876  -0.066882  -0.007981   0.013487
     2  C   -0.012264   0.017407  -0.036101  -0.053076  -0.048881  -0.020003
     3  C    0.409837   0.371576   0.015076  -0.004236   0.007073  -0.015773
     4  C   -0.054306  -0.044005   0.367769   0.373186   0.012154  -0.009272
     5  C    0.162327  -0.201958   0.094429  -0.073988   0.381670   0.359329
     6  C   -0.181858   0.160864  -0.065816   0.108513   0.005030   0.019853
     7  H    0.548389  -0.084037   0.029241  -0.044474  -0.002342  -0.003781
     8  H   -0.084037   0.547148  -0.043105   0.032646   0.001964   0.007126
     9  H    0.029241  -0.043105   0.542773  -0.054468  -0.000852   0.001067
    10  H   -0.044474   0.032646  -0.054468   0.571239   0.000254   0.000491
    11  H   -0.002342   0.001964  -0.000852   0.000254   0.512439  -0.047223
    12  H   -0.003781   0.007126   0.001067   0.000491  -0.047223   0.534610
    13  H    0.009903  -0.014068   0.001957  -0.002657  -0.030559  -0.041958
    14  H   -0.014400   0.009888  -0.002214   0.002501  -0.001265   0.001343
    15  H    0.005441  -0.002429   0.000069   0.001337   0.005309  -0.006203
    16  H    0.001279  -0.002400  -0.000162  -0.000656   0.002016   0.005220
              13         14         15         16
     1  O   -0.015028  -0.017483   0.013069  -0.008079
     2  C   -0.015819  -0.025052  -0.026288  -0.050769
     3  C    0.003092  -0.001826  -0.020503   0.008313
     4  C   -0.007181  -0.006811  -0.007040   0.010335
     5  C    0.396291  -0.009684   0.009368   0.005819
     6  C   -0.009464   0.406527   0.380454   0.386633
     7  H    0.009903  -0.014400   0.005441   0.001279
     8  H   -0.014068   0.009888  -0.002429  -0.002400
     9  H    0.001957  -0.002214   0.000069  -0.000162
    10  H   -0.002657   0.002501   0.001337  -0.000656
    11  H   -0.030559  -0.001265   0.005309   0.002016
    12  H   -0.041958   0.001343  -0.006203   0.005220
    13  H    0.522445  -0.003883   0.000996  -0.001161
    14  H   -0.003883   0.531267  -0.043287  -0.030716
    15  H    0.000996  -0.043287   0.532613  -0.046251
    16  H   -0.001161  -0.030716  -0.046251   0.508273
 Mulliken charges:
               1
     1  O   -0.029473
     2  C    0.272714
     3  C   -0.462186
     4  C   -0.457767
     5  C   -0.715591
     6  C   -0.704800
     7  H    0.213940
     8  H    0.218959
     9  H    0.213213
    10  H    0.210269
    11  H    0.211194
    12  H    0.201688
    13  H    0.207094
    14  H    0.205093
    15  H    0.203346
    16  H    0.212307
 Sum of Mulliken charges =  -0.00000
 Mulliken charges with hydrogens summed into heavy atoms:
               1
     1  O   -0.029473
     2  C    0.272714
     3  C   -0.029287
     4  C   -0.034284
     5  C   -0.095616
     6  C   -0.084054
 Electronic spatial extent (au):  <R**2>=            554.1155
 Charge=             -0.0000 electrons
 Dipole moment (field-independent basis, Debye):
    X=              0.0426    Y=              0.0485    Z=              2.0114  Tot=              2.0124
 Quadrupole moment (field-independent basis, Debye-Ang):
   XX=            -36.3337   YY=            -37.9486   ZZ=            -41.9145
   XY=              0.0300   XZ=             -1.2557   YZ=             -0.1159
 Traceless Quadrupole moment (field-independent basis, Debye-Ang):
   XX=              2.3986   YY=              0.7836   ZZ=             -3.1822
   XY=              0.0300   XZ=             -1.2557   YZ=             -0.1159
 Octapole moment (field-independent basis, Debye-Ang**2):
  XXX=             -6.2636  YYY=             -0.3455  ZZZ=              1.5662  XYY=             -2.8729
  XXY=             -0.0687  XXZ=             -2.5398  XZZ=              2.1350  YZZ=              0.1418
  YYZ=             -0.5653  XYZ=              0.0160
 Hexadecapole moment (field-independent basis, Debye-Ang**3):
 XXXX=           -374.0088 YYYY=           -228.0634 ZZZZ=           -166.1120 XXXY=              0.8940
 XXXZ=              4.0701 YYYX=             -0.0230 YYYZ=             -0.3384 ZZZX=             -1.4162
 ZZZY=              0.1854 XXYY=           -100.0285 XXZZ=            -86.0605 YYZZ=            -64.9068
 XXYZ=              0.0110 YYXZ=             -0.2417 ZZXY=              0.1908
 N-N= 2.598746753588D+02 E-N=-1.152241927653D+03  KE= 2.704958417974D+02
 R6APFD:  NTU= -4 IXU= 1 FactS= 1.050
 Calling FoFJK, ICntrl=      2127 FMM=F ISym2X=0 I1Cent= 0 IOpClX= 0 NMat=1 NMatS=1 NMatT=0.
 ***** Axes restored to original set *****
 -------------------------------------------------------------------
 Center     Atomic                   Forces (Hartrees/Bohr)
 Number     Number              X              Y              Z
 -------------------------------------------------------------------
      1        8           0.009045863    0.000485709   -0.000439312
      2        6          -0.009804182   -0.003300076    0.006574622
      3        6           0.008056883    0.002840311   -0.011486616
      4        6          -0.000808413   -0.002160945    0.008293048
      5        6          -0.005625316   -0.008387830   -0.000989169
      6        6          -0.004761450    0.009738105   -0.001943194
      7        1          -0.002456359    0.000569135   -0.001134748
      8        1          -0.002506150   -0.000823470    0.000035870
      9        1           0.002895031   -0.001183804    0.001803887
     10        1           0.002437671    0.002136484    0.000556682
     11        1           0.000033071    0.001880636    0.001326621
     12        1          -0.001000167    0.001518809   -0.001835637
     13        1           0.002649523    0.000697452   -0.000105135
     14        1           0.002719316   -0.000638536   -0.000169109
     15        1          -0.001083374   -0.001341732   -0.001925251
     16        1           0.000208051   -0.002030248    0.001437441
 -------------------------------------------------------------------
 Cartesian Forces:  Max     0.011486616 RMS     0.004119228

 GradGradGradGradGradGradGradGradGradGradGradGradGradGradGradGradGradGrad
 Berny optimization.
 FormGI is forming the generalized inverse of G from B-inverse, IUseBI=4.
 Internal  Forces:  Max     0.010091582 RMS     0.002251466
 Search for a local minimum.
 Step number   1 out of a maximum of   99
 All quantities printed in internal units (Hartrees-Bohrs-Radians)
 Mixed Optimization -- RFO/linear search
 Second derivative matrix not updated -- first step.
 ITU=  0
     Eigenvalues ---    0.00612   0.00640   0.00654   0.02898   0.03591
     Eigenvalues ---    0.04426   0.04807   0.05190   0.05636   0.05637
     Eigenvalues ---    0.05655   0.05661   0.06416   0.07048   0.07663
     Eigenvalues ---    0.09393   0.09712   0.10647   0.12566   0.16000
     Eigenvalues ---    0.16000   0.16000   0.16000   0.16000   0.16000
     Eigenvalues ---    0.19520   0.27031   0.28963   0.31401   0.31508
     Eigenvalues ---    0.34128   0.34144   0.34160   0.34166   0.34179
     Eigenvalues ---    0.34196   0.34367   0.34381   0.34392   0.34420
     Eigenvalues ---    0.36082   0.37025
 RFO step:  Lambda=-2.15559722D-03 EMin= 6.11869876D-03
 Linear search not attempted -- first point.
 Iteration  1 RMS(Cart)=  0.01661612 RMS(Int)=  0.00022369
 Iteration  2 RMS(Cart)=  0.00020805 RMS(Int)=  0.00013065
 Iteration  3 RMS(Cart)=  0.00000003 RMS(Int)=  0.00013065
 Variable       Old X    -DE/DX   Delta X   Delta X   Delta X     New X
                                 (Linear)    (Quad)   (Total)
    R1        2.73237   0.00655   0.00000   0.01925   0.01932   2.75169
    R2        2.73213  -0.00170   0.00000  -0.00750  -0.00747   2.72467
    R3        2.88077   0.00855   0.00000   0.03258   0.03255   2.91332
    R4        2.85255   0.00573   0.00000   0.01812   0.01812   2.87067
    R5        2.85054   0.00635   0.00000   0.02003   0.02003   2.87057
    R6        2.88095   0.01009   0.00000   0.03011   0.03005   2.91100
    R7        2.06674   0.00100   0.00000   0.00290   0.00290   2.06963
    R8        2.06715   0.00053   0.00000   0.00153   0.00153   2.06867
    R9        2.06627   0.00289   0.00000   0.00834   0.00834   2.07461
   R10        2.06691   0.00313   0.00000   0.00905   0.00905   2.07597
   R11        2.07060   0.00109   0.00000   0.00318   0.00318   2.07379
   R12        2.07030   0.00199   0.00000   0.00580   0.00580   2.07609
   R13        2.07087   0.00080   0.00000   0.00233   0.00233   2.07321
   R14        2.07115   0.00111   0.00000   0.00324   0.00324   2.07439
   R15        2.07000   0.00208   0.00000   0.00604   0.00604   2.07604
   R16        2.07051   0.00094   0.00000   0.00274   0.00274   2.07325
    A1        1.58779   0.00352   0.00000   0.01860   0.01856   1.60636
    A2        1.60285  -0.00235   0.00000  -0.01418  -0.01415   1.58870
    A3        1.92650   0.00128   0.00000   0.01442   0.01430   1.94080
    A4        1.92672   0.00107   0.00000   0.00998   0.00978   1.93649
    A5        2.01479   0.00106   0.00000  -0.00010  -0.00004   2.01475
    A6        2.01457  -0.00079   0.00000  -0.01561  -0.01557   1.99900
    A7        1.94832  -0.00033   0.00000   0.00537   0.00519   1.95351
    A8        1.48547  -0.00113   0.00000   0.00076   0.00076   1.48623
    A9        2.02714  -0.00015   0.00000  -0.01414  -0.01428   2.01286
   A10        2.02228  -0.00106   0.00000  -0.02457  -0.02463   1.99764
   A11        2.00019   0.00172   0.00000   0.02449   0.02443   2.02462
   A12        1.99447   0.00072   0.00000   0.01391   0.01384   2.00831
   A13        1.90721  -0.00011   0.00000   0.00134   0.00042   1.90763
   A14        1.60286   0.00003   0.00000  -0.00364  -0.00379   1.59908
   A15        1.94853  -0.00031   0.00000  -0.00211  -0.00207   1.94646
   A16        1.94410  -0.00012   0.00000  -0.00110  -0.00104   1.94305
   A17        2.01330   0.00188   0.00000   0.01831   0.01835   2.03165
   A18        2.01447   0.00004   0.00000   0.00100   0.00099   2.01545
   A19        1.92040  -0.00134   0.00000  -0.01137  -0.01143   1.90897
   A20        1.94389  -0.00200   0.00000  -0.01319  -0.01328   1.93062
   A21        1.93922  -0.00108   0.00000  -0.00621  -0.00626   1.93297
   A22        1.94673  -0.00288   0.00000  -0.01734  -0.01742   1.92931
   A23        1.88217   0.00155   0.00000   0.00883   0.00878   1.89095
   A24        1.87235   0.00251   0.00000   0.01464   0.01452   1.88687
   A25        1.87614   0.00229   0.00000   0.01568   0.01564   1.89178
   A26        1.94814  -0.00278   0.00000  -0.01710  -0.01720   1.93095
   A27        1.93949  -0.00091   0.00000  -0.00482  -0.00485   1.93463
   A28        1.94397  -0.00244   0.00000  -0.01589  -0.01599   1.92798
   A29        1.87530   0.00215   0.00000   0.01483   0.01481   1.89010
   A30        1.87200   0.00261   0.00000   0.01458   0.01442   1.88641
   A31        1.88150   0.00178   0.00000   0.01092   0.01088   1.89238
    D1        0.06647  -0.00053   0.00000  -0.01188  -0.01192   0.05455
    D2        2.12698  -0.00010   0.00000  -0.01482  -0.01494   2.11204
    D3       -1.99387   0.00111   0.00000   0.00904   0.00909  -1.98478
    D4       -0.06646   0.00056   0.00000   0.01180   0.01186  -0.05460
    D5       -2.13068  -0.00145   0.00000  -0.00619  -0.00612  -2.13680
    D6        1.99795   0.00060   0.00000   0.01096   0.01095   2.00889
    D7       -0.06325   0.00077   0.00000   0.01217   0.01205  -0.05120
    D8       -2.07134  -0.00057   0.00000  -0.01379  -0.01368  -2.08502
    D9        1.93778   0.00088   0.00000   0.02495   0.02472   1.96250
   D10       -2.04676   0.00031   0.00000   0.00341   0.00338  -2.04338
   D11        2.22834  -0.00103   0.00000  -0.02255  -0.02235   2.20599
   D12       -0.04573   0.00042   0.00000   0.01619   0.01605  -0.02968
   D13        1.92045   0.00053   0.00000   0.01213   0.01211   1.93256
   D14       -0.08764  -0.00081   0.00000  -0.01383  -0.01361  -0.10125
   D15       -2.36171   0.00064   0.00000   0.02491   0.02478  -2.33692
   D16        1.16611   0.00110   0.00000  -0.00102  -0.00097   1.16514
   D17       -3.01831   0.00099   0.00000  -0.00294  -0.00290  -3.02121
   D18       -0.92528   0.00122   0.00000   0.00107   0.00108  -0.92420
   D19        2.95316  -0.00050   0.00000  -0.01002  -0.01000   2.94316
   D20       -1.23126  -0.00061   0.00000  -0.01193  -0.01193  -1.24319
   D21        0.86177  -0.00037   0.00000  -0.00792  -0.00794   0.85382
   D22       -0.98371  -0.00095   0.00000  -0.02796  -0.02798  -1.01168
   D23        1.11506  -0.00106   0.00000  -0.02988  -0.02991   1.08515
   D24       -3.07510  -0.00083   0.00000  -0.02587  -0.02593  -3.10102
   D25        0.92954  -0.00162   0.00000  -0.00335  -0.00336   0.92617
   D26        3.02263  -0.00138   0.00000   0.00068   0.00062   3.02325
   D27       -1.16241  -0.00139   0.00000   0.00054   0.00046  -1.16196
   D28       -0.85753   0.00100   0.00000   0.01569   0.01577  -0.84176
   D29        1.23556   0.00124   0.00000   0.01971   0.01976   1.25532
   D30       -2.94948   0.00123   0.00000   0.01958   0.01959  -2.92989
   D31        3.07923   0.00055   0.00000   0.02611   0.02616   3.10539
   D32       -1.11086   0.00079   0.00000   0.03014   0.03014  -1.08072
   D33        0.98728   0.00078   0.00000   0.03000   0.02998   1.01726
   D34        0.06326  -0.00057   0.00000  -0.01153  -0.01153   0.05172
   D35        2.07140  -0.00042   0.00000  -0.01117  -0.01120   2.06019
   D36       -1.94015  -0.00047   0.00000  -0.00857  -0.00856  -1.94871
   D37        2.09777  -0.00104   0.00000  -0.02357  -0.02371   2.07406
   D38       -2.17728  -0.00089   0.00000  -0.02322  -0.02338  -2.20066
   D39        0.09437  -0.00093   0.00000  -0.02062  -0.02074   0.07363
   D40       -1.96513   0.00103   0.00000   0.01350   0.01367  -1.95146
   D41        0.04301   0.00118   0.00000   0.01385   0.01400   0.05701
   D42        2.31465   0.00113   0.00000   0.01645   0.01664   2.33129
         Item               Value     Threshold  Converged?
 Maximum Force            0.010092     0.000450     NO 
 RMS     Force            0.002251     0.000300     NO 
 Maximum Displacement     0.050551     0.001800     NO 
 RMS     Displacement     0.016609     0.001200     NO 
 Predicted change in Energy=-1.101782D-03
 GradGradGradGradGradGradGradGradGradGradGradGradGradGradGradGradGradGrad

                          Input orientation:                          
 ---------------------------------------------------------------------
 Center     Atomic      Atomic             Coordinates (Angstroms)
 Number     Number       Type             X           Y           Z
 ---------------------------------------------------------------------
      1          8           0        0.563530   -0.024859    1.041855
      2          6           0       -0.411874   -0.000923   -0.039039
      3          6           0        0.712820   -0.050867   -1.092265
      4          6           0        1.667708    0.005763    0.115178
      5          6           0       -1.315296   -1.221229    0.009155
      6          6           0       -1.206188    1.293820   -0.025362
      7          1           0        0.752474    0.803564   -1.776256
      8          1           0        0.751118   -0.979461   -1.670715
      9          1           0        2.332826   -0.856794    0.252499
     10          1           0        2.248024    0.933108    0.215609
     11          1           0       -1.950465   -1.196681    0.903720
     12          1           0       -1.965475   -1.259383   -0.875594
     13          1           0       -0.718325   -2.141170    0.039930
     14          1           0       -0.532843    2.160764   -0.023550
     15          1           0       -1.855613    1.363408   -0.908713
     16          1           0       -1.834622    1.348839    0.872249
 ---------------------------------------------------------------------
                    Distance matrix (angstroms):
                    1          2          3          4          5
     1  O    0.000000
     2  C    1.456131   0.000000
     3  C    2.139493   1.541661   0.000000
     4  C    1.441831   2.085303   1.540433   0.000000
     5  C    2.455149   1.519092   2.587688   3.227237   0.000000
     6  C    2.451482   1.519039   2.574695   3.152477   2.517651
     7  H    2.943422   2.240721   1.095202   2.247589   3.400463
     8  H    2.881751   2.229900   1.094696   2.236116   2.674038
     9  H    2.108461   2.889790   2.254401   1.097836   3.674346
    10  H    2.106633   2.830604   2.244012   1.098554   4.169057
    11  H    2.777124   2.164692   3.519934   3.893436   1.097401
    12  H    3.405367   2.167307   2.946307   3.972686   1.098621
    13  H    2.669416   2.163517   2.774781   3.210629   1.097093
    14  H    2.667220   2.165124   2.754113   3.083130   3.471481
    15  H    3.403564   2.168436   2.937808   3.912204   2.795492
    16  H    2.768925   2.162525   3.508270   3.826660   2.760414
                    6          7          8          9         10
     6  C    0.000000
     7  H    2.672515   0.000000
     8  H    3.421408   1.786146   0.000000
     9  H    4.150537   3.061069   2.493110   0.000000
    10  H    3.481344   2.494188   3.075201   1.792289   0.000000
    11  H    2.760387   4.299899   3.738108   4.345824   4.757815
    12  H    2.796114   3.529049   2.844372   4.462069   4.873532
    13  H    3.470076   3.759420   2.536757   3.317277   4.275661
    14  H    1.097720   2.562422   3.771302   4.170601   3.049189
    15  H    1.098592   2.805027   3.586744   4.880649   4.276576
    16  H    1.097116   3.742322   4.309722   4.755684   4.155961
                   11         12         13         14         15
    11  H    0.000000
    12  H    1.780482   0.000000
    13  H    1.776615   1.780763   0.000000
    14  H    3.760574   3.804710   4.306399   0.000000
    15  H    3.138147   2.625300   3.804658   1.780171   0.000000
    16  H    2.548349   3.142435   3.757532   1.776600   1.781145
                   16
    16  H    0.000000
 Stoichiometry    C5H10O
 Framework group  C1[X(C5H10O)]
 Deg. of freedom    42
 Full point group                 C1      NOp   1
 Largest Abelian subgroup         C1      NOp   1
 Largest concise Abelian subgroup C1      NOp   1
                         Standard orientation:                         
 ---------------------------------------------------------------------
 Center     Atomic      Atomic             Coordinates (Angstroms)
 Number     Number       Type             X           Y           Z
 ---------------------------------------------------------------------
      1          8           0       -0.593150   -0.040242   -1.060613
      2          6           0        0.378872   -0.001514    0.022895
      3          6           0       -0.748681   -0.048355    1.073204
      4          6           0       -1.700245   -0.007519   -0.137495
      5          6           0        1.289042   -1.217252   -0.011920
      6          6           0        1.166184    1.297371    0.000186
      7          1           0       -0.795017    0.811810    1.749545
      8          1           0       -0.783669   -0.972038    1.659672
      9          1           0       -2.360259   -0.874861   -0.269193
     10          1           0       -2.285283    0.915731   -0.247774
     11          1           0        1.926742   -1.197083   -0.904793
     12          1           0        1.936769   -1.244102    0.875040
     13          1           0        0.697167   -2.140669   -0.036372
     14          1           0        0.488153    2.160581   -0.011221
     15          1           0        1.812577    1.378241    0.884799
     16          1           0        1.796994    1.347946   -0.896019
 ---------------------------------------------------------------------
 Rotational constants (GHZ):           5.1329249           3.3018339           2.9854725
 Standard basis: 6-311++G(d,p) (5D, 7F)
 There are   208 symmetry adapted cartesian basis functions of A   symmetry.
 There are   202 symmetry adapted basis functions of A   symmetry.
   202 basis functions,   306 primitive gaussians,   208 cartesian basis functions
    24 alpha electrons       24 beta electrons
       nuclear repulsion energy       258.4084712963 Hartrees.
 NAtoms=   16 NActive=   16 NUniq=   16 SFac= 1.00D+00 NAtFMM=   60 NAOKFM=F Big=F
 Integral buffers will be    131072 words long.
 Raffenetti 2 integral format.
 Two-electron integral symmetry is turned on.
 R6APFD:  NTU= -4 IXU= 1 FactS= 1.050
 Nuclear repulsion after empirical dispersion term =      258.3992889806 Hartrees.
 One-electron integrals computed using PRISM.
 NBasis=   202 RedAO= T EigKep=  2.72D-05  NBF=   202
 NBsUse=   202 1.00D-06 EigRej= -1.00D+00 NBFU=   202
 Initial guess from the checkpoint file:  "DYLE0111.chk"
 B after Tr=     0.000000   -0.000000   -0.000000
         Rot=    0.999971    0.005414   -0.005243   -0.000653 Ang=   0.87 deg.
 ExpMin= 3.60D-02 ExpMax= 8.59D+03 ExpMxC= 1.30D+03 IAcc=3 IRadAn=         5 AccDes= 0.00D+00
 Harris functional with IExCor= 1009 and IRadAn=       5 diagonalized for initial guess.
 HarFok:  IExCor= 1009 AccDes= 0.00D+00 IRadAn=         5 IDoV= 1 UseB2=F ITyADJ=14
 ICtDFT=  3500011 ScaDFX=  1.000000  1.000000  1.000000  1.000000
 FoFCou: FMM=F IPFlag=           0 FMFlag=      100000 FMFlg1=           0
         NFxFlg=           0 DoJE=T BraDBF=F KetDBF=T FulRan=T
         wScrn=  0.000000 ICntrl=       500 IOpCl=  0 I1Cent=   200000004 NGrid=           0
         NMat0=    1 NMatS0=      1 NMatT0=    0 NMatD0=    1 NMtDS0=    0 NMtDT0=    0
 Petite list used in FoFCou.
 Requested convergence on RMS density matrix=1.00D-08 within  32 cycles.
 Requested convergence on MAX density matrix=1.00D-06.
 Requested convergence on             energy=1.00D-06.
 No special actions if energy rises.
 SCF Done:  E(RM08HX) =  -271.750179200     A.U. after   10 cycles
            NFock= 10  Conv=0.77D-08     -V/T= 2.0051
 QCSCF skips out because SCF is already converged.
 R6APFD:  NTU= -4 IXU= 1 FactS= 1.050
 Calling FoFJK, ICntrl=      2127 FMM=F ISym2X=0 I1Cent= 0 IOpClX= 0 NMat=1 NMatS=1 NMatT=0.
 ***** Axes restored to original set *****
 -------------------------------------------------------------------
 Center     Atomic                   Forces (Hartrees/Bohr)
 Number     Number              X              Y              Z
 -------------------------------------------------------------------
      1        8           0.000338962    0.000061883   -0.001629065
      2        6          -0.001112695   -0.000584391    0.001076322
      3        6           0.003011584    0.000178561   -0.002387320
      4        6          -0.004458550   -0.000089029    0.001832609
      5        6          -0.000039354   -0.001726004    0.000368213
      6        6          -0.000352395    0.002375410    0.000459346
      7        1          -0.000041814    0.000038338    0.000472815
      8        1           0.000087037   -0.000358654    0.000238071
      9        1           0.000197071    0.000043907   -0.000493037
     10        1           0.000397653    0.000091266   -0.000474542
     11        1           0.000281387    0.000467569    0.000015744
     12        1           0.000500477    0.000907905    0.000224894
     13        1           0.000318716    0.000550289   -0.000011830
     14        1           0.000307841   -0.000717206   -0.000012892
     15        1           0.000428813   -0.000941535    0.000217890
     16        1           0.000135268   -0.000298307    0.000102780
 -------------------------------------------------------------------
 Cartesian Forces:  Max     0.004458550 RMS     0.001093719

 GradGradGradGradGradGradGradGradGradGradGradGradGradGradGradGradGradGrad
 Berny optimization.
 Using GEDIIS/GDIIS optimizer.
 FormGI is forming the generalized inverse of G from B-inverse, IUseBI=4.
 Internal  Forces:  Max     0.001783257 RMS     0.000541040
 Search for a local minimum.
 Step number   2 out of a maximum of   99
 All quantities printed in internal units (Hartrees-Bohrs-Radians)
 Mixed Optimization -- En-DIIS/RFO-DIIS
 Update second derivatives using D2CorX and points    1    2
 DE= -1.08D-03 DEPred=-1.10D-03 R= 9.76D-01
 TightC=F SS=  1.41D+00  RLast= 1.45D-01 DXNew= 5.0454D-01 4.3357D-01
 Trust test= 9.76D-01 RLast= 1.45D-01 DXMaxT set to 4.34D-01
 ITU=  1  0
 Use linear search instead of GDIIS.
     Eigenvalues ---    0.00614   0.00639   0.00653   0.02904   0.03677
     Eigenvalues ---    0.04432   0.04783   0.05219   0.05750   0.05757
     Eigenvalues ---    0.05791   0.05810   0.06443   0.07021   0.07765
     Eigenvalues ---    0.09164   0.09717   0.10704   0.12409   0.14505
     Eigenvalues ---    0.16000   0.16000   0.16000   0.16000   0.16139
     Eigenvalues ---    0.19930   0.25886   0.29118   0.31418   0.31899
     Eigenvalues ---    0.34132   0.34145   0.34161   0.34163   0.34188
     Eigenvalues ---    0.34281   0.34344   0.34373   0.34405   0.34536
     Eigenvalues ---    0.36097   0.39622
 RFO step:  Lambda=-1.55880294D-04 EMin= 6.14043097D-03
 Quartic linear search produced a step of  0.01649.
 Iteration  1 RMS(Cart)=  0.00572426 RMS(Int)=  0.00003077
 Iteration  2 RMS(Cart)=  0.00003041 RMS(Int)=  0.00001059
 Iteration  3 RMS(Cart)=  0.00000000 RMS(Int)=  0.00001059
 Variable       Old X    -DE/DX   Delta X   Delta X   Delta X     New X
                                 (Linear)    (Quad)   (Total)
    R1        2.75169  -0.00165   0.00032  -0.00321  -0.00290   2.74879
    R2        2.72467  -0.00178  -0.00012  -0.00628  -0.00640   2.71826
    R3        2.91332   0.00172   0.00054   0.00917   0.00971   2.92302
    R4        2.87067  -0.00077   0.00030  -0.00151  -0.00121   2.86945
    R5        2.87057   0.00009   0.00033   0.00139   0.00172   2.87228
    R6        2.91100  -0.00117   0.00050  -0.00251  -0.00200   2.90899
    R7        2.06963  -0.00027   0.00005  -0.00063  -0.00058   2.06905
    R8        2.06867   0.00018   0.00003   0.00062   0.00064   2.06932
    R9        2.07461   0.00002   0.00014   0.00053   0.00067   2.07527
   R10        2.07597   0.00024   0.00015   0.00121   0.00136   2.07732
   R11        2.07379  -0.00014   0.00005  -0.00024  -0.00019   2.07360
   R12        2.07609  -0.00051   0.00010  -0.00119  -0.00110   2.07500
   R13        2.07321  -0.00029   0.00004  -0.00073  -0.00070   2.07251
   R14        2.07439  -0.00038   0.00005  -0.00094  -0.00089   2.07350
   R15        2.07604  -0.00049   0.00010  -0.00113  -0.00103   2.07501
   R16        2.07325  -0.00001   0.00005   0.00013   0.00017   2.07342
    A1        1.60636  -0.00011   0.00031  -0.00106  -0.00077   1.60559
    A2        1.58870   0.00020  -0.00023   0.00085   0.00061   1.58932
    A3        1.94080  -0.00029   0.00024  -0.00384  -0.00360   1.93720
    A4        1.93649  -0.00034   0.00016  -0.00500  -0.00484   1.93166
    A5        2.01475  -0.00015  -0.00000   0.00117   0.00116   2.01591
    A6        1.99900  -0.00017  -0.00026   0.00007  -0.00020   1.99881
    A7        1.95351   0.00060   0.00009   0.00491   0.00498   1.95849
    A8        1.48623  -0.00143   0.00001  -0.00623  -0.00621   1.48002
    A9        2.01286   0.00035  -0.00024  -0.00119  -0.00143   2.01143
   A10        1.99764   0.00037  -0.00041  -0.00052  -0.00093   1.99671
   A11        2.02462   0.00032   0.00040   0.00106   0.00145   2.02607
   A12        2.00831   0.00030   0.00023   0.00004   0.00026   2.00856
   A13        1.90763  -0.00008   0.00001   0.00449   0.00448   1.91211
   A14        1.59908   0.00133  -0.00006   0.00632   0.00627   1.60535
   A15        1.94646  -0.00020  -0.00003   0.00309   0.00306   1.94952
   A16        1.94305  -0.00017  -0.00002   0.00442   0.00441   1.94746
   A17        2.03165  -0.00057   0.00030  -0.00413  -0.00386   2.02779
   A18        2.01545  -0.00044   0.00002  -0.00390  -0.00392   2.01153
   A19        1.90897   0.00018  -0.00019  -0.00327  -0.00350   1.90547
   A20        1.93062  -0.00045  -0.00022  -0.00376  -0.00400   1.92662
   A21        1.93297  -0.00108  -0.00010  -0.00765  -0.00777   1.92520
   A22        1.92931  -0.00045  -0.00029  -0.00319  -0.00348   1.92583
   A23        1.89095   0.00067   0.00014   0.00358   0.00370   1.89465
   A24        1.88687   0.00056   0.00024   0.00516   0.00539   1.89226
   A25        1.89178   0.00084   0.00026   0.00649   0.00673   1.89851
   A26        1.93095  -0.00068  -0.00028  -0.00501  -0.00531   1.92564
   A27        1.93463  -0.00110  -0.00008  -0.00769  -0.00778   1.92685
   A28        1.92798  -0.00014  -0.00026  -0.00161  -0.00188   1.92610
   A29        1.89010   0.00090   0.00024   0.00625   0.00647   1.89657
   A30        1.88641   0.00051   0.00024   0.00483   0.00506   1.89147
   A31        1.89238   0.00059   0.00018   0.00386   0.00402   1.89640
    D1        0.05455   0.00001  -0.00020   0.00109   0.00089   0.05544
    D2        2.11204  -0.00013  -0.00025   0.00188   0.00163   2.11367
    D3       -1.98478   0.00018   0.00015   0.00170   0.00186  -1.98291
    D4       -0.05460  -0.00007   0.00020  -0.00132  -0.00113  -0.05573
    D5       -2.13680  -0.00001  -0.00010  -0.00050  -0.00061  -2.13741
    D6        2.00889   0.00001   0.00018  -0.00165  -0.00146   2.00743
    D7       -0.05120  -0.00001   0.00020  -0.00098  -0.00078  -0.05198
    D8       -2.08502   0.00028  -0.00023   0.00104   0.00081  -2.08421
    D9        1.96250  -0.00029   0.00041  -0.00388  -0.00347   1.95903
   D10       -2.04338   0.00025   0.00006   0.00265   0.00270  -2.04068
   D11        2.20599   0.00054  -0.00037   0.00466   0.00429   2.21028
   D12       -0.02968  -0.00003   0.00026  -0.00025   0.00001  -0.02967
   D13        1.93256  -0.00032   0.00020  -0.00613  -0.00593   1.92663
   D14       -0.10125  -0.00003  -0.00022  -0.00412  -0.00434  -0.10560
   D15       -2.33692  -0.00060   0.00041  -0.00903  -0.00862  -2.34555
   D16        1.16514  -0.00003  -0.00002  -0.00798  -0.00800   1.15715
   D17       -3.02121  -0.00019  -0.00005  -0.01097  -0.01101  -3.03222
   D18       -0.92420  -0.00014   0.00002  -0.00993  -0.00990  -0.93410
   D19        2.94316  -0.00002  -0.00016  -0.00854  -0.00872   2.93444
   D20       -1.24319  -0.00019  -0.00020  -0.01154  -0.01174  -1.25492
   D21        0.85382  -0.00014  -0.00013  -0.01049  -0.01063   0.84319
   D22       -1.01168   0.00019  -0.00046  -0.00218  -0.00264  -1.01432
   D23        1.08515   0.00003  -0.00049  -0.00517  -0.00566   1.07949
   D24       -3.10102   0.00007  -0.00043  -0.00413  -0.00455  -3.10557
   D25        0.92617   0.00016  -0.00006   0.01086   0.01080   0.93698
   D26        3.02325   0.00012   0.00001   0.01035   0.01037   3.03362
   D27       -1.16196   0.00005   0.00001   0.00911   0.00912  -1.15284
   D28       -0.84176   0.00018   0.00026   0.01252   0.01278  -0.82899
   D29        1.25532   0.00014   0.00033   0.01201   0.01234   1.26765
   D30       -2.92989   0.00007   0.00032   0.01076   0.01109  -2.91880
   D31        3.10539  -0.00003   0.00043   0.00571   0.00613   3.11152
   D32       -1.08072  -0.00007   0.00050   0.00519   0.00569  -1.07503
   D33        1.01726  -0.00014   0.00049   0.00395   0.00444   1.02170
   D34        0.05172   0.00001  -0.00019   0.00105   0.00086   0.05259
   D35        2.06019   0.00038  -0.00018   0.00706   0.00686   2.06705
   D36       -1.94871  -0.00040  -0.00014  -0.00638  -0.00651  -1.95522
   D37        2.07406  -0.00026  -0.00039  -0.00325  -0.00365   2.07041
   D38       -2.20066   0.00011  -0.00039   0.00275   0.00235  -2.19831
   D39        0.07363  -0.00067  -0.00034  -0.01069  -0.01103   0.06260
   D40       -1.95146   0.00024   0.00023   0.00459   0.00481  -1.94665
   D41        0.05701   0.00061   0.00023   0.01059   0.01081   0.06782
   D42        2.33129  -0.00017   0.00027  -0.00285  -0.00256   2.32873
         Item               Value     Threshold  Converged?
 Maximum Force            0.001783     0.000450     NO 
 RMS     Force            0.000541     0.000300     NO 
 Maximum Displacement     0.015207     0.001800     NO 
 RMS     Displacement     0.005729     0.001200     NO 
 Predicted change in Energy=-7.813857D-05
 GradGradGradGradGradGradGradGradGradGradGradGradGradGradGradGradGradGrad

                          Input orientation:                          
 ---------------------------------------------------------------------
 Center     Atomic      Atomic             Coordinates (Angstroms)
 Number     Number       Type             X           Y           Z
 ---------------------------------------------------------------------
      1          8           0        0.556211   -0.025888    1.041085
      2          6           0       -0.415136   -0.002160   -0.041402
      3          6           0        0.715650   -0.051455   -1.095667
      4          6           0        1.659660    0.006714    0.118883
      5          6           0       -1.315742   -1.223661    0.008959
      6          6           0       -1.205836    1.295820   -0.024577
      7          1           0        0.755648    0.803958   -1.777916
      8          1           0        0.756999   -0.981885   -1.671595
      9          1           0        2.328000   -0.854019    0.254816
     10          1           0        2.241196    0.934412    0.216827
     11          1           0       -1.944203   -1.198412    0.908106
     12          1           0       -1.968928   -1.252127   -0.873216
     13          1           0       -0.714011   -2.140272    0.032396
     14          1           0       -0.525573    2.156724   -0.030934
     15          1           0       -1.859013    1.357542   -0.905064
     16          1           0       -1.827121    1.352609    0.878000
 ---------------------------------------------------------------------
                    Distance matrix (angstroms):
                    1          2          3          4          5
     1  O    0.000000
     2  C    1.454598   0.000000
     3  C    2.142844   1.546797   0.000000
     4  C    1.438443   2.080997   1.539373   0.000000
     5  C    2.450337   1.518450   2.592453   3.221633   0.000000
     6  C    2.446907   1.519948   2.579629   3.145384   2.522100
     7  H    2.945366   2.244113   1.094895   2.247372   3.405116
     8  H    2.883206   2.234120   1.095036   2.235607   2.679360
     9  H    2.107904   2.887595   2.251130   1.098188   3.670686
    10  H    2.107309   2.828418   2.240952   1.099273   4.165608
    11  H    2.764881   2.161164   3.522134   3.881112   1.097299
    12  H    3.397725   2.160695   2.949246   3.966811   1.098042
    13  H    2.664871   2.160161   2.771212   3.201772   1.096725
    14  H    2.661442   2.161732   2.747789   3.069240   3.471737
    15  H    3.396274   2.163211   2.941171   3.905671   2.791628
    16  H    2.758101   2.162036   3.511757   3.813835   2.766570
                    6          7          8          9         10
     6  C    0.000000
     7  H    2.676480   0.000000
     8  H    3.428313   1.789005   0.000000
     9  H    4.145825   3.058296   2.489067   0.000000
    10  H    3.474322   2.490556   3.072649   1.790940   0.000000
    11  H    2.763381   4.302719   3.741421   4.335564   4.748091
    12  H    2.791869   3.531187   2.853264   4.460329   4.867678
    13  H    3.471580   3.755745   2.531663   3.310249   4.268600
    14  H    1.097248   2.554105   3.766646   4.158017   3.034871
    15  H    1.098047   2.811544   3.592214   4.875182   4.271930
    16  H    1.097208   3.745078   4.316013   4.745798   4.142854
                   11         12         13         14         15
    11  H    0.000000
    12  H    1.782303   0.000000
    13  H    1.779702   1.784307   0.000000
    14  H    3.761814   3.796443   4.301592   0.000000
    15  H    3.134923   2.612177   3.797969   1.783495   0.000000
    16  H    2.553884   3.141897   3.762218   1.779547   1.783355
                   16
    16  H    0.000000
 Stoichiometry    C5H10O
 Framework group  C1[X(C5H10O)]
 Deg. of freedom    42
 Full point group                 C1      NOp   1
 Largest Abelian subgroup         C1      NOp   1
 Largest concise Abelian subgroup C1      NOp   1
                         Standard orientation:                         
 ---------------------------------------------------------------------
 Center     Atomic      Atomic             Coordinates (Angstroms)
 Number     Number       Type             X           Y           Z
 ---------------------------------------------------------------------
      1          8           0       -0.585784   -0.040321   -1.061219
      2          6           0        0.380126   -0.002165    0.025710
      3          6           0       -0.755440   -0.050361    1.074874
      4          6           0       -1.693882   -0.007475   -0.144617
      5          6           0        1.288523   -1.218377   -0.010836
      6          6           0        1.162834    1.300553    0.002613
      7          1           0       -0.804056    0.810035    1.750263
      8          1           0       -0.793816   -0.976550    1.657802
      9          1           0       -2.356203   -0.873386   -0.277078
     10          1           0       -2.280676    0.915793   -0.252554
     11          1           0        1.921177   -1.196161   -0.907119
     12          1           0        1.937580   -1.235946    0.874664
     13          1           0        0.692609   -2.138878   -0.030052
     14          1           0        0.477224    2.157220   -0.000984
     15          1           0        1.811331    1.373155    0.885726
     16          1           0        1.788133    1.354237   -0.897378
 ---------------------------------------------------------------------
 Rotational constants (GHZ):           5.1227432           3.3094982           2.9917986
 Standard basis: 6-311++G(d,p) (5D, 7F)
 There are   208 symmetry adapted cartesian basis functions of A   symmetry.
 There are   202 symmetry adapted basis functions of A   symmetry.
   202 basis functions,   306 primitive gaussians,   208 cartesian basis functions
    24 alpha electrons       24 beta electrons
       nuclear repulsion energy       258.5116766171 Hartrees.
 NAtoms=   16 NActive=   16 NUniq=   16 SFac= 1.00D+00 NAtFMM=   60 NAOKFM=F Big=F
 Integral buffers will be    131072 words long.
 Raffenetti 2 integral format.
 Two-electron integral symmetry is turned on.
 R6APFD:  NTU= -4 IXU= 1 FactS= 1.050
 Nuclear repulsion after empirical dispersion term =      258.5025174243 Hartrees.
 One-electron integrals computed using PRISM.
 NBasis=   202 RedAO= T EigKep=  2.72D-05  NBF=   202
 NBsUse=   202 1.00D-06 EigRej= -1.00D+00 NBFU=   202
 Initial guess from the checkpoint file:  "DYLE0111.chk"
 B after Tr=    -0.000000    0.000000   -0.000000
         Rot=    0.999999   -0.000429    0.001414   -0.000388 Ang=  -0.18 deg.
 Requested convergence on RMS density matrix=1.00D-08 within  32 cycles.
 Requested convergence on MAX density matrix=1.00D-06.
 Requested convergence on             energy=1.00D-06.
 No special actions if energy rises.
 SCF Done:  E(RM08HX) =  -271.750267519     A.U. after   10 cycles
            NFock= 10  Conv=0.40D-08     -V/T= 2.0051
 QCSCF skips out because SCF is already converged.
 R6APFD:  NTU= -4 IXU= 1 FactS= 1.050
 Calling FoFJK, ICntrl=      2127 FMM=F ISym2X=0 I1Cent= 0 IOpClX= 0 NMat=1 NMatS=1 NMatT=0.
 ***** Axes restored to original set *****
 -------------------------------------------------------------------
 Center     Atomic                   Forces (Hartrees/Bohr)
 Number     Number              X              Y              Z
 -------------------------------------------------------------------
      1        8           0.000752604   -0.000002407   -0.001124064
      2        6          -0.000346921   -0.000098002    0.000497518
      3        6           0.000299668   -0.000066795   -0.000175022
      4        6          -0.001267628    0.000073839    0.000721043
      5        6           0.000150078   -0.000112718   -0.000195310
      6        6           0.000060537    0.000251004   -0.000214333
      7        1           0.000036408   -0.000028457    0.000291875
      8        1           0.000028046    0.000028501    0.000243741
      9        1           0.000054119    0.000063768   -0.000136671
     10        1           0.000058884   -0.000056747   -0.000043859
     11        1           0.000151379    0.000033413   -0.000065907
     12        1           0.000031187   -0.000012653    0.000161606
     13        1          -0.000123614    0.000181790   -0.000010714
     14        1          -0.000101218   -0.000191881   -0.000004015
     15        1           0.000039045   -0.000003382    0.000151018
     16        1           0.000177428   -0.000059271   -0.000096906
 -------------------------------------------------------------------
 Cartesian Forces:  Max     0.001267628 RMS     0.000324456

 GradGradGradGradGradGradGradGradGradGradGradGradGradGradGradGradGradGrad
 Berny optimization.
 Using GEDIIS/GDIIS optimizer.
 FormGI is forming the generalized inverse of G from B-inverse, IUseBI=4.
 Internal  Forces:  Max     0.001020740 RMS     0.000151194
 Search for a local minimum.
 Step number   3 out of a maximum of   99
 All quantities printed in internal units (Hartrees-Bohrs-Radians)
 Mixed Optimization -- En-DIIS/RFO-DIIS
 Swapping is turned off.
 Update second derivatives using D2CorX and points    1    2    3
 DE= -8.83D-05 DEPred=-7.81D-05 R= 1.13D+00
 TightC=F SS=  1.41D+00  RLast= 5.30D-02 DXNew= 7.2917D-01 1.5901D-01
 Trust test= 1.13D+00 RLast= 5.30D-02 DXMaxT set to 4.34D-01
 ITU=  1  1  0
     Eigenvalues ---    0.00599   0.00622   0.00648   0.02888   0.03671
     Eigenvalues ---    0.04397   0.04829   0.05042   0.05804   0.05821
     Eigenvalues ---    0.05833   0.05887   0.06406   0.06974   0.07783
     Eigenvalues ---    0.08755   0.09766   0.10663   0.12427   0.14823
     Eigenvalues ---    0.16000   0.16000   0.16000   0.16012   0.16523
     Eigenvalues ---    0.20355   0.25605   0.29118   0.31402   0.31884
     Eigenvalues ---    0.34107   0.34138   0.34162   0.34185   0.34203
     Eigenvalues ---    0.34219   0.34350   0.34395   0.34445   0.34559
     Eigenvalues ---    0.36366   0.38256
 En-DIIS/RFO-DIIS/Sim-DIIS IScMMF=       -3 using points:     3    2
 RFO step:  Lambda=-1.32522696D-05.
 DidBck=F Rises=F RFO-DIIS coefs:    1.39150   -0.39150
 Iteration  1 RMS(Cart)=  0.00307955 RMS(Int)=  0.00000784
 Iteration  2 RMS(Cart)=  0.00000704 RMS(Int)=  0.00000436
 Iteration  3 RMS(Cart)=  0.00000000 RMS(Int)=  0.00000436
 Variable       Old X    -DE/DX   Delta X   Delta X   Delta X     New X
                                 (Linear)    (Quad)   (Total)
    R1        2.74879  -0.00036  -0.00113   0.00036  -0.00078   2.74801
    R2        2.71826  -0.00102  -0.00251  -0.00153  -0.00404   2.71423
    R3        2.92302  -0.00017   0.00380  -0.00271   0.00109   2.92411
    R4        2.86945  -0.00020  -0.00047  -0.00007  -0.00055   2.86891
    R5        2.87228  -0.00010   0.00067  -0.00064   0.00004   2.87232
    R6        2.90899  -0.00033  -0.00078  -0.00046  -0.00124   2.90775
    R7        2.06905  -0.00020  -0.00023  -0.00044  -0.00067   2.06838
    R8        2.06932  -0.00015   0.00025  -0.00070  -0.00044   2.06887
    R9        2.07527  -0.00003   0.00026  -0.00021   0.00005   2.07532
   R10        2.07732  -0.00002   0.00053  -0.00040   0.00014   2.07746
   R11        2.07360  -0.00014  -0.00008  -0.00036  -0.00044   2.07316
   R12        2.07500  -0.00015  -0.00043  -0.00005  -0.00047   2.07452
   R13        2.07251  -0.00022  -0.00027  -0.00048  -0.00075   2.07176
   R14        2.07350  -0.00021  -0.00035  -0.00037  -0.00072   2.07278
   R15        2.07501  -0.00015  -0.00040  -0.00007  -0.00047   2.07454
   R16        2.07342  -0.00018   0.00007  -0.00063  -0.00056   2.07286
    A1        1.60559   0.00017  -0.00030   0.00128   0.00097   1.60656
    A2        1.58932  -0.00015   0.00024  -0.00150  -0.00126   1.58805
    A3        1.93720   0.00003  -0.00141   0.00140  -0.00000   1.93720
    A4        1.93166   0.00003  -0.00189   0.00165  -0.00024   1.93141
    A5        2.01591   0.00003   0.00045  -0.00035   0.00010   2.01601
    A6        1.99881  -0.00004  -0.00008  -0.00089  -0.00097   1.99784
    A7        1.95849   0.00007   0.00195  -0.00018   0.00176   1.96025
    A8        1.48002  -0.00016  -0.00243   0.00173  -0.00070   1.47932
    A9        2.01143   0.00001  -0.00056  -0.00012  -0.00068   2.01075
   A10        1.99671   0.00004  -0.00036   0.00007  -0.00030   1.99642
   A11        2.02607  -0.00003   0.00057  -0.00156  -0.00100   2.02507
   A12        2.00856   0.00000   0.00010  -0.00058  -0.00048   2.00808
   A13        1.91211   0.00008   0.00175   0.00055   0.00230   1.91441
   A14        1.60535   0.00014   0.00245  -0.00170   0.00076   1.60611
   A15        1.94952   0.00002   0.00120   0.00020   0.00141   1.95093
   A16        1.94746  -0.00001   0.00173  -0.00056   0.00117   1.94863
   A17        2.02779  -0.00011  -0.00151   0.00021  -0.00131   2.02648
   A18        2.01153  -0.00001  -0.00154   0.00129  -0.00026   2.01127
   A19        1.90547  -0.00001  -0.00137   0.00022  -0.00117   1.90431
   A20        1.92662  -0.00013  -0.00157  -0.00001  -0.00158   1.92503
   A21        1.92520   0.00010  -0.00304   0.00337   0.00032   1.92552
   A22        1.92583   0.00001  -0.00136   0.00102  -0.00034   1.92548
   A23        1.89465   0.00001   0.00145  -0.00103   0.00041   1.89506
   A24        1.89226   0.00003   0.00211  -0.00174   0.00037   1.89263
   A25        1.89851  -0.00002   0.00264  -0.00175   0.00088   1.89939
   A26        1.92564  -0.00005  -0.00208   0.00112  -0.00097   1.92467
   A27        1.92685   0.00009  -0.00305   0.00338   0.00033   1.92718
   A28        1.92610  -0.00014  -0.00074  -0.00076  -0.00150   1.92460
   A29        1.89657   0.00001   0.00253  -0.00146   0.00106   1.89763
   A30        1.89147   0.00005   0.00198  -0.00152   0.00046   1.89193
   A31        1.89640   0.00003   0.00157  -0.00088   0.00069   1.89709
    D1        0.05544   0.00002   0.00035   0.00184   0.00219   0.05763
    D2        2.11367  -0.00001   0.00064   0.00111   0.00174   2.11541
    D3       -1.98291   0.00013   0.00073   0.00311   0.00385  -1.97907
    D4       -0.05573  -0.00003  -0.00044  -0.00181  -0.00225  -0.05798
    D5       -2.13741   0.00002  -0.00024  -0.00129  -0.00153  -2.13894
    D6        2.00743   0.00003  -0.00057  -0.00132  -0.00189   2.00555
    D7       -0.05198  -0.00001  -0.00030  -0.00170  -0.00200  -0.05398
    D8       -2.08421   0.00010   0.00032  -0.00078  -0.00046  -2.08467
    D9        1.95903  -0.00008  -0.00136  -0.00153  -0.00289   1.95614
   D10       -2.04068   0.00003   0.00106  -0.00241  -0.00135  -2.04203
   D11        2.21028   0.00013   0.00168  -0.00149   0.00019   2.21047
   D12       -0.02967  -0.00004   0.00000  -0.00224  -0.00224  -0.03191
   D13        1.92663  -0.00006  -0.00232  -0.00080  -0.00312   1.92351
   D14       -0.10560   0.00004  -0.00170   0.00012  -0.00158  -0.10718
   D15       -2.34555  -0.00013  -0.00338  -0.00064  -0.00401  -2.34955
   D16        1.15715   0.00005  -0.00313  -0.00140  -0.00453   1.15262
   D17       -3.03222   0.00005  -0.00431  -0.00053  -0.00484  -3.03706
   D18       -0.93410   0.00009  -0.00388   0.00012  -0.00375  -0.93786
   D19        2.93444  -0.00010  -0.00341  -0.00260  -0.00601   2.92843
   D20       -1.25492  -0.00011  -0.00459  -0.00172  -0.00632  -1.26124
   D21        0.84319  -0.00006  -0.00416  -0.00107  -0.00524   0.83796
   D22       -1.01432  -0.00006  -0.00103  -0.00449  -0.00552  -1.01985
   D23        1.07949  -0.00007  -0.00221  -0.00362  -0.00583   1.07367
   D24       -3.10557  -0.00002  -0.00178  -0.00297  -0.00474  -3.11032
   D25        0.93698  -0.00011   0.00423  -0.00095   0.00328   0.94025
   D26        3.03362  -0.00007   0.00406   0.00013   0.00419   3.03780
   D27       -1.15284  -0.00006   0.00357   0.00071   0.00428  -1.14856
   D28       -0.82899   0.00008   0.00500   0.00038   0.00538  -0.82360
   D29        1.26765   0.00012   0.00483   0.00146   0.00629   1.27394
   D30       -2.91880   0.00013   0.00434   0.00205   0.00639  -2.91241
   D31        3.11152   0.00001   0.00240   0.00200   0.00440   3.11591
   D32       -1.07503   0.00005   0.00223   0.00307   0.00530  -1.06973
   D33        1.02170   0.00006   0.00174   0.00366   0.00540   1.02710
   D34        0.05259   0.00002   0.00034   0.00175   0.00209   0.05468
   D35        2.06705   0.00010   0.00269   0.00109   0.00377   2.07083
   D36       -1.95522  -0.00004  -0.00255   0.00296   0.00042  -1.95480
   D37        2.07041  -0.00005  -0.00143   0.00227   0.00085   2.07126
   D38       -2.19831   0.00002   0.00092   0.00161   0.00253  -2.19578
   D39        0.06260  -0.00011  -0.00432   0.00349  -0.00083   0.06178
   D40       -1.94665   0.00005   0.00188   0.00092   0.00281  -1.94384
   D41        0.06782   0.00012   0.00423   0.00026   0.00449   0.07230
   D42        2.32873  -0.00001  -0.00100   0.00213   0.00113   2.32986
         Item               Value     Threshold  Converged?
 Maximum Force            0.001021     0.000450     NO 
 RMS     Force            0.000151     0.000300     YES
 Maximum Displacement     0.011135     0.001800     NO 
 RMS     Displacement     0.003080     0.001200     NO 
 Predicted change in Energy=-6.628416D-06
 GradGradGradGradGradGradGradGradGradGradGradGradGradGradGradGradGradGrad

                          Input orientation:                          
 ---------------------------------------------------------------------
 Center     Atomic      Atomic             Coordinates (Angstroms)
 Number     Number       Type             X           Y           Z
 ---------------------------------------------------------------------
      1          8           0        0.554942   -0.027672    1.040213
      2          6           0       -0.416280   -0.003142   -0.041814
      3          6           0        0.716091   -0.052350   -1.095229
      4          6           0        1.657502    0.008086    0.120396
      5          6           0       -1.316676   -1.224468    0.007728
      6          6           0       -1.204789    1.296197   -0.025383
      7          1           0        0.756230    0.803144   -1.776800
      8          1           0        0.759317   -0.983595   -1.669253
      9          1           0        2.328589   -0.850729    0.255136
     10          1           0        2.237461    0.936850    0.218394
     11          1           0       -1.940863   -1.200751    0.909606
     12          1           0       -1.973409   -1.249936   -0.871588
     13          1           0       -0.714872   -2.140664    0.026504
     14          1           0       -0.522534    2.154998   -0.035721
     15          1           0       -1.861224    1.356976   -0.903200
     16          1           0       -1.821686    1.354957    0.879713
 ---------------------------------------------------------------------
                    Distance matrix (angstroms):
                    1          2          3          4          5
     1  O    0.000000
     2  C    1.454186   0.000000
     3  C    2.141655   1.547375   0.000000
     4  C    1.436308   2.080147   1.538718   0.000000
     5  C    2.449756   1.518159   2.592782   3.221432   0.000000
     6  C    2.446381   1.519967   2.579328   3.142164   2.523365
     7  H    2.943863   2.243892   1.094542   2.245833   3.404804
     8  H    2.880410   2.234250   1.094801   2.234505   2.679558
     9  H    2.107034   2.888060   2.249676   1.098214   3.672717
    10  H    2.106314   2.827301   2.240243   1.099345   4.165041
    11  H    2.760837   2.159589   3.521022   3.877161   1.097067
    12  H    3.397275   2.160480   2.952565   3.968649   1.097790
    13  H    2.665477   2.159358   2.768933   3.202202   1.096328
    14  H    2.661322   2.160762   2.743927   3.063685   3.471792
    15  H    3.395874   2.163277   2.943744   3.904957   2.791088
    16  H    2.754230   2.160743   3.510160   3.807279   2.769265
                    6          7          8          9         10
     6  C    0.000000
     7  H    2.675099   0.000000
     8  H    3.428917   1.789976   0.000000
     9  H    4.144001   3.055548   2.486672   0.000000
    10  H    3.469531   2.488518   3.071844   1.790277   0.000000
    11  H    2.766001   4.301940   3.740140   4.333482   4.743997
    12  H    2.790992   3.533480   2.859196   4.464982   4.868421
    13  H    3.471991   3.752606   2.527377   3.313436   4.268979
    14  H    1.096867   2.548352   3.763287   4.153059   3.027546
    15  H    1.097799   2.814421   3.596157   4.875472   4.270093
    16  H    1.096911   3.742620   4.315974   4.741301   4.133864
                   11         12         13         14         15
    11  H    0.000000
    12  H    1.782170   0.000000
[...]
   zz         0.574780D+02      0.851735D+01      0.947683D+01

 ----------------------------------------------------------------------

 Dipole orientation:
     8          0.90642077          0.02516198         -2.03603645
     6         -0.77835764          0.06125198          0.13509696
     6          1.49929945          0.27694923          1.95498453
     6          3.09960866         -0.10226711         -0.44265405
     6         -2.53905856          2.32128488          0.03985254
     6         -2.20388388         -2.42563865          0.34238189
     1          1.63515465         -1.19546841          3.40108726
     1          1.69772465          2.14074409          2.83137095
     1          4.46998844          1.38878486         -0.89194937
     1          4.03718507         -1.95263117         -0.57970599
     1         -3.83150677          2.15768777         -1.57323066
     1         -3.66599654          2.43187172          1.77792597
     1         -1.45378480          4.07352421         -0.16650150
     1         -0.87493016         -4.01723183          0.36105889
     1         -3.32538088         -2.47796798          2.08664339
     1         -3.47823933         -2.65896837         -1.27563152

 Electric dipole moment (dipole orientation):
 (Debye = 10**-18 statcoulomb cm , SI units = C m)
                  (au)            (Debye)         (10**-30 SI)
   Tot        0.780646D+00      0.198420D+01      0.661859D+01
   x          0.000000D+00      0.000000D+00      0.000000D+00
   y          0.000000D+00      0.000000D+00      0.000000D+00
   z          0.780646D+00      0.198420D+01      0.661859D+01

 Dipole polarizability, Alpha (dipole orientation).
 (esu units = cm**3 , SI units = C**2 m**2 J**-1)
 Alpha(0;0):
               (au)            (10**-24 esu)      (10**-40 SI)
   iso        0.622360D+02      0.922243D+01      0.102613D+02
   aniso      0.989212D+01      0.146586D+01      0.163099D+01
   xx         0.685216D+02      0.101539D+02      0.112977D+02
   yx        -0.308912D+00     -0.457760D-01     -0.509327D-01
   yy         0.606818D+02      0.899212D+01      0.100051D+02
   zx        -0.603383D+00     -0.894122D-01     -0.994845D-01
   zy        -0.618720D-01     -0.916849D-02     -0.102013D-01
   zz         0.575047D+02      0.852131D+01      0.948124D+01

 ----------------------------------------------------------------------
 1\1\GINC-PITOMBA\Freq\RM08HX\6-311++G(d,p)\C5H10O1\VALTER\19-Sep-2025\
 0\\#N Geom=AllCheck Guess=TCheck SCRF=Check GenChk RM08HX/6-311++G(d,p
 ) Freq\\DYLE0111\\0,1\O,0.5553899959,-0.0834188501,1.0371471723\C,-0.4
 160204088,-0.028588941,-0.0438612667\C,0.7170904095,-0.0759221175,-1.0
 960065974\C,1.6529113986,0.0423899616,0.1194985347\C,-1.3445903293,-1.
 2274653792,-0.0062293978\C,-1.1731664821,1.2899996027,-0.0120738375\H,
 0.7359600007,0.752328613,-1.8112114904\H,0.7863470153,-1.0291112856,-1
 .6303098694\H,2.3913498754,-0.7589195418,0.2521124742\H,2.1552879762,1
 .0157912031,0.2209945415\H,-1.9655708892,-1.1991678734,0.8979208523\H,
 -2.0052771846,-1.2264305023,-0.8828636136\H,-0.7661515042,-2.158539711
 9,0.0000750911\H,-0.4704252395,2.1327072597,-0.0164521815\H,-1.8310112
 239,1.3772803684,-0.8864701256\H,-1.7843234101,1.3549671944,0.89642971
 37\\Version=ES64L-G16RevB.01\State=1-A\HF=-271.7502899\RMSD=2.136e-09\
 RMSF=1.938e-06\ZeroPoint=0.1423995\Thermal=0.1490914\Dipole=-0.0557844
 ,0.051638,-0.7769359\DipoleDeriv=-1.0763883,-0.0237552,-0.0104489,-0.0
 211402,-0.4435087,0.0195426,-0.0698381,0.0598823,-0.6483769,0.7492858,
 0.0242059,0.1462772,-0.0078187,0.5007178,-0.0013033,0.2841231,-0.00702
 ,0.2820038,-0.161651,-0.0100244,-0.0023773,-0.0096307,0.0779578,-0.023
 4583,0.0302154,-0.0231196,-0.0165591,0.7160563,0.0125854,-0.1049085,0.
 0387458,0.3361527,-0.0127891,-0.2644973,-0.0239244,0.2887415,-0.063902
 4,-0.0708242,0.0019539,-0.1026202,-0.1040968,-0.0190115,0.0170529,0.01
 12612,0.0774738,-0.0337925,0.0488801,0.003883,0.0917314,-0.1371773,0.0
 181276,0.0148279,-0.0191676,0.0784659,0.048065,-0.002193,-0.0159917,-0
 .0192345,-0.0430849,0.1250419,-0.0025054,0.0628011,-0.035245,0.0503683
 ,0.0086588,-0.0085806,0.0233385,-0.0810147,-0.1103798,-0.0028721,-0.05
 60784,-0.0006644,-0.1098902,0.072292,-0.0171497,0.148615,-0.0550952,0.
 022461,-0.0230267,0.010616,0.035837,-0.0580027,-0.06381,-0.0051072,-0.
 1464413,-0.1257658,-0.0185478,-0.0001697,-0.0142703,0.0234094,-0.00850
 84,-0.020368,0.074817,-0.0033821,0.0571906,-0.0386542,0.1145432,0.0098
 868,-0.0525673,-0.0083328,-0.0185272,-0.0689735,0.0004218,0.058531,0.0
 3724,-0.1108593,-0.0072858,-0.0586254,-0.0018764,0.1078047,0.0013206,0
 .04598,-0.0871113,-0.0044982,0.006461,-0.005213,0.0714932,-0.024982,-0
 .1221927,0.0026465,-0.0618477,-0.065964,0.0054519,0.0059885,0.00546,0.
 0686243,-0.0109622,0.0262504,-0.0748411,0.0111906,0.0572653,-0.0271057
 ,-0.1106923,0.0221357,-0.0596105,-0.0054866,0.0310172,0.0774803,0.0120
 922,0.0550035,0.0278829,0.1112489,-0.025964,-0.0544004\Polar=68.552730
 7,0.2968807,60.6774051,-0.1689575,0.1289597,57.4779501\Quadrupole=1.76
 86593,0.4971572,-2.2658165,0.0594115,-0.8754448,0.1804789\PG=C01 [X(C5
 H10O1)]\NImag=0\\0.34933179,0.01087276,0.09658433,-0.01642082,-0.02662
 982,0.37425761,-0.10134544,0.00085897,-0.02663112,0.55838222,0.0021314
 9,-0.06797981,0.00537906,0.01156600,0.53265240,-0.07964679,0.00390257,
 -0.13552558,-0.03819700,0.00070515,0.42530037,-0.01725341,-0.00087181,
 0.00602606,-0.11284425,0.00190407,0.07947493,0.35634392,-0.00128357,0.
 01477031,0.00786397,0.00323534,-0.08310664,-0.00193470,-0.00839241,0.6
 1969202,0.00469605,0.00008362,-0.09930676,0.05687345,-0.00142125,-0.10
 186064,-0.01175640,-0.01005955,0.60164901,-0.14369042,-0.00783250,0.04
 847532,-0.09798221,-0.00586527,-0.00375705,-0.09743348,-0.00497906,-0.
 06480774,0.58572533,-0.00877647,-0.06515693,0.00931945,-0.00144540,0.0
 1074491,-0.00016614,-0.00325693,-0.08636533,-0.00722668,-0.01496861,0.
 59527944,0.10030299,0.01139869,-0.12700341,-0.01036993,-0.00054886,0.0
 0275956,-0.08544174,-0.00924133,-0.13158256,0.05347964,-0.00004199,0.3
 8848947,-0.02324532,-0.01761996,-0.00971928,-0.11842732,-0.06001133,0.
 00694403,-0.01440645,-0.01463207,0.00448660,-0.00260225,-0.00098354,-0
 .00128227,0.54153851,-0.00104797,0.00421356,-0.00237874,-0.06312981,-0
 .16758584,0.00507847,-0.00157693,0.00112701,0.00172252,-0.00013131,-0.
 00069352,0.00029679,-0.04880356,0.52702816,-0.02971508,-0.02260765,-0.
 00268712,0.01265876,0.00952054,-0.07982461,0.01599566,0.02021701,-0.00
 002391,0.00172614,-0.00150836,-0.00585396,0.00155844,0.00043743,0.5697
 3172,-0.02281756,0.02170838,-0.01236206,-0.10189212,0.04862513,0.00746
 665,-0.01226442,0.01788020,0.00509689,-0.00097255,0.00188338,-0.001379
 48,0.01304254,-0.01787942,0.00099399,0.55459466,0.00553469,0.00117214,
 0.00531703,0.05013134,-0.17967633,-0.00650118,0.00415022,-0.00168914,-
 0.00290183,0.00123795,-0.00006872,-0.00008623,0.01198323,-0.03273628,-
 0.00170457,0.04342475,0.50781711,-0.02942492,0.02724568,-0.00566438,0.
 01145456,-0.01060632,-0.07656747,0.01380168,-0.02339993,-0.00235003,0.
 00153049,0.00202496,-0.00467814,0.00117403,0.00166341,0.00322480,0.001
 75536,-0.00144581,0.57463035,0.00342379,0.00042427,0.00113847,0.001286
 25,-0.02285888,0.00985671,-0.04822750,-0.00316718,0.00273224,-0.000136
 74,0.02129993,-0.00848728,-0.00210640,0.00083969,0.00311464,0.00196186
 ,-0.00096473,-0.00084377,0.04508177,-0.00006541,0.00001706,-0.00239660
 ,0.00050924,0.00055382,-0.00233617,-0.00352856,-0.20787421,0.13405607,
 0.00006770,0.00368634,-0.00370259,-0.00000690,0.00011926,0.00053931,0.
 00106679,0.00072433,-0.00098935,0.00393118,0.21879718,0.00128533,-0.00
 160553,-0.00817257,-0.00381123,0.01102089,-0.00833578,0.00243150,0.132
 21803,-0.15787720,0.00428979,0.01506630,-0.00821375,0.00028417,-0.0008
 4001,-0.00122870,-0.00030981,0.00117911,0.00126146,-0.00355256,-0.1434
 1750,0.17209608,0.00203362,-0.00018208,0.00068011,-0.00124318,0.026290
 94,0.00807668,-0.04627257,0.01492188,0.00868559,0.00029399,-0.02482788
 ,-0.00818443,0.00190004,0.00093339,-0.00111032,-0.00296823,-0.00059235
 ,0.00424550,0.00021705,-0.00080633,-0.00038205,0.04764257,0.00038292,-
 0.00072542,0.00011089,-0.00029208,-0.00028458,0.00120442,0.01509008,-0
 .25615148,-0.11231580,0.00014691,-0.00012535,0.00121657,-0.00119815,0.
 00077491,0.00102862,0.00003149,0.00052456,-0.00075855,0.00176706,-0.01
 823377,-0.01236291,-0.01660287,0.27106888,0.00066715,0.00262753,-0.004
 40154,-0.00140569,-0.01398634,-0.00623537,0.00836471,-0.11124779,-0.10
 920446,0.00311369,-0.01827108,-0.00698245,-0.00022210,-0.00121752,0.00
 133748,0.00071091,0.00087426,-0.00163630,-0.00152032,0.01835715,0.0115
 2825,-0.00903394,0.12216210,0.11720203,-0.02566783,0.01401674,0.004735
 03,-0.00139245,0.00054955,0.00253449,-0.00658105,0.00901120,-0.0031006
 0,-0.15305008,0.12258321,-0.02339752,-0.00045301,0.00057398,-0.0001830
 1,-0.00059913,-0.00025253,-0.00065789,-0.00182705,-0.00041669,-0.00044
 377,0.00129657,-0.00003428,-0.00026895,0.17768388,-0.00184458,0.009843
 81,-0.00305594,-0.00164715,-0.00060160,-0.00038472,-0.00424665,0.00418
 291,-0.00108528,0.12568380,-0.19962136,0.02671064,-0.00015689,-0.00005
 147,0.00008094,-0.00032918,-0.00015696,-0.00000040,-0.00045882,0.00047
 151,-0.00039201,0.00046091,0.00120081,0.00015680,-0.13582600,0.2050063
 3,0.02295279,-0.01563205,0.00266191,-0.00105085,-0.00180226,-0.0054295
 3,-0.01480761,0.02028837,-0.00113606,-0.02723403,0.02838784,-0.0558063
 8,-0.00012380,0.00014876,0.00059725,0.00037243,-0.00012650,0.00157859,
 -0.00326966,-0.00034366,-0.00192483,0.00152679,0.00005537,0.00131965,0
 .02009432,-0.02680065,0.05463222,-0.02066827,-0.02143698,0.00656649,0.
 00052251,-0.00134637,0.00251363,-0.00426290,-0.01259193,-0.00322454,-0
 .09285639,-0.09124486,-0.01457014,-0.00078426,0.00016789,-0.00083462,-
 0.00043362,-0.00035239,-0.00001296,0.00140863,0.00004583,-0.00021312,-
 0.00211321,0.00007734,-0.00087728,0.01065123,0.01845617,0.00147783,0.1
 0862316,-0.00616531,0.00641515,0.00560929,0.00129161,-0.00090196,0.001
 06057,0.00128858,0.00092603,-0.00050109,-0.09265348,-0.25590141,-0.026
 19346,-0.00012445,0.00002858,-0.00019298,-0.00030639,-0.00029115,-0.00
 032290,-0.00043891,0.00094156,-0.00030181,-0.00005382,0.00097914,0.000
 13178,-0.01003056,-0.02041691,-0.00389874,0.10741005,0.26813540,0.0196
 9257,0.02115047,0.00092210,-0.00098150,0.00176031,-0.00409245,-0.00947
 317,-0.02483274,-0.00249108,-0.01670467,-0.02753527,-0.05297788,0.0002
 8183,0.00001668,0.00177569,-0.00013043,-0.00015870,0.00019453,0.001441
 46,0.00020314,0.00116466,-0.00424110,-0.00028646,-0.00254250,0.0007455
 7,0.00479072,0.00332184,0.00925234,0.02460141,0.05466627,0.00186456,0.
 00075779,-0.00148123,-0.01332756,0.00120844,0.01889472,-0.00088440,-0.
 00365889,0.00005063,-0.00019105,0.00047042,0.00097445,-0.12912201,0.00
 564298,0.12318183,0.00025367,0.00120923,-0.00039316,-0.00109233,-0.000
 27409,0.00021453,0.00042310,-0.00019670,-0.00031923,0.00000492,-0.0000
 3829,-0.00016642,0.00008918,0.00000790,-0.00031990,0.13830306,0.001948
 55,0.00094781,-0.00117253,-0.01511687,0.00087301,0.02509960,-0.0024089
 5,-0.00379071,-0.00100975,-0.00037242,0.00022056,0.00100345,0.00565493
 ,-0.04731910,-0.00814077,-0.00016532,0.00153819,0.00074599,-0.00080543
 ,0.00012799,0.00039745,0.00012564,0.00008480,0.00011853,-0.00006794,-0
 .00000973,-0.00024518,0.00005583,-0.00000313,-0.00022368,-0.00338470,0
 .04932409,0.00126600,0.00070959,0.00063757,0.00016863,-0.00054539,-0.0
 0207452,-0.00123798,-0.00000710,0.00151799,0.00019432,0.00015862,0.000
 43701,0.12347400,-0.00722303,-0.22725543,-0.00024802,-0.00012594,0.000
 11883,0.00001100,0.00006138,-0.00004571,-0.00025855,0.00001078,0.00013
 284,0.00007794,0.00000368,0.00001704,0.00015387,0.00002198,0.00011520,
 -0.13662240,0.00698703,0.24339812,-0.00413211,-0.00453021,-0.00043055,
 -0.01117507,0.00411062,-0.01663647,0.00103300,0.00030076,0.00059339,0.
 00122080,0.00015383,-0.00155690,-0.14012392,-0.00014807,-0.12648790,0.
 00019798,0.00076626,0.00005565,-0.00012628,-0.00006690,0.00010320,-0.0
 0026527,0.00033959,0.00030015,-0.00010007,0.00002609,0.00014222,-0.000
 23014,-0.00008257,0.00046363,0.01230026,0.00009706,0.01495209,0.150540
 69,-0.00561258,-0.00308787,-0.00057384,-0.01207817,0.00278758,-0.02245
 438,0.00077338,0.00077374,0.00067712,0.00044147,-0.00040314,-0.0012874
 8,0.00064817,-0.04745195,0.00202655,0.00056687,0.00056413,0.00006616,-
 0.00008184,-0.00003134,0.00008897,0.00005895,0.00008520,0.00026709,-0.
 00015520,-0.00003673,0.00014844,-0.00019084,-0.00006712,0.00032688,-0.
 00052045,-0.00149291,-0.00085804,0.00112039,0.04775616,0.00102888,0.00
 030602,0.00215128,0.00172367,0.00113360,-0.00094758,-0.00068270,-0.000
 48167,0.00026786,-0.00004910,-0.00034508,0.00009052,-0.12672329,0.0008
 5299,-0.21461609,-0.00009397,0.00018955,-0.00016838,-0.00014400,-0.000
 03669,0.00009580,-0.00025090,-0.00026759,-0.00002359,-0.00003312,0.000
 02555,0.00000115,-0.00024036,-0.00001979,0.00008394,-0.01673082,0.0001
 6431,-0.01840816,0.14014267,-0.00110944,0.23030191,0.00188275,0.001288
 79,0.00069807,0.01008999,-0.01923545,0.00027265,0.00125461,-0.00036309
 ,-0.00042113,0.00002168,-0.00009857,0.00019761,-0.12402239,0.12355716,
 -0.00031337,-0.00235609,-0.00313394,-0.00010809,0.00004479,0.00010664,
 -0.00008479,0.00005598,0.00031647,0.00024766,0.00000868,0.00000983,-0.
 00002575,0.00004207,0.00007241,-0.00001445,-0.00921669,0.01401143,-0.0
 0179261,-0.00967624,0.01485234,0.00189141,0.13122932,0.00030505,0.0030
 0765,0.00002108,0.01641150,-0.02406826,0.00078973,0.00085590,0.0007049
 9,-0.00102829,-0.00013552,-0.00036406,0.00012612,0.12048374,-0.2356488
 8,0.00110214,-0.00517111,-0.00322515,0.00007687,0.00025903,0.00038493,
 0.00006592,-0.00072970,0.00036912,0.00075625,-0.00015446,-0.00002534,-
 0.00003627,0.00016544,0.00008837,0.00002076,-0.00094425,0.00001243,0.0
 0023256,-0.00186992,0.00133823,-0.00007982,-0.13011128,0.25830621,0.00
 071440,-0.00009159,-0.00033268,-0.00098901,0.00047318,-0.00201314,-0.0
 0057680,0.00087992,0.00028141,-0.00023593,-0.00016364,0.00042845,0.000
 09507,0.00153264,-0.04557127,0.00010457,0.00013599,0.00036638,-0.00001
 336,-0.00015964,-0.00001557,0.00030985,0.00003686,-0.00051966,-0.00000
 870,-0.00001845,-0.00000654,0.00002453,0.00001925,-0.00013549,0.013336
 37,-0.02286473,0.00095282,-0.01227376,0.02219627,0.00054254,-0.0004905
 0,-0.00209135,0.04501149,0.00170648,-0.00109442,0.00063770,0.01020618,
 0.01467619,0.00000732,0.00098511,0.00032600,-0.00017219,0.00025921,0.0
 0002046,0.00017521,-0.00132368,0.00276154,-0.00012646,-0.15864953,-0.1
 3222110,0.00104645,0.00015681,-0.00033059,0.00005033,0.00007595,-0.000
 06995,-0.00013549,0.00001603,-0.00012223,-0.00001052,-0.00010440,-0.00
 016805,-0.00005349,-0.00002589,0.00018194,-0.00016728,-0.00001028,0.00
 012765,0.00017456,0.00074977,0.00076332,-0.00007076,0.16822511,-0.0002
 8125,0.00321020,-0.00009307,-0.02103197,-0.02373572,-0.00058313,-0.000
 80064,0.00078610,0.00087055,0.00028520,-0.00076886,-0.00006212,0.00490
 784,-0.00420525,-0.00003347,-0.12979587,-0.19861381,0.00108788,0.00048
 790,0.00015223,-0.00070283,-0.00025984,0.00039451,-0.00007856,0.000013
 91,0.00012259,-0.00001337,0.00046381,-0.00001977,0.00007725,0.00013702
 ,0.00029723,0.00004151,0.00009011,0.00034038,-0.00012248,-0.00106534,-
 0.00157776,0.00005043,0.14092585,0.21917926,0.00079989,0.00003746,-0.0
 0056774,-0.00109038,-0.00031569,-0.00190680,-0.00054649,-0.00079289,0.
 00031068,-0.00022743,0.00021430,0.00057718,0.00010516,-0.00011621,0.00
 039617,0.00143539,0.00057975,-0.04579996,0.00006810,-0.00009600,-0.000
 57256,-0.00000985,0.00019495,-0.00006630,0.00000071,-0.00003076,-0.000
 09187,-0.00004771,0.00001066,0.00001277,-0.00025661,-0.00033016,0.0002
 3196,0.00030730,0.00025086,0.00019402,-0.00007640,-0.00004096,0.000597
 65,-0.00164377,-0.00022336,0.04525728,-0.00302316,0.00463850,-0.000700
 90,-0.00972535,-0.00251317,-0.01280542,0.00082140,-0.00015414,-0.00005
 155,0.00135684,-0.00021999,-0.00121995,0.00003741,-0.00075296,0.000028
 64,-0.13973204,0.01241853,-0.12582015,-0.00035856,-0.00032403,0.000439
 53,-0.00001617,-0.00003032,0.00015050,-0.00010061,0.00002316,0.0003112
 3,0.00003595,-0.00010953,0.00013648,0.00002409,0.00003386,0.00013833,0
 .00052719,0.00006151,0.00014970,-0.00004152,-0.00004474,0.00026250,-0.
 01145210,0.00339187,-0.01516330,0.14960684,0.00610198,-0.00439933,0.00
 160588,0.01387045,0.00177483,0.02349653,-0.00087210,0.00065246,-0.0004
 0051,-0.00090366,-0.00063021,0.00116625,-0.00056472,0.00080833,-0.0001
 0139,0.01165519,-0.04856021,0.01467423,-0.00001784,0.00016385,-0.00031
 725,0.00001938,-0.00000959,-0.00005970,0.00023830,0.00003588,-0.000464
 38,0.00021748,0.00005248,-0.00005173,0.00000260,-0.00004092,0.00000769
 ,-0.00028257,-0.00105136,-0.00024446,-0.00007200,0.00037759,-0.0002797
 2,-0.01339275,0.00278124,-0.02016978,-0.01461890,0.04944966,0.00068537
 ,-0.00004385,0.00208301,0.00149539,-0.00145919,-0.00114314,-0.00041578
 ,0.00058004,0.00051857,0.00018243,0.00022281,-0.00003657,-0.00008215,-
 0.00019112,-0.00014349,-0.12623852,0.01593648,-0.21441926,-0.00026786,
 0.00026062,0.00000732,-0.00013492,0.00006859,0.00006033,-0.00023699,-0
 .00003434,0.00012107,-0.00001277,-0.00007163,-0.00000302,-0.00017564,-
 0.00001592,-0.00001277,0.00017864,0.00024296,0.00044217,0.00017585,0.0
 0010282,0.00018361,0.00199142,-0.00019216,0.00069542,0.13954730,-0.017
 51380,0.22991749,0.00160053,-0.00099822,-0.00121130,-0.01113220,0.0007
 6805,0.01500092,-0.00000760,0.00354694,0.00031931,0.00003732,-0.000588
 99,0.00075974,0.00009852,-0.00100660,-0.00048734,-0.12736543,0.0066608
 5,0.12219721,0.00029390,0.00009210,-0.00030105,-0.00106023,0.00027250,
 0.00022822,0.00010997,0.00000982,-0.00018897,0.00008045,0.00006251,-0.
 00009516,0.00059710,0.00021241,-0.00010935,0.00001947,-0.00001166,-0.0
 0016263,-0.00006669,-0.00008302,-0.00018849,-0.01081477,0.00253139,0.0
 1634540,0.01203979,-0.00138085,-0.01669176,0.13556987,-0.00220032,0.00
 116734,0.00107389,0.01686699,-0.00144581,-0.02697661,0.00189277,-0.004
 63806,0.00054014,-0.00002121,0.00016765,-0.00075444,0.00042364,0.00159
 249,-0.00066335,0.00680511,-0.04732270,-0.01006191,-0.00021542,-0.0000
 0074,-0.00009682,0.00124377,0.00004828,-0.00059049,-0.00004923,0.00005
 626,0.00033427,0.00010352,0.00003474,0.00014096,-0.00041902,-0.0007696
 1,0.00052466,-0.00002446,-0.00002300,0.00003498,-0.00013540,0.00031993
 ,0.00034460,-0.01238386,0.00165743,0.02082783,-0.00179966,-0.00140469,
 0.00210771,-0.01008722,0.05056050,0.00111619,-0.00085112,0.00094830,0.
 00015227,0.00069257,-0.00210333,-0.00115584,-0.00004964,0.00128718,0.0
 0002413,-0.00013604,0.00035292,-0.00025043,0.00021694,0.00014146,0.122
 82610,-0.01116143,-0.23009101,-0.00026383,0.00000054,0.00023311,0.0000
 8153,-0.00009785,0.00003158,0.00014248,0.00003422,0.00014450,0.0000448
 1,0.00004747,-0.00001458,-0.00018713,-0.00051364,0.00023722,0.00014664
 ,-0.00000811,-0.00000738,-0.00015615,-0.00001756,0.00023000,-0.0017030
 4,-0.00002307,0.00073211,0.01459704,-0.00134785,-0.01827075,-0.1354147
 5,0.01321458,0.24614866\\0.00000358,-0.00000098,-0.00000546,-0.0000019
 0,-0.00000125,0.00000155,-0.00000015,0.00000075,-0.00000018,-0.0000044
 0,-0.00000263,0.00000357,0.00000055,0.00000133,-0.00000214,0.00000081,
 -0.00000022,0.00000091,0.00000103,0.00000247,0.00000247,0.00000003,0.0
 0000196,-0.00000040,0.00000020,-0.00000201,-0.00000033,0.00000107,-0.0
 0000199,0.00000211,-0.00000061,-0.00000097,-0.00000233,-0.00000080,0.0
 0000142,-0.00000161,-0.00000171,0.00000013,-0.00000356,0.00000076,-0.0
 0000030,0.00000329,0.00000162,0.00000237,0.00000163,-0.00000006,-0.000
 00009,0.00000047\\\@


 IT IS BETTER TO THINK YOU ARE HALF DRY THAN TO KNOW YOU
 ARE ALL WET.  -- SNOOPY
 Job cpu time:       0 days  1 hours  1 minutes 22.7 seconds.
 Elapsed time:       0 days  0 hours  3 minutes 52.3 seconds.
 File lengths (MBytes):  RWF=     63 Int=      0 D2E=      0 Chk=      5 Scr=      1
 Normal termination of Gaussian 16 at Fri Sep 19 17:22:23 2025.
