 Entering Gaussian System, Link 0=g16
 Input=DYLL0032.gjf
 Output=DYLL0032.log
 Initial command:
 /usr/local/g16/l1.exe "/dados_01/scratch/Gau-2407907.inp" -scrdir="/dados_01/scratch/"
 Entering Link 1 = /usr/local/g16/l1.exe PID=   2407908.
  
 Copyright (c) 1988-2017, Gaussian, Inc.  All Rights Reserved.
  
 This is part of the Gaussian(R) 16 program.  It is based on
 the Gaussian(R) 09 system (copyright 2009, Gaussian, Inc.),
 the Gaussian(R) 03 system (copyright 2003, Gaussian, Inc.),
 the Gaussian(R) 98 system (copyright 1998, Gaussian, Inc.),
 the Gaussian(R) 94 system (copyright 1995, Gaussian, Inc.),
 the Gaussian 92(TM) system (copyright 1992, Gaussian, Inc.),
 the Gaussian 90(TM) system (copyright 1990, Gaussian, Inc.),
 the Gaussian 88(TM) system (copyright 1988, Gaussian, Inc.),
 the Gaussian 86(TM) system (copyright 1986, Carnegie Mellon
 University), and the Gaussian 82(TM) system (copyright 1983,
 Carnegie Mellon University). Gaussian is a federally registered
 trademark of Gaussian, Inc.
  
 This software contains proprietary and confidential information,
 including trade secrets, belonging to Gaussian, Inc.
  
 This software is provided under written license and may be
 used, copied, transmitted, or stored only in accord with that
 written license.
  
 The following legend is applicable only to US Government
 contracts under FAR:
  
                    RESTRICTED RIGHTS LEGEND
  
 Use, reproduction and disclosure by the US Government is
 subject to restrictions as set forth in subparagraphs (a)
 and (c) of the Commercial Computer Software - Restricted
 Rights clause in FAR 52.227-19.
  
 Gaussian, Inc.
 340 Quinnipiac St., Bldg. 40, Wallingford CT 06492
  
  
 ---------------------------------------------------------------
 Warning -- This program may not be used in any manner that
 competes with the business of Gaussian, Inc. or will provide
 assistance to any competitor of Gaussian, Inc.  The licensee
 of this program is prohibited from giving any competitor of
 Gaussian, Inc. access to this program.  By using this program,
 the user acknowledges that Gaussian, Inc. is engaged in the
 business of creating and licensing software in the field of
 computational chemistry and represents and warrants to the
 licensee that it is not a competitor of Gaussian, Inc. and that
 it will not use this program in any manner prohibited above.
 ---------------------------------------------------------------
  

 Cite this work as:
 Gaussian 16, Revision B.01,
 M. J. Frisch, G. W. Trucks, H. B. Schlegel, G. E. Scuseria, 
 M. A. Robb, J. R. Cheeseman, G. Scalmani, V. Barone, 
 G. A. Petersson, H. Nakatsuji, X. Li, M. Caricato, A. V. Marenich, 
 J. Bloino, B. G. Janesko, R. Gomperts, B. Mennucci, H. P. Hratchian, 
 J. V. Ortiz, A. F. Izmaylov, J. L. Sonnenberg, D. Williams-Young, 
 F. Ding, F. Lipparini, F. Egidi, J. Goings, B. Peng, A. Petrone, 
 T. Henderson, D. Ranasinghe, V. G. Zakrzewski, J. Gao, N. Rega, 
 G. Zheng, W. Liang, M. Hada, M. Ehara, K. Toyota, R. Fukuda, 
 J. Hasegawa, M. Ishida, T. Nakajima, Y. Honda, O. Kitao, H. Nakai, 
 T. Vreven, K. Throssell, J. A. Montgomery, Jr., J. E. Peralta, 
 F. Ogliaro, M. J. Bearpark, J. J. Heyd, E. N. Brothers, K. N. Kudin, 
 V. N. Staroverov, T. A. Keith, R. Kobayashi, J. Normand, 
 K. Raghavachari, A. P. Rendell, J. C. Burant, S. S. Iyengar, 
 J. Tomasi, M. Cossi, J. M. Millam, M. Klene, C. Adamo, R. Cammi, 
 J. W. Ochterski, R. L. Martin, K. Morokuma, O. Farkas, 
 J. B. Foresman, and D. J. Fox, Gaussian, Inc., Wallingford CT, 2016.
 
 ******************************************
 Gaussian 16:  ES64L-G16RevB.01 20-Dec-2017
                 1-Oct-2025 
 ******************************************
 %nprocs=16
 Will use up to   16 processors via shared memory.
 %mem=40GB
 %chk=DYLL0032.chk
 ----------------------------------------------------------------------
 # opt freq=noraman M08HX/6-311++G** scf=xqc Empiricaldispersion=pfd In
 t(Grid=ultraFine)
 ----------------------------------------------------------------------
 1/18=20,19=15,26=4,38=1/1,3;
 2/9=110,12=2,17=6,18=5,40=1/2;
 3/5=4,6=6,7=1111,11=2,25=1,30=1,71=1,74=-74,75=-5,124=11/1,2,3;
 4//1;
 5/5=2,8=3,13=1,38=5/2,8;
 6/7=2,8=2,9=2,10=2,28=1/1;
 7//1,2,3,16;
 1/18=20,19=15,26=4/3(2);
 2/9=110/2;
 99//99;
 2/9=110/2;
 3/5=4,6=6,7=1111,11=2,25=1,30=1,71=1,74=-74,75=-5,124=11/1,2,3;
 4/5=5,16=3,69=1/1;
 5/5=2,8=3,13=1,38=5/2,8;
 7//1,2,3,16;
 1/18=20,19=15,26=4/3(-5);
 2/9=110/2;
 6/7=2,8=2,9=2,10=2,19=2,28=1/1;
 99/9=1/99;
 --------
 DYLL0032
 --------
 Symbolic Z-matrix:
 Charge =  0 Multiplicity = 1
 O                    -0.8614    0.3192   -0.1193 
 O                     1.35     -0.512    -0.1369 
 C                     0.0131   -0.7146    0.3396 
 C                    -0.4538   -2.053    -0.2186 
 C                    -2.2097    0.1261    0.2863 
 C                     1.9042    0.7152    0.319 
 C                    -3.0525    1.2658   -0.2452 
 C                     3.3101    0.8534   -0.225 
 H                     0.0273   -0.7413    1.4361 
 H                    -0.6724   -1.9775   -1.2898 
 H                    -1.3504   -2.4238    0.2861 
 H                     0.3262   -2.813    -0.0978 
 H                    -2.6232   -0.7987   -0.1244 
 H                    -2.2675    0.095     1.3798 
 H                     1.2996    1.5587   -0.0311 
 H                     1.9279    0.7248    1.4143 
 H                    -4.099     1.1505    0.051 
 H                    -2.6833    2.2256    0.1309 
 H                    -2.9972    1.31     -1.338 
 H                     3.7686    1.7884    0.1091 
 H                     3.9348    0.0164    0.104 
 H                     3.3035    0.8343   -1.3198 
 

 GradGradGradGradGradGradGradGradGradGradGradGradGradGradGradGradGradGrad
 Berny optimization.
 Initialization pass.
                           ----------------------------
                           !    Initial Parameters    !
                           ! (Angstroms and Degrees)  !
 --------------------------                            --------------------------
 ! Name  Definition              Value          Derivative Info.                !
 --------------------------------------------------------------------------------
 ! R1    R(1,3)                  1.4297         estimate D2E/DX2                !
 ! R2    R(1,5)                  1.4212         estimate D2E/DX2                !
 ! R3    R(2,3)                  1.4337         estimate D2E/DX2                !
 ! R4    R(2,6)                  1.4216         estimate D2E/DX2                !
 ! R5    R(3,4)                  1.5234         estimate D2E/DX2                !
 ! R6    R(3,9)                  1.0969         estimate D2E/DX2                !
 ! R7    R(4,10)                 1.0959         estimate D2E/DX2                !
 ! R8    R(4,11)                 1.0937         estimate D2E/DX2                !
 ! R9    R(4,12)                 1.0957         estimate D2E/DX2                !
 ! R10   R(5,7)                  1.5138         estimate D2E/DX2                !
 ! R11   R(5,13)                 1.0931         estimate D2E/DX2                !
 ! R12   R(5,14)                 1.0955         estimate D2E/DX2                !
 ! R13   R(6,8)                  1.5138         estimate D2E/DX2                !
 ! R14   R(6,15)                 1.0953         estimate D2E/DX2                !
 ! R15   R(6,16)                 1.0956         estimate D2E/DX2                !
 ! R16   R(7,17)                 1.0937         estimate D2E/DX2                !
 ! R17   R(7,18)                 1.095          estimate D2E/DX2                !
 ! R18   R(7,19)                 1.0951         estimate D2E/DX2                !
 ! R19   R(8,20)                 1.0936         estimate D2E/DX2                !
 ! R20   R(8,21)                 1.095          estimate D2E/DX2                !
 ! R21   R(8,22)                 1.095          estimate D2E/DX2                !
 ! A1    A(3,1,5)              112.9823         estimate D2E/DX2                !
 ! A2    A(3,2,6)              112.2673         estimate D2E/DX2                !
 ! A3    A(1,3,2)              111.1931         estimate D2E/DX2                !
 ! A4    A(1,3,4)              109.28           estimate D2E/DX2                !
 ! A5    A(1,3,9)              110.2654         estimate D2E/DX2                !
 ! A6    A(2,3,4)              106.7478         estimate D2E/DX2                !
 ! A7    A(2,3,9)              108.8812         estimate D2E/DX2                !
 ! A8    A(4,3,9)              110.4169         estimate D2E/DX2                !
 ! A9    A(3,4,10)             111.0241         estimate D2E/DX2                !
 ! A10   A(3,4,11)             112.3353         estimate D2E/DX2                !
 ! A11   A(3,4,12)             110.536          estimate D2E/DX2                !
 ! A12   A(10,4,11)            108.114          estimate D2E/DX2                !
 ! A13   A(10,4,12)            107.3104         estimate D2E/DX2                !
 ! A14   A(11,4,12)            107.3107         estimate D2E/DX2                !
 ! A15   A(1,5,7)              109.0073         estimate D2E/DX2                !
 ! A16   A(1,5,13)             111.5063         estimate D2E/DX2                !
 ! A17   A(1,5,14)             109.8039         estimate D2E/DX2                !
 ! A18   A(7,5,13)             107.1228         estimate D2E/DX2                !
 ! A19   A(7,5,14)             110.0269         estimate D2E/DX2                !
 ! A20   A(13,5,14)            109.3332         estimate D2E/DX2                !
 ! A21   A(2,6,8)              109.0028         estimate D2E/DX2                !
 ! A22   A(2,6,15)             110.3105         estimate D2E/DX2                !
 ! A23   A(2,6,16)             109.6699         estimate D2E/DX2                !
 ! A24   A(8,6,15)             109.1165         estimate D2E/DX2                !
 ! A25   A(8,6,16)             109.7778         estimate D2E/DX2                !
 ! A26   A(15,6,16)            108.9507         estimate D2E/DX2                !
 ! A27   A(5,7,17)             110.9927         estimate D2E/DX2                !
 ! A28   A(5,7,18)             110.5854         estimate D2E/DX2                !
 ! A29   A(5,7,19)             110.6484         estimate D2E/DX2                !
 ! A30   A(17,7,18)            108.7844         estimate D2E/DX2                !
 ! A31   A(17,7,19)            108.8341         estimate D2E/DX2                !
 ! A32   A(18,7,19)            106.8791         estimate D2E/DX2                !
 ! A33   A(6,8,20)             110.9544         estimate D2E/DX2                !
 ! A34   A(6,8,21)             110.6144         estimate D2E/DX2                !
 ! A35   A(6,8,22)             110.6164         estimate D2E/DX2                !
 ! A36   A(20,8,21)            108.816          estimate D2E/DX2                !
 ! A37   A(20,8,22)            108.8371         estimate D2E/DX2                !
 ! A38   A(21,8,22)            106.8883         estimate D2E/DX2                !
 ! D1    D(5,1,3,2)            177.5859         estimate D2E/DX2                !
 ! D2    D(5,1,3,4)             60.0013         estimate D2E/DX2                !
 ! D3    D(5,1,3,9)            -61.5405         estimate D2E/DX2                !
 ! D4    D(3,1,5,7)            179.9975         estimate D2E/DX2                !
 ! D5    D(3,1,5,13)           -61.9399         estimate D2E/DX2                !
 ! D6    D(3,1,5,14)            59.3988         estimate D2E/DX2                !
 ! D7    D(6,2,3,1)             60.8869         estimate D2E/DX2                !
 ! D8    D(6,2,3,4)            179.998          estimate D2E/DX2                !
 ! D9    D(6,2,3,9)            -60.7969         estimate D2E/DX2                !
 ! D10   D(3,2,6,8)           -179.9961         estimate D2E/DX2                !
 ! D11   D(3,2,6,15)           -60.2081         estimate D2E/DX2                !
 ! D12   D(3,2,6,16)            59.7949         estimate D2E/DX2                !
 ! D13   D(1,3,4,10)            46.7206         estimate D2E/DX2                !
 ! D14   D(1,3,4,11)           -74.478          estimate D2E/DX2                !
 ! D15   D(1,3,4,12)           165.6924         estimate D2E/DX2                !
 ! D16   D(2,3,4,10)           -73.6255         estimate D2E/DX2                !
 ! D17   D(2,3,4,11)           165.1758         estimate D2E/DX2                !
 ! D18   D(2,3,4,12)            45.3463         estimate D2E/DX2                !
 ! D19   D(9,3,4,10)           168.1708         estimate D2E/DX2                !
 ! D20   D(9,3,4,11)            46.9721         estimate D2E/DX2                !
 ! D21   D(9,3,4,12)           -72.8575         estimate D2E/DX2                !
 ! D22   D(1,5,7,17)          -179.8629         estimate D2E/DX2                !
 ! D23   D(1,5,7,18)           -59.0295         estimate D2E/DX2                !
 ! D24   D(1,5,7,19)            59.1986         estimate D2E/DX2                !
 ! D25   D(13,5,7,17)           59.3499         estimate D2E/DX2                !
 ! D26   D(13,5,7,18)         -179.8167         estimate D2E/DX2                !
 ! D27   D(13,5,7,19)          -61.5886         estimate D2E/DX2                !
 ! D28   D(14,5,7,17)          -59.4012         estimate D2E/DX2                !
 ! D29   D(14,5,7,18)           61.4322         estimate D2E/DX2                !
 ! D30   D(14,5,7,19)          179.6603         estimate D2E/DX2                !
 ! D31   D(2,6,8,20)          -179.8719         estimate D2E/DX2                !
 ! D32   D(2,6,8,21)           -59.0047         estimate D2E/DX2                !
 ! D33   D(2,6,8,22)            59.233          estimate D2E/DX2                !
 ! D34   D(15,6,8,20)           59.6037         estimate D2E/DX2                !
 ! D35   D(15,6,8,21)         -179.5291         estimate D2E/DX2                !
 ! D36   D(15,6,8,22)          -61.2914         estimate D2E/DX2                !
 ! D37   D(16,6,8,20)          -59.7294         estimate D2E/DX2                !
 ! D38   D(16,6,8,21)           61.1378         estimate D2E/DX2                !
 ! D39   D(16,6,8,22)          179.3755         estimate D2E/DX2                !
 --------------------------------------------------------------------------------
 Trust Radius=3.00D-01 FncErr=1.00D-07 GrdErr=1.00D-06 EigMax=2.50D+02 EigMin=1.00D-04
 Number of steps in this run=    108 maximum allowed number of steps=    132.
 GradGradGradGradGradGradGradGradGradGradGradGradGradGradGradGradGradGrad

                          Input orientation:                          
 ---------------------------------------------------------------------
 Center     Atomic      Atomic             Coordinates (Angstroms)
 Number     Number       Type             X           Y           Z
 ---------------------------------------------------------------------
      1          8           0       -0.861400    0.319200   -0.119300
      2          8           0        1.350000   -0.512000   -0.136900
      3          6           0        0.013100   -0.714600    0.339600
      4          6           0       -0.453800   -2.053000   -0.218600
      5          6           0       -2.209700    0.126100    0.286300
      6          6           0        1.904200    0.715200    0.319000
      7          6           0       -3.052500    1.265800   -0.245200
      8          6           0        3.310100    0.853400   -0.225000
      9          1           0        0.027300   -0.741300    1.436100
     10          1           0       -0.672400   -1.977500   -1.289800
     11          1           0       -1.350400   -2.423800    0.286100
     12          1           0        0.326200   -2.813000   -0.097800
     13          1           0       -2.623200   -0.798700   -0.124400
     14          1           0       -2.267500    0.095000    1.379800
     15          1           0        1.299600    1.558700   -0.031100
     16          1           0        1.927900    0.724800    1.414300
     17          1           0       -4.099000    1.150500    0.051000
     18          1           0       -2.683300    2.225600    0.130900
     19          1           0       -2.997200    1.310000   -1.338000
     20          1           0        3.768600    1.788400    0.109100
     21          1           0        3.934800    0.016400    0.104000
     22          1           0        3.303500    0.834300   -1.319800
 ---------------------------------------------------------------------
                    Distance matrix (angstroms):
                    1          2          3          4          5
     1  O    0.000000
     2  O    2.362518   0.000000
     3  C    1.429714   1.433667   0.000000
     4  C    2.409010   2.373826   1.523449   0.000000
     5  C    1.421166   3.641117   2.377069   2.843692   0.000000
     6  C    2.827979   1.421620   2.370867   3.675882   4.155993
     7  C    2.390151   4.749138   3.696198   4.215256   1.513843
     8  C    4.206894   2.390412   3.694267   4.755433   5.590938
     9  H    2.081758   2.067956   1.096917   2.165651   2.660562
    10  H    2.584690   2.750813   2.172503   1.095881   3.045081
    11  H    2.815585   3.335576   2.187089   1.093666   2.690797
    12  H    3.349856   2.518789   2.166249   1.095716   3.900850
    13  H    2.086544   3.983550   2.678142   2.507676   1.093120
    14  H    2.067531   3.969274   2.634123   3.233929   1.095468
    15  H    2.492802   2.074014   2.638256   4.019197   3.803718
    16  H    3.208837   2.066365   2.625512   4.006873   4.330192
    17  H    3.346956   5.700071   4.524517   4.860307   2.161994
    18  H    2.648826   4.881975   3.994860   4.837276   2.157857
    19  H    2.651142   4.864203   3.996905   4.362535   2.158732
    20  H    4.862881   3.346936   4.519062   5.717727   6.207633
    21  H    4.810934   2.649232   3.996198   4.862746   6.148182
    22  H    4.364965   2.651026   3.997428   4.864817   5.785886
                    6          7          8          9         10
     6  C    0.000000
     7  C    5.019000   0.000000
     8  C    1.513800   6.375983   0.000000
     9  H    2.625273   4.042325   4.009875   0.000000
    10  H    4.059278   4.156328   5.000810   3.073809   0.000000
    11  H    4.521817   4.097874   5.720273   2.459952   1.772661
    12  H    3.887416   5.298486   4.728882   2.595020   1.765255
    13  H    4.794356   2.112120   6.159838   3.076297   2.559951
    14  H    4.348911   2.151191   5.853219   2.443087   3.737160
    15  H    1.095264   4.367196   2.139429   3.010220   4.240026
    16  H    1.095598   5.277405   2.148097   2.400459   4.623434
    17  H    6.024925   1.093705   7.420189   4.745920   4.829463
    18  H    4.833409   1.094978   6.158769   4.225328   4.871156
    19  H    5.207990   1.095091   6.421003   4.588144   4.026745
    20  H    2.161436   6.850259   1.093650   4.707190   5.988439
    21  H    2.158213   7.106708   1.095016   4.197280   5.210049
    22  H    2.158215   6.460626   1.094986   4.561906   4.869795
                   11         12         13         14         15
    11  H    0.000000
    12  H    1.763475   0.000000
    13  H    2.104633   3.571704   0.000000
    14  H    2.895100   4.167379   1.785452   0.000000
    15  H    4.794103   4.479254   4.577598   4.105759   0.000000
    16  H    4.683350   4.167483   5.039956   4.242549   1.783068
    17  H    4.515052   5.942547   2.451149   2.496834   5.414633
    18  H    4.839177   5.873405   3.035652   2.504416   4.041595
    19  H    4.392142   5.438953   2.461568   3.065147   4.498036
    20  H    6.631600   5.750288   6.899472   6.396623   2.483622
    21  H    5.824180   4.590013   6.612406   6.332643   3.056341
    22  H    5.903636   4.864195   6.262703   6.234617   2.490204
                   16         17         18         19         20
    16  H    0.000000
    17  H    6.193814   0.000000
    18  H    5.016242   1.779447   0.000000
    19  H    5.672233   1.780091   1.759126   0.000000
    20  H    2.494588   7.893632   6.466733   6.935345   0.000000
    21  H    2.499273   8.113626   6.977144   7.197596   1.779784
    22  H    3.062608   7.534990   6.315221   6.318658   1.779994
                   21         22
    21  H    0.000000
    22  H    1.759178   0.000000
 Stoichiometry    C6H14O2
 Framework group  C1[X(C6H14O2)]
 Deg. of freedom    60
 Full point group                 C1      NOp   1
 Largest Abelian subgroup         C1      NOp   1
 Largest concise Abelian subgroup C1      NOp   1
                         Standard orientation:                         
 ---------------------------------------------------------------------
 Center     Atomic      Atomic             Coordinates (Angstroms)
 Number     Number       Type             X           Y           Z
 ---------------------------------------------------------------------
      1          8           0        0.841315   -0.318764   -0.122049
      2          8           0       -1.361918    0.533834   -0.140276
      3          6           0       -0.023331    0.723268    0.336905
      4          6           0        0.456766    2.057316   -0.220516
      5          6           0        2.191241   -0.138910    0.284233
      6          6           0       -1.928188   -0.688131    0.314854
      7          6           0        3.023196   -1.286499   -0.247380
      8          6           0       -3.335117   -0.812470   -0.229830
      9          1           0       -0.037763    0.749640    1.433410
     10          1           0        0.675105    1.980155   -1.291651
     11          1           0        1.356691    2.419197    0.284741
     12          1           0       -0.315886    2.824788   -0.099737
     13          1           0        2.613868    0.782013   -0.125888
     14          1           0        2.248850   -0.108834    1.377771
     15          1           0       -1.331634   -1.537302   -0.035338
     16          1           0       -1.952471   -0.697964    1.410139
     17          1           0        4.070631   -1.181471    0.049334
     18          1           0        2.644544   -2.242835    0.128146
     19          1           0        2.967960   -1.329699   -1.340223
     20          1           0       -3.802806   -1.743125    0.103667
     21          1           0       -3.951825    0.030405    0.099251
     22          1           0       -3.327842   -0.792972   -1.324618
 ---------------------------------------------------------------------
 Rotational constants (GHZ):           3.4091159           1.0098786           0.8233053
 Standard basis: 6-311++G(d,p) (5D, 7F)
 There are   282 symmetry adapted cartesian basis functions of A   symmetry.
 There are   274 symmetry adapted basis functions of A   symmetry.
   274 basis functions,   414 primitive gaussians,   282 cartesian basis functions
    33 alpha electrons       33 beta electrons
       nuclear repulsion energy       411.8674557723 Hartrees.
 NAtoms=   22 NActive=   22 NUniq=   22 SFac= 1.00D+00 NAtFMM=   60 NAOKFM=F Big=F
 Integral buffers will be    131072 words long.
 Raffenetti 2 integral format.
 Two-electron integral symmetry is turned on.
 R6APFD:  NTU= -4 IXU= 1 FactS= 1.050
 Nuclear repulsion after empirical dispersion term =      411.8548350156 Hartrees.
 One-electron integrals computed using PRISM.
 NBasis=   274 RedAO= T EigKep=  2.84D-05  NBF=   274
 NBsUse=   274 1.00D-06 EigRej= -1.00D+00 NBFU=   274
 ExpMin= 3.60D-02 ExpMax= 8.59D+03 ExpMxC= 1.30D+03 IAcc=3 IRadAn=         5 AccDes= 0.00D+00
 Harris functional with IExCor= 1009 and IRadAn=       5 diagonalized for initial guess.
 HarFok:  IExCor= 1009 AccDes= 0.00D+00 IRadAn=         5 IDoV= 1 UseB2=F ITyADJ=14
 ICtDFT=  3500011 ScaDFX=  1.000000  1.000000  1.000000  1.000000
 FoFCou: FMM=F IPFlag=           0 FMFlag=      100000 FMFlg1=           0
         NFxFlg=           0 DoJE=T BraDBF=F KetDBF=T FulRan=T
         wScrn=  0.000000 ICntrl=       500 IOpCl=  0 I1Cent=   200000004 NGrid=           0
         NMat0=    1 NMatS0=      1 NMatT0=    0 NMatD0=    1 NMtDS0=    0 NMtDT0=    0
 Petite list used in FoFCou.
 Requested convergence on RMS density matrix=1.00D-08 within  32 cycles.
 Requested convergence on MAX density matrix=1.00D-06.
 Requested convergence on             energy=1.00D-06.
 No special actions if energy rises.
 SCF Done:  E(RM08HX) =  -387.501529172     A.U. after   12 cycles
            NFock= 12  Conv=0.42D-08     -V/T= 2.0050
 QCSCF skips out because SCF is already converged.

 **********************************************************************

            Population analysis using the SCF Density.

 **********************************************************************

 Orbital symmetries:
       Occupied  (A) (A) (A) (A) (A) (A) (A) (A) (A) (A) (A) (A)
                 (A) (A) (A) (A) (A) (A) (A) (A) (A) (A) (A) (A)
                 (A) (A) (A) (A) (A) (A) (A) (A) (A)
       Virtual   (A) (A) (A) (A) (A) (A) (A) (A) (A) (A) (A) (A)
                 (A) (A) (A) (A) (A) (A) (A) (A) (A) (A) (A) (A)
                 (A) (A) (A) (A) (A) (A) (A) (A) (A) (A) (A) (A)
                 (A) (A) (A) (A) (A) (A) (A) (A) (A) (A) (A) (A)
                 (A) (A) (A) (A) (A) (A) (A) (A) (A) (A) (A) (A)
                 (A) (A) (A) (A) (A) (A) (A) (A) (A) (A) (A) (A)
                 (A) (A) (A) (A) (A) (A) (A) (A) (A) (A) (A) (A)
                 (A) (A) (A) (A) (A) (A) (A) (A) (A) (A) (A) (A)
                 (A) (A) (A) (A) (A) (A) (A) (A) (A) (A) (A) (A)
                 (A) (A) (A) (A) (A) (A) (A) (A) (A) (A) (A) (A)
                 (A) (A) (A) (A) (A) (A) (A) (A) (A) (A) (A) (A)
                 (A) (A) (A) (A) (A) (A) (A) (A) (A) (A) (A) (A)
                 (A) (A) (A) (A) (A) (A) (A) (A) (A) (A) (A) (A)
                 (A) (A) (A) (A) (A) (A) (A) (A) (A) (A) (A) (A)
                 (A) (A) (A) (A) (A) (A) (A) (A) (A) (A) (A) (A)
                 (A) (A) (A) (A) (A) (A) (A) (A) (A) (A) (A) (A)
                 (A) (A) (A) (A) (A) (A) (A) (A) (A) (A) (A) (A)
                 (A) (A) (A) (A) (A) (A) (A) (A) (A) (A) (A) (A)
                 (A) (A) (A) (A) (A) (A) (A) (A) (A) (A) (A) (A)
                 (A) (A) (A) (A) (A) (A) (A) (A) (A) (A) (A) (A)
                 (A)
 The electronic state is 1-A.
 Alpha  occ. eigenvalues --  -19.61578 -19.61568 -10.63406 -10.57902 -10.56707
 Alpha  occ. eigenvalues --  -10.51918 -10.51794 -10.51203  -1.18503  -1.12786
 Alpha  occ. eigenvalues --   -0.88630  -0.85199  -0.82219  -0.72713  -0.69976
 Alpha  occ. eigenvalues --   -0.68011  -0.59827  -0.58638  -0.55720  -0.53084
 Alpha  occ. eigenvalues --   -0.52210  -0.48289  -0.47369  -0.45849  -0.45166
 Alpha  occ. eigenvalues --   -0.44243  -0.43493  -0.42844  -0.41563  -0.39701
 Alpha  occ. eigenvalues --   -0.39481  -0.34333  -0.33682
 Alpha virt. eigenvalues --   -0.02830  -0.01641  -0.01244  -0.01130   0.00486
 Alpha virt. eigenvalues --    0.00841   0.01123   0.01791   0.02270   0.03216
 Alpha virt. eigenvalues --    0.03518   0.04227   0.04570   0.05446   0.06503
 Alpha virt. eigenvalues --    0.06718   0.07521   0.07688   0.08783   0.09626
 Alpha virt. eigenvalues --    0.10616   0.10868   0.11268   0.11698   0.11985
 Alpha virt. eigenvalues --    0.12522   0.12905   0.13508   0.13838   0.14358
 Alpha virt. eigenvalues --    0.14673   0.14965   0.15452   0.15859   0.16266
 Alpha virt. eigenvalues --    0.17538   0.17850   0.18455   0.19667   0.20200
 Alpha virt. eigenvalues --    0.21101   0.22013   0.22773   0.23334   0.24113
 Alpha virt. eigenvalues --    0.24489   0.25305   0.25735   0.26305   0.27681
 Alpha virt. eigenvalues --    0.28202   0.29114   0.29309   0.30488   0.31441
 Alpha virt. eigenvalues --    0.32022   0.33435   0.33976   0.34585   0.34994
 Alpha virt. eigenvalues --    0.35104   0.36050   0.37197   0.39181   0.41322
 Alpha virt. eigenvalues --    0.42131   0.43341   0.46198   0.47310   0.48443
 Alpha virt. eigenvalues --    0.50324   0.50755   0.53195   0.55135   0.55800
 Alpha virt. eigenvalues --    0.57037   0.58771   0.62897   0.64280   0.65715
 Alpha virt. eigenvalues --    0.66203   0.66646   0.67852   0.68441   0.69436
 Alpha virt. eigenvalues --    0.69671   0.70189   0.70928   0.71191   0.72259
 Alpha virt. eigenvalues --    0.72668   0.73729   0.74607   0.75263   0.76571
 Alpha virt. eigenvalues --    0.77858   0.78742   0.80160   0.81760   0.89387
 Alpha virt. eigenvalues --    0.91128   0.95116   0.97718   1.00602   1.05459
 Alpha virt. eigenvalues --    1.06757   1.07449   1.09967   1.15071   1.16319
 Alpha virt. eigenvalues --    1.17912   1.26362   1.26793   1.28088   1.30485
 Alpha virt. eigenvalues --    1.31609   1.32227   1.35297   1.38798   1.41648
 Alpha virt. eigenvalues --    1.46516   1.49450   1.49746   1.50426   1.54474
 Alpha virt. eigenvalues --    1.56024   1.58334   1.58742   1.59144   1.60314
 Alpha virt. eigenvalues --    1.60921   1.61836   1.63514   1.63588   1.65998
 Alpha virt. eigenvalues --    1.66498   1.67388   1.67719   1.69572   1.70013
 Alpha virt. eigenvalues --    1.70924   1.73959   1.74468   1.76504   1.77166
 Alpha virt. eigenvalues --    1.79445   1.81649   1.84452   1.85810   1.87106
 Alpha virt. eigenvalues --    1.88974   1.90558   1.92658   1.94168   2.01885
 Alpha virt. eigenvalues --    2.03782   2.05514   2.07890   2.12070   2.13475
 Alpha virt. eigenvalues --    2.14681   2.18470   2.20768   2.23648   2.24426
 Alpha virt. eigenvalues --    2.29383   2.31493   2.33008   2.35948   2.39631
 Alpha virt. eigenvalues --    2.40734   2.46931   2.47842   2.50435   2.51268
 Alpha virt. eigenvalues --    2.51820   2.52935   2.54916   2.56165   2.57045
 Alpha virt. eigenvalues --    2.58595   2.59230   2.61176   2.61745   2.63808
 Alpha virt. eigenvalues --    2.63958   2.64918   2.66146   2.66829   2.67662
 Alpha virt. eigenvalues --    2.68306   2.69677   2.70410   2.78167   2.80904
 Alpha virt. eigenvalues --    2.81878   2.87471   2.91600   2.94032   2.94675
 Alpha virt. eigenvalues --    3.01732   3.03970   3.06563   3.16922   3.22627
 Alpha virt. eigenvalues --    3.25908   3.28217   3.30707   3.33539   3.37307
 Alpha virt. eigenvalues --    3.43445   3.45848   3.81197   3.82366   3.83400
 Alpha virt. eigenvalues --    3.84406   3.85185   3.85816   3.87672   3.88251
 Alpha virt. eigenvalues --    4.00162   4.08405   4.13706   4.20214   4.31047
 Alpha virt. eigenvalues --    4.33905   4.37078   5.24367   5.25772   5.46939
 Alpha virt. eigenvalues --    5.53268   5.74308   5.87003  23.81102  23.92583
 Alpha virt. eigenvalues --   23.93112  24.03045  24.03404  24.04335  49.94077
 Alpha virt. eigenvalues --   49.98416
          Condensed to atoms (all electrons):
               1          2          3          4          5          6
     1  O    8.182380  -0.055649   0.188414  -0.174482   0.134167   0.019450
     2  O   -0.055649   8.173263   0.101826  -0.043898   0.003023   0.092331
     3  C    0.188414   0.101826   6.783703  -0.755403  -0.189912  -0.331979
     4  C   -0.174482  -0.043898  -0.755403   6.914660   0.005224   0.008094
     5  C    0.134167   0.003023  -0.189912   0.005224   5.750115  -0.007178
     6  C    0.019450   0.092331  -0.331979   0.008094  -0.007178   5.819153
     7  C   -0.064618  -0.012752  -0.063302   0.013800  -0.108709  -0.014103
     8  C    0.012776  -0.089528   0.032119  -0.104910  -0.004243  -0.103333
     9  H   -0.072402  -0.045358   0.452098  -0.193618  -0.019591   0.007677
    10  H    0.002494  -0.014804  -0.065740   0.430574  -0.015028   0.009988
    11  H   -0.020755   0.028344  -0.022211   0.348548   0.016696  -0.002796
    12  H    0.009323  -0.010942  -0.079183   0.457119  -0.003113  -0.005954
    13  H   -0.069904  -0.003505   0.018954  -0.038755   0.442295   0.006020
    14  H   -0.049212   0.002320  -0.002656  -0.006002   0.388469  -0.002568
    15  H   -0.003817  -0.046541   0.009936   0.003060  -0.013984   0.402921
    16  H   -0.007032  -0.072507  -0.001062  -0.011176   0.005764   0.418816
    17  H    0.022669  -0.000006  -0.004934   0.002268  -0.067895   0.000731
    18  H   -0.015866   0.000075   0.006487  -0.001367  -0.027605   0.000362
    19  H   -0.010802   0.000650  -0.004879   0.005912  -0.024666   0.000493
    20  H    0.001213   0.023540  -0.007299  -0.000786   0.000228  -0.070599
    21  H   -0.001094  -0.008578   0.001636   0.002327  -0.000941  -0.025203
    22  H   -0.001154  -0.008876  -0.004163   0.003337   0.001639  -0.032786
               7          8          9         10         11         12
     1  O   -0.064618   0.012776  -0.072402   0.002494  -0.020755   0.009323
     2  O   -0.012752  -0.089528  -0.045358  -0.014804   0.028344  -0.010942
     3  C   -0.063302   0.032119   0.452098  -0.065740  -0.022211  -0.079183
     4  C    0.013800  -0.104910  -0.193618   0.430574   0.348548   0.457119
     5  C   -0.108709  -0.004243  -0.019591  -0.015028   0.016696  -0.003113
     6  C   -0.014103  -0.103333   0.007677   0.009988  -0.002796  -0.005954
     7  C    5.919585   0.009217  -0.012310  -0.004967  -0.004805  -0.001224
     8  C    0.009217   5.910536   0.017747   0.000084   0.001608  -0.005315
     9  H   -0.012310   0.017747   0.614637  -0.008645  -0.001049   0.002680
    10  H   -0.004967   0.000084  -0.008645   0.450074  -0.041115  -0.013536
    11  H   -0.004805   0.001608  -0.001049  -0.041115   0.549559  -0.041360
    12  H   -0.001224  -0.005315   0.002680  -0.013536  -0.041360   0.462470
    13  H   -0.079224  -0.002071  -0.006112  -0.002286  -0.003040  -0.000393
    14  H   -0.029711   0.003541   0.015654   0.001687  -0.009239   0.002960
    15  H    0.007674  -0.040249  -0.006872   0.000474  -0.000250   0.001213
    16  H   -0.006664  -0.058226   0.022350  -0.000047   0.000284  -0.000178
    17  H    0.422544   0.000070   0.001593   0.000534  -0.001432  -0.000125
    18  H    0.384797  -0.001674  -0.001478   0.000306   0.001182  -0.000303
    19  H    0.391142   0.000242   0.000613  -0.002729   0.001892   0.000293
    20  H    0.000254   0.426584   0.001879   0.000077   0.000111  -0.000077
    21  H    0.000101   0.385570  -0.001583  -0.000248   0.000103   0.000030
    22  H   -0.000500   0.393841  -0.000187   0.000072  -0.000189   0.000060
              13         14         15         16         17         18
     1  O   -0.069904  -0.049212  -0.003817  -0.007032   0.022669  -0.015866
     2  O   -0.003505   0.002320  -0.046541  -0.072507  -0.000006   0.000075
     3  C    0.018954  -0.002656   0.009936  -0.001062  -0.004934   0.006487
     4  C   -0.038755  -0.006002   0.003060  -0.011176   0.002268  -0.001367
     5  C    0.442295   0.388469  -0.013984   0.005764  -0.067895  -0.027605
     6  C    0.006020  -0.002568   0.402921   0.418816   0.000731   0.000362
     7  C   -0.079224  -0.029711   0.007674  -0.006664   0.422544   0.384797
     8  C   -0.002071   0.003541  -0.040249  -0.058226   0.000070  -0.001674
     9  H   -0.006112   0.015654  -0.006872   0.022350   0.001593  -0.001478
    10  H   -0.002286   0.001687   0.000474  -0.000047   0.000534   0.000306
    11  H   -0.003040  -0.009239  -0.000250   0.000284  -0.001432   0.001182
    12  H   -0.000393   0.002960   0.001213  -0.000178  -0.000125  -0.000303
    13  H    0.654318  -0.099777  -0.002264   0.000483  -0.002010   0.014411
    14  H   -0.099777   0.598740   0.003044  -0.000042  -0.009825  -0.019577
    15  H   -0.002264   0.003044   0.577576  -0.096966  -0.000174  -0.003238
    16  H    0.000483  -0.000042  -0.096966   0.631709   0.000186   0.000322
    17  H   -0.002010  -0.009825  -0.000174   0.000186   0.526500  -0.036427
    18  H    0.014411  -0.019577  -0.003238   0.000322  -0.036427   0.536138
    19  H   -0.020129   0.010547  -0.000355   0.000072  -0.037163  -0.047271
    20  H   -0.000022   0.000057  -0.006212  -0.003991   0.000022  -0.000110
    21  H   -0.000012  -0.000091   0.011630  -0.019885  -0.000013   0.000051
    22  H    0.000322  -0.000294  -0.018861   0.013027   0.000008   0.000071
              19         20         21         22
     1  O   -0.010802   0.001213  -0.001094  -0.001154
     2  O    0.000650   0.023540  -0.008578  -0.008876
     3  C   -0.004879  -0.007299   0.001636  -0.004163
     4  C    0.005912  -0.000786   0.002327   0.003337
     5  C   -0.024666   0.000228  -0.000941   0.001639
     6  C    0.000493  -0.070599  -0.025203  -0.032786
     7  C    0.391142   0.000254   0.000101  -0.000500
     8  C    0.000242   0.426584   0.385570   0.393841
     9  H    0.000613   0.001879  -0.001583  -0.000187
    10  H   -0.002729   0.000077  -0.000248   0.000072
    11  H    0.001892   0.000111   0.000103  -0.000189
    12  H    0.000293  -0.000077   0.000030   0.000060
    13  H   -0.020129  -0.000022  -0.000012   0.000322
    14  H    0.010547   0.000057  -0.000091  -0.000294
    15  H   -0.000355  -0.006212   0.011630  -0.018861
    16  H    0.000072  -0.003991  -0.019885   0.013027
    17  H   -0.037163   0.000022  -0.000013   0.000008
    18  H   -0.047271  -0.000110   0.000051   0.000071
    19  H    0.520061  -0.000005  -0.000002  -0.000003
    20  H   -0.000005   0.522250  -0.038012  -0.033917
    21  H   -0.000002  -0.038012   0.538427  -0.051981
    22  H   -0.000003  -0.033917  -0.051981   0.524608
 Mulliken charges:
               1
     1  O   -0.026097
     2  O   -0.012427
     3  C   -0.062451
     4  C   -0.864527
     5  C   -0.264755
     6  C   -0.189537
     7  C   -0.746225
     8  C   -0.784387
     9  H    0.232276
    10  H    0.272779
    11  H    0.199912
    12  H    0.225557
    13  H    0.192702
    14  H    0.201976
    15  H    0.222255
    16  H    0.184763
    17  H    0.182881
    18  H    0.210713
    19  H    0.216087
    20  H    0.184813
    21  H    0.207767
    22  H    0.215925
 Sum of Mulliken charges =  -0.00000
 Mulliken charges with hydrogens summed into heavy atoms:
               1
     1  O   -0.026097
     2  O   -0.012427
     3  C    0.169826
     4  C   -0.166278
     5  C    0.129923
     6  C    0.217481
     7  C   -0.136544
     8  C   -0.175883
 Electronic spatial extent (au):  <R**2>=           1485.2488
 Charge=              0.0000 electrons
 Dipole moment (field-independent basis, Debye):
    X=              1.2746    Y=              0.0616    Z=              1.3393  Tot=              1.8499
 Quadrupole moment (field-independent basis, Debye-Ang):
   XX=            -48.2426   YY=            -51.4336   ZZ=            -52.1908
   XY=              2.8620   XZ=             -0.5683   YZ=              0.0746
 Traceless Quadrupole moment (field-independent basis, Debye-Ang):
   XX=              2.3798   YY=             -0.8113   ZZ=             -1.5685
   XY=              2.8620   XZ=             -0.5683   YZ=              0.0746
 Octapole moment (field-independent basis, Debye-Ang**2):
  XXX=              6.7387  YYY=              1.6207  ZZZ=             -1.2781  XYY=             -0.7838
  XXY=             -5.5532  XXZ=              1.9574  XZZ=             -0.0283  YZZ=              0.3597
  YYZ=             -0.2909  XYZ=             -0.7467
 Hexadecapole moment (field-independent basis, Debye-Ang**3):
 XXXX=          -1436.1882 YYYY=           -454.1726 ZZZZ=           -119.6597 XXXY=              2.9489
 XXXZ=              0.1926 YYYX=             -0.9572 YYYZ=             -2.2699 ZZZX=             -0.7567
 ZZZY=             -0.0525 XXYY=           -319.5258 XXZZ=           -266.5080 YYZZ=            -99.2009
 XXYZ=             -0.0583 YYXZ=             -1.6920 ZZXY=             -0.4262
 N-N= 4.118548350156D+02 E-N=-1.727391238531D+03  KE= 3.855888324308D+02
 R6APFD:  NTU= -4 IXU= 1 FactS= 1.050
 Calling FoFJK, ICntrl=      2127 FMM=F ISym2X=0 I1Cent= 0 IOpClX= 0 NMat=1 NMatS=1 NMatT=0.
 ***** Axes restored to original set *****
 -------------------------------------------------------------------
 Center     Atomic                   Forces (Hartrees/Bohr)
 Number     Number              X              Y              Z
 -------------------------------------------------------------------
      1        8           0.009681505   -0.002060784    0.004620599
      2        8          -0.029352176    0.006489794    0.007675948
      3        6           0.008267018   -0.007672234   -0.024079652
      4        6           0.006524708   -0.010193193    0.000390861
      5        6           0.001132435    0.007430968   -0.005063133
      6        6           0.002294263    0.001060764   -0.005125686
      7        6           0.004655801    0.008011373   -0.001610770
      8        6           0.002667702   -0.006435826   -0.003032337
      9        1          -0.000596780    0.004977350    0.007533817
     10        1           0.000648572    0.003856344   -0.000166493
     11        1          -0.000249843    0.000784898    0.001649171
     12        1           0.001141374    0.001674552    0.001619474
     13        1           0.002002271   -0.006614290    0.000741503
     14        1           0.000380997   -0.003240390    0.005625373
     15        1          -0.004817381    0.000572169    0.001162396
     16        1          -0.002702542    0.000116005    0.005710287
     17        1          -0.001064092   -0.000613425    0.000563116
     18        1          -0.000631970    0.001049105    0.001398162
     19        1          -0.000509454   -0.001637755   -0.000793451
     20        1           0.000209246    0.001169003    0.000528090
     21        1           0.001172440   -0.000220577    0.001563538
     22        1          -0.000854096    0.001496148   -0.000910813
 -------------------------------------------------------------------
 Cartesian Forces:  Max     0.029352176 RMS     0.006126832

 GradGradGradGradGradGradGradGradGradGradGradGradGradGradGradGradGradGrad
 Berny optimization.
 FormGI is forming the generalized inverse of G from B-inverse, IUseBI=4.
 Internal  Forces:  Max     0.031183074 RMS     0.005278663
 Search for a local minimum.
 Step number   1 out of a maximum of  108
 All quantities printed in internal units (Hartrees-Bohrs-Radians)
 Mixed Optimization -- RFO/linear search
 Second derivative matrix not updated -- first step.
 ITU=  0
     Eigenvalues ---    0.00456   0.00583   0.00583   0.01246   0.01299
     Eigenvalues ---    0.01406   0.01412   0.05377   0.05406   0.05420
     Eigenvalues ---    0.05635   0.05646   0.05651   0.05752   0.05782
     Eigenvalues ---    0.05783   0.06063   0.06199   0.06518   0.09078
     Eigenvalues ---    0.11085   0.11204   0.13679   0.13698   0.16000
     Eigenvalues ---    0.16000   0.16000   0.16000   0.16000   0.16000
     Eigenvalues ---    0.16000   0.16000   0.16000   0.18100   0.20499
     Eigenvalues ---    0.22044   0.22066   0.25000   0.25000   0.30037
     Eigenvalues ---    0.30967   0.30972   0.34025   0.34142   0.34160
     Eigenvalues ---    0.34174   0.34188   0.34211   0.34231   0.34239
     Eigenvalues ---    0.34243   0.34244   0.34388   0.34392   0.34394
     Eigenvalues ---    0.34455   0.40467   0.41030   0.42217   0.42285
 RFO step:  Lambda=-1.23514761D-02 EMin= 4.55759804D-03
 Linear search not attempted -- first point.
 Iteration  1 RMS(Cart)=  0.17308065 RMS(Int)=  0.00456057
 Iteration  2 RMS(Cart)=  0.01256620 RMS(Int)=  0.00085948
 Iteration  3 RMS(Cart)=  0.00003859 RMS(Int)=  0.00085933
 Iteration  4 RMS(Cart)=  0.00000005 RMS(Int)=  0.00085933
 Variable       Old X    -DE/DX   Delta X   Delta X   Delta X     New X
                                 (Linear)    (Quad)   (Total)
    R1        2.70177  -0.00965   0.00000  -0.02283  -0.02283   2.67894
    R2        2.68561  -0.00601   0.00000  -0.01381  -0.01381   2.67180
    R3        2.70924  -0.03118   0.00000  -0.07478  -0.07478   2.63446
    R4        2.68647  -0.00276   0.00000  -0.00635  -0.00635   2.68012
    R5        2.87890  -0.00034   0.00000  -0.00110  -0.00110   2.87781
    R6        2.07287   0.00740   0.00000   0.02099   0.02099   2.09386
    R7        2.07092   0.00030   0.00000   0.00085   0.00085   2.07177
    R8        2.06673   0.00070   0.00000   0.00196   0.00196   2.06869
    R9        2.07060  -0.00017   0.00000  -0.00048  -0.00048   2.07012
   R10        2.86075   0.00392   0.00000   0.01217   0.01217   2.87291
   R11        2.06570   0.00456   0.00000   0.01278   0.01278   2.07847
   R12        2.07013   0.00569   0.00000   0.01605   0.01605   2.08619
   R13        2.86067   0.00327   0.00000   0.01014   0.01014   2.87081
   R14        2.06975   0.00273   0.00000   0.00770   0.00770   2.07744
   R15        2.07038   0.00565   0.00000   0.01596   0.01596   2.08634
   R16        2.06680   0.00124   0.00000   0.00347   0.00347   2.07027
   R17        2.06921   0.00119   0.00000   0.00335   0.00335   2.07255
   R18        2.06942   0.00070   0.00000   0.00197   0.00197   2.07139
   R19        2.06670   0.00125   0.00000   0.00351   0.00351   2.07020
   R20        2.06928   0.00131   0.00000   0.00369   0.00369   2.07297
   R21        2.06922   0.00089   0.00000   0.00250   0.00250   2.07173
    A1        1.97191   0.00880   0.00000   0.03356   0.03356   2.00547
    A2        1.95943  -0.00072   0.00000  -0.00273  -0.00273   1.95670
    A3        1.94069  -0.01545   0.00000  -0.09197  -0.09298   1.84771
    A4        1.90730   0.02144   0.00000   0.11057   0.11013   2.01743
    A5        1.92450  -0.00644   0.00000  -0.03928  -0.04427   1.88023
    A6        1.86310  -0.00084   0.00000   0.00291   0.00519   1.86829
    A7        1.90033   0.00260   0.00000  -0.00989  -0.01219   1.88814
    A8        1.92714  -0.00124   0.00000   0.02893   0.02827   1.95541
    A9        1.93774  -0.00459   0.00000  -0.02672  -0.02686   1.91087
   A10        1.96062  -0.00077   0.00000  -0.00424  -0.00430   1.95633
   A11        1.92922  -0.00242   0.00000  -0.01416  -0.01428   1.91494
   A12        1.88695   0.00299   0.00000   0.01757   0.01749   1.90444
   A13        1.87292   0.00354   0.00000   0.02012   0.01991   1.89283
   A14        1.87293   0.00175   0.00000   0.01035   0.01032   1.88325
   A15        1.90254  -0.00569   0.00000  -0.02317  -0.02300   1.87954
   A16        1.94615  -0.00148   0.00000  -0.01519  -0.01492   1.93123
   A17        1.91644   0.00109   0.00000  -0.00474  -0.00472   1.91172
   A18        1.86964   0.00734   0.00000   0.05157   0.05139   1.92104
   A19        1.92033   0.00215   0.00000   0.01232   0.01201   1.93235
   A20        1.90822  -0.00324   0.00000  -0.01925  -0.01992   1.88830
   A21        1.90246  -0.00425   0.00000  -0.01786  -0.01770   1.88475
   A22        1.92528  -0.00098   0.00000  -0.01263  -0.01247   1.91282
   A23        1.91410   0.00002   0.00000  -0.00890  -0.00882   1.90528
   A24        1.90444   0.00502   0.00000   0.03539   0.03520   1.93964
   A25        1.91598   0.00286   0.00000   0.01899   0.01875   1.93473
   A26        1.90155  -0.00260   0.00000  -0.01450  -0.01509   1.88646
   A27        1.93719  -0.00102   0.00000  -0.00948  -0.00952   1.92767
   A28        1.93008   0.00097   0.00000   0.00827   0.00828   1.93836
   A29        1.93118  -0.00121   0.00000  -0.00616  -0.00621   1.92497
   A30        1.89865  -0.00024   0.00000  -0.00308  -0.00306   1.89559
   A31        1.89951   0.00044   0.00000  -0.00247  -0.00256   1.89695
   A32        1.86539   0.00115   0.00000   0.01365   0.01364   1.87903
   A33        1.93652  -0.00080   0.00000  -0.00829  -0.00831   1.92821
   A34        1.93059   0.00057   0.00000   0.00571   0.00570   1.93628
   A35        1.93062  -0.00076   0.00000  -0.00320  -0.00325   1.92737
   A36        1.89920  -0.00024   0.00000  -0.00368  -0.00368   1.89552
   A37        1.89957   0.00013   0.00000  -0.00382  -0.00388   1.89568
   A38        1.86555   0.00116   0.00000   0.01394   0.01391   1.87947
    D1        3.09946   0.00709   0.00000   0.13012   0.12616  -3.05756
    D2        1.04722   0.00404   0.00000   0.11290   0.11379   1.16101
    D3       -1.07408  -0.00420   0.00000   0.03035   0.03341  -1.04068
    D4        3.14155  -0.00329   0.00000  -0.07802  -0.07800   3.06355
    D5       -1.08105   0.00127   0.00000  -0.03825  -0.03830  -1.11935
    D6        1.03671  -0.00306   0.00000  -0.07581  -0.07578   0.96092
    D7        1.06268  -0.01100   0.00000  -0.06631  -0.06499   0.99768
    D8        3.14156   0.00577   0.00000   0.01773   0.01746  -3.12417
    D9       -1.06111   0.00522   0.00000   0.04835   0.04730  -1.01380
   D10       -3.14152  -0.00093   0.00000  -0.01551  -0.01550   3.12616
   D11       -1.05083   0.00199   0.00000   0.00912   0.00907  -1.04176
   D12        1.04362  -0.00183   0.00000  -0.02237  -0.02234   1.02128
   D13        0.81543  -0.00409   0.00000  -0.03204  -0.03271   0.78272
   D14       -1.29989  -0.00413   0.00000  -0.03263  -0.03328  -1.33317
   D15        2.89188  -0.00417   0.00000  -0.03320  -0.03378   2.85810
   D16       -1.28501   0.00300   0.00000   0.01500   0.01456  -1.27045
   D17        2.88286   0.00296   0.00000   0.01441   0.01399   2.89686
   D18        0.79144   0.00292   0.00000   0.01384   0.01349   0.80494
   D19        2.93513   0.00105   0.00000   0.00948   0.01047   2.94561
   D20        0.81982   0.00101   0.00000   0.00888   0.00991   0.82972
   D21       -1.27160   0.00097   0.00000   0.00832   0.00940  -1.26220
   D22       -3.13920  -0.00014   0.00000   0.00095   0.00092  -3.13828
   D23       -1.03026  -0.00047   0.00000  -0.00370  -0.00377  -1.03403
   D24        1.03321   0.00081   0.00000   0.01456   0.01448   1.04769
   D25        1.03585   0.00056   0.00000   0.00207   0.00235   1.03820
   D26       -3.13839   0.00023   0.00000  -0.00258  -0.00234  -3.14074
   D27       -1.07492   0.00151   0.00000   0.01568   0.01591  -1.05902
   D28       -1.03675  -0.00104   0.00000  -0.01180  -0.01196  -1.04870
   D29        1.07219  -0.00137   0.00000  -0.01646  -0.01665   1.05555
   D30        3.13566  -0.00009   0.00000   0.00180   0.00160   3.13727
   D31       -3.13936  -0.00008   0.00000   0.00080   0.00080  -3.13856
   D32       -1.02983  -0.00053   0.00000  -0.00555  -0.00557  -1.03540
   D33        1.03381   0.00079   0.00000   0.01331   0.01328   1.04709
   D34        1.04028   0.00065   0.00000   0.00563   0.00584   1.04612
   D35       -3.13337   0.00020   0.00000  -0.00072  -0.00054  -3.13391
   D36       -1.06974   0.00152   0.00000   0.01813   0.01832  -1.05142
   D37       -1.04248  -0.00094   0.00000  -0.00956  -0.00972  -1.05219
   D38        1.06706  -0.00138   0.00000  -0.01591  -0.01609   1.05096
   D39        3.13069  -0.00006   0.00000   0.00295   0.00276   3.13346
         Item               Value     Threshold  Converged?
 Maximum Force            0.031183     0.000450     NO 
 RMS     Force            0.005279     0.000300     NO 
 Maximum Displacement     0.591122     0.001800     NO 
 RMS     Displacement     0.180400     0.001200     NO 
 Predicted change in Energy=-6.724571D-03
 GradGradGradGradGradGradGradGradGradGradGradGradGradGradGradGradGradGrad

                          Input orientation:                          
 ---------------------------------------------------------------------
 Center     Atomic      Atomic             Coordinates (Angstroms)
 Number     Number       Type             X           Y           Z
 ---------------------------------------------------------------------
      1          8           0       -0.826571    0.209458   -0.164943
      2          8           0        1.281225   -0.559110   -0.147956
      3          6           0       -0.005901   -0.847338    0.303420
      4          6           0       -0.360454   -2.234723   -0.214831
      5          6           0       -2.168162    0.163009    0.278870
      6          6           0        1.730881    0.710523    0.296232
      7          6           0       -2.864196    1.418321   -0.222112
      8          6           0        3.141829    0.918040   -0.227252
      9          1           0       -0.001411   -0.805753    1.410655
     10          1           0       -0.549386   -2.184871   -1.293610
     11          1           0       -1.242491   -2.647845    0.284887
     12          1           0        0.476776   -2.919395   -0.040751
     13          1           0       -2.675322   -0.731259   -0.112043
     14          1           0       -2.190774    0.117663    1.381670
     15          1           0        1.051999    1.492171   -0.073476
     16          1           0        1.713551    0.735421    1.399861
     17          1           0       -3.911022    1.430232    0.100721
     18          1           0       -2.370492    2.320974    0.157798
     19          1           0       -2.833868    1.458541   -1.317087
     20          1           0        3.531550    1.889502    0.096028
     21          1           0        3.814768    0.132123    0.137198
     22          1           0        3.152371    0.883815   -1.322979
 ---------------------------------------------------------------------
                    Distance matrix (angstroms):
                    1          2          3          4          5
     1  O    0.000000
     2  O    2.243610   0.000000
     3  C    1.417632   1.394097   0.000000
     4  C    2.488730   2.346755   1.522869   0.000000
     5  C    1.413858   3.549917   2.386793   3.043135   0.000000
     6  C    2.646566   1.418260   2.333108   3.648197   3.937336
     7  C    2.369922   4.593500   3.685002   4.428714   1.520280
     8  C    4.031645   2.376995   3.647790   4.712330   5.387229
     9  H    2.047938   2.033533   1.108025   2.193872   2.629496
    10  H    2.661491   2.703102   2.152876   1.096332   3.256634
    11  H    2.922245   3.304438   2.184336   1.094704   2.959359
    12  H    3.391734   2.495912   2.155191   1.095460   4.074195
    13  H    2.075001   3.960453   2.704051   2.762170   1.099881
    14  H    2.064337   3.853901   2.620596   3.381214   1.103964
    15  H    2.276564   2.065392   2.595092   3.988075   3.501465
    16  H    3.029434   2.063602   2.581438   3.966167   4.080684
    17  H    3.327868   5.565856   4.525305   5.112534   2.162210
    18  H    2.635594   4.660837   3.956097   4.993344   2.170809
    19  H    2.629997   4.729881   3.992558   4.579623   2.160705
    20  H    4.678019   3.334545   4.477372   5.679221   5.958265
    21  H    4.651805   2.641582   3.947718   4.812313   5.984687
    22  H    4.198546   2.638920   3.951803   4.826304   5.602996
                    6          7          8          9         10
     6  C    0.000000
     7  C    4.678076   0.000000
     8  C    1.519168   6.026826   0.000000
     9  H    2.557707   3.975923   3.941340   0.000000
    10  H    4.013792   4.414685   4.938648   3.084686   0.000000
    11  H    4.485499   4.406890   5.674511   2.490168   1.785046
    12  H    3.855209   5.478208   4.675809   2.608203   1.778255
    13  H    4.654036   2.160667   6.047537   3.077979   2.833494
    14  H    4.112061   2.171940   5.627245   2.376310   3.892677
    15  H    1.099336   3.919710   2.172708   2.931343   4.192111
    16  H    1.104046   4.904377   2.172746   2.305739   4.572065
    17  H    5.690983   1.095540   7.079026   4.690481   5.129690
    18  H    4.408399   1.096749   5.701067   4.118084   5.072046
    19  H    4.898905   1.096134   6.098264   4.537666   4.300449
    20  H    2.161592   6.420964   1.095505   4.634054   5.931749
    21  H    2.168506   6.811164   1.096967   4.130923   5.144075
    22  H    2.161599   6.139762   1.096312   4.502637   4.808399
                   11         12         13         14         15
    11  H    0.000000
    12  H    1.770779   0.000000
    13  H    2.425667   3.837804   0.000000
    14  H    3.122532   4.285186   1.785114   0.000000
    15  H    4.746877   4.449030   4.340282   3.810814   0.000000
    16  H    4.629021   4.118574   4.868184   3.952938   1.783548
    17  H    4.877057   6.179971   2.498853   2.514542   4.966464
    18  H    5.096833   5.967229   3.079264   2.526805   3.529001
    19  H    4.686279   5.635221   2.504495   3.081366   4.080154
    20  H    6.588979   5.698757   6.740692   6.126768   2.516898
    21  H    5.772859   4.526104   6.552008   6.133144   3.086585
    22  H    5.862821   4.823621   6.167401   6.037493   2.518515
                   16         17         18         19         20
    16  H    0.000000
    17  H    5.814323   0.000000
    18  H    4.553692   1.780425   0.000000
    19  H    5.346376   1.780798   1.770252   0.000000
    20  H    2.517340   7.456730   5.918114   6.534612   0.000000
    21  H    2.524559   7.834172   6.561168   6.933879   1.780530
    22  H    3.083193   7.226134   5.895773   6.013768   1.780102
                   21         22
    21  H    0.000000
    22  H    1.770854   0.000000
 Stoichiometry    C6H14O2
 Framework group  C1[X(C6H14O2)]
 Deg. of freedom    60
 Full point group                 C1      NOp   1
 Largest Abelian subgroup         C1      NOp   1
 Largest concise Abelian subgroup C1      NOp   1
                         Standard orientation:                         
 ---------------------------------------------------------------------
 Center     Atomic      Atomic             Coordinates (Angstroms)
 Number     Number       Type             X           Y           Z
 ---------------------------------------------------------------------
      1          8           0        0.804427   -0.214081   -0.163247
      2          8           0       -1.311260    0.532135   -0.134599
      3          6           0       -0.024668    0.834337    0.309091
      4          6           0        0.312159    2.224986   -0.212226
      5          6           0        2.147999   -0.153073    0.272742
      6          6           0       -1.744859   -0.741835    0.313122
      7          6           0        2.854380   -1.401342   -0.231346
      8          6           0       -3.156537   -0.964700   -0.202018
      9          1           0       -0.022303    0.793588    1.416364
     10          1           0        0.495357    2.176279   -1.292046
     11          1           0        1.192649    2.647824    0.282064
     12          1           0       -0.531256    2.900891   -0.033796
     13          1           0        2.643382    0.746205   -0.121762
     14          1           0        2.176516   -0.106612    1.375359
     15          1           0       -1.059886   -1.516544   -0.059944
     16          1           0       -1.720874   -0.765670    1.416649
     17          1           0        3.903126   -1.401908    0.085418
     18          1           0        2.372476   -2.308871    0.152083
     19          1           0        2.818138   -1.442752   -1.326098
     20          1           0       -3.534065   -1.939977    0.124231
     21          1           0       -3.835643   -0.185664    0.165752
     22          1           0       -3.173788   -0.931460   -1.297690
 ---------------------------------------------------------------------
 Rotational constants (GHZ):           2.9717525           1.1239697           0.8624946
 Standard basis: 6-311++G(d,p) (5D, 7F)
 There are   282 symmetry adapted cartesian basis functions of A   symmetry.
 There are   274 symmetry adapted basis functions of A   symmetry.
   274 basis functions,   414 primitive gaussians,   282 cartesian basis functions
    33 alpha electrons       33 beta electrons
       nuclear repulsion energy       415.5778816886 Hartrees.
 NAtoms=   22 NActive=   22 NUniq=   22 SFac= 1.00D+00 NAtFMM=   60 NAOKFM=F Big=F
 Integral buffers will be    131072 words long.
 Raffenetti 2 integral format.
 Two-electron integral symmetry is turned on.
 R6APFD:  NTU= -4 IXU= 1 FactS= 1.050
 Nuclear repulsion after empirical dispersion term =      415.5650241302 Hartrees.
 One-electron integrals computed using PRISM.
 NBasis=   274 RedAO= T EigKep=  2.96D-05  NBF=   274
 NBsUse=   274 1.00D-06 EigRej= -1.00D+00 NBFU=   274
 Initial guess from the checkpoint file:  "DYLL0032.chk"
 B after Tr=     0.000000   -0.000000   -0.000000
         Rot=    0.999948    0.001497   -0.003084   -0.009563 Ang=   1.16 deg.
 ExpMin= 3.60D-02 ExpMax= 8.59D+03 ExpMxC= 1.30D+03 IAcc=3 IRadAn=         5 AccDes= 0.00D+00
 Harris functional with IExCor= 1009 and IRadAn=       5 diagonalized for initial guess.
 HarFok:  IExCor= 1009 AccDes= 0.00D+00 IRadAn=         5 IDoV= 1 UseB2=F ITyADJ=14
 ICtDFT=  3500011 ScaDFX=  1.000000  1.000000  1.000000  1.000000
 FoFCou: FMM=F IPFlag=           0 FMFlag=      100000 FMFlg1=           0
         NFxFlg=           0 DoJE=T BraDBF=F KetDBF=T FulRan=T
         wScrn=  0.000000 ICntrl=       500 IOpCl=  0 I1Cent=   200000004 NGrid=           0
         NMat0=    1 NMatS0=      1 NMatT0=    0 NMatD0=    1 NMtDS0=    0 NMtDT0=    0
 Petite list used in FoFCou.
 Requested convergence on RMS density matrix=1.00D-08 within  32 cycles.
 Requested convergence on MAX density matrix=1.00D-06.
 Requested convergence on             energy=1.00D-06.
 No special actions if energy rises.
 SCF Done:  E(RM08HX) =  -387.505695248     A.U. after   11 cycles
            NFock= 11  Conv=0.70D-08     -V/T= 2.0048
 QCSCF skips out because SCF is already converged.
 R6APFD:  NTU= -4 IXU= 1 FactS= 1.050
 Calling FoFJK, ICntrl=      2127 FMM=F ISym2X=0 I1Cent= 0 IOpClX= 0 NMat=1 NMatS=1 NMatT=0.
 ***** Axes restored to original set *****
 -------------------------------------------------------------------
 Center     Atomic                   Forces (Hartrees/Bohr)
 Number     Number              X              Y              Z
 -------------------------------------------------------------------
      1        8          -0.008638291   -0.009174554   -0.001645510
      2        8          -0.000565378   -0.000033248    0.001084428
      3        6           0.009543928    0.005655327   -0.003728300
      4        6          -0.003901009    0.001781510   -0.000869760
      5        6           0.003060786    0.004076274   -0.000480438
      6        6           0.005415023    0.001598385   -0.002916175
      7        6           0.000637743   -0.000127203   -0.000057630
      8        6          -0.000136797   -0.001831003    0.000179430
      9        1          -0.003338803   -0.001793997    0.003157841
     10        1           0.000130236    0.000585196    0.000048560
     11        1          -0.001524958    0.000973302   -0.000004915
     12        1           0.000388483    0.002184917    0.000966783
     13        1          -0.000104439   -0.002335527   -0.000023849
     14        1          -0.000475021   -0.001145435    0.000912113
     15        1           0.001600307   -0.000422875    0.000867774
     16        1          -0.000696184    0.000125120    0.001044219
     17        1          -0.000498398    0.000455795   -0.000210960
     18        1           0.000173858   -0.001190409    0.000845578
     19        1          -0.000271761   -0.000672722    0.000177837
     20        1           0.000373681    0.000344467   -0.000083525
     21        1          -0.000531292    0.000411173    0.000488374
     22        1          -0.000641713    0.000535507    0.000248124
 -------------------------------------------------------------------
 Cartesian Forces:  Max     0.009543928 RMS     0.002585591

 GradGradGradGradGradGradGradGradGradGradGradGradGradGradGradGradGradGrad
 Berny optimization.
 Using GEDIIS/GDIIS optimizer.
 FormGI is forming the generalized inverse of G from B-inverse, IUseBI=4.
 Internal  Forces:  Max     0.014441076 RMS     0.002900427
 Search for a local minimum.
 Step number   2 out of a maximum of  108
 All quantities printed in internal units (Hartrees-Bohrs-Radians)
 Mixed Optimization -- RFO/linear search
 Update second derivatives using D2CorX and points    1    2
 DE= -4.17D-03 DEPred=-6.72D-03 R= 6.20D-01
 TightC=F SS=  1.41D+00  RLast= 3.14D-01 DXNew= 5.0454D-01 9.4109D-01
 Trust test= 6.20D-01 RLast= 3.14D-01 DXMaxT set to 5.05D-01
 ITU=  1  0
 Use linear search instead of GDIIS.
     Eigenvalues ---    0.00456   0.00583   0.00583   0.01229   0.01330
     Eigenvalues ---    0.01395   0.01433   0.05223   0.05400   0.05468
     Eigenvalues ---    0.05542   0.05701   0.05711   0.05760   0.05781
     Eigenvalues ---    0.05825   0.05857   0.05966   0.06172   0.10421
     Eigenvalues ---    0.10843   0.11275   0.13509   0.13660   0.15561
     Eigenvalues ---    0.16000   0.16000   0.16000   0.16000   0.16000
     Eigenvalues ---    0.16000   0.16000   0.16036   0.20127   0.21431
     Eigenvalues ---    0.21899   0.22182   0.24766   0.29350   0.30273
     Eigenvalues ---    0.30970   0.31763   0.33347   0.34128   0.34142
     Eigenvalues ---    0.34168   0.34182   0.34230   0.34235   0.34241
     Eigenvalues ---    0.34243   0.34361   0.34385   0.34392   0.34417
     Eigenvalues ---    0.34489   0.40000   0.41869   0.42214   0.43752
 RFO step:  Lambda=-2.32408391D-03 EMin= 4.56082400D-03
 Quartic linear search produced a step of -0.24556.
 Iteration  1 RMS(Cart)=  0.09327831 RMS(Int)=  0.00185867
 Iteration  2 RMS(Cart)=  0.00364883 RMS(Int)=  0.00015026
 Iteration  3 RMS(Cart)=  0.00000230 RMS(Int)=  0.00015025
 Iteration  4 RMS(Cart)=  0.00000000 RMS(Int)=  0.00015025
 Variable       Old X    -DE/DX   Delta X   Delta X   Delta X     New X
                                 (Linear)    (Quad)   (Total)
    R1        2.67894  -0.00384   0.00561  -0.01668  -0.01107   2.66787
    R2        2.67180  -0.00200   0.00339  -0.00940  -0.00600   2.66580
    R3        2.63446   0.00430   0.01836  -0.02387  -0.00551   2.62895
    R4        2.68012   0.00233   0.00156   0.00141   0.00297   2.68310
    R5        2.87781  -0.00394   0.00027  -0.01023  -0.00996   2.86785
    R6        2.09386   0.00308  -0.00515   0.01568   0.01052   2.10439
    R7        2.07177  -0.00005  -0.00021   0.00026   0.00006   2.07182
    R8        2.06869   0.00086  -0.00048   0.00270   0.00222   2.07091
    R9        2.07012  -0.00092   0.00012  -0.00220  -0.00208   2.06804
   R10        2.87291  -0.00153  -0.00299   0.00151  -0.00147   2.87144
   R11        2.07847   0.00196  -0.00314   0.00967   0.00653   2.08501
   R12        2.08619   0.00097  -0.00394   0.00895   0.00501   2.09120
   R13        2.87081  -0.00123  -0.00249   0.00138  -0.00111   2.86970
   R14        2.07744  -0.00158  -0.00189  -0.00016  -0.00205   2.07540
   R15        2.08634   0.00106  -0.00392   0.00911   0.00519   2.09153
   R16        2.07027   0.00042  -0.00085   0.00238   0.00153   2.07180
   R17        2.07255  -0.00061  -0.00082   0.00010  -0.00072   2.07184
   R18        2.07139  -0.00021  -0.00048   0.00039  -0.00010   2.07129
   R19        2.07020   0.00041  -0.00086   0.00239   0.00153   2.07173
   R20        2.07297  -0.00046  -0.00091   0.00058  -0.00033   2.07264
   R21        2.07173  -0.00027  -0.00062   0.00048  -0.00013   2.07159
    A1        2.00547  -0.00630  -0.00824  -0.00433  -0.01257   1.99290
    A2        1.95670   0.01444   0.00067   0.04173   0.04240   1.99910
    A3        1.84771   0.01130   0.02283   0.01649   0.03966   1.88737
    A4        2.01743  -0.01266  -0.02704  -0.00529  -0.03261   1.98482
    A5        1.88023   0.00268   0.01087  -0.02044  -0.00941   1.87082
    A6        1.86829  -0.00138  -0.00127   0.00299   0.00151   1.86980
    A7        1.88814   0.00031   0.00299   0.01653   0.02006   1.90820
    A8        1.95541   0.00096  -0.00694  -0.00662  -0.01393   1.94148
    A9        1.91087  -0.00028   0.00660  -0.01343  -0.00684   1.90404
   A10        1.95633  -0.00067   0.00105  -0.00488  -0.00384   1.95249
   A11        1.91494  -0.00282   0.00351  -0.01898  -0.01549   1.89944
   A12        1.90444   0.00042  -0.00430   0.00891   0.00462   1.90905
   A13        1.89283   0.00149  -0.00489   0.01521   0.01031   1.90313
   A14        1.88325   0.00199  -0.00253   0.01442   0.01187   1.89511
   A15        1.87954   0.00045   0.00565  -0.00739  -0.00178   1.87776
   A16        1.93123  -0.00102   0.00366  -0.01292  -0.00932   1.92191
   A17        1.91172   0.00008   0.00116  -0.00045   0.00069   1.91241
   A18        1.92104   0.00117  -0.01262   0.02894   0.01635   1.93739
   A19        1.93235   0.00017  -0.00295   0.00772   0.00482   1.93717
   A20        1.88830  -0.00085   0.00489  -0.01578  -0.01079   1.87751
   A21        1.88475  -0.00131   0.00435  -0.01181  -0.00750   1.87726
   A22        1.91282   0.00117   0.00306   0.00272   0.00576   1.91857
   A23        1.90528   0.00004   0.00216  -0.00676  -0.00462   1.90066
   A24        1.93964   0.00009  -0.00864   0.01654   0.00794   1.94758
   A25        1.93473   0.00043  -0.00460   0.00800   0.00343   1.93816
   A26        1.88646  -0.00039   0.00371  -0.00891  -0.00507   1.88139
   A27        1.92767   0.00113   0.00234   0.00070   0.00305   1.93072
   A28        1.93836  -0.00177  -0.00203  -0.00476  -0.00680   1.93156
   A29        1.92497  -0.00044   0.00152  -0.00420  -0.00266   1.92230
   A30        1.89559   0.00019   0.00075  -0.00142  -0.00068   1.89491
   A31        1.89695  -0.00028   0.00063  -0.00212  -0.00147   1.89549
   A32        1.87903   0.00120  -0.00335   0.01213   0.00879   1.88782
   A33        1.92821   0.00056   0.00204  -0.00181   0.00023   1.92844
   A34        1.93628  -0.00056  -0.00140   0.00048  -0.00091   1.93537
   A35        1.92737  -0.00073   0.00080  -0.00457  -0.00377   1.92361
   A36        1.89552  -0.00004   0.00090  -0.00213  -0.00123   1.89429
   A37        1.89568  -0.00007   0.00095  -0.00319  -0.00223   1.89345
   A38        1.87947   0.00086  -0.00342   0.01149   0.00808   1.88755
    D1       -3.05756  -0.00263  -0.03098   0.05856   0.02832  -3.02924
    D2        1.16101  -0.00143  -0.02794   0.04640   0.01861   1.17962
    D3       -1.04068   0.00452  -0.00820   0.07607   0.06698  -0.97370
    D4        3.06355  -0.00051   0.01915  -0.05695  -0.03779   3.02575
    D5       -1.11935   0.00060   0.00940  -0.03385  -0.02447  -1.14382
    D6        0.96092  -0.00103   0.01861  -0.06158  -0.04296   0.91797
    D7        0.99768   0.00773   0.01596   0.07955   0.09542   1.09310
    D8       -3.12417  -0.00165  -0.00429   0.08417   0.08003  -3.04414
    D9       -1.01380  -0.00112  -0.01162   0.08715   0.07549  -0.93832
   D10        3.12616  -0.00105   0.00381  -0.05504  -0.05122   3.07494
   D11       -1.04176  -0.00105  -0.00223  -0.04053  -0.04274  -1.08450
   D12        1.02128  -0.00081   0.00549  -0.05373  -0.04827   0.97301
   D13        0.78272   0.00413   0.00803   0.05187   0.05986   0.84258
   D14       -1.33317   0.00424   0.00817   0.05308   0.06123  -1.27194
   D15        2.85810   0.00407   0.00829   0.05088   0.05914   2.91724
   D16       -1.27045  -0.00158  -0.00358   0.03216   0.02868  -1.24177
   D17        2.89686  -0.00147  -0.00344   0.03337   0.03004   2.92690
   D18        0.80494  -0.00163  -0.00331   0.03118   0.02796   0.83289
   D19        2.94561  -0.00164  -0.00257   0.01390   0.01126   2.95686
   D20        0.82972  -0.00153  -0.00243   0.01511   0.01262   0.84234
   D21       -1.26220  -0.00169  -0.00231   0.01291   0.01054  -1.25166
   D22       -3.13828  -0.00018  -0.00023  -0.00316  -0.00338   3.14153
   D23       -1.03403  -0.00036   0.00093  -0.00763  -0.00668  -1.04071
   D24        1.04769  -0.00028  -0.00355   0.00175  -0.00179   1.04590
   D25        1.03820   0.00009  -0.00058   0.00008  -0.00055   1.03765
   D26       -3.14074  -0.00008   0.00058  -0.00439  -0.00386   3.13859
   D27       -1.05902  -0.00001  -0.00391   0.00498   0.00104  -1.05798
   D28       -1.04870   0.00029   0.00294  -0.00378  -0.00082  -1.04952
   D29        1.05555   0.00012   0.00409  -0.00824  -0.00412   1.05142
   D30        3.13727   0.00019  -0.00039   0.00113   0.00077   3.13804
   D31       -3.13856   0.00035  -0.00020   0.00551   0.00532  -3.13324
   D32       -1.03540   0.00030   0.00137   0.00195   0.00332  -1.03208
   D33        1.04709   0.00054  -0.00326   0.01364   0.01038   1.05748
   D34        1.04612  -0.00031  -0.00143  -0.00026  -0.00173   1.04439
   D35       -3.13391  -0.00036   0.00013  -0.00382  -0.00373  -3.13764
   D36       -1.05142  -0.00012  -0.00450   0.00787   0.00333  -1.04808
   D37       -1.05219  -0.00016   0.00239  -0.00538  -0.00296  -1.05515
   D38        1.05096  -0.00021   0.00395  -0.00895  -0.00496   1.04601
   D39        3.13346   0.00003  -0.00068   0.00275   0.00211   3.13556
         Item               Value     Threshold  Converged?
 Maximum Force            0.014441     0.000450     NO 
 RMS     Force            0.002900     0.000300     NO 
 Maximum Displacement     0.285867     0.001800     NO 
 RMS     Displacement     0.091831     0.001200     NO 
 Predicted change in Energy=-1.727882D-03
 GradGradGradGradGradGradGradGradGradGradGradGradGradGradGradGradGradGrad

                          Input orientation:                          
 ---------------------------------------------------------------------
 Center     Atomic      Atomic             Coordinates (Angstroms)
 Number     Number       Type             X           Y           Z
 ---------------------------------------------------------------------
      1          8           0       -0.888179    0.226170   -0.223941
      2          8           0        1.266864   -0.484819   -0.183685
      3          6           0       -0.018289   -0.772738    0.264504
      4          6           0       -0.358686   -2.169595   -0.221328
      5          6           0       -2.205488    0.138862    0.273144
      6          6           0        1.795012    0.744941    0.290316
      7          6           0       -2.960855    1.365527   -0.210173
      8          6           0        3.224009    0.853744   -0.211894
      9          1           0       -0.042475   -0.715273    1.376351
     10          1           0       -0.510871   -2.144608   -1.306788
     11          1           0       -1.259840   -2.562036    0.263295
     12          1           0        0.478436   -2.836608    0.006575
     13          1           0       -2.685587   -0.787757   -0.084962
     14          1           0       -2.182554    0.097540    1.378749
     15          1           0        1.176835    1.579879   -0.065905
     16          1           0        1.761220    0.746970    1.396590
     17          1           0       -3.996310    1.348022    0.149706
     18          1           0       -2.481077    2.282734    0.151172
     19          1           0       -2.971910    1.394517   -1.305815
     20          1           0        3.682824    1.786928    0.135322
     21          1           0        3.829755    0.012784    0.147011
     22          1           0        3.242066    0.844315   -1.307945
 ---------------------------------------------------------------------
                    Distance matrix (angstroms):
                    1          2          3          4          5
     1  O    0.000000
     2  O    2.269655   0.000000
     3  C    1.411774   1.391183   0.000000
     4  C    2.453581   2.341431   1.517601   0.000000
     5  C    1.410681   3.557373   2.369585   2.997358   0.000000
     6  C    2.780845   1.419833   2.364757   3.659879   4.046187
     7  C    2.365229   4.614985   3.668268   4.389589   1.519500
     8  C    4.159818   2.371279   3.658537   4.687896   5.497796
     9  H    2.040213   2.049681   1.113594   2.183488   2.573954
    10  H    2.633535   2.678918   2.143274   1.096361   3.253021
    11  H    2.854755   3.301341   2.177851   1.095877   2.861677
    12  H    3.361754   2.487716   2.138416   1.094358   4.015960
    13  H    2.068342   3.965272   2.690136   2.709712   1.103339
    14  H    2.064115   3.831295   2.585144   3.320639   1.106615
    15  H    2.474225   2.070013   2.659380   4.054693   3.692099
    16  H    3.149074   2.063725   2.599574   3.951963   4.167338
    17  H    3.325453   5.583140   4.509485   5.073815   2.164335
    18  H    2.628210   4.671032   3.926077   4.946365   2.164951
    19  H    2.622484   4.770564   3.985822   4.550599   2.158051
    20  H    4.843460   3.331585   4.501868   5.667016   6.116154
    21  H    4.737303   2.631611   3.929159   4.737245   6.037877
    22  H    4.314637   2.632866   3.964514   4.819731   5.716061
                    6          7          8          9         10
     6  C    0.000000
     7  C    4.822228   0.000000
     8  C    1.518580   6.206002   0.000000
     9  H    2.586127   3.919659   3.956546   0.000000
    10  H    4.027074   4.418827   4.913068   3.075976   0.000000
    11  H    4.502105   4.306202   5.656701   2.476168   1.788955
    12  H    3.826405   5.434486   4.604845   2.578313   1.783961
    13  H    4.750343   2.174416   6.134652   3.021048   2.839593
    14  H    4.174308   2.176744   5.686204   2.289238   3.877352
    15  H    1.098252   4.145749   2.177041   2.972295   4.273166
    16  H    1.106791   5.026160   2.176780   2.322042   4.564194
    17  H    5.824336   1.096352   7.246245   4.625436   5.144718
    18  H    4.546329   1.096369   5.892524   4.054120   5.060505
    19  H    5.068839   1.096082   6.314944   4.497424   4.310698
    20  H    2.161849   6.665989   1.096313   4.656072   5.926528
    21  H    2.167203   6.933244   1.096792   4.127409   5.060524
    22  H    2.158305   6.320838   1.096241   4.519510   4.797728
                   11         12         13         14         15
    11  H    0.000000
    12  H    1.778454   0.000000
    13  H    2.302629   3.770571   0.000000
    14  H    3.028033   4.192011   1.783043   0.000000
    15  H    4.816764   4.471954   4.530383   3.945865   0.000000
    16  H    4.621762   4.052124   4.931985   3.996928   1.781610
    17  H    4.773858   6.128211   2.516866   2.522690   5.182825
    18  H    4.997578   5.915006   3.086341   2.524111   3.731146
    19  H    4.587766   5.615130   2.516900   3.084172   4.334031
    20  H    6.584815   5.626879   6.872712   6.229189   2.522566
    21  H    5.705015   4.401147   6.568436   6.137770   3.088543
    22  H    5.859964   4.786942   6.268685   6.099385   2.519702
                   16         17         18         19         20
    16  H    0.000000
    17  H    5.921582   0.000000
    18  H    4.680462   1.780343   0.000000
    19  H    5.488609   1.780477   1.775572   0.000000
    20  H    2.522869   7.691680   6.183829   6.820289   0.000000
    21  H    2.525729   7.939153   6.706659   7.091018   1.780256
    22  H    3.084946   7.400848   6.078851   6.238287   1.779272
                   21         22
    21  H    0.000000
    22  H    1.775871   0.000000
 Stoichiometry    C6H14O2
 Framework group  C1[X(C6H14O2)]
 Deg. of freedom    60
 Full point group                 C1      NOp   1
 Largest Abelian subgroup         C1      NOp   1
 Largest concise Abelian subgroup C1      NOp   1
                         Standard orientation:                         
 ---------------------------------------------------------------------
 Center     Atomic      Atomic             Coordinates (Angstroms)
 Number     Number       Type             X           Y           Z
 ---------------------------------------------------------------------
      1          8           0        0.857171   -0.219702   -0.211491
      2          8           0       -1.301871    0.477886   -0.154524
      3          6           0       -0.016537    0.768725    0.291254
      4          6           0        0.313449    2.172682   -0.181107
      5          6           0        2.176065   -0.129786    0.280906
      6          6           0       -1.820648   -0.759986    0.308583
      7          6           0        2.936629   -1.346694   -0.218651
      8          6           0       -3.251120   -0.872011   -0.188694
      9          1           0        0.012776    0.699591    1.402313
     10          1           0        0.461107    2.160147   -1.267407
     11          1           0        1.214330    2.565346    0.303844
[...]
 00462629,-0.12728314,0.18170567,0.00010774,-0.00395404,0.00060789,0.00
 072723,0.00067400,0.00012312,0.00902352,-0.00734545,0.00407222,-0.0665
 8659,0.06820181,-0.08545162,-0.00035171,-0.00001803,0.00037748,0.00010
 689,0.00002895,-0.00003035,0.00000048,-0.00004995,-0.00007358,-0.00001
 420,0.00004926,-0.00001495,0.00035925,0.00066359,-0.00006383,-0.020646
 01,0.02100057,-0.00881949,0.00547142,-0.00672811,0.00193269,0.07177539
 ,-0.07260153,0.08741436,-0.02791151,-0.01910757,0.00999891,-0.00104616
 ,0.00090738,-0.00044082,0.00303520,-0.00578345,0.00209666,-0.00081712,
 0.00018889,0.00025039,-0.10040411,-0.09726688,-0.00281268,0.00028972,-
 0.00000878,0.00023419,0.01089162,0.01807706,-0.00048301,-0.00001733,0.
 00013045,-0.00004892,-0.00045612,0.00027522,-0.00077655,0.00020517,-0.
 00009918,-0.00009928,0.00002484,0.00138622,0.00026062,0.00035415,0.000
 24309,-0.00010722,0.11901651,0.00022137,0.01045296,0.00146443,-0.00018
 675,0.00018217,0.00006181,0.00165343,-0.00024980,0.00127880,-0.0007379
 0,0.00006514,-0.00068847,-0.09971421,-0.23617282,-0.00089915,0.0001020
 3,-0.00014136,0.00006992,-0.01041564,-0.02056012,-0.00062966,0.0000023
 7,0.00003426,-0.00001338,-0.00018376,0.00000880,-0.00023161,0.00015885
 ,0.00002721,0.00001132,0.00123419,-0.00099762,-0.00057364,-0.00005390,
 0.00042806,0.00012049,0.10770768,0.25475888,0.01809833,0.01678220,-0.0
 0124154,0.00079217,-0.00004581,0.00007779,-0.00154902,0.00144680,-0.00
 024489,0.00022869,0.00009550,-0.00011111,-0.00404910,-0.00436384,-0.05
 308743,-0.00014183,-0.00018830,-0.00035114,0.00622064,0.01371969,0.000
 27923,0.00003646,-0.00004186,0.00007520,0.00013258,-0.00052193,-0.0002
 1145,0.00002615,-0.00000499,-0.00009492,0.00021073,-0.00057359,0.00023
 000,-0.00017899,-0.00008397,-0.00004250,-0.00487904,-0.00202406,0.0538
 5948,-0.00516451,0.01259780,0.03648689,-0.00051113,-0.00019482,-0.0002
 2505,0.00331430,-0.00297292,0.00542450,-0.00035060,0.00033416,-0.00056
 308,-0.06674567,-0.01957251,-0.06395147,0.00033835,0.00028999,0.000155
 61,-0.00449312,-0.00544442,-0.01762685,-0.00001118,-0.00006651,-0.0000
 5462,0.00025560,-0.00020048,-0.00130398,-0.00006500,-0.00012659,-0.000
 11983,0.00004736,0.00011558,-0.00011701,0.00012164,0.00025683,-0.00001
 624,-0.00228905,-0.00330944,-0.01441529,0.07613519,0.00510804,0.001303
 44,-0.00172055,-0.00007270,-0.00021821,0.00056641,-0.00120107,0.001263
 60,-0.00360164,-0.00014092,-0.00040902,0.00040115,-0.01927053,-0.06935
 042,-0.05793728,0.00000647,0.00022824,-0.00023566,0.00689136,0.0066517
 4,0.02355409,0.00001456,-0.00006079,0.00005666,0.00033702,-0.00025706,
 0.00074292,0.00006282,0.00009632,0.00009096,0.00002964,0.00016225,-0.0
 0010418,0.00007932,-0.00004460,-0.00004000,-0.00865459,-0.00686920,-0.
 02595532,0.01493166,0.06887851,0.01377325,-0.00655524,-0.02393594,0.00
 067917,0.00023025,0.00120159,-0.00396676,0.00345053,-0.00155025,0.0003
 7363,-0.00027643,0.00038444,-0.06053122,-0.05673508,-0.24968517,-0.000
 22221,-0.00035419,-0.00072455,-0.00465626,-0.00314491,-0.01100195,0.00
 005642,0.00002584,0.00010968,0.00093340,-0.00115311,0.00124571,-0.0000
 6106,0.00024360,0.00011922,-0.00003278,0.00001042,-0.00006524,0.000024
 23,-0.00025339,-0.00001711,-0.00178387,-0.00007558,0.00046767,0.056631
 15,0.06244332,0.28283870,-0.00271615,-0.00197384,-0.00103290,0.0077874
 7,-0.01267938,0.00365917,0.00167171,-0.00105633,0.00081085,-0.00030314
 ,0.00019003,-0.00012470,-0.00015975,0.00020272,0.00009409,-0.13599306,
 0.11054902,-0.05427043,0.00006912,-0.00004325,-0.00007464,-0.01816902,
 0.02218023,-0.01202517,-0.00005222,0.00001255,0.00004720,0.00003329,0.
 00003783,0.00000367,-0.00003446,-0.00002276,-0.00003127,0.00004127,0.0
 0013096,0.00003667,0.00013495,0.00001653,0.00001020,0.00008461,0.00003
 470,-0.00002127,0.14813930,-0.00120037,0.00262934,-0.00020563,0.006068
 34,-0.04028435,0.00317533,0.00808859,-0.00181789,-0.00061982,-0.000721
 26,0.00002308,0.00007868,-0.00063926,0.00041844,-0.00000063,0.10423846
 ,-0.17551195,0.06772431,-0.00013804,-0.00005248,0.00006830,-0.00303189
 ,0.00606498,-0.00200400,-0.00056342,-0.00000601,0.00022440,0.00008913,
 0.00003102,0.00001197,-0.00020867,-0.00019637,-0.00013362,-0.00002710,
 0.00028368,0.00000206,0.00026024,0.00007169,-0.00009406,-0.00004831,-0
 .00008522,-0.00003858,-0.11318718,0.20619512,-0.00079139,-0.00114838,-
 0.00065574,0.00794970,-0.01670015,0.00730747,0.00007280,0.00093649,0.0
 0038757,-0.00011667,-0.00002457,0.00010980,0.00028750,0.00023381,-0.00
 009845,-0.05553559,0.07305668,-0.09084317,0.00003495,0.00003487,-0.000
 01351,0.00670280,-0.00782871,0.00422151,-0.00041621,-0.00019151,-0.000
 15540,0.00002854,0.00000327,0.00000374,-0.00004294,0.00001484,-0.00004
 998,0.00003376,0.00003439,-0.00001965,-0.00001936,-0.00005534,-0.00002
 449,0.00006568,0.00005903,-0.00010814,0.05860173,-0.07026390,0.0902451
 3,-0.00006206,0.00029966,0.00100278,-0.00155105,-0.00649265,-0.0113767
 6,0.00316938,0.00013722,-0.00480934,-0.00008544,-0.00015967,0.00002373
 ,-0.00006312,-0.00002570,-0.00021314,-0.05312336,0.00160101,0.02021819
 ,-0.00001521,0.00004684,0.00006181,-0.00263021,-0.00171367,0.03299314,
 0.00013107,0.00014793,0.00104385,-0.00008423,0.00000422,0.00013344,-0.
 00003431,-0.00004273,0.00003698,-0.00000369,0.00003910,0.00000565,-0.0
 0000549,-0.00000340,0.00003472,-0.00001646,0.00000102,0.00009177,0.002
 95416,0.00160199,-0.01822889,0.05539607,-0.00041343,0.00019421,0.00034
 740,-0.00600092,-0.01311600,-0.03909536,0.00514638,0.00158072,-0.00425
 212,-0.00007138,-0.00015609,0.00021321,-0.00008785,0.00012398,0.000054
 76,0.00048640,-0.05123171,0.01953776,-0.00003624,-0.00004014,-0.000001
 61,0.00052584,0.00048409,0.00432800,-0.00024572,0.00021982,0.00156995,
 0.00000455,0.00007125,0.00021806,-0.00006880,-0.00009311,0.00010555,0.
 00002061,-0.00001772,-0.00001866,0.00001314,0.00000496,-0.00002713,0.0
 0001894,0.00001409,-0.00004497,-0.00283816,0.00116035,0.02264413,0.005
 02115,0.05981018,-0.00124233,0.00028708,0.00020079,-0.00492096,-0.0145
 0630,-0.01474147,0.00443328,0.00132317,-0.00009010,-0.00036311,-0.0001
 5345,0.00088125,0.00021636,-0.00024412,-0.00080580,0.02043401,0.014814
 00,-0.28241560,-0.00006794,0.00004545,0.00010539,0.00078551,0.00149193
 ,-0.00651279,-0.00188195,-0.00053328,0.00080182,0.00019985,0.00035059,
 0.00014888,-0.00011451,-0.00016198,-0.00002188,0.00001866,0.00001303,-
 0.00005524,-0.00003778,0.00000981,0.00013689,-0.00012535,0.00003121,0.
 00023798,0.00219560,0.00178327,-0.01158491,-0.02173641,-0.00466576,0.3
 1226447,-0.00306609,0.00458154,-0.00276852,-0.00070572,0.00004173,-0.0
 0007031,0.00092005,-0.00081475,0.00113503,-0.00022756,0.00016138,-0.00
 014008,-0.01285358,-0.00237365,0.01141861,0.00016856,0.00015071,0.0001
 8012,-0.23813034,0.03233483,0.11534970,-0.00000716,-0.00000045,-0.0000
 2660,-0.00005690,0.00006389,-0.00018040,0.00000202,-0.00002430,0.00000
 754,0.00003065,-0.00001365,-0.00000884,0.00000887,0.00011346,0.0000320
 7,0.00043482,0.00048021,-0.00003509,-0.00011055,-0.00031894,-0.0006253
 4,0.00005467,-0.00000521,-0.00001368,-0.00000924,-0.00000181,-0.000040
 24,0.25813443,0.00457865,-0.00468751,0.00302288,0.00095352,-0.00013785
 ,0.00010328,0.00008539,0.00117544,-0.00091183,0.00009412,-0.00001288,0
 .00001921,0.01694395,-0.00073586,-0.01571049,-0.00009946,-0.00031010,-
 0.00009801,0.03062420,-0.05162350,-0.01678947,0.00000161,0.00004375,0.
 00000880,0.00002577,-0.00006662,0.00015069,-0.00001131,0.00000794,0.00
 000205,-0.00003398,-0.00001567,0.00000255,-0.00001526,-0.00005600,0.00
 000467,-0.00080966,-0.00013485,-0.00046074,-0.00024674,0.00068342,0.00
 027319,0.00001956,0.00003566,0.00000507,-0.00000113,0.00002659,0.00001
 946,-0.03650065,0.05274078,-0.00266179,0.00294696,-0.00079974,-0.00032
 943,0.00009739,-0.00008804,-0.00042943,0.00015504,0.00096825,-0.000069
 53,0.00004038,-0.00010232,-0.01258276,-0.00008322,0.00784174,0.0000102
 0,0.00009017,0.00003157,0.11745077,-0.01814971,-0.11736129,0.00000206,
 -0.00001489,-0.00001003,0.00005346,-0.00007294,-0.00004103,-0.00001824
 ,0.00000303,0.00000287,0.00001318,0.00001610,-0.00000648,0.00001077,0.
 00004532,0.00002033,0.00057641,-0.00038917,0.00039154,0.00025148,-0.00
 076867,0.00009737,0.00000815,-0.00002761,-0.00001088,-0.00000080,-0.00
 001175,-0.00000224,-0.12697063,0.01899929,0.12308125,0.00214358,-0.001
 57275,0.00003659,0.00014482,-0.00016987,0.00004330,-0.00013077,0.00034
 151,-0.00032074,0.00007476,0.00001641,0.00001846,0.00956624,0.01915763
 ,-0.00050943,-0.00007900,0.00010656,-0.00007490,-0.11602329,-0.1188420
 6,0.00293518,0.00000372,-0.00003848,0.00001546,0.00004873,-0.00003457,
 0.00009330,-0.00003233,0.00001529,0.00001447,-0.00008233,-0.00007753,-
 0.00000935,-0.00004611,-0.00004669,0.00002397,-0.00182602,0.00325092,-
 0.00143620,0.00077409,-0.00074943,0.00056917,-0.00004194,-0.00003495,0
 .00003845,0.00001001,-0.00000808,0.00001009,-0.01226563,-0.02298624,-0
 .00114094,0.12184459,-0.00055696,0.00210397,-0.00071757,0.00032641,0.0
 0027201,-0.00005080,-0.00011223,0.00001794,0.00017557,-0.00021460,0.00
 004059,-0.00002716,-0.01313104,-0.02286303,0.00114245,0.00001821,-0.00
 037313,0.00003176,-0.11648299,-0.24361208,0.00440760,-0.00000260,0.000
 08080,-0.00001968,-0.00008412,0.00003938,-0.00012343,0.00003688,-0.000
 01037,-0.00001022,0.00008783,0.00014738,-0.00000382,0.00006085,0.00006
 027,0.00000478,0.00338165,-0.00199881,0.00237940,0.00016380,0.00101515
 ,0.00008209,0.00007960,0.00008367,-0.00003725,-0.00001075,0.00002168,-
 0.00000036,0.00348363,0.00560762,-0.00001905,0.12629135,0.26592418,0.0
 0024800,-0.00146114,0.00021980,-0.00012840,-0.00009563,-0.00003591,0.0
 0026653,-0.00016024,-0.00012399,0.00008012,0.00004739,-0.00002467,0.00
 905189,0.01491395,-0.00119799,0.00005463,0.00008350,0.00007860,0.00176
 907,0.00394046,-0.04730225,-0.00000531,-0.00001108,-0.00000933,-0.0000
 3005,0.00005958,-0.00001447,-0.00003447,-0.00001160,0.00001366,-0.0000
 4785,-0.00006939,-0.00001696,-0.00003331,-0.00000987,0.00001777,-0.002
 25721,0.00222159,-0.00044035,0.00080663,-0.00013383,0.00011700,-0.0000
 0446,0.00000566,0.00007122,-0.00002176,0.00002881,-0.00005222,0.007143
 68,0.01486766,-0.00110419,-0.00124461,-0.00821345,0.04768337,0.0017272
 3,-0.00116665,0.00038968,0.00008832,0.00001084,0.00021262,-0.00041379,
 0.00047692,-0.00034454,0.00006506,-0.00005382,0.00003911,-0.00563907,-
 0.00493396,-0.01893741,-0.00004075,-0.00004665,-0.00009990,-0.05960429
 ,-0.01720168,-0.05598663,0.00000677,0.00000454,0.00000480,0.00004458,-
 0.00007658,0.00036841,-0.00003497,0.00005456,0.00004358,-0.00001965,-0
 .00001079,-0.00002458,-0.00000017,-0.00002709,0.00002122,0.00046379,-0
 .00019593,0.00087227,-0.00134591,0.00289566,-0.00121462,0.00000774,-0.
 00000101,-0.00004569,0.00001908,-0.00001169,0.00004467,0.00770496,0.00
 737006,0.02582910,-0.00410569,-0.00332035,-0.01561879,0.06108810,-0.00
 219378,0.00101014,-0.00087708,-0.00001308,0.00006748,-0.00016708,0.000
 12655,-0.00023463,0.00054781,0.00000880,0.00006497,-0.00011226,0.00661
 281,0.00670584,0.02626510,0.00001063,-0.00006526,0.00005783,-0.0174116
 7,-0.06687255,-0.06962741,-0.00000234,0.00000484,-0.00001876,0.0000032
 8,0.00000153,-0.00031532,0.00001657,-0.00003157,-0.00003053,-0.0000195
 4,-0.00002662,0.00005180,-0.00002549,0.00000743,-0.00000317,-0.0008199
 5,0.00108793,-0.00005221,0.00346490,-0.00300095,0.00186338,-0.00000318
 ,0.00000492,-0.00004019,-0.00000763,-0.00000655,-0.00001056,-0.0013537
 1,-0.00253986,-0.00285452,-0.00462088,-0.00655282,-0.02599430,0.016230
 52,0.07037187,0.00025936,-0.00006173,0.00146636,-0.00018423,0.00002642
 ,0.00012842,0.00019273,-0.00015223,0.00012525,-0.00002534,0.00002497,0
 .00000050,-0.00276167,-0.00403949,-0.01533771,0.00002187,0.00003565,-0
 .00004874,-0.05765147,-0.06741375,-0.28157151,0.00000327,0.00000635,0.
 00000748,0.00018419,-0.00014427,0.00013967,-0.00003779,0.00002101,0.00
 003765,-0.00001404,-0.00000583,-0.00004870,0.00000840,0.00002162,0.000
 01795,0.00030641,0.00033131,0.00034606,-0.00129146,0.00256193,0.000256
 46,0.00000778,0.00000239,-0.00002178,0.00001316,-0.00001681,0.00003353
 ,-0.00439512,-0.00350267,-0.01291288,0.00094567,0.00099392,0.00213024,
 0.06443638,0.07131031,0.30524448,-0.00032005,0.00040666,0.00009628,-0.
 00875047,-0.00167348,0.00290316,0.00111918,-0.00160795,-0.00107063,-0.
 00065753,-0.00005865,0.00023782,0.00014445,-0.00003435,-0.00017326,-0.
 00489546,-0.02691663,-0.01415225,-0.00003730,-0.00002095,0.00002915,-0
 .08221634,-0.08172854,-0.03218666,-0.00010390,0.00000391,0.00015630,0.
 00001892,0.00003332,-0.00001430,-0.00005323,-0.00021494,-0.00007926,0.
 00001389,0.00000412,0.00002067,-0.00000862,0.00000111,0.00001566,-0.00
 001444,-0.00000864,0.00002803,0.00031628,0.00085467,-0.00070962,0.0007
 6127,0.00002295,0.00070877,-0.00001740,0.00001824,-0.00000422,0.000001
 00,0.00001723,-0.00000943,0.00000404,0.00000286,-0.00000329,0.08808006
 ,-0.00049321,0.00014077,0.00009893,-0.00160674,0.00070603,0.00072966,0
 .00093819,0.00037003,-0.00049990,-0.00007019,-0.00001544,0.00002994,0.
 00014266,-0.00002091,-0.00015381,0.00173226,-0.00310661,-0.00107141,-0
 .00002669,-0.00000270,0.00002022,-0.08415638,-0.24593178,-0.08098961,-
 0.00005472,-0.00000472,0.00008025,0.00002038,0.00000521,0.00000280,-0.
 00002293,-0.00002438,-0.00000626,0.00001684,0.00001880,-0.00001042,-0.
 00002119,-0.00000722,0.00001685,-0.00000459,0.00000182,0.00002260,-0.0
 0051004,0.00021119,0.00015316,-0.00038125,-0.00002386,0.00043543,-0.00
 001877,0.00001144,-0.00000047,0.00000663,0.00000266,-0.00000667,0.0000
 0489,0.00000037,-0.00000379,0.09268117,0.26488112,0.00002594,-0.000011
 72,-0.00006928,0.00251305,0.00057719,0.00005057,0.00024954,0.00038558,
 0.00083734,0.00016962,0.00004524,-0.00010543,0.00004845,-0.00001136,0.
 00002556,0.00209301,0.00925255,0.00204843,-0.00000070,-0.00000880,-0.0
 0000670,-0.03354236,-0.08177158,-0.07836592,-0.00009720,-0.00002748,-0
 .00002838,0.00001490,-0.00001063,0.00000422,0.00001021,0.00005430,0.00
 002513,-0.00000215,0.00000068,-0.00000699,-0.00000534,0.00000058,-0.00
 000365,-0.00000036,-0.00000083,-0.00000493,-0.00044899,-0.00016364,0.0
 0018701,-0.00056585,0.00006866,-0.00009832,-0.00000076,0.00000122,0.00
 000140,0.00000085,0.00000274,0.00000289,0.00000022,0.00000047,-0.00000
 282,0.03572767,0.08888895,0.08077980,-0.00013463,-0.00075438,-0.000068
 57,0.00324875,0.00022203,0.00005596,-0.00053982,0.00045334,0.00009636,
 0.00001200,0.00000652,-0.00001555,0.00025499,-0.00006991,-0.00005089,-
 0.02053298,0.02705197,-0.01247992,0.00002233,0.00003353,-0.00000744,-0
 .12676860,0.10944739,-0.05277608,0.00003484,0.00002332,-0.00000019,-0.
 00001451,-0.00000032,-0.00000109,0.00001979,0.00000373,0.00000259,-0.0
 0000777,-0.00007530,0.00000861,-0.00007114,-0.00002692,0.00002700,0.00
 001668,0.00003042,0.00000613,-0.00520584,-0.00183510,0.00246791,0.0013
 5720,-0.00017780,0.00018266,-0.00001278,-0.00001216,0.00000696,0.00002
 092,-0.00003584,0.00000118,-0.00000004,-0.00000466,-0.00000532,0.00693
 247,-0.00947956,0.00564155,0.14062471,0.00006361,-0.00007456,-0.000054
 37,0.00073333,0.00158814,-0.00002587,-0.00040029,0.00008873,0.00018408
 ,0.00010516,0.00001242,-0.00001841,-0.00008411,-0.00003506,0.00003958,
 -0.00345168,0.00242103,-0.00201885,0.00000617,-0.00000881,-0.00000722,
 0.11203685,-0.19765244,0.07277238,0.00004468,0.00000135,-0.00004634,-0
 .00000841,-0.00000610,0.00000137,0.00002551,0.00003355,0.00001211,-0.0
 0000303,-0.00000509,0.00000249,0.00000291,0.00001275,-0.00000105,0.000
 00573,-0.00000349,-0.00000536,-0.00128832,0.00084782,-0.00024614,0.000
 60763,0.00020641,-0.00048867,0.00001081,-0.00000267,-0.00000375,-0.000
 00579,0.00000460,0.00000238,-0.00000211,0.00000115,0.00000255,0.015208
 03,-0.01831995,0.01054710,-0.12226359,0.21044248,0.00023954,0.00007909
 ,-0.00000604,-0.00099686,-0.00005700,-0.00027205,-0.00011586,-0.000256
 45,0.00002723,-0.00001551,0.00001277,-0.00003255,-0.00005205,0.0000345
 7,0.00006808,0.00655148,-0.00910238,0.00374469,0.00000346,-0.00000475,
 -0.00000819,-0.05354216,0.07349079,-0.08248848,0.00004284,0.00000613,-
 0.00006363,-0.00002212,0.00000202,-0.00001785,0.00001507,-0.00001488,-
 0.00000490,-0.00001492,-0.00001503,0.00002925,0.00001133,0.00000141,-0
 .00001480,-0.00000166,-0.00001074,-0.00001029,0.00223344,0.00061293,0.
 00042160,-0.00043445,-0.00080548,0.00045215,0.00000445,-0.00000300,0.0
 0000204,-0.00000393,0.00000082,-0.00000287,0.00000211,0.00000441,0.000
 00053,0.00778095,-0.00885499,0.00344616,0.05593989,-0.07964154,0.08444
 091,0.00010853,0.00000138,-0.00020069,0.00255672,0.00134551,-0.0012266
 1,-0.00036042,-0.00007767,0.00041095,0.00004341,0.00004335,-0.00016779
 ,0.00001909,0.00003392,0.00010927,-0.00338574,-0.00005762,0.03650019,0
 .00000812,-0.00001608,-0.00001390,-0.04722953,0.00037349,0.01478797,0.
 00014767,0.00001013,-0.00037410,-0.00002840,-0.00008004,-0.00003031,0.
 00000953,0.00002236,0.00000702,-0.00000136,0.00000235,0.00000118,0.000
 00190,-0.00000083,-0.00002102,0.00002980,-0.00000588,-0.00005097,0.001
 38101,0.00044037,-0.00036377,-0.00611437,-0.00129808,0.00130113,0.0000
 0394,0.00000151,-0.00000478,0.00000066,0.00000404,0.00001391,-0.000015
 33,-0.00000104,-0.00000949,-0.00031682,0.00130324,-0.01183132,0.000743
 42,-0.00134308,-0.01762504,0.05239818,0.00020968,-0.00016003,-0.000016
 82,0.00076557,0.00057511,0.00039474,-0.00052196,-0.00007966,0.00013641
 ,0.00005715,0.00000661,-0.00002049,-0.00003573,0.00000887,0.00004704,-
 0.00088191,-0.00098068,0.00346510,0.00001684,0.00001208,-0.00000834,0.
 00111715,-0.04649440,0.00130928,0.00003698,-0.00006642,-0.00015577,-0.
 00004063,-0.00001204,-0.00002709,0.00002290,0.00001736,-0.00001317,-0.
 00000766,-0.00001164,0.00001668,-0.00000268,-0.00000301,-0.00000160,0.
 00000795,0.00000039,-0.00000838,0.00014868,-0.00010670,-0.00063959,-0.
 00066920,0.00076687,0.00016006,0.00000371,-0.00000927,0.00000205,0.000
 00103,-0.00001167,-0.00000380,0.00000032,0.00000234,0.00000217,0.00300
 986,0.00110813,-0.02781924,-0.00253671,0.00044773,0.02452129,-0.000701
 33,0.04499006,0.00013090,0.00005695,0.00008266,-0.00013662,0.00049284,
 0.00095429,-0.00024985,0.00001386,0.00025433,0.00007877,0.00001394,0.0
 0000208,-0.00006665,-0.00001624,-0.00002898,0.00047535,-0.00063505,-0.
 00980266,0.00000183,0.00000340,0.00000289,0.01741278,0.00167472,-0.314
 18376,-0.00020134,-0.00010974,0.00005576,0.00002639,0.00001695,0.00002
 261,0.00000763,0.00002654,0.00001322,-0.00000153,-0.00000499,-0.000017
 73,0.00001615,0.00000862,0.00000438,-0.00000969,0.00000102,0.00002774,
 0.00032529,-0.00013782,0.00063105,0.00172817,-0.00017662,0.00111742,0.
 00000438,-0.00000381,0.00000075,-0.00000485,0.00000165,-0.00000935,0.0
 0000800,0.00000225,0.00000956,0.00069847,0.00111854,-0.00871611,0.0009
 6825,-0.00100648,-0.00971099,-0.02121182,-0.00134052,0.33929083\\0.000
 00109,-0.00000540,-0.00000363,-0.00000361,-0.00000070,0.00000757,0.000
 01340,-0.00000678,-0.00002185,0.00000188,0.00000593,-0.00000095,0.0000
 0234,-0.00000103,0.00000001,0.00000157,-0.00000100,-0.00000191,-0.0000
 0616,0.00000434,0.00000292,-0.00000007,-0.00000178,0.00000329,-0.00000
 021,-0.00000197,-0.00000320,-0.00000043,0.00000567,0.00000258,-0.00000
 335,0.00000011,0.00000237,0.00000116,0.00000156,0.00000214,-0.00000141
 ,-0.00000009,-0.00000223,-0.00000780,0.00000465,0.00000388,-0.00000142
 ,0.00000060,0.00000197,-0.00000385,-0.00000064,0.00000130,-0.00000157,
 0.00000120,0.00000031,0.00000307,-0.00000145,0.00000319,0.00000326,-0.
 00000258,0.00000024,0.00000012,0.00000034,0.00000151,0.00000135,-0.000
 00094,-0.00000104,0.00000063,-0.00000003,0.00000152\\\@


 The number of Unix installations has grown to 10,
  with more expected.
                  -- The Unix Programmer's Manual,
                     2nd Edition, June, 1972.
 Job cpu time:       0 days  2 hours 18 minutes 19.3 seconds.
 Elapsed time:       0 days  0 hours  8 minutes 41.5 seconds.
 File lengths (MBytes):  RWF=    147 Int=      0 D2E=      0 Chk=      7 Scr=      1
 Normal termination of Gaussian 16 at Wed Oct  1 21:23:56 2025.
