 Entering Gaussian System, Link 0=g16
 Input=EBBB0051.gjf
 Output=EBBB0051.log
 Initial command:
 /usr/local/g16/l1.exe "/dados_01/scratch/Gau-2413401.inp" -scrdir="/dados_01/scratch/"
 Entering Link 1 = /usr/local/g16/l1.exe PID=   2413402.
  
 Copyright (c) 1988-2017, Gaussian, Inc.  All Rights Reserved.
  
 This is part of the Gaussian(R) 16 program.  It is based on
 the Gaussian(R) 09 system (copyright 2009, Gaussian, Inc.),
 the Gaussian(R) 03 system (copyright 2003, Gaussian, Inc.),
 the Gaussian(R) 98 system (copyright 1998, Gaussian, Inc.),
 the Gaussian(R) 94 system (copyright 1995, Gaussian, Inc.),
 the Gaussian 92(TM) system (copyright 1992, Gaussian, Inc.),
 the Gaussian 90(TM) system (copyright 1990, Gaussian, Inc.),
 the Gaussian 88(TM) system (copyright 1988, Gaussian, Inc.),
 the Gaussian 86(TM) system (copyright 1986, Carnegie Mellon
 University), and the Gaussian 82(TM) system (copyright 1983,
 Carnegie Mellon University). Gaussian is a federally registered
 trademark of Gaussian, Inc.
  
 This software contains proprietary and confidential information,
 including trade secrets, belonging to Gaussian, Inc.
  
 This software is provided under written license and may be
 used, copied, transmitted, or stored only in accord with that
 written license.
  
 The following legend is applicable only to US Government
 contracts under FAR:
  
                    RESTRICTED RIGHTS LEGEND
  
 Use, reproduction and disclosure by the US Government is
 subject to restrictions as set forth in subparagraphs (a)
 and (c) of the Commercial Computer Software - Restricted
 Rights clause in FAR 52.227-19.
  
 Gaussian, Inc.
 340 Quinnipiac St., Bldg. 40, Wallingford CT 06492
  
  
 ---------------------------------------------------------------
 Warning -- This program may not be used in any manner that
 competes with the business of Gaussian, Inc. or will provide
 assistance to any competitor of Gaussian, Inc.  The licensee
 of this program is prohibited from giving any competitor of
 Gaussian, Inc. access to this program.  By using this program,
 the user acknowledges that Gaussian, Inc. is engaged in the
 business of creating and licensing software in the field of
 computational chemistry and represents and warrants to the
 licensee that it is not a competitor of Gaussian, Inc. and that
 it will not use this program in any manner prohibited above.
 ---------------------------------------------------------------
  

 Cite this work as:
 Gaussian 16, Revision B.01,
 M. J. Frisch, G. W. Trucks, H. B. Schlegel, G. E. Scuseria, 
 M. A. Robb, J. R. Cheeseman, G. Scalmani, V. Barone, 
 G. A. Petersson, H. Nakatsuji, X. Li, M. Caricato, A. V. Marenich, 
 J. Bloino, B. G. Janesko, R. Gomperts, B. Mennucci, H. P. Hratchian, 
 J. V. Ortiz, A. F. Izmaylov, J. L. Sonnenberg, D. Williams-Young, 
 F. Ding, F. Lipparini, F. Egidi, J. Goings, B. Peng, A. Petrone, 
 T. Henderson, D. Ranasinghe, V. G. Zakrzewski, J. Gao, N. Rega, 
 G. Zheng, W. Liang, M. Hada, M. Ehara, K. Toyota, R. Fukuda, 
 J. Hasegawa, M. Ishida, T. Nakajima, Y. Honda, O. Kitao, H. Nakai, 
 T. Vreven, K. Throssell, J. A. Montgomery, Jr., J. E. Peralta, 
 F. Ogliaro, M. J. Bearpark, J. J. Heyd, E. N. Brothers, K. N. Kudin, 
 V. N. Staroverov, T. A. Keith, R. Kobayashi, J. Normand, 
 K. Raghavachari, A. P. Rendell, J. C. Burant, S. S. Iyengar, 
 J. Tomasi, M. Cossi, J. M. Millam, M. Klene, C. Adamo, R. Cammi, 
 J. W. Ochterski, R. L. Martin, K. Morokuma, O. Farkas, 
 J. B. Foresman, and D. J. Fox, Gaussian, Inc., Wallingford CT, 2016.
 
 ******************************************
 Gaussian 16:  ES64L-G16RevB.01 20-Dec-2017
                 1-Oct-2025 
 ******************************************
 %nprocs=16
 Will use up to   16 processors via shared memory.
 %mem=40GB
 %chk=EBBB0051.chk
 ----------------------------------------------------------------------
 # opt freq=noraman M08HX/6-311++G** scf=xqc Empiricaldispersion=pfd In
 t(Grid=ultraFine)
 ----------------------------------------------------------------------
 1/18=20,19=15,26=4,38=1/1,3;
 2/9=110,12=2,17=6,18=5,40=1/2;
 3/5=4,6=6,7=1111,11=2,25=1,30=1,71=1,74=-74,75=-5,124=11/1,2,3;
 4//1;
 5/5=2,8=3,13=1,38=5/2,8;
 6/7=2,8=2,9=2,10=2,28=1/1;
 7//1,2,3,16;
 1/18=20,19=15,26=4/3(2);
 2/9=110/2;
 99//99;
 2/9=110/2;
 3/5=4,6=6,7=1111,11=2,25=1,30=1,71=1,74=-74,75=-5,124=11/1,2,3;
 4/5=5,16=3,69=1/1;
 5/5=2,8=3,13=1,38=5/2,8;
 7//1,2,3,16;
 1/18=20,19=15,26=4/3(-5);
 2/9=110/2;
 6/7=2,8=2,9=2,10=2,19=2,28=1/1;
 99/9=1/99;
 --------
 EBBB0051
 --------
 Symbolic Z-matrix:
 Charge =  0 Multiplicity = 2
 Br                    6.5373    11.8553   7.6829 
 S                     2.8586    8.746     14.5211 
 N                     3.8801    8.7204    13.1896 
 O                     4.3557    5.0712    11.4051 
 O                     3.7035    9.0492    15.6441 
 O                     1.7541    9.6096    14.1754 
 C                     5.1733    8.0424    13.3057 
 C                     5.3935    6.858     12.5755 
 C                     3.0638    7.0956    11.5016 
 C                     3.2306    8.5764    11.85 
 H                     2.4114    8.976     11.9576 
 C                     4.0736    9.3744    10.834 
 C                     6.2109    8.568     14.1027 
 H                     6.0486    9.384     14.5512 
 C                     4.295     8.88      9.5577 
 H                     3.9504    8.052     9.2935 
 C                     4.2751    6.2412    11.7854 
 C                     5.5154    10.86     8.9707 
 C                     4.5916    10.6296   11.1578 
 H                     4.4141    10.956    12.015 
 C                     6.6743    6.2256    12.6518 
 H                     6.7748    5.448     12.1334 
 C                     5.3103    11.3844   10.2229 
 H                     5.638     12.192    10.4043 
 C                     1.9319    6.5064    11.0302 
 H                     1.9783    5.508     10.9745 
 C                     7.4514    7.902     14.1717 
 H                     8.1496    8.244     14.7549 
 C                     5.016     9.6204    8.6178 
 H                     5.2198    9.3       7.8495 
 C                     7.6829    6.7488    13.4497 
 H                     8.4557    6.324     13.533 
 C                     0.6094    7.11      10.6668 
 C                     0.492     8.34      10.0211 
 H                     1.3009    8.868     9.8027 
 C                    -0.5819    6.3708    10.9616 
 H                    -0.4968    5.484     11.404 
 C                    -1.8581    6.8388    10.6265 
 H                    -2.8414    6.36      10.9042 
 Br                   -3.8162    8.5344    9.6582 
 C                    -0.8271    8.8128    9.6694 
 H                    -0.7459    9.576     9.3121 
 C                    -1.9603    8.0556    9.9933 
 C                     2.2376    7.092     14.7064 
 C                     3.1004    6.1212    15.2362 
 H                     3.9972    6.36      15.588 
 C                     0.9529    6.762     14.2624 
 H                     0.3979    7.38      13.9218 
 C                     0.518     5.4444    14.3476 
 H                    -0.4472    5.256     13.9959 
 C                     1.3454    4.4832    14.8493 
 H                     0.9754    3.504     14.903 
 C                     2.6246    4.7952    15.2807 
 H                     3.2164    4.248     15.6435 
 Br                   -3.4713    9.0924    9.1677 
 

 GradGradGradGradGradGradGradGradGradGradGradGradGradGradGradGradGradGrad
 Berny optimization.
 Initialization pass.
                           ----------------------------
                           !    Initial Parameters    !
                           ! (Angstroms and Degrees)  !
 --------------------------                            --------------------------
 ! Name  Definition              Value          Derivative Info.                !
 --------------------------------------------------------------------------------
 ! R1    R(1,18)                 1.9218         estimate D2E/DX2                !
 ! R2    R(2,3)                  1.6784         estimate D2E/DX2                !
 ! R3    R(2,5)                  1.4377         estimate D2E/DX2                !
 ! R4    R(2,6)                  1.444          estimate D2E/DX2                !
 ! R5    R(2,44)                 1.7764         estimate D2E/DX2                !
 ! R6    R(3,7)                  1.4648         estimate D2E/DX2                !
 ! R7    R(3,10)                 1.4957         estimate D2E/DX2                !
 ! R8    R(4,17)                 1.2329         estimate D2E/DX2                !
 ! R9    R(7,8)                  1.4087         estimate D2E/DX2                !
 ! R10   R(7,13)                 1.41           estimate D2E/DX2                !
 ! R11   R(8,17)                 1.5018         estimate D2E/DX2                !
 ! R12   R(8,21)                 1.4305         estimate D2E/DX2                !
 ! R13   R(9,10)                 1.5304         estimate D2E/DX2                !
 ! R14   R(9,17)                 1.5092         estimate D2E/DX2                !
 ! R15   R(9,25)                 1.3604         estimate D2E/DX2                !
 ! R16   R(10,11)                0.9178         estimate D2E/DX2                !
 ! R17   R(10,12)                1.5426         estimate D2E/DX2                !
 ! R18   R(12,15)                1.3865         estimate D2E/DX2                !
 ! R19   R(12,19)                1.396          estimate D2E/DX2                !
 ! R20   R(13,14)                0.9452         estimate D2E/DX2                !
 ! R21   R(13,27)                1.4097         estimate D2E/DX2                !
 ! R22   R(15,16)                0.935          estimate D2E/DX2                !
 ! R23   R(15,29)                1.3969         estimate D2E/DX2                !
 ! R24   R(18,23)                1.373          estimate D2E/DX2                !
 ! R25   R(18,29)                1.3822         estimate D2E/DX2                !
 ! R26   R(19,20)                0.9343         estimate D2E/DX2                !
 ! R27   R(19,23)                1.4001         estimate D2E/DX2                !
 ! R28   R(21,22)                0.9399         estimate D2E/DX2                !
 ! R29   R(21,31)                1.3884         estimate D2E/DX2                !
 ! R30   R(23,24)                0.8902         estimate D2E/DX2                !
 ! R31   R(25,26)                1.001          estimate D2E/DX2                !
 ! R32   R(25,33)                1.4985         estimate D2E/DX2                !
 ! R33   R(27,28)                0.9719         estimate D2E/DX2                !
 ! R34   R(27,31)                1.3801         estimate D2E/DX2                !
 ! R35   R(29,30)                0.857          estimate D2E/DX2                !
 ! R36   R(31,32)                0.8858         estimate D2E/DX2                !
 ! R37   R(33,34)                1.3941         estimate D2E/DX2                !
 ! R38   R(33,36)                1.4327         estimate D2E/DX2                !
 ! R39   R(34,35)                0.9904         estimate D2E/DX2                !
 ! R40   R(34,41)                1.4447         estimate D2E/DX2                !
 ! R41   R(36,37)                0.9947         estimate D2E/DX2                !
 ! R42   R(36,38)                1.4            estimate D2E/DX2                !
 ! R43   R(38,39)                1.1284         estimate D2E/DX2                !
 ! R44   R(38,43)                1.3755         estimate D2E/DX2                !
 ! R45   R(40,43)                1.9457         estimate D2E/DX2                !
 ! R46   R(40,55)                0.8191         estimate D2E/DX2                !
 ! R47   R(41,42)                0.8466         estimate D2E/DX2                !
 ! R48   R(41,43)                1.4009         estimate D2E/DX2                !
 ! R49   R(43,55)                2.0099         estimate D2E/DX2                !
 ! R50   R(44,45)                1.4027         estimate D2E/DX2                !
 ! R51   R(44,47)                1.3987         estimate D2E/DX2                !
 ! R52   R(45,46)                0.9925         estimate D2E/DX2                !
 ! R53   R(45,53)                1.4095         estimate D2E/DX2                !
 ! R54   R(47,48)                0.8978         estimate D2E/DX2                !
 ! R55   R(47,49)                1.3901         estimate D2E/DX2                !
 ! R56   R(49,50)                1.0444         estimate D2E/DX2                !
 ! R57   R(49,51)                1.3639         estimate D2E/DX2                !
 ! R58   R(51,52)                1.0481         estimate D2E/DX2                !
 ! R59   R(51,53)                1.3856         estimate D2E/DX2                !
 ! R60   R(53,54)                0.8839         estimate D2E/DX2                !
 ! A1    A(3,2,5)              105.38           estimate D2E/DX2                !
 ! A2    A(3,2,6)              106.5419         estimate D2E/DX2                !
 ! A3    A(3,2,44)             106.3384         estimate D2E/DX2                !
 ! A4    A(5,2,6)              120.6889         estimate D2E/DX2                !
 ! A5    A(5,2,44)             108.6825         estimate D2E/DX2                !
 ! A6    A(6,2,44)             108.3258         estimate D2E/DX2                !
 ! A7    A(2,3,7)              118.7842         estimate D2E/DX2                !
 ! A8    A(2,3,10)             116.5964         estimate D2E/DX2                !
 ! A9    A(7,3,10)             114.1929         estimate D2E/DX2                !
 ! A10   A(3,7,8)              119.0837         estimate D2E/DX2                !
 ! A11   A(3,7,13)             121.4636         estimate D2E/DX2                !
 ! A12   A(8,7,13)             119.4311         estimate D2E/DX2                !
 ! A13   A(7,8,17)             120.1053         estimate D2E/DX2                !
 ! A14   A(7,8,21)             118.9477         estimate D2E/DX2                !
 ! A15   A(17,8,21)            120.882          estimate D2E/DX2                !
 ! A16   A(10,9,17)            114.6766         estimate D2E/DX2                !
 ! A17   A(10,9,25)            126.0633         estimate D2E/DX2                !
 ! A18   A(17,9,25)            119.1942         estimate D2E/DX2                !
 ! A19   A(3,10,9)             110.1445         estimate D2E/DX2                !
 ! A20   A(3,10,11)            103.9265         estimate D2E/DX2                !
 ! A21   A(3,10,12)            107.6243         estimate D2E/DX2                !
 ! A22   A(9,10,11)            110.5301         estimate D2E/DX2                !
 ! A23   A(9,10,12)            114.2155         estimate D2E/DX2                !
 ! A24   A(11,10,12)           109.8617         estimate D2E/DX2                !
 ! A25   A(10,12,15)           120.6019         estimate D2E/DX2                !
 ! A26   A(10,12,19)           121.0073         estimate D2E/DX2                !
 ! A27   A(15,12,19)           118.3523         estimate D2E/DX2                !
 ! A28   A(7,13,14)            117.6249         estimate D2E/DX2                !
 ! A29   A(7,13,27)            119.9427         estimate D2E/DX2                !
 ! A30   A(14,13,27)           122.3959         estimate D2E/DX2                !
 ! A31   A(12,15,16)           121.135          estimate D2E/DX2                !
 ! A32   A(12,15,29)           120.8487         estimate D2E/DX2                !
 ! A33   A(16,15,29)           118.0011         estimate D2E/DX2                !
 ! A34   A(4,17,8)             120.2212         estimate D2E/DX2                !
 ! A35   A(4,17,9)             122.1205         estimate D2E/DX2                !
 ! A36   A(8,17,9)             117.6524         estimate D2E/DX2                !
 ! A37   A(1,18,23)            119.5233         estimate D2E/DX2                !
 ! A38   A(1,18,29)            119.0448         estimate D2E/DX2                !
 ! A39   A(23,18,29)           121.4271         estimate D2E/DX2                !
 ! A40   A(12,19,20)           117.1592         estimate D2E/DX2                !
 ! A41   A(12,19,23)           121.3549         estimate D2E/DX2                !
 ! A42   A(20,19,23)           121.4559         estimate D2E/DX2                !
 ! A43   A(8,21,22)            115.5981         estimate D2E/DX2                !
 ! A44   A(8,21,31)            120.9642         estimate D2E/DX2                !
 ! A45   A(22,21,31)           123.4377         estimate D2E/DX2                !
 ! A46   A(18,23,19)           118.6705         estimate D2E/DX2                !
 ! A47   A(18,23,24)           118.5122         estimate D2E/DX2                !
 ! A48   A(19,23,24)           122.817          estimate D2E/DX2                !
 ! A49   A(9,25,26)            114.3744         estimate D2E/DX2                !
 ! A50   A(9,25,33)            130.085          estimate D2E/DX2                !
 ! A51   A(26,25,33)           115.4149         estimate D2E/DX2                !
 ! A52   A(13,27,28)           119.6898         estimate D2E/DX2                !
 ! A53   A(13,27,31)           121.116          estimate D2E/DX2                !
 ! A54   A(28,27,31)           119.1731         estimate D2E/DX2                !
 ! A55   A(15,29,18)           119.342          estimate D2E/DX2                !
 ! A56   A(15,29,30)           121.8546         estimate D2E/DX2                !
 ! A57   A(18,29,30)           118.5708         estimate D2E/DX2                !
 ! A58   A(21,31,27)           119.5818         estimate D2E/DX2                !
 ! A59   A(21,31,32)           120.4715         estimate D2E/DX2                !
 ! A60   A(27,31,32)           119.859          estimate D2E/DX2                !
 ! A61   A(25,33,34)           122.822          estimate D2E/DX2                !
 ! A62   A(25,33,36)           118.4339         estimate D2E/DX2                !
 ! A63   A(34,33,36)           118.7179         estimate D2E/DX2                !
 ! A64   A(33,34,35)           120.2472         estimate D2E/DX2                !
 ! A65   A(33,34,41)           118.5786         estimate D2E/DX2                !
 ! A66   A(35,34,41)           121.1709         estimate D2E/DX2                !
 ! A67   A(33,36,37)           118.7105         estimate D2E/DX2                !
 ! A68   A(33,36,38)           122.4298         estimate D2E/DX2                !
 ! A69   A(37,36,38)           118.8476         estimate D2E/DX2                !
 ! A70   A(36,38,39)           126.4138         estimate D2E/DX2                !
 ! A71   A(36,38,43)           118.2705         estimate D2E/DX2                !
 ! A72   A(39,38,43)           115.0819         estimate D2E/DX2                !
 ! A73   A(34,41,42)           108.0705         estimate D2E/DX2                !
 ! A74   A(34,41,43)           120.3586         estimate D2E/DX2                !
 ! A75   A(42,41,43)           131.4868         estimate D2E/DX2                !
 ! A76   A(38,43,40)           111.5822         estimate D2E/DX2                !
 ! A77   A(38,43,41)           121.6344         estimate D2E/DX2                !
 ! A78   A(38,43,55)           134.53           estimate D2E/DX2                !
 ! A79   A(40,43,41)           126.7805         estimate D2E/DX2                !
 ! A80   A(41,43,55)           103.5524         estimate D2E/DX2                !
 ! A81   A(2,44,45)            117.9545         estimate D2E/DX2                !
 ! A82   A(2,44,47)            120.5061         estimate D2E/DX2                !
 ! A83   A(45,44,47)           121.4368         estimate D2E/DX2                !
 ! A84   A(44,45,46)           121.544          estimate D2E/DX2                !
 ! A85   A(44,45,53)           117.0898         estimate D2E/DX2                !
 ! A86   A(46,45,53)           121.3449         estimate D2E/DX2                !
 ! A87   A(44,47,48)           121.7239         estimate D2E/DX2                !
 ! A88   A(44,47,49)           119.4393         estimate D2E/DX2                !
 ! A89   A(48,47,49)           118.8368         estimate D2E/DX2                !
 ! A90   A(47,49,50)           116.0693         estimate D2E/DX2                !
 ! A91   A(47,49,51)           120.0486         estimate D2E/DX2                !
 ! A92   A(50,49,51)           123.8746         estimate D2E/DX2                !
 ! A93   A(49,51,52)           117.5864         estimate D2E/DX2                !
 ! A94   A(49,51,53)           121.0583         estimate D2E/DX2                !
 ! A95   A(52,51,53)           121.3535         estimate D2E/DX2                !
 ! A96   A(45,53,51)           120.9084         estimate D2E/DX2                !
 ! A97   A(45,53,54)           111.6756         estimate D2E/DX2                !
 ! A98   A(51,53,54)           127.3388         estimate D2E/DX2                !
 ! D1    D(5,2,3,7)             43.7091         estimate D2E/DX2                !
 ! D2    D(5,2,3,10)          -173.3521         estimate D2E/DX2                !
 ! D3    D(6,2,3,7)            173.0465         estimate D2E/DX2                !
 ! D4    D(6,2,3,10)           -44.0147         estimate D2E/DX2                !
 ! D5    D(44,2,3,7)           -71.5579         estimate D2E/DX2                !
 ! D6    D(44,2,3,10)           71.3809         estimate D2E/DX2                !
 ! D7    D(3,2,44,45)           75.1566         estimate D2E/DX2                !
 ! D8    D(3,2,44,47)         -101.213          estimate D2E/DX2                !
 ! D9    D(5,2,44,45)          -37.8526         estimate D2E/DX2                !
 ! D10   D(5,2,44,47)          145.7778         estimate D2E/DX2                !
 ! D11   D(6,2,44,45)         -170.6609         estimate D2E/DX2                !
 ! D12   D(6,2,44,47)           12.9695         estimate D2E/DX2                !
 ! D13   D(2,3,7,8)            111.8541         estimate D2E/DX2                !
 ! D14   D(2,3,7,13)           -69.847          estimate D2E/DX2                !
 ! D15   D(10,3,7,8)           -31.9333         estimate D2E/DX2                !
 ! D16   D(10,3,7,13)          146.3657         estimate D2E/DX2                !
 ! D17   D(2,3,10,9)           -88.2829         estimate D2E/DX2                !
 ! D18   D(2,3,10,11)           30.1301         estimate D2E/DX2                !
 ! D19   D(2,3,10,12)          146.6209         estimate D2E/DX2                !
 ! D20   D(7,3,10,9)            56.3326         estimate D2E/DX2                !
 ! D21   D(7,3,10,11)          174.7456         estimate D2E/DX2                !
 ! D22   D(7,3,10,12)          -68.7636         estimate D2E/DX2                !
 ! D23   D(3,7,8,17)            -5.228          estimate D2E/DX2                !
 ! D24   D(3,7,8,21)           177.6793         estimate D2E/DX2                !
 ! D25   D(13,7,8,17)          176.4379         estimate D2E/DX2                !
 ! D26   D(13,7,8,21)           -0.6547         estimate D2E/DX2                !
 ! D27   D(3,7,13,14)           -0.9619         estimate D2E/DX2                !
 ! D28   D(3,7,13,27)         -178.8183         estimate D2E/DX2                !
 ! D29   D(8,7,13,14)          177.3313         estimate D2E/DX2                !
 ! D30   D(8,7,13,27)           -0.5252         estimate D2E/DX2                !
 ! D31   D(7,8,17,4)          -163.171          estimate D2E/DX2                !
 ! D32   D(7,8,17,9)            15.9628         estimate D2E/DX2                !
 ! D33   D(21,8,17,4)           13.8646         estimate D2E/DX2                !
 ! D34   D(21,8,17,9)         -167.0016         estimate D2E/DX2                !
 ! D35   D(7,8,21,22)         -178.8731         estimate D2E/DX2                !
 ! D36   D(7,8,21,31)            1.2087         estimate D2E/DX2                !
 ! D37   D(17,8,21,22)           4.0575         estimate D2E/DX2                !
 ! D38   D(17,8,21,31)        -175.8607         estimate D2E/DX2                !
 ! D39   D(17,9,10,3)          -44.7153         estimate D2E/DX2                !
 ! D40   D(17,9,10,11)        -158.9902         estimate D2E/DX2                !
 ! D41   D(17,9,10,12)          76.5229         estimate D2E/DX2                !
 ! D42   D(25,9,10,3)          132.2881         estimate D2E/DX2                !
 ! D43   D(25,9,10,11)          18.0132         estimate D2E/DX2                !
 ! D44   D(25,9,10,12)        -106.4737         estimate D2E/DX2                !
 ! D45   D(10,9,17,4)         -170.6554         estimate D2E/DX2                !
 ! D46   D(10,9,17,8)           10.2283         estimate D2E/DX2                !
 ! D47   D(25,9,17,4)           12.1193         estimate D2E/DX2                !
 ! D48   D(25,9,17,8)         -166.997          estimate D2E/DX2                !
 ! D49   D(10,9,25,26)        -172.3425         estimate D2E/DX2                !
 ! D50   D(10,9,25,33)           3.3359         estimate D2E/DX2                !
 ! D51   D(17,9,25,26)           4.5382         estimate D2E/DX2                !
 ! D52   D(17,9,25,33)        -179.7834         estimate D2E/DX2                !
 ! D53   D(3,10,12,15)         140.7555         estimate D2E/DX2                !
 ! D54   D(3,10,12,19)         -41.5397         estimate D2E/DX2                !
 ! D55   D(9,10,12,15)          18.1337         estimate D2E/DX2                !
 ! D56   D(9,10,12,19)        -164.1615         estimate D2E/DX2                !
 ! D57   D(11,10,12,15)       -106.7086         estimate D2E/DX2                !
 ! D58   D(11,10,12,19)         70.9961         estimate D2E/DX2                !
 ! D59   D(10,12,15,16)         -0.9238         estimate D2E/DX2                !
 ! D60   D(10,12,15,29)        177.6285         estimate D2E/DX2                !
 ! D61   D(19,12,15,16)       -178.6884         estimate D2E/DX2                !
 ! D62   D(19,12,15,29)         -0.1361         estimate D2E/DX2                !
 ! D63   D(10,12,19,20)          0.7317         estimate D2E/DX2                !
 ! D64   D(10,12,19,23)       -177.3036         estimate D2E/DX2                !
 ! D65   D(15,12,19,20)        178.4869         estimate D2E/DX2                !
 ! D66   D(15,12,19,23)          0.4516         estimate D2E/DX2                !
 ! D67   D(7,13,27,28)        -177.095          estimate D2E/DX2                !
 ! D68   D(7,13,27,31)           1.2213         estimate D2E/DX2                !
 ! D69   D(14,13,27,28)          5.1543         estimate D2E/DX2                !
 ! D70   D(14,13,27,31)       -176.5293         estimate D2E/DX2                !
 ! D71   D(12,15,29,18)          0.1397         estimate D2E/DX2                !
 ! D72   D(12,15,29,30)        174.518          estimate D2E/DX2                !
 ! D73   D(16,15,29,18)        178.7363         estimate D2E/DX2                !
 ! D74   D(16,15,29,30)         -6.8855         estimate D2E/DX2                !
 ! D75   D(1,18,23,19)        -178.4303         estimate D2E/DX2                !
 ! D76   D(1,18,23,24)           1.7917         estimate D2E/DX2                !
 ! D77   D(29,18,23,19)          0.7659         estimate D2E/DX2                !
 ! D78   D(29,18,23,24)       -179.0121         estimate D2E/DX2                !
 ! D79   D(1,18,29,15)         178.7357         estimate D2E/DX2                !
 ! D80   D(1,18,29,30)           4.1722         estimate D2E/DX2                !
 ! D81   D(23,18,29,15)         -0.4643         estimate D2E/DX2                !
 ! D82   D(23,18,29,30)       -175.0277         estimate D2E/DX2                !
 ! D83   D(12,19,23,18)         -0.7628         estimate D2E/DX2                !
 ! D84   D(12,19,23,24)        179.0051         estimate D2E/DX2                !
 ! D85   D(20,19,23,18)       -178.7136         estimate D2E/DX2                !
 ! D86   D(20,19,23,24)          1.0543         estimate D2E/DX2                !
 ! D87   D(8,21,31,27)          -0.543          estimate D2E/DX2                !
 ! D88   D(8,21,31,32)         176.0489         estimate D2E/DX2                !
 ! D89   D(22,21,31,27)        179.5454         estimate D2E/DX2                !
 ! D90   D(22,21,31,32)         -3.8627         estimate D2E/DX2                !
 ! D91   D(9,25,33,34)          38.8687         estimate D2E/DX2                !
 ! D92   D(9,25,33,36)        -143.019          estimate D2E/DX2                !
 ! D93   D(26,25,33,34)       -145.4896         estimate D2E/DX2                !
 ! D94   D(26,25,33,36)         32.6227         estimate D2E/DX2                !
 ! D95   D(13,27,31,21)         -0.6777         estimate D2E/DX2                !
 ! D96   D(13,27,31,32)       -177.2907         estimate D2E/DX2                !
 ! D97   D(28,27,31,21)        177.6472         estimate D2E/DX2                !
 ! D98   D(28,27,31,32)          1.0342         estimate D2E/DX2                !
 ! D99   D(25,33,34,35)         -1.6125         estimate D2E/DX2                !
 ! D100  D(25,33,34,41)        177.7329         estimate D2E/DX2                !
 ! D101  D(36,33,34,35)       -179.7197         estimate D2E/DX2                !
 ! D102  D(36,33,34,41)         -0.3743         estimate D2E/DX2                !
 ! D103  D(25,33,36,37)          0.4604         estimate D2E/DX2                !
 ! D104  D(25,33,36,38)       -178.2595         estimate D2E/DX2                !
 ! D105  D(34,33,36,37)        178.6516         estimate D2E/DX2                !
 ! D106  D(34,33,36,38)         -0.0683         estimate D2E/DX2                !
 ! D107  D(33,34,41,42)        178.055          estimate D2E/DX2                !
 ! D108  D(33,34,41,43)          1.022          estimate D2E/DX2                !
 ! D109  D(35,34,41,42)         -2.6059         estimate D2E/DX2                !
 ! D110  D(35,34,41,43)       -179.6389         estimate D2E/DX2                !
 ! D111  D(33,36,38,39)       -174.272          estimate D2E/DX2                !
 ! D112  D(33,36,38,43)         -0.1226         estimate D2E/DX2                !
 ! D113  D(37,36,38,39)          7.0097         estimate D2E/DX2                !
 ! D114  D(37,36,38,43)       -178.8409         estimate D2E/DX2                !
 ! D115  D(36,38,43,40)       -178.6379         estimate D2E/DX2                !
 ! D116  D(36,38,43,41)          0.787          estimate D2E/DX2                !
 ! D117  D(36,38,43,55)        173.5756         estimate D2E/DX2                !
 ! D118  D(39,38,43,40)         -3.8345         estimate D2E/DX2                !
 ! D119  D(39,38,43,41)        175.5904         estimate D2E/DX2                !
 ! D120  D(39,38,43,55)        -11.621          estimate D2E/DX2                !
 ! D121  D(34,41,43,38)         -1.2522         estimate D2E/DX2                !
 ! D122  D(34,41,43,40)        178.0801         estimate D2E/DX2                !
 ! D123  D(34,41,43,55)       -175.9705         estimate D2E/DX2                !
 ! D124  D(42,41,43,38)       -177.4859         estimate D2E/DX2                !
 ! D125  D(42,41,43,40)          1.8465         estimate D2E/DX2                !
 ! D126  D(42,41,43,55)          7.7958         estimate D2E/DX2                !
 ! D127  D(2,44,45,46)           6.3635         estimate D2E/DX2                !
 ! D128  D(2,44,45,53)        -175.2945         estimate D2E/DX2                !
 ! D129  D(47,44,45,46)       -177.3025         estimate D2E/DX2                !
 ! D130  D(47,44,45,53)          1.0395         estimate D2E/DX2                !
 ! D131  D(2,44,47,48)          -3.6858         estimate D2E/DX2                !
 ! D132  D(2,44,47,49)         176.2967         estimate D2E/DX2                !
 ! D133  D(45,44,47,48)       -179.9272         estimate D2E/DX2                !
 ! D134  D(45,44,47,49)          0.0554         estimate D2E/DX2                !
 ! D135  D(44,45,53,51)         -1.6417         estimate D2E/DX2                !
 ! D136  D(44,45,53,54)       -178.6715         estimate D2E/DX2                !
 ! D137  D(46,45,53,51)        176.7039         estimate D2E/DX2                !
 ! D138  D(46,45,53,54)         -0.3259         estimate D2E/DX2                !
 ! D139  D(44,47,49,50)       -179.6371         estimate D2E/DX2                !
 ! D140  D(44,47,49,51)         -0.5985         estimate D2E/DX2                !
 ! D141  D(48,47,49,50)          0.3459         estimate D2E/DX2                !
 ! D142  D(48,47,49,51)        179.3846         estimate D2E/DX2                !
 ! D143  D(47,49,51,52)        179.5267         estimate D2E/DX2                !
 ! D144  D(47,49,51,53)         -0.0039         estimate D2E/DX2                !
 ! D145  D(50,49,51,52)         -1.5135         estimate D2E/DX2                !
 ! D146  D(50,49,51,53)        178.956          estimate D2E/DX2                !
 ! D147  D(49,51,53,45)          1.1624         estimate D2E/DX2                !
 ! D148  D(49,51,53,54)        177.6902         estimate D2E/DX2                !
 ! D149  D(52,51,53,45)       -178.3504         estimate D2E/DX2                !
 ! D150  D(52,51,53,54)         -1.8226         estimate D2E/DX2                !
 --------------------------------------------------------------------------------
 Trust Radius=3.00D-01 FncErr=1.00D-07 GrdErr=1.00D-06 EigMax=2.50D+02 EigMin=1.00D-04
 Number of steps in this run=    318 maximum allowed number of steps=    330.
 GradGradGradGradGradGradGradGradGradGradGradGradGradGradGradGradGradGrad

 Stoichiometry    C28H19Br3NO3S(2)
 Framework group  C1[X(C28H19Br3NO3S)]
 Deg. of freedom   159
 Full point group                 C1      NOp   1
 Largest Abelian subgroup         C1      NOp   1
 Largest concise Abelian subgroup C1      NOp   1
                         Standard orientation:                         
 ---------------------------------------------------------------------
 Center     Atomic      Atomic             Coordinates (Angstroms)
 Number     Number       Type             X           Y           Z
 ---------------------------------------------------------------------
      1         35           0        3.920058    5.446619   -0.055501
      2         16           0        1.407559   -2.265873    1.985669
      3          7           0        2.151332   -1.103558    1.030245
      4          8           0        2.019906   -1.789392   -2.999601
      5          8           0        2.470697   -2.886030    2.728675
      6          8           0        0.320682   -1.603453    2.667676
      7          6           0        3.392081   -1.451514    0.333829
      8          6           0        3.385015   -1.546229   -1.071683
      9          6           0        0.915499   -0.812865   -1.101393
     10          6           0        1.249260   -0.194192    0.257953
     11          1           0        0.495817   -0.135943    0.778796
     12          6           0        1.936346    1.184430    0.174146
     13          6           0        4.597162   -1.658072    1.036106
     14          1           0        4.581227   -1.550495    1.975001
     15          6           0        1.874454    1.934275   -0.990453
     16          1           0        1.428497    1.615212   -1.747722
     17          6           0        2.095750   -1.408375   -1.829516
     18          6           0        3.095940    3.714058    0.055820
     19          6           0        2.593424    1.728788    1.278962
     20          1           0        2.606398    1.218558    2.061479
     21          6           0        4.609215   -1.836826   -1.752189
     22          1           0        4.553975   -1.872901   -2.689817
     23          6           0        3.171288    3.003057    1.227940
     24          1           0        3.583440    3.374145    1.924313
     25          6           0       -0.324125   -0.914330   -1.652403
     26          1           0       -0.359366   -1.456372   -2.493240
     27          6           0        5.778154   -1.967325    0.331282
     28          1           0        6.597198   -2.150637    0.821316
     29          6           0        2.452604    3.204258   -1.056281
     30          1           0        2.482794    3.650129   -1.787555
     31          6           0        5.785906   -2.048808   -1.046414
     32          1           0        6.528647   -2.279480   -1.470373
     33          6           0       -1.646053   -0.416576   -1.152257
     34          6           0       -1.798161    0.814017   -0.514985
     35          1           0       -1.010926    1.392712   -0.353198
     36          6           0       -2.807884   -1.224673   -1.375075
     37          1           0       -2.702192   -2.093400   -1.847849
     38          6           0       -4.088582   -0.824609   -0.975372
     39          1           0       -5.031777   -1.441184   -1.034232
     40         35           0       -6.071842    0.730729    0.162356
     41          6           0       -3.123698    1.225305   -0.113672
     42          1           0       -3.058974    1.971750    0.280488
     43          6           0       -4.224345    0.389914   -0.344110
     44          6           0        0.718989   -3.464231    0.869649
     45          6           0        1.596904   -4.364366    0.247888
     46          1           0        2.558915   -4.401820    0.489077
     47          6           0       -0.646816   -3.451232    0.568157
     48          1           0       -1.211955   -2.876208    0.963028
     49          6           0       -1.148727   -4.349318   -0.366718
     50          1           0       -2.174151   -4.289820   -0.555834
     51          6           0       -0.310169   -5.225365   -0.990867
     52          1           0       -0.730827   -5.890425   -1.683224
     53          6           0        1.046581   -5.239607   -0.710099
     54          1           0        1.656958   -5.786206   -1.041682
     55         35           0       -5.788797    1.491643    0.271011
 ---------------------------------------------------------------------
 Rotational constants (GHZ):           0.0810888           0.0456499           0.0325552
 Standard basis: 6-311++G(d,p) (5D, 7F)
 There are  1053 symmetry adapted cartesian basis functions of A   symmetry.
 There are  1011 symmetry adapted basis functions of A   symmetry.
  1011 basis functions,  1655 primitive gaussians,  1053 cartesian basis functions
   170 alpha electrons      169 beta electrons
       nuclear repulsion energy      6462.4704966998 Hartrees.
 NAtoms=   55 NActive=   55 NUniq=   55 SFac= 1.00D+00 NAtFMM=   60 NAOKFM=F Big=F
 Integral buffers will be    131072 words long.
 Raffenetti 2 integral format.
 Two-electron integral symmetry is turned on.
 R6APFD:  NTU= -4 IXU= 1 FactS= 1.050
 Nuclear repulsion after empirical dispersion term =     6462.3937342123 Hartrees.
 One-electron integrals computed using PRISM.
 NBasis=  1011 RedAO= T EigKep=  1.02D-06  NBF=  1011
 NBsUse=   999 1.00D-06 EigRej=  8.97D-07 NBFU=   999
 ExpMin= 3.50D-02 ExpMax= 4.40D+05 ExpMxC= 1.51D+04 IAcc=3 IRadAn=         5 AccDes= 0.00D+00
 Harris functional with IExCor= 1009 and IRadAn=       5 diagonalized for initial guess.
 HarFok:  IExCor= 1009 AccDes= 0.00D+00 IRadAn=         5 IDoV= 1 UseB2=F ITyADJ=14
 ICtDFT=  3500011 ScaDFX=  1.000000  1.000000  1.000000  1.000000
 FoFCou: FMM=F IPFlag=           0 FMFlag=      100000 FMFlg1=           0
         NFxFlg=           0 DoJE=T BraDBF=F KetDBF=T FulRan=T
         wScrn=  0.000000 ICntrl=       500 IOpCl=  0 I1Cent=   200000004 NGrid=           0
         NMat0=    1 NMatS0=      1 NMatT0=    0 NMatD0=    1 NMtDS0=    0 NMtDT0=    0
 Petite list used in FoFCou.
 Initial guess <Sx>= 0.0000 <Sy>= 0.0000 <Sz>= 0.5000 <S**2>= 0.7500 S= 0.5000
 Requested convergence on RMS density matrix=1.00D-08 within  32 cycles.
 Requested convergence on MAX density matrix=1.00D-06.
 Requested convergence on             energy=1.00D-06.
 No special actions if energy rises.
 Restarting incremental Fock formation.
 SCF Done:  E(UM08HX) =  -9465.51857292     A.U. after   29 cycles
            NFock= 29  Conv=0.42D-08     -V/T= 1.9955
 <Sx>= 0.0000 <Sy>= 0.0000 <Sz>= 0.5000 <S**2>= 0.7534 S= 0.5017
 <L.S>=  0.00000000000    
 Annihilation of the first spin contaminant:
 S**2 before annihilation     0.7534,   after     0.7500
 QCSCF skips out because SCF is already converged.

 **********************************************************************

            Population analysis using the SCF Density.

 **********************************************************************

 Orbital symmetries:
 Alpha Orbitals:
       Occupied  (A) (A) (A) (A) (A) (A) (A) (A) (A) (A) (A) (A)
                 (A) (A) (A) (A) (A) (A) (A) (A) (A) (A) (A) (A)
                 (A) (A) (A) (A) (A) (A) (A) (A) (A) (A) (A) (A)
                 (A) (A) (A) (A) (A) (A) (A) (A) (A) (A) (A) (A)
                 (A) (A) (A) (A) (A) (A) (A) (A) (A) (A) (A) (A)
                 (A) (A) (A) (A) (A) (A) (A) (A) (A) (A) (A) (A)
                 (A) (A) (A) (A) (A) (A) (A) (A) (A) (A) (A) (A)
                 (A) (A) (A) (A) (A) (A) (A) (A) (A) (A) (A) (A)
                 (A) (A) (A) (A) (A) (A) (A) (A) (A) (A) (A) (A)
                 (A) (A) (A) (A) (A) (A) (A) (A) (A) (A) (A) (A)
                 (A) (A) (A) (A) (A) (A) (A) (A) (A) (A) (A) (A)
                 (A) (A) (A) (A) (A) (A) (A) (A) (A) (A) (A) (A)
                 (A) (A) (A) (A) (A) (A) (A) (A) (A) (A) (A) (A)
                 (A) (A) (A) (A) (A) (A) (A) (A) (A) (A) (A) (A)
                 (A) (A)
       Virtual   (A) (A) (A) (A) (A) (A) (A) (A) (A) (A) (A) (A)
                 (A) (A) (A) (A) (A) (A) (A) (A) (A) (A) (A) (A)
                 (A) (A) (A) (A) (A) (A) (A) (A) (A) (A) (A) (A)
                 (A) (A) (A) (A) (A) (A) (A) (A) (A) (A) (A) (A)
                 (A) (A) (A) (A) (A) (A) (A) (A) (A) (A) (A) (A)
                 (A) (A) (A) (A) (A) (A) (A) (A) (A) (A) (A) (A)
                 (A) (A) (A) (A) (A) (A) (A) (A) (A) (A) (A) (A)
                 (A) (A) (A) (A) (A) (A) (A) (A) (A) (A) (A) (A)
                 (A) (A) (A) (A) (A) (A) (A) (A) (A) (A) (A) (A)
                 (A) (A) (A) (A) (A) (A) (A) (A) (A) (A) (A) (A)
                 (A) (A) (A) (A) (A) (A) (A) (A) (A) (A) (A) (A)
                 (A) (A) (A) (A) (A) (A) (A) (A) (A) (A) (A) (A)
                 (A) (A) (A) (A) (A) (A) (A) (A) (A) (A) (A) (A)
                 (A) (A) (A) (A) (A) (A) (A) (A) (A) (A) (A) (A)
                 (A) (A) (A) (A) (A) (A) (A) (A) (A) (A) (A) (A)
                 (A) (A) (A) (A) (A) (A) (A) (A) (A) (A) (A) (A)
                 (A) (A) (A) (A) (A) (A) (A) (A) (A) (A) (A) (A)
                 (A) (A) (A) (A) (A) (A) (A) (A) (A) (A) (A) (A)
                 (A) (A) (A) (A) (A) (A) (A) (A) (A) (A) (A) (A)
                 (A) (A) (A) (A) (A) (A) (A) (A) (A) (A) (A) (A)
                 (A) (A) (A) (A) (A) (A) (A) (A) (A) (A) (A) (A)
                 (A) (A) (A) (A) (A) (A) (A) (A) (A) (A) (A) (A)
                 (A) (A) (A) (A) (A) (A) (A) (A) (A) (A) (A) (A)
                 (A) (A) (A) (A) (A) (A) (A) (A) (A) (A) (A) (A)
                 (A) (A) (A) (A) (A) (A) (A) (A) (A) (A) (A) (A)
                 (A) (A) (A) (A) (A) (A) (A) (A) (A) (A) (A) (A)
                 (A) (A) (A) (A) (A) (A) (A) (A) (A) (A) (A) (A)
                 (A) (A) (A) (A) (A) (A) (A) (A) (A) (A) (A) (A)
                 (A) (A) (A) (A) (A) (A) (A) (A) (A) (A) (A) (A)
                 (A) (A) (A) (A) (A) (A) (A) (A) (A) (A) (A) (A)
                 (A) (A) (A) (A) (A) (A) (A) (A) (A) (A) (A) (A)
                 (A) (A) (A) (A) (A) (A) (A) (A) (A) (A) (A) (A)
                 (A) (A) (A) (A) (A) (A) (A) (A) (A) (A) (A) (A)
                 (A) (A) (A) (A) (A) (A) (A) (A) (A) (A) (A) (A)
                 (A) (A) (A) (A) (A) (A) (A) (A) (A) (A) (A) (A)
                 (A) (A) (A) (A) (A) (A) (A) (A) (A) (A) (A) (A)
                 (A) (A) (A) (A) (A) (A) (A) (A) (A) (A) (A) (A)
                 (A) (A) (A) (A) (A) (A) (A) (A) (A) (A) (A) (A)
                 (A) (A) (A) (A) (A) (A) (A) (A) (A) (A) (A) (A)
                 (A) (A) (A) (A) (A) (A) (A) (A) (A) (A) (A) (A)
                 (A) (A) (A) (A) (A) (A) (A) (A) (A) (A) (A) (A)
                 (A) (A) (A) (A) (A) (A) (A) (A) (A) (A) (A) (A)
                 (A) (A) (A) (A) (A) (A) (A) (A) (A) (A) (A) (A)
                 (A) (A) (A) (A) (A) (A) (A) (A) (A) (A) (A) (A)
                 (A) (A) (A) (A) (A) (A) (A) (A) (A) (A) (A) (A)
                 (A) (A) (A) (A) (A) (A) (A) (A) (A) (A) (A) (A)
                 (A) (A) (A) (A) (A) (A) (A) (A) (A) (A) (A) (A)
                 (A) (A) (A) (A) (A) (A) (A) (A) (A) (A) (A) (A)
                 (A) (A) (A) (A) (A) (A) (A) (A) (A) (A) (A) (A)
                 (A) (A) (A) (A) (A) (A) (A) (A) (A) (A) (A) (A)
                 (A) (A) (A) (A) (A) (A) (A) (A) (A) (A) (A) (A)
                 (A) (A) (A) (A) (A) (A) (A) (A) (A) (A) (A) (A)
                 (A) (A) (A) (A) (A) (A) (A) (A) (A) (A) (A) (A)
                 (A) (A) (A) (A) (A) (A) (A) (A) (A) (A) (A) (A)
                 (A) (A) (A) (A) (A) (A) (A) (A) (A) (A) (A) (A)
                 (A) (A) (A) (A) (A) (A) (A) (A) (A) (A) (A) (A)
                 (A) (A) (A) (A) (A) (A) (A) (A) (A) (A) (A) (A)
                 (A) (A) (A) (A) (A) (A) (A) (A) (A) (A) (A) (A)
                 (A) (A) (A) (A) (A) (A) (A) (A) (A) (A) (A) (A)
                 (A) (A) (A) (A) (A) (A) (A) (A) (A) (A) (A) (A)
                 (A) (A) (A) (A) (A) (A) (A) (A) (A) (A) (A) (A)
                 (A) (A) (A) (A) (A) (A) (A) (A) (A) (A) (A) (A)
                 (A) (A) (A) (A) (A) (A) (A) (A) (A) (A) (A) (A)
                 (A) (A) (A) (A) (A) (A) (A) (A) (A) (A) (A) (A)
                 (A) (A) (A) (A) (A) (A) (A) (A) (A) (A) (A) (A)
                 (A) (A) (A) (A) (A) (A) (A) (A) (A) (A) (A) (A)
                 (A) (A) (A) (A) (A) (A) (A) (A) (A) (A) (A) (A)
                 (A) (A) (A) (A) (A) (A) (A) (A) (A) (A) (A) (A)
                 (A) (A) (A) (A) (A) (A) (A) (A) (A) (A) (A) (A)
                 (A)
 Beta  Orbitals:
       Occupied  (A) (A) (A) (A) (A) (A) (A) (A) (A) (A) (A) (A)
                 (A) (A) (A) (A) (A) (A) (A) (A) (A) (A) (A) (A)
                 (A) (A) (A) (A) (A) (A) (A) (A) (A) (A) (A) (A)
                 (A) (A) (A) (A) (A) (A) (A) (A) (A) (A) (A) (A)
                 (A) (A) (A) (A) (A) (A) (A) (A) (A) (A) (A) (A)
                 (A) (A) (A) (A) (A) (A) (A) (A) (A) (A) (A) (A)
                 (A) (A) (A) (A) (A) (A) (A) (A) (A) (A) (A) (A)
                 (A) (A) (A) (A) (A) (A) (A) (A) (A) (A) (A) (A)
                 (A) (A) (A) (A) (A) (A) (A) (A) (A) (A) (A) (A)
                 (A) (A) (A) (A) (A) (A) (A) (A) (A) (A) (A) (A)
                 (A) (A) (A) (A) (A) (A) (A) (A) (A) (A) (A) (A)
                 (A) (A) (A) (A) (A) (A) (A) (A) (A) (A) (A) (A)
                 (A) (A) (A) (A) (A) (A) (A) (A) (A) (A) (A) (A)
                 (A) (A) (A) (A) (A) (A) (A) (A) (A) (A) (A) (A)
                 (A)
       Virtual   (A) (A) (A) (A) (A) (A) (A) (A) (A) (A) (A) (A)
                 (A) (A) (A) (A) (A) (A) (A) (A) (A) (A) (A) (A)
                 (A) (A) (A) (A) (A) (A) (A) (A) (A) (A) (A) (A)
                 (A) (A) (A) (A) (A) (A) (A) (A) (A) (A) (A) (A)
                 (A) (A) (A) (A) (A) (A) (A) (A) (A) (A) (A) (A)
                 (A) (A) (A) (A) (A) (A) (A) (A) (A) (A) (A) (A)
                 (A) (A) (A) (A) (A) (A) (A) (A) (A) (A) (A) (A)
                 (A) (A) (A) (A) (A) (A) (A) (A) (A) (A) (A) (A)
                 (A) (A) (A) (A) (A) (A) (A) (A) (A) (A) (A) (A)
                 (A) (A) (A) (A) (A) (A) (A) (A) (A) (A) (A) (A)
                 (A) (A) (A) (A) (A) (A) (A) (A) (A) (A) (A) (A)
                 (A) (A) (A) (A) (A) (A) (A) (A) (A) (A) (A) (A)
                 (A) (A) (A) (A) (A) (A) (A) (A) (A) (A) (A) (A)
                 (A) (A) (A) (A) (A) (A) (A) (A) (A) (A) (A) (A)
                 (A) (A) (A) (A) (A) (A) (A) (A) (A) (A) (A) (A)
                 (A) (A) (A) (A) (A) (A) (A) (A) (A) (A) (A) (A)
                 (A) (A) (A) (A) (A) (A) (A) (A) (A) (A) (A) (A)
                 (A) (A) (A) (A) (A) (A) (A) (A) (A) (A) (A) (A)
                 (A) (A) (A) (A) (A) (A) (A) (A) (A) (A) (A) (A)
                 (A) (A) (A) (A) (A) (A) (A) (A) (A) (A) (A) (A)
                 (A) (A) (A) (A) (A) (A) (A) (A) (A) (A) (A) (A)
                 (A) (A) (A) (A) (A) (A) (A) (A) (A) (A) (A) (A)
                 (A) (A) (A) (A) (A) (A) (A) (A) (A) (A) (A) (A)
                 (A) (A) (A) (A) (A) (A) (A) (A) (A) (A) (A) (A)
                 (A) (A) (A) (A) (A) (A) (A) (A) (A) (A) (A) (A)
                 (A) (A) (A) (A) (A) (A) (A) (A) (A) (A) (A) (A)
                 (A) (A) (A) (A) (A) (A) (A) (A) (A) (A) (A) (A)
                 (A) (A) (A) (A) (A) (A) (A) (A) (A) (A) (A) (A)
                 (A) (A) (A) (A) (A) (A) (A) (A) (A) (A) (A) (A)
                 (A) (A) (A) (A) (A) (A) (A) (A) (A) (A) (A) (A)
                 (A) (A) (A) (A) (A) (A) (A) (A) (A) (A) (A) (A)
                 (A) (A) (A) (A) (A) (A) (A) (A) (A) (A) (A) (A)
                 (A) (A) (A) (A) (A) (A) (A) (A) (A) (A) (A) (A)
                 (A) (A) (A) (A) (A) (A) (A) (A) (A) (A) (A) (A)
                 (A) (A) (A) (A) (A) (A) (A) (A) (A) (A) (A) (A)
                 (A) (A) (A) (A) (A) (A) (A) (A) (A) (A) (A) (A)
                 (A) (A) (A) (A) (A) (A) (A) (A) (A) (A) (A) (A)
                 (A) (A) (A) (A) (A) (A) (A) (A) (A) (A) (A) (A)
                 (A) (A) (A) (A) (A) (A) (A) (A) (A) (A) (A) (A)
                 (A) (A) (A) (A) (A) (A) (A) (A) (A) (A) (A) (A)
                 (A) (A) (A) (A) (A) (A) (A) (A) (A) (A) (A) (A)
                 (A) (A) (A) (A) (A) (A) (A) (A) (A) (A) (A) (A)
                 (A) (A) (A) (A) (A) (A) (A) (A) (A) (A) (A) (A)
                 (A) (A) (A) (A) (A) (A) (A) (A) (A) (A) (A) (A)
                 (A) (A) (A) (A) (A) (A) (A) (A) (A) (A) (A) (A)
                 (A) (A) (A) (A) (A) (A) (A) (A) (A) (A) (A) (A)
                 (A) (A) (A) (A) (A) (A) (A) (A) (A) (A) (A) (A)
                 (A) (A) (A) (A) (A) (A) (A) (A) (A) (A) (A) (A)
                 (A) (A) (A) (A) (A) (A) (A) (A) (A) (A) (A) (A)
                 (A) (A) (A) (A) (A) (A) (A) (A) (A) (A) (A) (A)
                 (A) (A) (A) (A) (A) (A) (A) (A) (A) (A) (A) (A)
                 (A) (A) (A) (A) (A) (A) (A) (A) (A) (A) (A) (A)
                 (A) (A) (A) (A) (A) (A) (A) (A) (A) (A) (A) (A)
                 (A) (A) (A) (A) (A) (A) (A) (A) (A) (A) (A) (A)
                 (A) (A) (A) (A) (A) (A) (A) (A) (A) (A) (A) (A)
                 (A) (A) (A) (A) (A) (A) (A) (A) (A) (A) (A) (A)
                 (A) (A) (A) (A) (A) (A) (A) (A) (A) (A) (A) (A)
                 (A) (A) (A) (A) (A) (A) (A) (A) (A) (A) (A) (A)
                 (A) (A) (A) (A) (A) (A) (A) (A) (A) (A) (A) (A)
                 (A) (A) (A) (A) (A) (A) (A) (A) (A) (A) (A) (A)
                 (A) (A) (A) (A) (A) (A) (A) (A) (A) (A) (A) (A)
                 (A) (A) (A) (A) (A) (A) (A) (A) (A) (A) (A) (A)
                 (A) (A) (A) (A) (A) (A) (A) (A) (A) (A) (A) (A)
                 (A) (A) (A) (A) (A) (A) (A) (A) (A) (A) (A) (A)
                 (A) (A) (A) (A) (A) (A) (A) (A) (A) (A) (A) (A)
                 (A) (A) (A) (A) (A) (A) (A) (A) (A) (A) (A) (A)
                 (A) (A) (A) (A) (A) (A) (A) (A) (A) (A) (A) (A)
                 (A) (A) (A) (A) (A) (A) (A) (A) (A) (A) (A) (A)
                 (A) (A) (A) (A) (A) (A) (A) (A) (A) (A) (A) (A)
                 (A) (A)
 The electronic state is 2-A.
 Alpha  occ. eigenvalues -- -485.80045-485.78695-485.26912 -90.09276 -63.89046
 Alpha  occ. eigenvalues --  -63.88082 -63.23272 -57.76420 -57.75459 -57.73992
 Alpha  occ. eigenvalues --  -57.73506 -57.72890 -57.72522 -57.12408 -57.12152
 Alpha  occ. eigenvalues --  -57.12147 -19.61368 -19.61264 -19.61182 -14.79952
 Alpha  occ. eigenvalues --  -11.08532 -10.64442 -10.60981 -10.60324 -10.59670
 Alpha  occ. eigenvalues --  -10.58628 -10.57515 -10.57435 -10.56991 -10.56849
 Alpha  occ. eigenvalues --  -10.56682 -10.55910 -10.55555 -10.55297 -10.55189
 Alpha  occ. eigenvalues --  -10.54735 -10.54706 -10.54644 -10.54616 -10.54570
 Alpha  occ. eigenvalues --  -10.54430 -10.54067 -10.54043 -10.53987 -10.53900
 Alpha  occ. eigenvalues --  -10.53711 -10.53285 -10.53160 -10.50808  -9.55321
 Alpha  occ. eigenvalues --   -8.97819  -8.42904  -8.23372  -7.96884  -7.95684
 Alpha  occ. eigenvalues --   -7.50585  -7.49359  -7.10773  -6.82983  -6.82064
 Alpha  occ. eigenvalues --   -6.82061  -6.37796  -6.37793  -6.37649  -4.19047
 Alpha  occ. eigenvalues --   -4.17972  -4.13623  -3.74468  -3.74167  -3.50765
 Alpha  occ. eigenvalues --   -3.50425  -3.33644  -3.32680  -3.12622  -2.86518
 Alpha  occ. eigenvalues --   -2.86183  -2.86176  -2.85354  -2.85353  -1.47892
 Alpha  occ. eigenvalues --   -1.26372  -1.17130  -1.14125  -1.08693  -1.05822
 Alpha  occ. eigenvalues --   -1.00870  -1.00436  -0.98791  -0.98060  -0.97577
 Alpha  occ. eigenvalues --   -0.94334  -0.91791  -0.90218  -0.89486  -0.89409
 Alpha  occ. eigenvalues --   -0.89150  -0.88548  -0.87928  -0.86511  -0.84242
 Alpha  occ. eigenvalues --   -0.80679  -0.78776  -0.78193  -0.77267  -0.75954
 Alpha  occ. eigenvalues --   -0.74923  -0.73580  -0.72808  -0.72168  -0.71066
 Alpha  occ. eigenvalues --   -0.69918  -0.68546  -0.66630  -0.65043  -0.63801
 Alpha  occ. eigenvalues --   -0.62813  -0.62156  -0.60193  -0.59319  -0.59143
 Alpha  occ. eigenvalues --   -0.57912  -0.57324  -0.57110  -0.56442  -0.55865
 Alpha  occ. eigenvalues --   -0.55799  -0.54568  -0.54264  -0.54045  -0.53448
 Alpha  occ. eigenvalues --   -0.53323  -0.52904  -0.52294  -0.51366  -0.50844
 Alpha  occ. eigenvalues --   -0.50168  -0.49144  -0.47840  -0.47323  -0.46855
 Alpha  occ. eigenvalues --   -0.46140  -0.46036  -0.45906  -0.45726  -0.45611
 Alpha  occ. eigenvalues --   -0.45051  -0.44735  -0.43806  -0.43446  -0.42578
 Alpha  occ. eigenvalues --   -0.41448  -0.39781  -0.39190  -0.39004  -0.38690
 Alpha  occ. eigenvalues --   -0.37886  -0.37241  -0.35356  -0.34781  -0.34186
 Alpha  occ. eigenvalues --   -0.33690  -0.33349  -0.32561  -0.32468  -0.31414
 Alpha  occ. eigenvalues --   -0.31257  -0.30743  -0.28855  -0.23110  -0.23052
 Alpha virt. eigenvalues --   -0.08119  -0.03762  -0.03676  -0.03382  -0.02969
 Alpha virt. eigenvalues --   -0.02679  -0.02234  -0.02195  -0.01925  -0.01598
 Alpha virt. eigenvalues --   -0.01446  -0.01353  -0.01148  -0.01057  -0.00827
 Alpha virt. eigenvalues --   -0.00443  -0.00349  -0.00159   0.00063   0.00132
 Alpha virt. eigenvalues --    0.00450   0.00933   0.01336   0.01565   0.01826
 Alpha virt. eigenvalues --    0.02008   0.02251   0.02515   0.02777   0.02875
 Alpha virt. eigenvalues --    0.03115   0.03803   0.04183   0.04441   0.04819
 Alpha virt. eigenvalues --    0.04951   0.05182   0.05349   0.05680   0.06130
 Alpha virt. eigenvalues --    0.06488   0.06835   0.06992   0.07303   0.07351
 Alpha virt. eigenvalues --    0.07499   0.07767   0.08036   0.08277   0.08349
 Alpha virt. eigenvalues --    0.08491   0.09036   0.09277   0.09602   0.09814
 Alpha virt. eigenvalues --    0.10090   0.10302   0.10428   0.10485   0.10519
 Alpha virt. eigenvalues --    0.10717   0.11008   0.11075   0.11246   0.11396
 Alpha virt. eigenvalues --    0.11485   0.11665   0.11879   0.11955   0.12130
 Alpha virt. eigenvalues --    0.12307   0.12618   0.12665   0.12816   0.12889
 Alpha virt. eigenvalues --    0.13301   0.13363   0.13471   0.13702   0.13843
 Alpha virt. eigenvalues --    0.14050   0.14216   0.14295   0.14513   0.14706
 Alpha virt. eigenvalues --    0.15126   0.15156   0.15540   0.15659   0.15819
 Alpha virt. eigenvalues --    0.15926   0.16107   0.16295   0.16441   0.16514
 Alpha virt. eigenvalues --    0.16802   0.17224   0.17274   0.17591   0.17708
 Alpha virt. eigenvalues --    0.17817   0.18203   0.18269   0.18447   0.18768
 Alpha virt. eigenvalues --    0.19022   0.19073   0.19201   0.19337   0.19496
 Alpha virt. eigenvalues --    0.19711   0.20229   0.20459   0.20479   0.20918
 Alpha virt. eigenvalues --    0.20948   0.21255   0.21716   0.21849   0.21999
 Alpha virt. eigenvalues --    0.22217   0.22391   0.22619   0.22728   0.22953
 Alpha virt. eigenvalues --    0.23249   0.23573   0.23674   0.23951   0.24078
 Alpha virt. eigenvalues --    0.24251   0.24487   0.24704   0.24982   0.25215
 Alpha virt. eigenvalues --    0.25528   0.25703   0.25828   0.26332   0.26455
 Alpha virt. eigenvalues --    0.26634   0.26818   0.27154   0.27360   0.27639
 Alpha virt. eigenvalues --    0.28097   0.28197   0.28597   0.28732   0.29020
 Alpha virt. eigenvalues --    0.29065   0.29514   0.29555   0.29883   0.30030
 Alpha virt. eigenvalues --    0.30460   0.30691   0.30898   0.31101   0.31420
 Alpha virt. eigenvalues --    0.31543   0.31794   0.31856   0.31925   0.32546
 Alpha virt. eigenvalues --    0.32667   0.33280   0.33473   0.33692   0.33832
 Alpha virt. eigenvalues --    0.34134   0.34459   0.34631   0.34711   0.34912
 Alpha virt. eigenvalues --    0.35016   0.35190   0.35372   0.35533   0.36018
 Alpha virt. eigenvalues --    0.36246   0.36442   0.36714   0.36882   0.37171
 Alpha virt. eigenvalues --    0.37486   0.37645   0.37899   0.38431   0.38658
 Alpha virt. eigenvalues --    0.38818   0.39011   0.39497   0.39733   0.40036
 Alpha virt. eigenvalues --    0.40162   0.40617   0.40824   0.41417   0.41560
 Alpha virt. eigenvalues --    0.42305   0.42547   0.42796   0.42851   0.43030
 Alpha virt. eigenvalues --    0.43386   0.44239   0.44495   0.44626   0.44846
 Alpha virt. eigenvalues --    0.45586   0.45766   0.45924   0.46506   0.46839
 Alpha virt. eigenvalues --    0.47267   0.47813   0.48385   0.49200   0.49782
 Alpha virt. eigenvalues --    0.50268   0.50732   0.51791   0.51882   0.52452
 Alpha virt. eigenvalues --    0.52943   0.53790   0.54313   0.54907   0.55244
 Alpha virt. eigenvalues --    0.55378   0.55986   0.56562   0.56799   0.57552
 Alpha virt. eigenvalues --    0.57761   0.58278   0.58655   0.58716   0.59163
 Alpha virt. eigenvalues --    0.60174   0.60604   0.60970   0.61382   0.61556
 Alpha virt. eigenvalues --    0.61827   0.62177   0.62373   0.62763   0.63380
 Alpha virt. eigenvalues --    0.63488   0.63705   0.63903   0.64227   0.64683
 Alpha virt. eigenvalues --    0.64820   0.65594   0.65843   0.65976   0.66464
 Alpha virt. eigenvalues --    0.66645   0.67538   0.67739   0.67969   0.68316
 Alpha virt. eigenvalues --    0.68835   0.69736   0.70063   0.70445   0.70602
 Alpha virt. eigenvalues --    0.71222   0.71776   0.71950   0.72239   0.72511
 Alpha virt. eigenvalues --    0.72970   0.73278   0.73330   0.73546   0.73739
 Alpha virt. eigenvalues --    0.73889   0.74190   0.74660   0.75154   0.75659
 Alpha virt. eigenvalues --    0.75910   0.76534   0.76818   0.77039   0.77332
 Alpha virt. eigenvalues --    0.77690   0.77986   0.78496   0.78637   0.78911
 Alpha virt. eigenvalues --    0.79624   0.79663   0.79985   0.80290   0.80575
 Alpha virt. eigenvalues --    0.80724   0.80878   0.81537   0.82100   0.82548
 Alpha virt. eigenvalues --    0.82799   0.83067   0.83518   0.83709   0.84073
 Alpha virt. eigenvalues --    0.84171   0.84664   0.84917   0.84995   0.85710
 Alpha virt. eigenvalues --    0.85777   0.86100   0.86692   0.86893   0.87341
 Alpha virt. eigenvalues --    0.87643   0.87759   0.88285   0.88622   0.89058
 Alpha virt. eigenvalues --    0.89184   0.89403   0.89663   0.90075   0.90570
 Alpha virt. eigenvalues --    0.90947   0.91913   0.91970   0.92554   0.92938
 Alpha virt. eigenvalues --    0.92988   0.93090   0.94197   0.94346   0.94490
 Alpha virt. eigenvalues --    0.95460   0.95757   0.96125   0.96450   0.97286
 Alpha virt. eigenvalues --    0.97615   0.98377   0.98672   0.98840   0.99111
 Alpha virt. eigenvalues --    0.99741   1.00763   1.01391   1.01708   1.02215
 Alpha virt. eigenvalues --    1.02893   1.03253   1.03276   1.04020   1.04395
 Alpha virt. eigenvalues --    1.04989   1.05679   1.05812   1.06483   1.07094
 Alpha virt. eigenvalues --    1.07919   1.08810   1.08979   1.09429   1.10570
 Alpha virt. eigenvalues --    1.10820   1.11518   1.11647   1.12080   1.12174
 Alpha virt. eigenvalues --    1.12678   1.13677   1.13888   1.14320   1.14448
 Alpha virt. eigenvalues --    1.15712   1.16120   1.16302   1.16836   1.17520
 Alpha virt. eigenvalues --    1.17845   1.18393   1.18559   1.18815   1.19370
 Alpha virt. eigenvalues --    1.20321   1.20786   1.21261   1.22086   1.23054
 Alpha virt. eigenvalues --    1.24431   1.25181   1.25783   1.26017   1.27060
 Alpha virt. eigenvalues --    1.27443   1.28266   1.28911   1.29723   1.30308
 Alpha virt. eigenvalues --    1.31292   1.31743   1.31988   1.33063   1.33747
 Alpha virt. eigenvalues --    1.34177   1.34431   1.35255   1.36367   1.36792
 Alpha virt. eigenvalues --    1.37334   1.37665   1.38996   1.39461   1.39999
 Alpha virt. eigenvalues --    1.40820   1.41362   1.41920   1.42970   1.45524
 Alpha virt. eigenvalues --    1.46381   1.47094   1.49064   1.49902   1.50491
 Alpha virt. eigenvalues --    1.51286   1.53358   1.53615   1.54324   1.54721
 Alpha virt. eigenvalues --    1.54968   1.55609   1.55798   1.56346   1.57319
 Alpha virt. eigenvalues --    1.57787   1.58286   1.58896   1.59507   1.59890
 Alpha virt. eigenvalues --    1.60336   1.60852   1.61229   1.61809   1.62333
 Alpha virt. eigenvalues --    1.62702   1.62804   1.63513   1.63676   1.64504
 Alpha virt. eigenvalues --    1.64865   1.65562   1.66160   1.66677   1.67790
 Alpha virt. eigenvalues --    1.68173   1.68683   1.69693   1.70045   1.70263
 Alpha virt. eigenvalues --    1.70383   1.71667   1.72102   1.72854   1.73150
 Alpha virt. eigenvalues --    1.73800   1.74642   1.75021   1.75574   1.76292
 Alpha virt. eigenvalues --    1.77184   1.77685   1.78421   1.79577   1.80312
 Alpha virt. eigenvalues --    1.80819   1.81182   1.82427   1.82764   1.83238
 Alpha virt. eigenvalues --    1.84039   1.85154   1.85227   1.86130   1.87264
 Alpha virt. eigenvalues --    1.87903   1.87979   1.88539   1.88971   1.89895
 Alpha virt. eigenvalues --    1.90000   1.91240   1.91597   1.91948   1.92987
 Alpha virt. eigenvalues --    1.93359   1.93939   1.95046   1.95685   1.96061
 Alpha virt. eigenvalues --    1.96768   1.97021   1.97608   1.97985   1.98514
 Alpha virt. eigenvalues --    1.98780   1.98963   1.99208   1.99385   2.00230
 Alpha virt. eigenvalues --    2.00716   2.00934   2.01339   2.01780   2.02120
 Alpha virt. eigenvalues --    2.02266   2.02638   2.03322   2.03513   2.04027
 Alpha virt. eigenvalues --    2.04620   2.04869   2.05716   2.06511   2.07019
 Alpha virt. eigenvalues --    2.07772   2.08932   2.09857   2.09900   2.10511
 Alpha virt. eigenvalues --    2.11874   2.13153   2.13620   2.13750   2.13939
 Alpha virt. eigenvalues --    2.15023   2.15250   2.15978   2.16651   2.17122
 Alpha virt. eigenvalues --    2.18025   2.18427   2.19446   2.20126   2.21018
 Alpha virt. eigenvalues --    2.21667   2.23002   2.24815   2.26133   2.26708
 Alpha virt. eigenvalues --    2.27274   2.28640   2.31056   2.31736   2.33586
 Alpha virt. eigenvalues --    2.34562   2.35768   2.36280   2.36359   2.37169
 Alpha virt. eigenvalues --    2.37828   2.38254   2.39024   2.39343   2.39780
 Alpha virt. eigenvalues --    2.41242   2.42585   2.43297   2.43878   2.44204
 Alpha virt. eigenvalues --    2.45833   2.47266   2.48960   2.49290   2.49308
 Alpha virt. eigenvalues --    2.51183   2.51228   2.52002   2.53179   2.53715
 Alpha virt. eigenvalues --    2.57025   2.58040   2.58942   2.60120   2.61372
 Alpha virt. eigenvalues --    2.62418   2.63639   2.64050   2.67191   2.67970
 Alpha virt. eigenvalues --    2.68670   2.70122   2.71892   2.71980   2.73621
 Alpha virt. eigenvalues --    2.74920   2.75462   2.76750   2.78028   2.78488
 Alpha virt. eigenvalues --    2.79771   2.80282   2.80426   2.81374   2.81881
 Alpha virt. eigenvalues --    2.83021   2.83506   2.84769   2.85720   2.86412
 Alpha virt. eigenvalues --    2.86852   2.87541   2.88801   2.89754   2.90239
 Alpha virt. eigenvalues --    2.92274   2.92496   2.92676   2.93453   2.94313
 Alpha virt. eigenvalues --    2.95260   2.95313   2.95474   2.96073   2.96212
 Alpha virt. eigenvalues --    2.96462   2.97286   2.97712   2.97995   2.98323
 Alpha virt. eigenvalues --    2.98484   3.00225   3.00559   3.01014   3.02192
 Alpha virt. eigenvalues --    3.02744   3.04069   3.04495   3.05128   3.05609
 Alpha virt. eigenvalues --    3.06463   3.07497   3.08139   3.08247   3.08759
 Alpha virt. eigenvalues --    3.09524   3.09901   3.10444   3.11301   3.11908
 Alpha virt. eigenvalues --    3.11930   3.13055   3.13832   3.15217   3.15688
 Alpha virt. eigenvalues --    3.16276   3.17975   3.19050   3.19663   3.20650
 Alpha virt. eigenvalues --    3.20873   3.21326   3.21739   3.22601   3.24178
 Alpha virt. eigenvalues --    3.25310   3.26797   3.27312   3.28332   3.29486
 Alpha virt. eigenvalues --    3.30576   3.31341   3.32026   3.33928   3.34890
 Alpha virt. eigenvalues --    3.35905   3.37502   3.40384   3.41118   3.43441
 Alpha virt. eigenvalues --    3.43904   3.44939   3.47057   3.47682   3.49280
 Alpha virt. eigenvalues --    3.50345   3.50656   3.53529   3.54922   3.55891
 Alpha virt. eigenvalues --    3.57483   3.59572   3.60655   3.63579   3.65770
 Alpha virt. eigenvalues --    3.66626   3.68614   3.70476   3.71098   3.71770
 Alpha virt. eigenvalues --    3.72359   3.73262   3.74100   3.76102   3.79875
 Alpha virt. eigenvalues --    3.81449   3.82289   3.82390   3.86544   3.91012
 Alpha virt. eigenvalues --    3.92222   3.93918   3.95449   3.97295   4.03605
 Alpha virt. eigenvalues --    4.12405   4.13145   4.16274   4.22014   4.24596
 Alpha virt. eigenvalues --    4.25184   4.26965   4.28597   4.30168   4.30590
 Alpha virt. eigenvalues --    4.31529   4.32841   4.34476   4.35359   4.36799
 Alpha virt. eigenvalues --    4.39759   4.40665   4.41442   4.41826   4.43988
 Alpha virt. eigenvalues --    4.44206   4.49848   4.55308   4.56002   4.58667
 Alpha virt. eigenvalues --    4.64840   4.73009   4.75460   4.89172   4.89754
 Alpha virt. eigenvalues --    4.90179   4.90995   4.91990   4.93056   5.00314
 Alpha virt. eigenvalues --    5.01015   5.25403   5.26089   5.27067   5.28591
 Alpha virt. eigenvalues --    5.31396   5.35123   5.42082   5.50569   5.91345
 Alpha virt. eigenvalues --    5.93088   6.92551   6.93562   7.17372   7.31985
 Alpha virt. eigenvalues --    7.38667   7.49499   7.64985   7.75812   7.84044
 Alpha virt. eigenvalues --    8.46292   8.48503   9.22289  17.61108  17.68501
 Alpha virt. eigenvalues --   17.83503  23.75382  23.80417  23.82413  23.84693
 Alpha virt. eigenvalues --   23.88557  23.92566  23.97458  24.03109  24.04912
 Alpha virt. eigenvalues --   24.07180  24.09597  24.12514  24.13050  24.15829
 Alpha virt. eigenvalues --   24.16431  24.19348  24.19692  24.21698  24.21896
 Alpha virt. eigenvalues --   24.22178  24.23481  24.26255  24.27586  24.29841
 Alpha virt. eigenvalues --   24.30283  24.35570  24.37063  24.37781  35.60872
 Alpha virt. eigenvalues --   48.48762  48.49542  49.55245  49.95290  49.99180
 Alpha virt. eigenvalues --   50.05881 189.30782 289.87788 290.14069 290.33718
 Alpha virt. eigenvalues --  290.46164 290.55817 290.67736 290.77747 291.04639
 Alpha virt. eigenvalues --  292.126661019.631071019.970181021.58976
  Beta  occ. eigenvalues -- -485.79885-485.78602-485.26912 -90.09276 -63.88868
  Beta  occ. eigenvalues --  -63.87938 -63.23272 -57.76304 -57.75346 -57.73580
  Beta  occ. eigenvalues --  -57.73432 -57.72595 -57.72466 -57.12408 -57.12152
  Beta  occ. eigenvalues --  -57.12147 -19.61368 -19.61263 -19.61182 -14.79952
  Beta  occ. eigenvalues --  -11.08468 -10.64442 -10.60981 -10.60324 -10.59670
  Beta  occ. eigenvalues --  -10.58628 -10.57513 -10.57423 -10.56991 -10.56850
  Beta  occ. eigenvalues --  -10.56681 -10.55910 -10.55555 -10.55235 -10.55189
  Beta  occ. eigenvalues --  -10.54735 -10.54647 -10.54644 -10.54616 -10.54584
  Beta  occ. eigenvalues --  -10.54430 -10.54067 -10.54043 -10.53987 -10.53712
  Beta  occ. eigenvalues --  -10.53711 -10.53285 -10.53160 -10.50717  -9.55009
  Beta  occ. eigenvalues --   -8.97819  -8.42904  -8.22972  -7.96333  -7.95575
  Beta  occ. eigenvalues --   -7.49840  -7.49223  -7.10594  -6.82983  -6.82064
  Beta  occ. eigenvalues --   -6.82061  -6.37796  -6.37793  -6.37649  -4.18153
  Beta  occ. eigenvalues --   -4.17866  -4.13432  -3.73986  -3.73777  -3.50309
  Beta  occ. eigenvalues --   -3.50072  -3.32903  -3.32589  -3.12448  -2.86518
  Beta  occ. eigenvalues --   -2.86183  -2.86176  -2.85354  -2.85353  -1.46519
  Beta  occ. eigenvalues --   -1.26372  -1.17129  -1.14125  -1.08692  -1.03422
  Beta  occ. eigenvalues --   -1.00869  -1.00436  -0.98773  -0.97769  -0.96785
  Beta  occ. eigenvalues --   -0.94246  -0.91721  -0.90215  -0.89482  -0.89408
  Beta  occ. eigenvalues --   -0.89146  -0.88487  -0.87733  -0.86401  -0.84090
  Beta  occ. eigenvalues --   -0.80630  -0.78166  -0.77320  -0.76873  -0.75943
  Beta  occ. eigenvalues --   -0.74922  -0.73571  -0.72187  -0.71998  -0.71057
  Beta  occ. eigenvalues --   -0.69898  -0.68339  -0.66600  -0.65014  -0.63799
  Beta  occ. eigenvalues --   -0.62795  -0.62145  -0.60104  -0.59318  -0.59137
  Beta  occ. eigenvalues --   -0.57896  -0.57313  -0.56895  -0.56406  -0.55851
  Beta  occ. eigenvalues --   -0.55697  -0.54553  -0.54241  -0.53955  -0.53424
  Beta  occ. eigenvalues --   -0.53277  -0.52855  -0.52188  -0.51252  -0.50764
  Beta  occ. eigenvalues --   -0.50134  -0.49118  -0.47833  -0.47321  -0.46785
  Beta  occ. eigenvalues --   -0.46126  -0.46006  -0.45867  -0.45721  -0.45565
  Beta  occ. eigenvalues --   -0.44945  -0.44718  -0.43711  -0.43287  -0.42576
  Beta  occ. eigenvalues --   -0.41447  -0.39781  -0.39170  -0.38692  -0.37858
  Beta  occ. eigenvalues --   -0.37590  -0.37155  -0.35356  -0.34777  -0.34180
  Beta  occ. eigenvalues --   -0.33673  -0.33346  -0.32523  -0.32393  -0.31348
  Beta  occ. eigenvalues --   -0.31152  -0.30740  -0.27825  -0.22008
  Beta virt. eigenvalues --   -0.08165  -0.06175  -0.04195  -0.03482  -0.03403
  Beta virt. eigenvalues --   -0.03116  -0.02679  -0.02380  -0.02221  -0.02027
  Beta virt. eigenvalues --   -0.01614  -0.01429  -0.01425  -0.01228  -0.01101
  Beta virt. eigenvalues --   -0.00892  -0.00494  -0.00362  -0.00181   0.00042
  Beta virt. eigenvalues --    0.00120   0.00412   0.00898   0.01223   0.01585
  Beta virt. eigenvalues --    0.01777   0.02008   0.02239   0.02471   0.02698
  Beta virt. eigenvalues --    0.02860   0.03072   0.03637   0.04164   0.04342
  Beta virt. eigenvalues --    0.04806   0.04894   0.05081   0.05347   0.05395
  Beta virt. eigenvalues --    0.06066   0.06398   0.06795   0.06972   0.07254
  Beta virt. eigenvalues --    0.07305   0.07498   0.07684   0.08026   0.08178
  Beta virt. eigenvalues --    0.08317   0.08396   0.09021   0.09242   0.09570
  Beta virt. eigenvalues --    0.09820   0.10102   0.10343   0.10461   0.10484
  Beta virt. eigenvalues --    0.10573   0.10778   0.10991   0.11074   0.11278
  Beta virt. eigenvalues --    0.11400   0.11509   0.11669   0.11883   0.11954
  Beta virt. eigenvalues --    0.12154   0.12299   0.12624   0.12652   0.12786
  Beta virt. eigenvalues --    0.12904   0.13294   0.13360   0.13478   0.13714
  Beta virt. eigenvalues --    0.13859   0.14066   0.14211   0.14312   0.14505
  Beta virt. eigenvalues --    0.14687   0.15150   0.15162   0.15554   0.15657
  Beta virt. eigenvalues --    0.15815   0.15915   0.16151   0.16300   0.16452
  Beta virt. eigenvalues --    0.16524   0.16810   0.17227   0.17278   0.17603
  Beta virt. eigenvalues --    0.17718   0.17841   0.18202   0.18287   0.18449
  Beta virt. eigenvalues --    0.18774   0.19030   0.19128   0.19218   0.19346
  Beta virt. eigenvalues --    0.19608   0.19729   0.20248   0.20467   0.20614
  Beta virt. eigenvalues --    0.20916   0.20959   0.21250   0.21716   0.21878
  Beta virt. eigenvalues --    0.22053   0.22276   0.22413   0.22651   0.22741
  Beta virt. eigenvalues --    0.22965   0.23273   0.23600   0.23675   0.24034
  Beta virt. eigenvalues --    0.24092   0.24251   0.24503   0.24733   0.24995
  Beta virt. eigenvalues --    0.25224   0.25555   0.25723   0.25845   0.26362
  Beta virt. eigenvalues --    0.26455   0.26644   0.26850   0.27159   0.27398
  Beta virt. eigenvalues --    0.27654   0.28116   0.28216   0.28619   0.28805
  Beta virt. eigenvalues --    0.29065   0.29131   0.29531   0.29594   0.29900
  Beta virt. eigenvalues --    0.30048   0.30518   0.30697   0.30912   0.31134
  Beta virt. eigenvalues --    0.31450   0.31560   0.31810   0.31871   0.31970
  Beta virt. eigenvalues --    0.32575   0.32709   0.33297   0.33536   0.33737
  Beta virt. eigenvalues --    0.33870   0.34181   0.34524   0.34673   0.34732
  Beta virt. eigenvalues --    0.34970   0.35051   0.35253   0.35480   0.35577
  Beta virt. eigenvalues --    0.36061   0.36250   0.36458   0.36746   0.37005
  Beta virt. eigenvalues --    0.37176   0.37549   0.37666   0.37922   0.38513
  Beta virt. eigenvalues --    0.38832   0.38970   0.39058   0.39531   0.39821
  Beta virt. eigenvalues --    0.40098   0.40367   0.40634   0.40853   0.41435
  Beta virt. eigenvalues --    0.41572   0.42337   0.42632   0.42826   0.42908
  Beta virt. eigenvalues --    0.43168   0.43418   0.44281   0.44514   0.44648
  Beta virt. eigenvalues --    0.44903   0.45723   0.45870   0.46258   0.46537
  Beta virt. eigenvalues --    0.46933   0.47474   0.47866   0.48717   0.49317
  Beta virt. eigenvalues --    0.49808   0.50275   0.50804   0.51822   0.51911
  Beta virt. eigenvalues --    0.52494   0.52990   0.53819   0.54423   0.54967
  Beta virt. eigenvalues --    0.55277   0.55494   0.56040   0.56571   0.56855
  Beta virt. eigenvalues --    0.57557   0.57775   0.58314   0.58688   0.58767
  Beta virt. eigenvalues --    0.59222   0.60257   0.60732   0.60977   0.61427
  Beta virt. eigenvalues --    0.61743   0.62220   0.62370   0.62420   0.62837
  Beta virt. eigenvalues --    0.63488   0.63620   0.63853   0.64127   0.64335
  Beta virt. eigenvalues --    0.64815   0.64969   0.65772   0.65906   0.66159
  Beta virt. eigenvalues --    0.66679   0.66799   0.67555   0.67835   0.67991
  Beta virt. eigenvalues --    0.68372   0.68896   0.69940   0.70181   0.70463
  Beta virt. eigenvalues --    0.70987   0.71292   0.71793   0.72034   0.72248
  Beta virt. eigenvalues --    0.72585   0.72995   0.73292   0.73425   0.73569
  Beta virt. eigenvalues --    0.73902   0.74057   0.74271   0.74669   0.75447
  Beta virt. eigenvalues --    0.75717   0.76070   0.76606   0.76840   0.77202
  Beta virt. eigenvalues --    0.77644   0.77722   0.78037   0.78516   0.78848
  Beta virt. eigenvalues --    0.78978   0.79662   0.79718   0.80135   0.80376
  Beta virt. eigenvalues --    0.80631   0.80788   0.80952   0.81627   0.82205
  Beta virt. eigenvalues --    0.82596   0.82858   0.83151   0.83707   0.83738
  Beta virt. eigenvalues --    0.84282   0.84397   0.84818   0.85016   0.85166
  Beta virt. eigenvalues --    0.85726   0.85817   0.86216   0.86743   0.86985
  Beta virt. eigenvalues --    0.87434   0.87804   0.87826   0.88353   0.88709
  Beta virt. eigenvalues --    0.89077   0.89208   0.89434   0.89745   0.90165
  Beta virt. eigenvalues --    0.90673   0.90962   0.92021   0.92066   0.92579
  Beta virt. eigenvalues --    0.92971   0.93091   0.93140   0.94230   0.94374
  Beta virt. eigenvalues --    0.94514   0.95473   0.95781   0.96139   0.96546
  Beta virt. eigenvalues --    0.97298   0.97635   0.98409   0.98710   0.98899
  Beta virt. eigenvalues --    0.99119   0.99753   1.00817   1.01435   1.01723
  Beta virt. eigenvalues --    1.02253   1.02984   1.03276   1.03311   1.04067
  Beta virt. eigenvalues --    1.04729   1.05225   1.05724   1.06196   1.06513
  Beta virt. eigenvalues --    1.07168   1.08014   1.08835   1.09015   1.09479
  Beta virt. eigenvalues --    1.10582   1.10859   1.11524   1.11663   1.12093
  Beta virt. eigenvalues --    1.12193   1.12712   1.13742   1.13927   1.14349
  Beta virt. eigenvalues --    1.14462   1.15742   1.16156   1.16311   1.16874
  Beta virt. eigenvalues --    1.17547   1.17892   1.18410   1.18652   1.18888
  Beta virt. eigenvalues --    1.19399   1.20378   1.20805   1.21355   1.22107
  Beta virt. eigenvalues --    1.23093   1.24761   1.25503   1.25816   1.26187
  Beta virt. eigenvalues --    1.27234   1.27474   1.28481   1.28926   1.29773
  Beta virt. eigenvalues --    1.30337   1.31324   1.31752   1.31998   1.33067
  Beta virt. eigenvalues --    1.33760   1.34341   1.34447   1.35273   1.36407
  Beta virt. eigenvalues --    1.36804   1.37353   1.37678   1.39028   1.39470
  Beta virt. eigenvalues --    1.40030   1.41033   1.41606   1.42965   1.44154
  Beta virt. eigenvalues --    1.45570   1.46430   1.47155   1.49302   1.49994
  Beta virt. eigenvalues --    1.50786   1.51346   1.53363   1.53659   1.54558
  Beta virt. eigenvalues --    1.54914   1.55059   1.55617   1.55889   1.56372
  Beta virt. eigenvalues --    1.57355   1.57817   1.58330   1.58955   1.59667
  Beta virt. eigenvalues --    1.59904   1.60436   1.60934   1.61245   1.61916
  Beta virt. eigenvalues --    1.62431   1.62752   1.62843   1.63525   1.63683
  Beta virt. eigenvalues --    1.64554   1.64932   1.65658   1.66220   1.67226
  Beta virt. eigenvalues --    1.67934   1.68432   1.68880   1.69953   1.70197
  Beta virt. eigenvalues --    1.70361   1.71471   1.71719   1.72152   1.72904
  Beta virt. eigenvalues --    1.73259   1.73814   1.74653   1.75178   1.75599
  Beta virt. eigenvalues --    1.76329   1.77227   1.77738   1.78533   1.79600
  Beta virt. eigenvalues --    1.80497   1.80870   1.81204   1.82483   1.82774
  Beta virt. eigenvalues --    1.83476   1.84107   1.85303   1.85440   1.86593
  Beta virt. eigenvalues --    1.87312   1.88018   1.88044   1.88823   1.89725
  Beta virt. eigenvalues --    1.89941   1.90200   1.91257   1.91729   1.91983
  Beta virt. eigenvalues --    1.93151   1.93439   1.94309   1.95250   1.95806
  Beta virt. eigenvalues --    1.96213   1.96919   1.97124   1.97648   1.98027
  Beta virt. eigenvalues --    1.98577   1.98797   1.98986   1.99288   1.99531
  Beta virt. eigenvalues --    2.00433   2.00960   2.01245   2.01727   2.02078
  Beta virt. eigenvalues --    2.02209   2.02416   2.02695   2.03426   2.03676
  Beta virt. eigenvalues --    2.04033   2.04702   2.04951   2.05785   2.06999
  Beta virt. eigenvalues --    2.07844   2.08477   2.08940   2.09880   2.10184
  Beta virt. eigenvalues --    2.10575   2.11949   2.13247   2.13746   2.13922
  Beta virt. eigenvalues --    2.14141   2.15057   2.15969   2.16660   2.16869
  Beta virt. eigenvalues --    2.17517   2.18061   2.19346   2.19558   2.20252
  Beta virt. eigenvalues --    2.21039   2.21680   2.23040   2.24878   2.26189
  Beta virt. eigenvalues --    2.26723   2.27276   2.28691   2.31060   2.31767
  Beta virt. eigenvalues --    2.33585   2.34558   2.35766   2.36282   2.36368
  Beta virt. eigenvalues --    2.37188   2.37855   2.38258   2.39036   2.39394
  Beta virt. eigenvalues --    2.39835   2.41244   2.42599   2.43300   2.43952
  Beta virt. eigenvalues --    2.44214   2.45847   2.47274   2.49009   2.49306
  Beta virt. eigenvalues --    2.49389   2.51198   2.51252   2.52035   2.53317
  Beta virt. eigenvalues --    2.53718   2.57132   2.58063   2.58959   2.60138
  Beta virt. eigenvalues --    2.61394   2.62426   2.63668   2.64052   2.67197
  Beta virt. eigenvalues --    2.67982   2.68748   2.70097   2.71892   2.72000
  Beta virt. eigenvalues --    2.73738   2.74994   2.75472   2.76817   2.78034
  Beta virt. eigenvalues --    2.78495   2.79786   2.80315   2.80449   2.81417
  Beta virt. eigenvalues --    2.81886   2.83035   2.83523   2.84778   2.85760
  Beta virt. eigenvalues --    2.86419   2.86926   2.87546   2.88822   2.89766
  Beta virt. eigenvalues --    2.90273   2.92280   2.92502   2.92685   2.93470
[...]
 0012816,0.00004635,-0.00000551,0.00001410,0.00000920,0.00003341,-0.000
 02946,0.00002215,0.00000686,-0.00002646,0.00001926,0.00000018,-0.00000
 017,0.00000412,-0.00004751,0.00002843,-0.00002621,0.00047012,0.0004813
 8,-0.00057300,-0.00387181,0.00050044,0.00617041,-0.00009729,-0.0004350
 2,-0.00018564,-0.00188836,0.00028012,0.00709942,0.00000328,0.00008565,
 -0.00007502,0.00061467,0.00337094,0.00450915,0.00135412,0.00019331,-0.
 00361661,-0.02656795,-0.04955935,-0.05146232,0.03262393,0.05391025,0.0
 4042804,-0.00001203,-0.00002253,0.00002385,0.00024936,0.00438869,-0.00
 200388,0.00108673,0.00066520,-0.00040688,-0.00017553,-0.00026031,0.000
 32075,0.00071701,-0.00078832,0.00051756,-0.00004061,0.00183899,0.00007
 079,-0.00128182,0.00065278,-0.00012744,0.00002249,-0.00011917,0.000510
 62,-0.00027986,-0.00021919,-0.00045255,-0.00004539,-0.00041542,0.00020
 161,-0.00027423,-0.00000716,-0.00003415,-0.00006184,-0.00003331,-0.000
 10965,0.00040658,-0.00003829,0.00046447,-0.00000336,0.00001316,-0.0000
 3900,0.00001275,0.00000846,-0.00002325,-0.00000940,-0.00000510,-0.0000
 2812,-0.00097172,-0.00036098,0.00099370,0.00000570,0.00004715,-0.00001
 651,-0.00001491,-0.00001667,0.00008261,-0.00000046,-0.00000187,-0.0000
 0506,0.00034669,-0.00006358,-0.00003413,0.00001159,-0.00000228,-0.0000
 0405,0.00001780,-0.00002533,-0.00000582,-0.00001012,-0.00000319,0.0000
 0058,-0.00030437,0.00072146,0.00038583,0.00002933,-0.00020246,-0.00009
 853,-0.00007070,0.00025261,0.00010387,0.00000138,0.00001280,-0.0000266
 6,0.00000453,-0.00005115,0.00001020,-0.00000080,-0.00000005,0.00000189
 ,-0.00013685,-0.00015801,-0.00016389,-0.00000805,-0.00000517,-0.000009
 99,-0.00042142,0.00019192,-0.00083266,0.00017657,-0.00049600,-0.000085
 52,-0.00002149,-0.00001505,-0.00002180,0.00022685,0.00056148,-0.000226
 03,-0.00008680,-0.00025502,-0.00006163,0.00014666,-0.00025011,0.000080
 86,-0.00000323,0.00001821,0.00003100,0.00000962,-0.00000960,-0.0000414
 9,-0.00017873,-0.00006992,0.00010071,-0.00000772,0.00000447,0.00000933
 ,0.00009124,0.00011990,-0.00000350,0.06500331,-0.02125537,0.01529541,-
 0.16073660,-0.04201435,-0.03488265,-0.00537764,-0.02627788,-0.00505516
 ,-0.05072414,-0.03350615,-0.01513935,-0.00088155,-0.00103710,0.0010612
 8,-0.02898586,0.07698279,-0.00698684,0.00078831,0.00301685,-0.00198071
 ,-0.31050874,-0.04387455,-0.07921746,-0.00608992,0.00192341,-0.0040617
 3,0.63793011,0.00000009,0.00000280,0.00000216,0.00912009,-0.00092711,0
 .00134125,0.00037064,0.00173703,-0.00034960,0.00037671,-0.00062518,-0.
 00022725,-0.00120248,0.00097630,-0.00089885,-0.00096296,-0.00238160,0.
 00019697,-0.00105184,0.00035697,0.00026165,-0.00030372,-0.00013981,0.0
 0021269,0.00003165,-0.00029837,-0.00066788,0.00014690,-0.00063798,0.00
 030694,-0.00023458,0.00006237,-0.00014396,-0.00010608,0.00005117,-0.00
 006220,0.00023502,-0.00013777,0.00025165,0.00000151,-0.00000838,-0.000
 00353,0.00000212,-0.00001556,-0.00003049,-0.00002629,0.00000616,0.0000
 0994,-0.00088664,0.00026996,0.00070079,-0.00001045,0.00001162,0.000011
 18,0.00000929,-0.00002694,0.00000488,0.00001766,0.00000427,-0.00002576
 ,0.00019197,0.00005888,0.00005238,0.00003361,0.00002868,-0.00008453,0.
 00000866,0.00000694,0.00000089,-0.00000331,0.00000040,-0.00000355,0.00
 009107,0.00023941,0.00025697,-0.00002267,-0.00006439,0.00008972,-0.000
 11997,0.00031843,0.00005395,0.00000722,0.00001016,-0.00002144,0.000007
 05,-0.00000959,0.00003079,0.00000050,-0.00000189,0.00000243,-0.0001718
 5,-0.00022285,-0.00007308,0.00002693,0.00000689,-0.00001264,-0.0002138
 6,0.00022125,-0.00049825,0.00014626,-0.00035720,-0.00002582,-0.0000084
 8,-0.00000180,-0.00002973,-0.00005035,0.00016183,-0.00027553,0.0000179
 5,-0.00013840,0.00010234,0.00015280,-0.00017990,0.00005667,-0.00000782
 ,-0.00001372,0.00000046,-0.00003895,0.00002950,-0.00005525,-0.00029511
 ,0.00000540,0.00003684,-0.00001459,0.00000768,-0.00000183,0.00013837,0
 .00022762,-0.00002227,0.03485398,-0.06241323,0.00838241,-0.11551327,-0
 .30331842,-0.05558278,0.00186916,0.00412378,-0.00019304,-0.03648202,-0
 .02384785,-0.01243287,-0.00117385,-0.00010935,0.00044894,0.02456419,0.
 04936148,0.00931746,0.00339901,-0.00409361,-0.00007976,0.02990715,-0.1
 3241360,0.00460857,-0.02753273,0.00239509,-0.00910969,-0.04823847,0.72
 656837,0.00000289,0.00000393,-0.00000599,-0.00126618,0.00175852,0.0050
 2966,-0.00074316,0.00000600,0.00030265,0.00047251,0.00089581,-0.000414
 03,0.00145241,0.00003727,0.00031425,0.00020085,0.00056613,-0.00065893,
 -0.00066306,-0.00002175,0.00021973,-0.00018356,-0.00022981,0.00018833,
 -0.00026538,0.00008499,-0.00041112,-0.00012495,-0.00011733,-0.00015755
 ,-0.00003143,0.00005130,-0.00002964,-0.00000911,0.00000664,-0.00003193
 ,-0.00000910,0.00002370,0.00016908,-0.00001077,-0.00000493,0.00000813,
 0.00003223,-0.00000811,0.00001270,-0.00002345,0.00000116,0.00000854,0.
 00038975,-0.00044591,-0.00124510,0.00000705,0.00001610,0.00002274,0.00
 003976,-0.00003969,0.00003235,-0.00001401,-0.00000512,0.00000938,-0.00
 000211,-0.00010833,0.00002521,-0.00004195,0.00000233,0.00000312,-0.000
 01360,0.00001208,-0.00002847,-0.00000022,0.00000158,-0.00000086,-0.000
 00941,0.00058661,0.00021213,0.00003134,-0.00017108,0.00042074,0.000037
 17,0.00006791,0.00001666,0.00000005,0.00000593,-0.00000828,-0.00002140
 ,-0.00002031,0.00001359,-0.00000095,-0.00000475,0.00000071,-0.00007561
 ,0.00004447,-0.00002121,0.00000818,-0.00000330,0.00000064,-0.00005309,
 0.00006457,-0.00024855,0.00003904,-0.00014902,-0.00010553,-0.00000928,
 -0.00000406,-0.00000492,0.00004807,0.00005137,0.00006000,0.00003997,-0
 .00009917,0.00003812,-0.00001299,0.00001809,0.00001664,-0.00000615,-0.
 00000234,0.00000189,-0.00002052,0.00001448,-0.00003176,-0.00004314,-0.
 00004120,0.00008679,-0.00000555,0.00000468,-0.00000208,0.00002840,0.00
 001305,0.00000731,0.01881168,-0.01010797,0.01302985,-0.03948244,-0.035
 13376,-0.07643414,-0.00279636,-0.00803202,0.00273451,-0.01553306,-0.01
 163748,-0.01262138,0.00006868,-0.00021715,-0.00068193,-0.00848246,0.02
 552528,0.00508213,-0.00183184,-0.00003930,0.00678767,-0.07676057,-0.01
 844127,-0.08737670,-0.00519684,0.00050612,0.00215769,0.15220638,0.0343
 9811,0.18680229,0.00000213,0.00000356,-0.00000406,0.00073006,-0.000317
 62,-0.00011250,-0.00016665,0.00009993,0.00006187,-0.00003942,0.0001820
 2,-0.00017649,-0.00018853,0.00003794,-0.00006912,-0.00001449,-0.000486
 92,0.00015185,0.00010501,-0.00007096,0.00003598,0.00000262,-0.00000859
 ,-0.00000750,-0.00001958,-0.00002854,-0.00001912,-0.00001985,-0.000017
 98,0.00001179,-0.00001105,0.00000414,-0.00001160,0.00000089,0.00000778
 ,0.00000553,-0.00001381,0.00001027,-0.00000580,0.00000351,0.00000259,0
 .00000038,-0.00000112,0.00000010,0.00000033,0.00000177,0.00000032,0.00
 000560,0.00010772,-0.00010293,-0.00005744,-0.00000602,-0.00000382,0.00
 000827,-0.00000168,-0.00000736,-0.00000778,0.00000281,0.00000093,-0.00
 000323,0.00002161,0.00002105,-0.00002790,-0.00002525,-0.00000125,0.000
 04254,0.00000306,0.00000363,-0.00000204,0.00000056,0.00000018,-0.00000
 048,-0.00001108,0.00005102,0.00003617,0.00000132,0.00001646,-0.0000110
 0,0.00000070,-0.00001305,-0.00000596,-0.00000079,0.00000248,0.00000273
 ,-0.00000151,0.00000111,0.00000450,0.00000031,-0.00000032,0.00000066,-
 0.00002821,0.00002578,-0.00003186,-0.00000762,-0.00000534,0.00000692,-
 0.00003762,-0.00001552,-0.00002930,0.00000704,-0.00001539,0.00001339,-
 0.00000098,0.00000164,-0.00000174,0.00000042,0.00002235,-0.00003409,-0
 .00000683,0.00002516,0.00003062,0.00002206,-0.00001246,-0.00001915,0.0
 0000406,0.00000498,0.00001091,-0.00000606,0.00000667,-0.00001208,-0.00
 001649,0.00000856,-0.00000214,0.00000033,-0.00000014,-0.00000103,0.000
 03344,-0.00001558,0.00001140,0.00053699,-0.00289467,-0.00208351,0.0107
 2352,-0.01283044,0.00101860,0.00013572,0.00031364,0.00125975,-0.000741
 79,-0.00102551,0.00000662,-0.00005123,0.00005695,0.00030867,-0.0044165
 1,-0.00124660,-0.00366174,-0.00060928,0.00122991,-0.00004797,-0.010034
 60,0.02585593,-0.00217217,0.00018563,-0.00042940,0.00122893,-0.1395452
 7,0.12896394,-0.02016124,0.14339568,-0.00000280,-0.00000212,0.00000476
 ,0.00176263,0.00038654,-0.00021481,-0.00046412,0.00009804,0.00028371,0
 .00004735,0.00065880,-0.00018075,-0.00047660,-0.00008986,-0.00017039,-
 0.00005027,-0.00088128,0.00020574,0.00033766,-0.00020364,0.00004571,0.
 00003901,0.00001455,0.00007775,-0.00012050,-0.00001046,-0.00001839,-0.
 00009018,-0.00000123,-0.00010021,-0.00001293,0.00001000,-0.00003142,0.
 00001860,0.00002927,0.00001875,-0.00005653,0.00002019,-0.00003728,0.00
 001709,0.00000982,0.00000461,-0.00000381,-0.00001253,-0.00000194,0.000
 00263,-0.00000297,0.00000976,0.00013667,-0.00087647,-0.00005695,-0.000
 00107,0.00000850,0.00000106,-0.00000052,-0.00001560,-0.00001085,0.0000
 0606,0.00000895,-0.00000708,-0.00005504,0.00004844,-0.00003147,-0.0000
 3808,0.00000523,0.00003377,0.00000217,0.00000845,0.00000112,0.00000086
 ,-0.00000026,-0.00000103,0.00001250,0.00006087,0.00002267,0.00003808,-
 0.00000679,0.00003100,0.00004552,-0.00002470,-0.00000859,-0.00000475,0
 .00000102,0.00000309,-0.00000733,-0.00000350,0.00001199,-0.00000021,-0
 .00000159,0.00000224,-0.00003166,0.00007170,0.00000456,-0.00000291,-0.
 00000264,0.00001187,0.00000241,0.00000316,-0.00001428,-0.00001169,-0.0
 0000640,0.00000098,0.00000100,-0.00000158,-0.00000380,0.00000359,0.000
 02002,0.00001298,0.00000498,-0.00000476,-0.00000463,-0.00000517,0.0000
 0734,-0.00000504,-0.00000250,0.00000149,-0.00000040,-0.00000562,0.0000
 0251,-0.00000322,-0.00000338,0.00000116,0.00000532,-0.00000247,0.00000
 077,-0.00000272,-0.00000194,-0.00000547,0.00000223,-0.00303507,-0.0035
 5177,-0.00150911,0.01646084,-0.01740032,0.00334572,-0.00029795,0.00061
 966,0.00036039,-0.00088626,0.00015019,-0.00016925,0.00003248,-0.000054
 69,0.00013383,-0.00088003,0.00152577,-0.00092727,-0.00027132,0.0001459
 5,-0.00006894,-0.00363235,0.00568159,-0.00088148,0.00021506,0.00049424
 ,0.00051065,0.12867906,-0.25486883,0.02031725,-0.13741023,0.26793500,-
 0.00000681,-0.00001103,0.00001226,0.00052427,-0.00005325,0.00060650,0.
 00002583,0.00003903,-0.00002029,-0.00020429,-0.00111654,0.00029720,-0.
 00007888,0.00000378,-0.00008182,0.00006092,-0.00038310,-0.00020097,-0.
 00006139,0.00013210,-0.00001087,-0.00003693,-0.00005250,-0.00013493,0.
 00017490,-0.00005172,0.00007517,0.00001426,0.00001119,-0.00002716,-0.0
 0001215,-0.00003167,-0.00000552,0.00000774,-0.00000757,-0.00000790,-0.
 00003585,-0.00002404,-0.00001108,-0.00000586,-0.00000864,0.00000004,-0
 .00000172,0.00001233,-0.00000133,-0.00000047,0.00000517,-0.00000928,-0
 .00016187,0.00115369,0.00035345,0.00000842,0.00001520,-0.00001875,-0.0
 0000422,-0.00000007,0.00000303,-0.00000008,0.00000284,-0.00000109,0.00
 000938,-0.00000232,0.00002173,0.00004115,0.00000732,-0.00000859,-0.000
 00095,-0.00000537,0.00000744,-0.00000057,-0.00000088,0.00000067,-0.000
 08374,0.00001457,-0.00000161,-0.00005002,0.00001889,-0.00002489,-0.000
 01182,-0.00001425,-0.00000719,-0.00000475,-0.00000696,-0.00000340,0.00
 000207,-0.00001071,0.00000038,-0.00000046,0.00000226,-0.00000083,0.000
 01359,-0.00002869,-0.00002404,-0.00000982,0.00000080,0.00000394,-0.000
 03099,-0.00001389,0.00000152,0.00001131,0.00001662,-0.00001216,-0.0000
 0340,0.00000360,-0.00000077,0.00002400,-0.00002458,-0.00000915,-0.0000
 1277,0.00001319,0.00001695,0.00000101,0.00000738,-0.00000511,0.0000062
 8,0.00000076,0.00000851,0.00001684,-0.00000764,0.00000438,0.00003743,-
 0.00000287,0.00000080,0.00000226,-0.00000214,0.00000019,-0.00001690,-0
 .00001819,0.00000306,-0.00255726,-0.00179467,0.00685269,0.00360300,-0.
 00509522,0.00433199,0.00131076,0.00045745,-0.00371924,-0.00030909,-0.0
 0033532,-0.00126389,0.00029417,0.00000426,-0.00088107,-0.00366506,-0.0
 0043985,0.00609690,-0.00022124,0.00042184,-0.00005402,-0.00405763,0.00
 823016,0.00314324,0.00124961,0.00021849,-0.00350526,-0.02030502,0.0197
 5451,-0.04330830,0.02451049,-0.02100288,0.03151778,-0.00002557,-0.0000
 4379,0.00005803,0.00007387,0.00007857,0.00012416,-0.00006791,-0.000042
 27,-0.00002627,-0.00012470,0.00016762,-0.00001240,-0.00005435,-0.00002
 315,-0.00006546,-0.00002357,-0.00003817,-0.00003601,0.00004217,0.00001
 412,0.00000572,-0.00007297,0.00000606,-0.00003913,-0.00033223,0.000104
 60,-0.00007917,0.00005516,0.00009560,0.00004949,0.00001252,0.00000495,
 0.00003728,-0.00000426,-0.00002527,-0.00005522,-0.00002751,0.00000823,
 -0.00000670,0.00000333,0.00000106,-0.00000170,-0.00000676,-0.00001473,
 0.00000264,0.00001847,-0.00000559,-0.00002515,0.00035711,-0.00023726,0
 .00011951,0.00004969,0.00005390,-0.00007826,-0.00001952,0.00001703,0.0
 0003133,0.00000546,0.00000845,0.00000234,0.00001324,-0.00002917,-0.000
 00253,0.00001140,0.00000314,-0.00000096,-0.00001180,-0.00001862,0.0000
 2557,-0.00000303,-0.00000435,0.00000078,0.00022815,-0.00008550,0.00002
 632,-0.00001199,0.00000351,-0.00002668,-0.00000164,-0.00000308,-0.0000
 0083,-0.00000344,-0.00000087,-0.00000295,0.00000488,-0.00002489,0.0000
 0160,-0.00001227,0.00000243,0.00000132,-0.00000971,-0.00000984,-0.0000
 0595,-0.00000659,0.00000157,-0.00000320,0.00000657,0.00029341,0.000071
 55,0.00021610,-0.00014800,-0.00001635,0.00000326,0.00000121,-0.0000077
 2,-0.00040501,0.00005236,0.00009864,-0.00004156,0.00003667,-0.00001253
 ,-0.00021579,-0.00053425,0.00000226,0.00001472,-0.00004850,-0.00005124
 ,-0.00163880,-0.00081163,0.00546981,-0.00068657,0.00040159,-0.00121018
 ,-0.00043021,-0.00008382,-0.00044108,-0.00005516,0.00053384,-0.0010760
 7,0.00000657,0.00000921,-0.00001419,-0.00000516,0.00001675,-0.00001568
 ,-0.00000071,0.00000095,0.00000598,-0.00001131,-0.00001945,-0.00001288
 ,0.00000464,0.00001423,0.00002613,0.00001553,0.00002965,-0.00002059,-0
 .00001618,-0.00001635,0.00002726,0.00000759,-0.00003446,-0.00001139,0.
 00000171,-0.00000304,0.00000935,-0.00001347,-0.00001918,-0.00001148,-0
 .00000564,-0.00000092,0.00000236,0.00319322,0.00000087,0.00000394,-0.0
 0000125,0.00001792,-0.00004437,-0.00000680,-0.00000318,0.00001474,0.00
 000366,0.00000638,0.00001141,0.00000864,-0.00000175,0.00000933,0.00000
 236,-0.00001551,0.00002563,-0.00000159,0.00000727,-0.00000410,-0.00000
 233,0.00000765,0.00000193,0.00000455,0.00000351,-0.00000769,0.00000061
 ,-0.00000467,-0.00000794,-0.00000200,0.00000256,-0.00000574,-0.0000016
 8,0.00000290,-0.00000099,0.00000618,-0.00000050,-0.00000139,-0.0000005
 3,0.00000042,0.00000010,0.00000029,-0.00000159,-0.00000219,0.00000156,
 -0.00000356,0.00000127,-0.00000110,-0.00001834,-0.00000693,-0.00001264
 ,-0.00000062,-0.00000312,-0.00000219,-0.00000207,0.00000100,-0.0000022
 4,0.00000298,-0.00000220,0.00000429,-0.00000214,0.00000148,0.00000011,
 -0.00000127,-0.00000020,-0.00000036,-0.00000351,0.00000280,-0.00000124
 ,0.00000475,0.00000145,0.00000064,0.00000245,0.00000630,0.00001898,-0.
 00000561,0.00000555,-0.00000728,0.00000161,-0.00000080,0.00000050,0.00
 000018,-0.00000019,0.00000025,0.00000333,0.00000206,-0.00000046,-0.000
 00116,-0.00000123,0.00000009,0.00000060,0.00000266,0.00000138,0.000000
 12,-0.00000007,0.00000003,-0.00013138,-0.00008680,-0.00002386,-0.00011
 942,0.00011119,-0.00007394,-0.00000898,-0.00000824,-0.00000603,0.00015
 263,0.00002393,-0.00014415,-0.00000832,0.00000568,-0.00001466,-0.00022
 290,0.00035422,-0.00002893,0.00000685,0.00002475,-0.00003043,-0.000330
 77,-0.00026574,0.00095072,-0.00007309,-0.00004727,0.00016447,-0.000180
 06,-0.00015136,-0.00018592,0.00055028,-0.00054215,0.00142961,-0.000002
 39,0.00000593,0.00000064,0.00000143,0.00000141,0.00000268,0.00000012,-
 0.00000020,-0.00000098,0.00000173,-0.00000342,0.00000172,0.00000200,-0
 .00000279,-0.00000231,-0.00000358,0.00000189,0.00000454,0.00000254,-0.
 00000208,-0.00000579,-0.00000108,-0.00000184,-0.00000039,-0.00000049,0
 .00000224,-0.00000239,-0.00000027,0.00000289,-0.00000031,-0.00000037,0
 .00000023,-0.00000088,0.00036546,0.00057504,0.00002639,0.00004741,-0.0
 0006319,-0.00012312,-0.00009091,-0.00004087,0.00008324,0.00005715,-0.0
 0002050,0.00012154,-0.00017539,-0.00000495,0.00006332,0.00002806,0.000
 03919,0.00004819,0.00003659,0.00001214,-0.00003830,-0.00002062,-0.0000
 0578,0.00007113,-0.00000774,0.00004000,0.00041083,-0.00009333,0.000104
 00,-0.00001724,-0.00014112,-0.00001520,-0.00002564,-0.00000515,-0.0000
 3039,-0.00000526,0.00002225,0.00006946,0.00002433,-0.00000579,0.000005
 84,-0.00000373,-0.00000164,0.00000383,0.00000712,0.00001525,-0.0000087
 1,-0.00001059,0.00000204,0.00003564,-0.00035948,0.00025713,-0.00010947
 ,-0.00004615,-0.00004830,0.00007493,0.00001786,-0.00001400,-0.00002623
 ,-0.00000320,-0.00001059,0.00000233,-0.00001103,0.00002839,-0.00000190
 ,-0.00001102,-0.00000389,0.00000256,0.00001320,0.00002690,-0.00003107,
 0.00000779,0.00000514,0.00000245,-0.00031172,0.00016148,-0.00005520,0.
 00000456,-0.00001742,0.00004192,0.00000465,0.00000321,-0.00000199,0.00
 000279,0.00000036,0.00000367,-0.00000382,0.00002429,-0.00000710,0.0000
 2048,-0.00000251,-0.00000136,0.00001023,0.00001052,0.00000650,0.000005
 53,-0.00000186,0.00000440,0.00067935,0.00030164,0.00006655,0.00072467,
 -0.00021960,0.00009962,0.00013503,-0.00008567,0.00001200,-0.00070404,0
 .00001223,-0.00001758,0.00010047,-0.00007067,0.00006121,0.00150883,-0.
 00108664,0.00033031,-0.00004267,0.00016341,0.00004678,0.00420132,0.001
 17269,-0.01260255,0.00010004,-0.00087117,-0.00171997,-0.00039381,0.000
 05933,-0.00012478,-0.00345091,0.00255222,-0.00379172,-0.00000633,-0.00
 000997,0.00000095,0.00001190,-0.00001873,0.00001473,0.00000088,-0.0000
 0259,-0.00000295,0.00001667,0.00003153,0.00001038,-0.00001802,-0.00001
 574,-0.00001424,-0.00002946,-0.00003302,-0.00000331,0.00000299,0.00002
 126,-0.00001505,0.00000137,0.00003461,0.00000612,-0.00000499,0.0000040
 8,-0.00000675,0.00001779,0.00001802,0.00001317,0.00000551,0.00000068,0
 .00000066,-0.00282947,-0.00204382,0.01761146\\0.00000125,-0.00000071,0
 .00000042,0.00000016,0.00000818,-0.00001412,-0.00000446,-0.00001712,0.
 00000782,-0.00000294,-0.00000164,0.00000305,-0.00000403,0.00000320,0.0
 0000474,0.00000123,-0.00000482,0.00000262,0.00000119,0.00000401,-0.000
 00463,-0.00000163,0.00000027,0.00000221,-0.00000508,-0.00000214,0.0000
 0256,0.00001077,-0.00000112,0.00000779,-0.00000438,0.00000206,-0.00000
 434,0.00000181,-0.00000096,0.00000189,0.00000230,0.00000036,0.00000138
 ,0.00000119,-0.00000150,-0.00000035,-0.00000024,0.00000033,-0.00000179
 ,0.00000137,-0.00000132,0.00000069,0.00000586,0.00000691,-0.00000702,0
 .00000182,-0.00000095,-0.00000084,0.00000166,0.00000231,0.00000134,0.0
 0000072,-0.00000041,-0.00000178,-0.00000033,0.00000015,0.00000138,-0.0
 0000079,-0.00000086,0.00000111,0.00000063,-0.00000044,0.00000050,0.000
 00154,-0.00000217,0.,0.00000089,0.00000391,0.00000131,0.00000121,-0.00
 000131,-0.00000121,-0.00000279,0.00000006,0.00000043,0.00000037,-0.000
 00052,0.00000154,0.00000113,-0.00000278,-0.00000125,0.00000060,-0.0000
 0070,0.00000187,0.00000155,-0.00000479,-0.00000054,-0.00000097,0.00000
 023,0.00000167,-0.00001167,-0.00000654,0.00000155,-0.00000751,-0.00000
 305,-0.00000470,0.00000433,0.00000194,0.00000295,0.00000835,0.00000663
 ,-0.00000213,0.00000038,-0.00000124,-0.00000306,-0.00000931,0.00000529
 ,-0.00000892,0.00000003,0.00000274,0.00000328,0.00000049,-0.00000065,-
 0.00000294,0.00001222,0.00000140,-0.00000122,-0.00000483,0.00000542,-0
 .00000277,0.00000346,-0.00000515,0.00000438,-0.00000377,0.00000703,0.0
 0000073,-0.00000232,-0.00000387,-0.00000146,0.00000101,-0.00000082,0.0
 0000097,0.00000321,0.00000228,-0.00000146,0.00000021,0.00000017,0.0000
 0286,-0.00000114,-0.00000413,0.00000030,-0.00000159,0.00000156,0.00000
 093,-0.00000795,0.00000054,-0.00000171,0.00000026,0.00000005,0.0000001
 2,0.00000503,0.00000306,0.00000307,-0.00000389,0.00000017,0.00000029,0
 .00000339,0.00000146,0.00000053\\\@


 E PUR SI MUOVE    -- GALILEO GALILEI
 Job cpu time:      10 days  1 hours  2 minutes 35.5 seconds.
 Elapsed time:       0 days 15 hours  7 minutes 33.1 seconds.
 File lengths (MBytes):  RWF=  10413 Int=      0 D2E=      0 Chk=    120 Scr=      1
 Normal termination of Gaussian 16 at Mon Oct  6 03:11:05 2025.
