 Entering Gaussian System, Link 0=g16
 Input=EBOF0047.gjf
 Output=EBOF0047.log
 Initial command:
 /usr/local/g16/l1.exe "/dados_01/scratch/Gau-2442557.inp" -scrdir="/dados_01/scratch/"
 Entering Link 1 = /usr/local/g16/l1.exe PID=   2442558.
  
 Copyright (c) 1988-2017, Gaussian, Inc.  All Rights Reserved.
  
 This is part of the Gaussian(R) 16 program.  It is based on
 the Gaussian(R) 09 system (copyright 2009, Gaussian, Inc.),
 the Gaussian(R) 03 system (copyright 2003, Gaussian, Inc.),
 the Gaussian(R) 98 system (copyright 1998, Gaussian, Inc.),
 the Gaussian(R) 94 system (copyright 1995, Gaussian, Inc.),
 the Gaussian 92(TM) system (copyright 1992, Gaussian, Inc.),
 the Gaussian 90(TM) system (copyright 1990, Gaussian, Inc.),
 the Gaussian 88(TM) system (copyright 1988, Gaussian, Inc.),
 the Gaussian 86(TM) system (copyright 1986, Carnegie Mellon
 University), and the Gaussian 82(TM) system (copyright 1983,
 Carnegie Mellon University). Gaussian is a federally registered
 trademark of Gaussian, Inc.
  
 This software contains proprietary and confidential information,
 including trade secrets, belonging to Gaussian, Inc.
  
 This software is provided under written license and may be
 used, copied, transmitted, or stored only in accord with that
 written license.
  
 The following legend is applicable only to US Government
 contracts under FAR:
  
                    RESTRICTED RIGHTS LEGEND
  
 Use, reproduction and disclosure by the US Government is
 subject to restrictions as set forth in subparagraphs (a)
 and (c) of the Commercial Computer Software - Restricted
 Rights clause in FAR 52.227-19.
  
 Gaussian, Inc.
 340 Quinnipiac St., Bldg. 40, Wallingford CT 06492
  
  
 ---------------------------------------------------------------
 Warning -- This program may not be used in any manner that
 competes with the business of Gaussian, Inc. or will provide
 assistance to any competitor of Gaussian, Inc.  The licensee
 of this program is prohibited from giving any competitor of
 Gaussian, Inc. access to this program.  By using this program,
 the user acknowledges that Gaussian, Inc. is engaged in the
 business of creating and licensing software in the field of
 computational chemistry and represents and warrants to the
 licensee that it is not a competitor of Gaussian, Inc. and that
 it will not use this program in any manner prohibited above.
 ---------------------------------------------------------------
  

 Cite this work as:
 Gaussian 16, Revision B.01,
 M. J. Frisch, G. W. Trucks, H. B. Schlegel, G. E. Scuseria, 
 M. A. Robb, J. R. Cheeseman, G. Scalmani, V. Barone, 
 G. A. Petersson, H. Nakatsuji, X. Li, M. Caricato, A. V. Marenich, 
 J. Bloino, B. G. Janesko, R. Gomperts, B. Mennucci, H. P. Hratchian, 
 J. V. Ortiz, A. F. Izmaylov, J. L. Sonnenberg, D. Williams-Young, 
 F. Ding, F. Lipparini, F. Egidi, J. Goings, B. Peng, A. Petrone, 
 T. Henderson, D. Ranasinghe, V. G. Zakrzewski, J. Gao, N. Rega, 
 G. Zheng, W. Liang, M. Hada, M. Ehara, K. Toyota, R. Fukuda, 
 J. Hasegawa, M. Ishida, T. Nakajima, Y. Honda, O. Kitao, H. Nakai, 
 T. Vreven, K. Throssell, J. A. Montgomery, Jr., J. E. Peralta, 
 F. Ogliaro, M. J. Bearpark, J. J. Heyd, E. N. Brothers, K. N. Kudin, 
 V. N. Staroverov, T. A. Keith, R. Kobayashi, J. Normand, 
 K. Raghavachari, A. P. Rendell, J. C. Burant, S. S. Iyengar, 
 J. Tomasi, M. Cossi, J. M. Millam, M. Klene, C. Adamo, R. Cammi, 
 J. W. Ochterski, R. L. Martin, K. Morokuma, O. Farkas, 
 J. B. Foresman, and D. J. Fox, Gaussian, Inc., Wallingford CT, 2016.
 
 ******************************************
 Gaussian 16:  ES64L-G16RevB.01 20-Dec-2017
                 6-Oct-2025 
 ******************************************
 %nprocs=16
 Will use up to   16 processors via shared memory.
 %mem=40GB
 %chk=EBOF0047.chk
 ----------------------------------------------------------------------
 # opt freq=noraman M08HX/6-311++G** scf=xqc Empiricaldispersion=pfd In
 t(Grid=ultraFine)
 ----------------------------------------------------------------------
 1/18=20,19=15,26=4,38=1/1,3;
 2/9=110,12=2,17=6,18=5,40=1/2;
 3/5=4,6=6,7=1111,11=2,25=1,30=1,71=1,74=-74,75=-5,124=11/1,2,3;
 4//1;
 5/5=2,8=3,13=1,38=5/2,8;
 6/7=2,8=2,9=2,10=2,28=1/1;
 7//1,2,3,16;
 1/18=20,19=15,26=4/3(2);
 2/9=110/2;
 99//99;
 2/9=110/2;
 3/5=4,6=6,7=1111,11=2,25=1,30=1,71=1,74=-74,75=-5,124=11/1,2,3;
 4/5=5,16=3,69=1/1;
 5/5=2,8=3,13=1,38=5/2,8;
 7//1,2,3,16;
 1/18=20,19=15,26=4/3(-5);
 2/9=110/2;
 6/7=2,8=2,9=2,10=2,19=2,28=1/1;
 99/9=1/99;
 --------
 EBOF0047
 --------
 Symbolic Z-matrix:
 Charge =  0 Multiplicity = 1
 Br                    8.5749    1.6934    0.1654 
 O                     4.2712    6.8603    11.2923 
 O                     4.7283    8.5776    13.212 
 O                     2.4965    3.0508    6.5517 
 C                     2.6636    8.3437    14.3468 
 C                     4.0298    6.097     10.1899 
 C                     3.7643    4.532     7.8817 
 C                     5.5176    2.4635    3.6172 
 C                     4.6724    3.4737    5.7412 
 H                     5.4932    3.9299    5.885 
 C                     5.0038    5.0944    8.2284 
 H                     5.76      4.9464    7.6725 
 C                     3.6332    8.0576    13.2447 
 C                     7.3258    2.0106    1.5595 
 C                     4.5317    2.6955    4.673 
 H                     3.7023    2.2413    4.5857 
 C                     3.5632    3.6382    6.7115 
 C                     5.1332    5.8602    9.3688 
 H                     5.979     6.2289    9.5966 
 C                     2.7835    5.5633    9.851 
 H                     2.0257    5.7237    10.4009 
 C                     2.6689    4.7987    8.7036 
 H                     1.819     4.4456    8.4685 
 C                     3.1294    9.0111    15.4779 
 H                     4.0437    9.2649    15.5311 
 C                     6.8606    2.8441    3.7479 
 H                     7.1543    3.2649    4.5474 
 C                     1.3155    7.9883    14.2703 
 H                     0.9871    7.5281    13.5069 
 C                     6.011     1.6182    1.3933 
 H                     5.7255    1.1996    0.5896 
 C                     3.1807    7.0848    12.1739 
 H                     2.8969    6.2314    12.5881 
 H                     2.4123    7.461     11.6755 
 C                     5.1192    1.8502    2.428 
 H                     4.2124    1.5853    2.3253 
 C                     0.4574    8.3085    15.3104 
 H                    -0.4623    8.0779    15.2486 
 C                     7.7619    2.6139    2.7239 
 H                     8.6723    2.8677    2.8203 
 C                     2.2733    9.3088    16.525 
 H                     2.6018    9.7491    17.3 
 C                     0.9247    8.9587    16.4368 
 H                     0.3307    9.1672    17.1482 
 

 GradGradGradGradGradGradGradGradGradGradGradGradGradGradGradGradGradGrad
 Berny optimization.
 Initialization pass.
                           ----------------------------
                           !    Initial Parameters    !
                           ! (Angstroms and Degrees)  !
 --------------------------                            --------------------------
 ! Name  Definition              Value          Derivative Info.                !
 --------------------------------------------------------------------------------
 ! R1    R(1,14)                 1.8985         estimate D2E/DX2                !
 ! R2    R(2,6)                  1.3624         estimate D2E/DX2                !
 ! R3    R(2,32)                 1.4201         estimate D2E/DX2                !
 ! R4    R(3,13)                 1.2127         estimate D2E/DX2                !
 ! R5    R(4,17)                 1.2282         estimate D2E/DX2                !
 ! R6    R(5,13)                 1.4955         estimate D2E/DX2                !
 ! R7    R(5,24)                 1.3935         estimate D2E/DX2                !
 ! R8    R(5,28)                 1.3963         estimate D2E/DX2                !
 ! R9    R(6,18)                 1.3956         estimate D2E/DX2                !
 ! R10   R(6,20)                 1.3975         estimate D2E/DX2                !
 ! R11   R(7,11)                 1.4046         estimate D2E/DX2                !
 ! R12   R(7,17)                 1.4862         estimate D2E/DX2                !
 ! R13   R(7,22)                 1.3952         estimate D2E/DX2                !
 ! R14   R(8,15)                 1.4631         estimate D2E/DX2                !
 ! R15   R(8,26)                 1.402          estimate D2E/DX2                !
 ! R16   R(8,35)                 1.3961         estimate D2E/DX2                !
 ! R17   R(9,10)                 0.95           estimate D2E/DX2                !
 ! R18   R(9,15)                 1.3291         estimate D2E/DX2                !
 ! R19   R(9,17)                 1.4829         estimate D2E/DX2                !
 ! R20   R(11,12)                0.9501         estimate D2E/DX2                !
 ! R21   R(11,18)                1.3797         estimate D2E/DX2                !
 ! R22   R(13,32)                1.5158         estimate D2E/DX2                !
 ! R23   R(14,30)                1.3821         estimate D2E/DX2                !
 ! R24   R(14,39)                1.382          estimate D2E/DX2                !
 ! R25   R(15,16)                0.9496         estimate D2E/DX2                !
 ! R26   R(18,19)                0.9504         estimate D2E/DX2                !
 ! R27   R(20,21)                0.9499         estimate D2E/DX2                !
 ! R28   R(20,22)                1.3836         estimate D2E/DX2                !
 ! R29   R(22,23)                0.9499         estimate D2E/DX2                !
 ! R30   R(24,25)                0.9504         estimate D2E/DX2                !
 ! R31   R(24,41)                1.3849         estimate D2E/DX2                !
 ! R32   R(26,27)                0.95           estimate D2E/DX2                !
 ! R33   R(26,39)                1.3834         estimate D2E/DX2                !
 ! R34   R(28,29)                0.95           estimate D2E/DX2                !
 ! R35   R(28,37)                1.3859         estimate D2E/DX2                !
 ! R36   R(30,31)                0.9501         estimate D2E/DX2                !
 ! R37   R(30,35)                1.3855         estimate D2E/DX2                !
 ! R38   R(32,33)                0.9901         estimate D2E/DX2                !
 ! R39   R(32,34)                0.9901         estimate D2E/DX2                !
 ! R40   R(35,36)                0.9503         estimate D2E/DX2                !
 ! R41   R(37,38)                0.9502         estimate D2E/DX2                !
 ! R42   R(37,43)                1.382          estimate D2E/DX2                !
 ! R43   R(39,40)                0.95           estimate D2E/DX2                !
 ! R44   R(41,42)                0.9499         estimate D2E/DX2                !
 ! R45   R(41,43)                1.3961         estimate D2E/DX2                !
 ! R46   R(43,44)                0.9499         estimate D2E/DX2                !
 ! A1    A(6,2,32)             117.053          estimate D2E/DX2                !
 ! A2    A(13,5,24)            118.2343         estimate D2E/DX2                !
 ! A3    A(13,5,28)            122.473          estimate D2E/DX2                !
 ! A4    A(24,5,28)            119.2831         estimate D2E/DX2                !
 ! A5    A(2,6,18)             115.5328         estimate D2E/DX2                !
 ! A6    A(2,6,20)             124.625          estimate D2E/DX2                !
 ! A7    A(18,6,20)            119.8419         estimate D2E/DX2                !
 ! A8    A(11,7,17)            123.6815         estimate D2E/DX2                !
 ! A9    A(11,7,22)            118.0927         estimate D2E/DX2                !
 ! A10   A(17,7,22)            118.2017         estimate D2E/DX2                !
 ! A11   A(15,8,26)            122.3565         estimate D2E/DX2                !
 ! A12   A(15,8,35)            119.4761         estimate D2E/DX2                !
 ! A13   A(26,8,35)            118.166          estimate D2E/DX2                !
 ! A14   A(10,9,15)            119.6231         estimate D2E/DX2                !
 ! A15   A(10,9,17)            119.6014         estimate D2E/DX2                !
 ! A16   A(15,9,17)            120.7754         estimate D2E/DX2                !
 ! A17   A(7,11,12)            119.7064         estimate D2E/DX2                !
 ! A18   A(7,11,18)            120.5981         estimate D2E/DX2                !
 ! A19   A(12,11,18)           119.6955         estimate D2E/DX2                !
 ! A20   A(3,13,5)             121.5532         estimate D2E/DX2                !
 ! A21   A(3,13,32)            121.715          estimate D2E/DX2                !
 ! A22   A(5,13,32)            116.7317         estimate D2E/DX2                !
 ! A23   A(1,14,30)            119.3501         estimate D2E/DX2                !
 ! A24   A(1,14,39)            118.9472         estimate D2E/DX2                !
 ! A25   A(30,14,39)           121.6971         estimate D2E/DX2                !
 ! A26   A(8,15,9)             126.9776         estimate D2E/DX2                !
 ! A27   A(8,15,16)            116.5101         estimate D2E/DX2                !
 ! A28   A(9,15,16)            116.5122         estimate D2E/DX2                !
 ! A29   A(4,17,7)             120.5048         estimate D2E/DX2                !
 ! A30   A(4,17,9)             120.762          estimate D2E/DX2                !
 ! A31   A(7,17,9)             118.733          estimate D2E/DX2                !
 ! A32   A(6,18,11)            120.4179         estimate D2E/DX2                !
 ! A33   A(6,18,19)            119.7866         estimate D2E/DX2                !
 ! A34   A(11,18,19)           119.7955         estimate D2E/DX2                !
 ! A35   A(6,20,21)            120.4356         estimate D2E/DX2                !
 ! A36   A(6,20,22)            119.08           estimate D2E/DX2                !
 ! A37   A(21,20,22)           120.4844         estimate D2E/DX2                !
 ! A38   A(7,22,20)            121.9478         estimate D2E/DX2                !
 ! A39   A(7,22,23)            119.0533         estimate D2E/DX2                !
 ! A40   A(20,22,23)           118.9989         estimate D2E/DX2                !
 ! A41   A(5,24,25)            119.6652         estimate D2E/DX2                !
 ! A42   A(5,24,41)            120.6664         estimate D2E/DX2                !
 ! A43   A(25,24,41)           119.6683         estimate D2E/DX2                !
 ! A44   A(8,26,27)            119.6594         estimate D2E/DX2                !
 ! A45   A(8,26,39)            120.6573         estimate D2E/DX2                !
 ! A46   A(27,26,39)           119.6833         estimate D2E/DX2                !
 ! A47   A(5,28,29)            120.0739         estimate D2E/DX2                !
 ! A48   A(5,28,37)            119.8604         estimate D2E/DX2                !
 ! A49   A(29,28,37)           120.0657         estimate D2E/DX2                !
 ! A50   A(14,30,31)           120.8416         estimate D2E/DX2                !
 ! A51   A(14,30,35)           118.3561         estimate D2E/DX2                !
 ! A52   A(31,30,35)           120.8023         estimate D2E/DX2                !
 ! A53   A(2,32,13)            108.1048         estimate D2E/DX2                !
 ! A54   A(2,32,33)            110.092          estimate D2E/DX2                !
 ! A55   A(2,32,34)            110.0903         estimate D2E/DX2                !
 ! A56   A(13,32,33)           110.071          estimate D2E/DX2                !
 ! A57   A(13,32,34)           110.0851         estimate D2E/DX2                !
 ! A58   A(33,32,34)           108.3974         estimate D2E/DX2                !
 ! A59   A(8,35,30)            121.7354         estimate D2E/DX2                !
 ! A60   A(8,35,36)            119.1329         estimate D2E/DX2                !
 ! A61   A(30,35,36)           119.1317         estimate D2E/DX2                !
 ! A62   A(28,37,38)           119.6318         estimate D2E/DX2                !
 ! A63   A(28,37,43)           120.7327         estimate D2E/DX2                !
 ! A64   A(38,37,43)           119.6355         estimate D2E/DX2                !
 ! A65   A(14,39,26)           119.3858         estimate D2E/DX2                !
 ! A66   A(14,39,40)           120.2987         estimate D2E/DX2                !
 ! A67   A(26,39,40)           120.3155         estimate D2E/DX2                !
 ! A68   A(24,41,42)           120.1791         estimate D2E/DX2                !
 ! A69   A(24,41,43)           119.7005         estimate D2E/DX2                !
 ! A70   A(42,41,43)           120.1204         estimate D2E/DX2                !
 ! A71   A(37,43,41)           119.7428         estimate D2E/DX2                !
 ! A72   A(37,43,44)           120.1463         estimate D2E/DX2                !
 ! A73   A(41,43,44)           120.1109         estimate D2E/DX2                !
 ! D1    D(32,2,6,18)         -177.9789         estimate D2E/DX2                !
 ! D2    D(32,2,6,20)            2.1837         estimate D2E/DX2                !
 ! D3    D(6,2,32,13)         -174.5766         estimate D2E/DX2                !
 ! D4    D(6,2,32,33)           65.155          estimate D2E/DX2                !
 ! D5    D(6,2,32,34)          -54.2921         estimate D2E/DX2                !
 ! D6    D(24,5,13,3)          -12.53           estimate D2E/DX2                !
 ! D7    D(24,5,13,32)         167.3522         estimate D2E/DX2                !
 ! D8    D(28,5,13,3)          166.3358         estimate D2E/DX2                !
 ! D9    D(28,5,13,32)         -13.782          estimate D2E/DX2                !
 ! D10   D(13,5,24,25)          -0.3594         estimate D2E/DX2                !
 ! D11   D(13,5,24,41)         179.6112         estimate D2E/DX2                !
 ! D12   D(28,5,24,25)        -179.2624         estimate D2E/DX2                !
 ! D13   D(28,5,24,41)           0.7081         estimate D2E/DX2                !
 ! D14   D(13,5,28,29)           1.5404         estimate D2E/DX2                !
 ! D15   D(13,5,28,37)        -178.4509         estimate D2E/DX2                !
 ! D16   D(24,5,28,29)        -179.6052         estimate D2E/DX2                !
 ! D17   D(24,5,28,37)           0.4035         estimate D2E/DX2                !
 ! D18   D(2,6,18,11)          179.7104         estimate D2E/DX2                !
 ! D19   D(2,6,18,19)           -0.2986         estimate D2E/DX2                !
 ! D20   D(20,6,18,11)          -0.4438         estimate D2E/DX2                !
 ! D21   D(20,6,18,19)         179.5471         estimate D2E/DX2                !
 ! D22   D(2,6,20,21)            0.2145         estimate D2E/DX2                !
 ! D23   D(2,6,20,22)         -179.8043         estimate D2E/DX2                !
 ! D24   D(18,6,20,21)        -179.6164         estimate D2E/DX2                !
 ! D25   D(18,6,20,22)           0.3648         estimate D2E/DX2                !
 ! D26   D(17,7,11,12)           3.4114         estimate D2E/DX2                !
 ! D27   D(17,7,11,18)        -176.6062         estimate D2E/DX2                !
 ! D28   D(22,7,11,12)        -178.4084         estimate D2E/DX2                !
 ! D29   D(22,7,11,18)           1.574          estimate D2E/DX2                !
 ! D30   D(11,7,17,4)          171.2185         estimate D2E/DX2                !
 ! D31   D(11,7,17,9)           -8.9614         estimate D2E/DX2                !
 ! D32   D(22,7,17,4)           -6.9599         estimate D2E/DX2                !
 ! D33   D(22,7,17,9)          172.8602         estimate D2E/DX2                !
 ! D34   D(11,7,22,20)          -1.6722         estimate D2E/DX2                !
 ! D35   D(11,7,22,23)         178.2833         estimate D2E/DX2                !
 ! D36   D(17,7,22,20)         176.6095         estimate D2E/DX2                !
 ! D37   D(17,7,22,23)          -3.4349         estimate D2E/DX2                !
 ! D38   D(26,8,15,9)           13.1262         estimate D2E/DX2                !
 ! D39   D(26,8,15,16)        -166.8709         estimate D2E/DX2                !
 ! D40   D(35,8,15,9)         -166.4354         estimate D2E/DX2                !
 ! D41   D(35,8,15,16)          13.5676         estimate D2E/DX2                !
 ! D42   D(15,8,26,27)           0.2935         estimate D2E/DX2                !
 ! D43   D(15,8,26,39)        -179.6562         estimate D2E/DX2                !
 ! D44   D(35,8,26,27)         179.8605         estimate D2E/DX2                !
 ! D45   D(35,8,26,39)          -0.0892         estimate D2E/DX2                !
 ! D46   D(15,8,35,30)         179.446          estimate D2E/DX2                !
 ! D47   D(15,8,35,36)          -0.521          estimate D2E/DX2                !
 ! D48   D(26,8,35,30)          -0.1339         estimate D2E/DX2                !
 ! D49   D(26,8,35,36)         179.8992         estimate D2E/DX2                !
 ! D50   D(10,9,15,8)           -1.6879         estimate D2E/DX2                !
 ! D51   D(10,9,15,16)         178.3092         estimate D2E/DX2                !
 ! D52   D(17,9,15,8)          178.3199         estimate D2E/DX2                !
 ! D53   D(17,9,15,16)          -1.683          estimate D2E/DX2                !
 ! D54   D(10,9,17,4)         -179.4624         estimate D2E/DX2                !
 ! D55   D(10,9,17,7)            0.718          estimate D2E/DX2                !
 ! D56   D(15,9,17,4)            0.5298         estimate D2E/DX2                !
 ! D57   D(15,9,17,7)         -179.2898         estimate D2E/DX2                !
 ! D58   D(7,11,18,6)           -0.5474         estimate D2E/DX2                !
 ! D59   D(7,11,18,19)         179.4616         estimate D2E/DX2                !
 ! D60   D(12,11,18,6)         179.4349         estimate D2E/DX2                !
 ! D61   D(12,11,18,19)         -0.556          estimate D2E/DX2                !
 ! D62   D(3,13,32,2)            4.8029         estimate D2E/DX2                !
 ! D63   D(3,13,32,33)         125.0844         estimate D2E/DX2                !
 ! D64   D(3,13,32,34)        -115.4849         estimate D2E/DX2                !
 ! D65   D(5,13,32,2)         -175.0791         estimate D2E/DX2                !
 ! D66   D(5,13,32,33)         -54.7976         estimate D2E/DX2                !
 ! D67   D(5,13,32,34)          64.6331         estimate D2E/DX2                !
 ! D68   D(1,14,30,31)          -0.4934         estimate D2E/DX2                !
 ! D69   D(1,14,30,35)         179.4981         estimate D2E/DX2                !
 ! D70   D(39,14,30,31)       -179.6232         estimate D2E/DX2                !
 ! D71   D(39,14,30,35)          0.3683         estimate D2E/DX2                !
 ! D72   D(1,14,39,26)        -179.7227         estimate D2E/DX2                !
 ! D73   D(1,14,39,40)           0.2438         estimate D2E/DX2                !
 ! D74   D(30,14,39,26)         -0.5896         estimate D2E/DX2                !
 ! D75   D(30,14,39,40)        179.3769         estimate D2E/DX2                !
 ! D76   D(6,20,22,7)            0.7169         estimate D2E/DX2                !
 ! D77   D(6,20,22,23)        -179.2387         estimate D2E/DX2                !
 ! D78   D(21,20,22,7)        -179.3018         estimate D2E/DX2                !
 ! D79   D(21,20,22,23)          0.7426         estimate D2E/DX2                !
 ! D80   D(5,24,41,42)         178.8181         estimate D2E/DX2                !
 ! D81   D(5,24,41,43)          -1.1725         estimate D2E/DX2                !
 ! D82   D(25,24,41,42)         -1.2113         estimate D2E/DX2                !
 ! D83   D(25,24,41,43)        178.7981         estimate D2E/DX2                !
 ! D84   D(8,26,39,14)           0.4423         estimate D2E/DX2                !
 ! D85   D(8,26,39,40)        -179.5242         estimate D2E/DX2                !
 ! D86   D(27,26,39,14)       -179.5073         estimate D2E/DX2                !
 ! D87   D(27,26,39,40)          0.5262         estimate D2E/DX2                !
 ! D88   D(5,28,37,38)         178.9876         estimate D2E/DX2                !
 ! D89   D(5,28,37,43)          -1.0539         estimate D2E/DX2                !
 ! D90   D(29,28,37,38)         -1.0037         estimate D2E/DX2                !
 ! D91   D(29,28,37,43)        178.9548         estimate D2E/DX2                !
 ! D92   D(14,30,35,8)          -0.0012         estimate D2E/DX2                !
 ! D93   D(14,30,35,36)        179.9657         estimate D2E/DX2                !
 ! D94   D(31,30,35,8)         179.9903         estimate D2E/DX2                !
 ! D95   D(31,30,35,36)         -0.0428         estimate D2E/DX2                !
 ! D96   D(28,37,43,41)          0.5895         estimate D2E/DX2                !
 ! D97   D(28,37,43,44)       -179.448          estimate D2E/DX2                !
 ! D98   D(38,37,43,41)       -179.4521         estimate D2E/DX2                !
 ! D99   D(38,37,43,44)          0.5105         estimate D2E/DX2                !
 ! D100  D(24,41,43,37)          0.5228         estimate D2E/DX2                !
 ! D101  D(24,41,43,44)       -179.4397         estimate D2E/DX2                !
 ! D102  D(42,41,43,37)       -179.4678         estimate D2E/DX2                !
 ! D103  D(42,41,43,44)          0.5697         estimate D2E/DX2                !
 --------------------------------------------------------------------------------
 Trust Radius=3.00D-01 FncErr=1.00D-07 GrdErr=1.00D-06 EigMax=2.50D+02 EigMin=1.00D-04
 Number of steps in this run=    232 maximum allowed number of steps=    264.
 GradGradGradGradGradGradGradGradGradGradGradGradGradGradGradGradGradGrad

                          Input orientation:                          
 ---------------------------------------------------------------------
 Center     Atomic      Atomic             Coordinates (Angstroms)
 Number     Number       Type             X           Y           Z
 ---------------------------------------------------------------------
      1         35           0        8.574900    1.693400    0.165400
      2          8           0        4.271200    6.860300   11.292300
      3          8           0        4.728300    8.577600   13.212000
      4          8           0        2.496500    3.050800    6.551700
      5          6           0        2.663600    8.343700   14.346800
      6          6           0        4.029800    6.097000   10.189900
      7          6           0        3.764300    4.532000    7.881700
      8          6           0        5.517600    2.463500    3.617200
      9          6           0        4.672400    3.473700    5.741200
     10          1           0        5.493200    3.929900    5.885000
     11          6           0        5.003800    5.094400    8.228400
     12          1           0        5.760000    4.946400    7.672500
     13          6           0        3.633200    8.057600   13.244700
     14          6           0        7.325800    2.010600    1.559500
     15          6           0        4.531700    2.695500    4.673000
     16          1           0        3.702300    2.241300    4.585700
     17          6           0        3.563200    3.638200    6.711500
     18          6           0        5.133200    5.860200    9.368800
     19          1           0        5.979000    6.228900    9.596600
     20          6           0        2.783500    5.563300    9.851000
     21          1           0        2.025700    5.723700   10.400900
     22          6           0        2.668900    4.798700    8.703600
     23          1           0        1.819000    4.445600    8.468500
     24          6           0        3.129400    9.011100   15.477900
     25          1           0        4.043700    9.264900   15.531100
     26          6           0        6.860600    2.844100    3.747900
     27          1           0        7.154300    3.264900    4.547400
     28          6           0        1.315500    7.988300   14.270300
     29          1           0        0.987100    7.528100   13.506900
     30          6           0        6.011000    1.618200    1.393300
     31          1           0        5.725500    1.199600    0.589600
     32          6           0        3.180700    7.084800   12.173900
     33          1           0        2.896900    6.231400   12.588100
     34          1           0        2.412300    7.461000   11.675500
     35          6           0        5.119200    1.850200    2.428000
     36          1           0        4.212400    1.585300    2.325300
     37          6           0        0.457400    8.308500   15.310400
     38          1           0       -0.462300    8.077900   15.248600
     39          6           0        7.761900    2.613900    2.723900
     40          1           0        8.672300    2.867700    2.820300
     41          6           0        2.273300    9.308800   16.525000
     42          1           0        2.601800    9.749100   17.300000
     43          6           0        0.924700    8.958700   16.436800
     44          1           0        0.330700    9.167200   17.148200
 ---------------------------------------------------------------------
                    Distance matrix (angstroms):
                    1          2          3          4          5
     1  Br   0.000000
     2  O   13.001023   0.000000
     3  O   15.244747   2.615972   0.000000
     4  O    8.920443   6.335230   8.937899   0.000000
     5  C   16.741627   3.756970   2.367587   9.423709   0.000000
     6  C   11.854966   1.362419   3.971696   4.986666   4.918738
     7  C    9.525797   4.160543   6.760789   2.360121   7.585388
     8  C    4.674940   8.932666  11.404622   4.252441  12.563693
     9  C    7.034808   6.514962   9.047971   2.360147  10.090021
    10  H    6.871145   6.270520   8.710403   3.193355   9.954412
    11  C    9.451536   3.611452   6.086448   3.643374   7.312271
    12  H    8.652296   4.356890   6.703438   3.936994   8.104050
    13  C   15.362016   2.377485   1.212730   8.435424   1.495527
    14  C    1.898521  11.295024  13.625463   7.023262  15.011972
    15  C    6.137600   7.824868  10.370741   2.792452  11.356688
    16  H    6.601627   8.163167  10.752415   2.444259  11.558428
    17  C    8.470585   5.645079   8.246916   1.228179   9.013813
    18  C   10.672867   2.333044   4.724235   4.772941   6.086640
    19  H   10.782253   2.488101   4.489071   5.612445   6.166738
    20  C   11.930100   2.443932   4.915747   4.156971   5.287459
    21  H   12.802375   2.669967   4.832295   4.709818   4.779272
    22  C   10.836262   3.676809   6.232727   2.777688   6.664290
    23  H   11.052523   4.451731   6.930963   2.465481   7.103727
    24  C   17.823436   4.842406   2.806903  10.751874   1.393478
    25  H   17.719033   4.878656   2.513818  11.028984   2.038591
    26  C    4.134881   8.930444  11.268936   5.191280  12.656899
    27  H    4.867200   8.169017  10.449189   5.075250  11.915907
    28  C   17.066718   4.344770   3.621392   9.238531   1.396258
    29  H   16.419929   4.016930   3.896793   8.408288   2.044820
    30  C    2.843761  11.335639  13.775349   6.404150  14.974331
    31  H    2.922818  12.194519  14.654497   7.028515  15.801074
    32  C   14.225634   1.420144   2.387712   6.953447   2.563926
    33  H   14.392936   1.990807   3.041041   6.834812   2.758490
    34  H   14.273235   1.990777   2.995244   6.760938   2.824563
    35  C    4.133498  10.217437  12.716343   5.032385  13.793234
    36  H    4.869113  10.403661  12.949079   4.791081  13.877724
    37  C   18.412615   5.726035   4.766160  10.417109   2.407713
    38  H   18.706570   6.288154   5.598193  10.471977   3.264222
    39  C    2.837994  10.180097  12.440606   6.524368  13.925339
    40  H    2.904645  10.348204  12.495820   7.217851  14.105008
    41  C   19.113895   6.112929   4.187797  11.776209   2.414189
    42  H   19.853633   6.872010   4.754593  12.665080   3.271140
    43  C   19.392488   6.486002   5.001194  11.622781   2.787490
    44  H   20.303695   7.425691   5.931289  12.425251   3.737434
                    6          7          8          9         10
     6  C    0.000000
     7  C    2.801339   0.000000
     8  C    7.656125   5.053584   0.000000
     9  C    5.204380   2.554679   2.499249   0.000000
    10  H    5.036867   2.708954   2.700711   0.950005   0.000000
    11  C    2.408602   1.404584   5.333741   2.987082   2.662160
    12  H    3.264165   2.048978   4.761198   2.661135   2.073550
    13  C    3.651445   6.419409  11.293081   8.854072   8.640758
    14  C   10.101786   7.681924   2.776479   5.164088   5.074651
    15  C    6.500638   3.775896   1.463057   1.329076   1.979184
    16  H    6.810340   4.014320   2.069464   1.948098   2.783321
    17  C    4.285170   1.486165   3.843734   1.482858   2.119691
    18  C    1.395626   2.418568   6.690758   4.366601   3.999065
    19  H    2.041760   3.274942   7.081268   4.915530   4.392878
    20  C    1.397481   2.429751   7.479594   4.982452   5.073423
    21  H    2.049461   3.284699   8.297039   5.812084   5.969475
    22  C    2.397232   1.395188   6.280105   3.813850   4.083625
    23  H    3.252380   2.033714   6.414318   4.065052   4.521080
    24  C    6.104559   8.841249  13.756844  11.306944  11.109900
    25  H    6.210008   8.999540  13.797552  11.391901  11.118027
    26  C    7.752042   5.433634   1.401994   3.026196   2.759699
    27  H    7.044224   4.920894   2.046045   2.761989   2.233977
    28  C    5.253009   7.665301  12.714936  10.217433  10.209654
    29  H    4.723194   6.952146  11.999240   9.503983   9.557476
    30  C   10.068017   7.459037   2.429754   4.913142   5.078134
    31  H   10.909889   8.253843   3.287404   5.728833   5.962362
    32  C    2.373389   5.027958  10.001731   7.526277   7.406167
    33  H    2.655728   5.078439  10.076814   7.591927   7.547796
    34  H    2.585306   4.979946   9.977680   7.498168   7.449195
    35  C    8.914550   6.226608   1.396086   3.716541   4.051651
    36  H    9.068667   6.305348   2.035630   3.930143   4.450737
    37  C    6.623616   8.965664  14.017866  11.520031  11.548575
    38  H    7.049353   9.203737  14.232714  11.745402  11.846978
    39  C    9.044430   6.801677   2.420225   4.403222   4.107482
    40  H    9.289359   7.244041   3.278805   4.989799   4.541732
    41  C    7.316724   9.987369  14.966460  12.493775  12.349491
    42  H    8.119762  10.829308  15.773423  13.314424  13.134897
    43  C    7.540208  10.042347  15.087230  12.590724  12.549921
    44  H    8.457388  10.915251  15.966574  13.467960  13.451409
                   11         12         13         14         15
    11  C    0.000000
    12  H    0.950141   0.000000
    13  C    5.985179   6.726980   0.000000
    14  C    7.705565   6.959843  13.665482   0.000000
    15  C    4.314912   3.946172  10.150540   4.239100   0.000000
    16  H    4.806594   4.591299  10.431318   4.726612   0.949644
    17  C    2.548888   2.731454   7.887883   6.584022   2.445845
    18  C    1.379749   2.026164   4.701188   8.978423   5.694529
    19  H    2.027332   2.322698   4.706969   9.176214   6.230685
    20  C    2.789701   3.739783   4.296594  10.099660   6.171885
    21  H    3.739633   4.689708   4.014766  10.956666   6.946860
    22  C    2.401044   3.261883   5.672027   8.972089   4.913167
    23  H    3.259070   4.051654   6.256992   9.164516   4.982711
    24  C    8.450394   9.185103   2.479951  16.135013  12.593614
    25  H    8.464295   9.129771   2.617959  16.081127  12.700138
    26  C    5.346629   4.586226  11.304243   2.387515   2.510312
    27  H    4.639125   3.812842  10.536183   3.245031   2.686638
    28  C    7.647403   8.516907   2.535427  15.278123  11.422164
    29  H    7.065362   7.967809   2.711266  14.606926  10.675018
    30  C    7.734146   7.111137  13.695820   1.382136   3.755707
    31  H    8.604742   8.012938  14.545152   2.039458   4.509660
    32  C    4.780414   5.611430   1.515819  12.473766   8.795150
    33  H    4.973809   5.831954   2.075637  12.611912   8.821789
    34  H    4.919265   5.792609   2.075793  12.497312   8.731372
    35  C    6.647014   6.123876  12.559499   2.376784   2.469760
    36  H    6.912792   6.502662  12.706669   3.234283   2.616523
    37  C    9.008602   9.887305   3.796811  16.611012  12.698818
    38  H    9.384174  10.291773   4.559512  16.877739  12.874532
    39  C    6.637734   5.825530  12.544611   1.382021   3.773571
    40  H    6.903885   6.028792  12.688408   2.034035   4.539462
    41  C    9.697957  10.466822   3.764996  17.399933  13.758852
    42  H   10.475197  11.212890   4.513360  18.164908  14.591741
    43  C    9.947346  10.783860   4.282226  17.623400  13.806705
    44  H   10.862246  11.708174   5.232115  18.524468  14.668399
                   16         17         18         19         20
    16  H    0.000000
    17  C    2.547490   0.000000
    18  C    6.166195   3.803081   0.000000
    19  H    6.796575   4.568547   0.950374   0.000000
    20  C    6.293112   3.764359   2.416973   3.273983   0.000000
    21  H    6.982453   4.508313   3.277258   4.065797   0.949936
    22  C    4.956340   2.472852   2.764425   3.714792   1.383573
    23  H    4.845812   2.604069   3.714237   4.664587   2.022578
    24  C   12.837384  10.291064   7.159922   7.102855   6.608251
    25  H   13.009585  10.472630   7.124109   6.941251   6.895903
    26  C    3.322670   4.504039   6.608728   6.814791   7.827172
    27  H    3.600768   4.209356   5.836636   5.971687   7.246703
    28  C   11.511572   9.006164   6.567217   6.832803   5.250320
    29  H   10.719626   8.242880   6.090641   6.472823   4.522510
    30  C    3.988705   6.193172   9.075996   9.410298   9.874880
    31  H    4.598619   6.935414   9.957227  10.319117  10.652266
    32  C    9.017335   6.470176   3.630494   3.899426   2.805102
    33  H    8.978194   6.457791   3.937349   4.295162   2.819740
    34  H    8.898013   6.370217   3.909824   4.308276   2.658544
    35  C    2.610792   4.895554   8.015922   8.443998   8.622270
    36  H    2.408308   4.886165   8.290569   8.806571   8.631477
    37  C   12.742036  10.266391   7.947320   8.213423   6.538495
    38  H   12.849406  10.430612   8.414265   8.766656   6.781778
    39  C    4.481683   5.880410   7.848772   7.967494   9.180358
    40  H    5.311301   6.468231   8.022664   8.029307   9.559025
    41  C   13.947705  11.407205   8.442930   8.439237   7.670160
    42  H   14.806471  12.263104   9.188877   9.118095   8.546434
    43  C   13.902773  11.395212   8.790267   8.932306   7.639152
    44  H   14.736084  12.245146   9.722105   9.877427   8.500203
                   21         22         23         24         25
    21  H    0.000000
    22  C    2.037194   0.000000
    23  H    2.326034   0.949885   0.000000
    24  C    6.148258   7.990464   8.467150   0.000000
    25  H    6.552204   8.273559   8.834889   0.950363   0.000000
    26  C    8.713826   6.778626   7.089894  13.767594  13.711506
    27  H    8.161599   6.304392   6.725660  12.988243  12.896414
    28  C    4.539279   6.556934   6.816533   2.407208   3.265333
    29  H    3.739223   5.774926   5.964842   3.267044   4.056681
    30  C   10.671204   8.644403   8.696293  16.165845  16.193199
    31  H   11.420053   9.387935   9.374131  17.012370  17.062413
    32  C    2.515978   4.187025   4.748641   3.824876   4.094923
    33  H    2.408442   4.146559   4.617581   4.016433   4.379329
    34  H    2.189127   3.998234   4.441789   4.168368   4.558637
    35  C    9.388337   7.353963   7.356294  15.017912  15.093896
    36  H    9.333988   7.306917   7.186695  15.142862  15.277365
    37  C    5.765756   7.801233   7.974180   2.767903   3.718193
    38  H    5.935705   7.962072   8.022948   3.718030   4.668277
    39  C   10.075275   8.152841   8.466027  15.001625  14.902523
    40  H   10.478527   8.624546   9.019959  15.122167  14.963708
    41  C    7.100623   9.037245   9.421481   1.384901   2.030783
    42  H    8.008328   9.920134  10.331277   2.035449   2.332924
    43  C    6.936102   8.952665   9.201177   2.404774   3.262240
    44  H    7.762524   9.790926   9.992284   3.262973   4.051040
                   26         27         28         29         30
    26  C    0.000000
    27  H    0.950017   0.000000
    28  C   12.958851  12.285637   0.000000
    29  H   12.315679  11.682546   0.949953   0.000000
    30  C    2.787255   3.737259  15.114332  14.384220   0.000000
    31  H    3.737337   4.687336  15.896418  15.144603   0.950089
    32  C   10.125348   9.409816   2.947910   2.604858  12.414332
    33  H   10.263228   9.569662   2.901262   2.484544  12.502111
    34  H   10.195586   9.534339   2.866008   2.321578  12.361739
    35  C    2.400510   3.261114  13.870273  13.116967   1.385545
    36  H    3.259038   4.051365  13.859057  13.067043   2.025998
    37  C   14.302169  13.642893   1.385883   2.035244  16.410005
    38  H   14.604233  13.989040   2.031175   2.331643  16.601225
    39  C    1.383441   2.029318  14.274439  13.649922   2.414035
    40  H    2.035499   2.333445  14.541167  13.963705   3.268042
    41  C   15.036288  14.276407   2.782943   3.732845  17.380566
    42  H   15.794803  15.013291   3.732836   4.682703  18.186734
    43  C   15.285007  14.580299   2.405852   3.261108  17.494579
    44  H   16.192258  15.497704   3.262199   4.046798  18.370359
                   31         32         33         34         35
    31  H    0.000000
    32  C   13.240377   0.000000
    33  H   13.314803   0.990149   0.000000
    34  H   13.155972   0.990135   1.606111   0.000000
    35  C    2.042203  11.231268  11.285440  11.150096   0.000000
    36  H    2.334714  11.327128  11.342039  11.188854   0.950266
    37  C   17.175310   4.330293   4.204334   4.213358  15.145899
    38  H   17.334537   4.869443   4.666053   4.627195  15.307030
    39  C    3.271453  11.413976  11.578297  11.499728   2.766705
    40  H    4.054900  11.637501  11.835524  11.777121   3.716682
    41  C   18.210266   4.970073   5.035717   5.191468  16.200471
    42  H   19.028634   5.806076   5.887555   6.075057  17.026635
    43  C   18.286199   5.174297   5.112752   5.208266  16.259492
    44  H   19.151338   6.099389   5.999901   6.098739  17.121697
                   36         37         38         39         40
    36  H    0.000000
    37  C   15.096830   0.000000
    38  H   15.199288   0.950181   0.000000
    39  C    3.716968  15.627033  15.948695   0.000000
    40  H    4.666935  15.908786  16.280348   0.950019   0.000000
    41  C   16.280173   2.402779   3.260034  16.291617  16.439397
    42  H   17.131354   3.260719   4.048439  17.029398  17.142530
    43  C   16.257627   1.381994   2.027658  16.584554  16.808767
    44  H   17.095940   2.032468   2.328928  17.499397  17.735690
                   41         42         43         44
    41  C    0.000000
    42  H    0.949948   0.000000
    43  C    1.396091   2.045119   0.000000
    44  H    2.045024   2.349371   0.949946   0.000000
 Stoichiometry    C23H17BrO3
 Framework group  C1[X(C23H17BrO3)]
 Deg. of freedom   126
 Full point group                 C1      NOp   1
 Largest Abelian subgroup         C1      NOp   1
 Largest concise Abelian subgroup C1      NOp   1
                         Standard orientation:                         
 ---------------------------------------------------------------------
 Center     Atomic      Atomic             Coordinates (Angstroms)
 Number     Number       Type             X           Y           Z
 ---------------------------------------------------------------------
      1         35           0       -8.938749   -1.085210   -0.109995
      2          8           0        4.060469   -0.960551    0.067159
      3          8           0        6.252096   -2.362406   -0.206487
      4          8           0       -0.962768    2.897510    0.199799
      5          6           0        7.794954   -0.572114   -0.065374
      6          6           0        2.886965   -0.268592    0.050812
      7          6           0        0.365215    0.951305    0.062259
      8          6           0       -4.687190    0.847790    0.096933
      9          6           0       -2.188196    0.882689    0.104316
     10          1           0       -2.145790   -0.065189    0.057008
     11          6           0        0.487227   -0.444645    0.158658
     12          1           0       -0.293531   -0.982109    0.224359
     13          6           0        6.423049   -1.166433   -0.100960
     14          6           0       -7.214418   -0.294293   -0.035732
     15          6           0       -3.371653    1.486002    0.147760
     16          1           0       -3.362379    2.432884    0.219529
     17          6           0       -0.932942    1.671737    0.128991
     18          6           0        1.730657   -1.042632    0.158447
     19          1           0        1.800234   -1.987603    0.231931
     20          6           0        2.785646    1.120236   -0.066843
     21          1           0        3.566939    1.654727   -0.146080
     22          6           0        1.531925    1.705434   -0.066684
     23          1           0        1.463914    2.648500   -0.157699
     24          6           0        8.880013   -1.428516    0.110698
     25          1           0        8.731343   -2.362018    0.208989
     26          6           0       -4.857661   -0.534015    0.261689
     27          1           0       -4.100110   -1.085990    0.416518
     28          6           0        8.023577    0.796076   -0.224501
     29          1           0        7.291804    1.390760   -0.339694
     30          6           0       -7.088213    1.072175   -0.200464
     31          1           0       -7.851107    1.616460   -0.356724
     32          6           0        5.258938   -0.201276    0.004048
     33          1           0        5.351805    0.355936    0.817243
     34          1           0        5.241260    0.397225   -0.784527
     35          6           0       -5.821352    1.629042   -0.131927
     36          1           0       -5.721804    2.567397   -0.244116
     37          6           0        9.320409    1.284741   -0.214225
     38          1           0        9.473101    2.214471   -0.337234
     39          6           0       -6.117784   -1.101638    0.199998
     40          1           0       -6.228444   -2.037651    0.319034
     41          6           0       10.172863   -0.933108    0.143288
     42          1           0       10.906258   -1.521085    0.280457
     43          6           0       10.393886    0.434917   -0.026206
     44          1           0       11.278862    0.779934   -0.012836
 ---------------------------------------------------------------------
 Rotational constants (GHZ):           0.7257081           0.0283111           0.0272770
 Standard basis: 6-311++G(d,p) (5D, 7F)
 There are   768 symmetry adapted cartesian basis functions of A   symmetry.
 There are   739 symmetry adapted basis functions of A   symmetry.
   739 basis functions,  1183 primitive gaussians,   768 cartesian basis functions
   107 alpha electrons      107 beta electrons
       nuclear repulsion energy      2335.0061174423 Hartrees.
 NAtoms=   44 NActive=   44 NUniq=   44 SFac= 1.00D+00 NAtFMM=   60 NAOKFM=F Big=F
 Integral buffers will be    131072 words long.
 Raffenetti 2 integral format.
 Two-electron integral symmetry is turned on.
 R6APFD:  NTU= -4 IXU= 1 FactS= 1.050
 Nuclear repulsion after empirical dispersion term =     2334.9747665491 Hartrees.
 One-electron integrals computed using PRISM.
 NBasis=   739 RedAO= T EigKep=  1.08D-06  NBF=   739
 NBsUse=   733 1.00D-06 EigRej=  7.50D-07 NBFU=   733
 ExpMin= 3.50D-02 ExpMax= 4.40D+05 ExpMxC= 1.51D+04 IAcc=3 IRadAn=         5 AccDes= 0.00D+00
 Harris functional with IExCor= 1009 and IRadAn=       5 diagonalized for initial guess.
 HarFok:  IExCor= 1009 AccDes= 0.00D+00 IRadAn=         5 IDoV= 1 UseB2=F ITyADJ=14
 ICtDFT=  3500011 ScaDFX=  1.000000  1.000000  1.000000  1.000000
 FoFCou: FMM=F IPFlag=           0 FMFlag=      100000 FMFlg1=           0
         NFxFlg=           0 DoJE=T BraDBF=F KetDBF=T FulRan=T
         wScrn=  0.000000 ICntrl=       500 IOpCl=  0 I1Cent=   200000004 NGrid=           0
         NMat0=    1 NMatS0=      1 NMatT0=    0 NMatD0=    1 NMtDS0=    0 NMtDT0=    0
 Petite list used in FoFCou.
 Requested convergence on RMS density matrix=1.00D-08 within  32 cycles.
 Requested convergence on MAX density matrix=1.00D-06.
 Requested convergence on             energy=1.00D-06.
 No special actions if energy rises.
 SCF Done:  E(RM08HX) =  -3686.22838838     A.U. after   18 cycles
            NFock= 18  Conv=0.26D-08     -V/T= 2.0010
 QCSCF skips out because SCF is already converged.

 **********************************************************************

            Population analysis using the SCF Density.

 **********************************************************************

 Orbital symmetries:
       Occupied  (A) (A) (A) (A) (A) (A) (A) (A) (A) (A) (A) (A)
                 (A) (A) (A) (A) (A) (A) (A) (A) (A) (A) (A) (A)
                 (A) (A) (A) (A) (A) (A) (A) (A) (A) (A) (A) (A)
                 (A) (A) (A) (A) (A) (A) (A) (A) (A) (A) (A) (A)
                 (A) (A) (A) (A) (A) (A) (A) (A) (A) (A) (A) (A)
                 (A) (A) (A) (A) (A) (A) (A) (A) (A) (A) (A) (A)
                 (A) (A) (A) (A) (A) (A) (A) (A) (A) (A) (A) (A)
                 (A) (A) (A) (A) (A) (A) (A) (A) (A) (A) (A) (A)
                 (A) (A) (A) (A) (A) (A) (A) (A) (A) (A) (A)
       Virtual   (A) (A) (A) (A) (A) (A) (A) (A) (A) (A) (A) (A)
                 (A) (A) (A) (A) (A) (A) (A) (A) (A) (A) (A) (A)
                 (A) (A) (A) (A) (A) (A) (A) (A) (A) (A) (A) (A)
                 (A) (A) (A) (A) (A) (A) (A) (A) (A) (A) (A) (A)
                 (A) (A) (A) (A) (A) (A) (A) (A) (A) (A) (A) (A)
                 (A) (A) (A) (A) (A) (A) (A) (A) (A) (A) (A) (A)
                 (A) (A) (A) (A) (A) (A) (A) (A) (A) (A) (A) (A)
                 (A) (A) (A) (A) (A) (A) (A) (A) (A) (A) (A) (A)
                 (A) (A) (A) (A) (A) (A) (A) (A) (A) (A) (A) (A)
                 (A) (A) (A) (A) (A) (A) (A) (A) (A) (A) (A) (A)
                 (A) (A) (A) (A) (A) (A) (A) (A) (A) (A) (A) (A)
                 (A) (A) (A) (A) (A) (A) (A) (A) (A) (A) (A) (A)
                 (A) (A) (A) (A) (A) (A) (A) (A) (A) (A) (A) (A)
                 (A) (A) (A) (A) (A) (A) (A) (A) (A) (A) (A) (A)
                 (A) (A) (A) (A) (A) (A) (A) (A) (A) (A) (A) (A)
                 (A) (A) (A) (A) (A) (A) (A) (A) (A) (A) (A) (A)
                 (A) (A) (A) (A) (A) (A) (A) (A) (A) (A) (A) (A)
                 (A) (A) (A) (A) (A) (A) (A) (A) (A) (A) (A) (A)
                 (A) (A) (A) (A) (A) (A) (A) (A) (A) (A) (A) (A)
                 (A) (A) (A) (A) (A) (A) (A) (A) (A) (A) (A) (A)
                 (A) (A) (A) (A) (A) (A) (A) (A) (A) (A) (A) (A)
                 (A) (A) (A) (A) (A) (A) (A) (A) (A) (A) (A) (A)
                 (A) (A) (A) (A) (A) (A) (A) (A) (A) (A) (A) (A)
                 (A) (A) (A) (A) (A) (A) (A) (A) (A) (A) (A) (A)
                 (A) (A) (A) (A) (A) (A) (A) (A) (A) (A) (A) (A)
                 (A) (A) (A) (A) (A) (A) (A) (A) (A) (A) (A) (A)
                 (A) (A) (A) (A) (A) (A) (A) (A) (A) (A) (A) (A)
                 (A) (A) (A) (A) (A) (A) (A) (A) (A) (A) (A) (A)
                 (A) (A) (A) (A) (A) (A) (A) (A) (A) (A) (A) (A)
                 (A) (A) (A) (A) (A) (A) (A) (A) (A) (A) (A) (A)
                 (A) (A) (A) (A) (A) (A) (A) (A) (A) (A) (A) (A)
                 (A) (A) (A) (A) (A) (A) (A) (A) (A) (A) (A) (A)
                 (A) (A) (A) (A) (A) (A) (A) (A) (A) (A) (A) (A)
                 (A) (A) (A) (A) (A) (A) (A) (A) (A) (A) (A) (A)
                 (A) (A) (A) (A) (A) (A) (A) (A) (A) (A) (A) (A)
                 (A) (A) (A) (A) (A) (A) (A) (A) (A) (A) (A) (A)
                 (A) (A) (A) (A) (A) (A) (A) (A) (A) (A) (A) (A)
                 (A) (A) (A) (A) (A) (A) (A) (A) (A) (A) (A) (A)
                 (A) (A) (A) (A) (A) (A) (A) (A) (A) (A) (A) (A)
                 (A) (A) (A) (A) (A) (A) (A) (A) (A) (A) (A) (A)
                 (A) (A) (A) (A) (A) (A) (A) (A) (A) (A) (A) (A)
                 (A) (A) (A) (A) (A) (A) (A) (A) (A) (A) (A) (A)
                 (A) (A) (A) (A) (A) (A) (A) (A) (A) (A) (A) (A)
                 (A) (A) (A) (A) (A) (A) (A) (A) (A) (A) (A) (A)
                 (A) (A) (A) (A) (A) (A) (A) (A) (A) (A) (A) (A)
                 (A) (A) (A) (A) (A) (A) (A) (A) (A) (A) (A) (A)
                 (A) (A) (A) (A) (A) (A) (A) (A) (A) (A) (A) (A)
                 (A) (A) (A) (A) (A) (A) (A) (A) (A) (A) (A) (A)
                 (A) (A) (A) (A) (A) (A) (A) (A) (A) (A) (A) (A)
                 (A) (A) (A) (A) (A) (A) (A) (A) (A) (A) (A) (A)
                 (A) (A) (A) (A) (A) (A) (A) (A) (A) (A) (A) (A)
                 (A) (A) (A) (A) (A) (A) (A) (A) (A) (A) (A) (A)
                 (A) (A)
 The electronic state is 1-A.
 Alpha  occ. eigenvalues -- -485.27252 -63.23622 -57.12755 -57.12503 -57.12495
 Alpha  occ. eigenvalues --  -19.66099 -19.61872 -19.59431 -10.64330 -10.62536
 Alpha  occ. eigenvalues --  -10.61764 -10.60813 -10.59486 -10.56478 -10.56377
 Alpha  occ. eigenvalues --  -10.55046 -10.54802 -10.54611 -10.54577 -10.54521
 Alpha  occ. eigenvalues --  -10.54491 -10.54385 -10.54356 -10.54292 -10.54154
 Alpha  occ. eigenvalues --  -10.54143 -10.54012 -10.53783 -10.53654 -10.53139
 Alpha  occ. eigenvalues --  -10.53041  -8.98185  -6.83350  -6.82435  -6.82425
 Alpha  occ. eigenvalues --   -2.86888  -2.86553  -2.86538  -2.85721  -2.85721
 Alpha  occ. eigenvalues --   -1.21808  -1.18205  -1.15983  -1.01351  -1.00224
 Alpha  occ. eigenvalues --   -0.99150  -0.94899  -0.91951  -0.90524  -0.89449
 Alpha  occ. eigenvalues --   -0.89179  -0.89025  -0.88649  -0.85421  -0.83621
 Alpha  occ. eigenvalues --   -0.76954  -0.76252  -0.75213  -0.74628  -0.73394
 Alpha  occ. eigenvalues --   -0.72308  -0.70033  -0.67924  -0.66762  -0.65319
 Alpha  occ. eigenvalues --   -0.64073  -0.63192  -0.60947  -0.60021  -0.59050
 Alpha  occ. eigenvalues --   -0.58534  -0.57400  -0.56713  -0.56464  -0.54957
 Alpha  occ. eigenvalues --   -0.54023  -0.53747  -0.53577  -0.53115  -0.52917
 Alpha  occ. eigenvalues --   -0.51933  -0.50563  -0.50211  -0.49156  -0.48393
 Alpha  occ. eigenvalues --   -0.48118  -0.47261  -0.46838  -0.46248  -0.45576
 Alpha  occ. eigenvalues --   -0.44864  -0.44559  -0.44230  -0.43222  -0.42091
 Alpha  occ. eigenvalues --   -0.41333  -0.40419  -0.35662  -0.35403  -0.35016
 Alpha  occ. eigenvalues --   -0.33915  -0.33795  -0.33671  -0.33450  -0.33292
 Alpha  occ. eigenvalues --   -0.29848  -0.29191
 Alpha virt. eigenvalues --   -0.06878  -0.05107  -0.03791  -0.02934  -0.02174
 Alpha virt. eigenvalues --   -0.02011  -0.01757  -0.01469  -0.01275  -0.01223
 Alpha virt. eigenvalues --   -0.00794  -0.00733  -0.00322  -0.00135  -0.00024
 Alpha virt. eigenvalues --    0.00679   0.00834   0.01535   0.01618   0.01798
 Alpha virt. eigenvalues --    0.02060   0.02504   0.02950   0.03010   0.03368
 Alpha virt. eigenvalues --    0.03810   0.04260   0.04341   0.04474   0.04558
 Alpha virt. eigenvalues --    0.04904   0.05250   0.05836   0.05917   0.06276
 Alpha virt. eigenvalues --    0.06598   0.06631   0.07252   0.08132   0.08384
 Alpha virt. eigenvalues --    0.08432   0.08655   0.08995   0.09272   0.09322
 Alpha virt. eigenvalues --    0.09644   0.10061   0.10531   0.10556   0.10810
 Alpha virt. eigenvalues --    0.10937   0.11100   0.11233   0.11327   0.11576
 Alpha virt. eigenvalues --    0.11755   0.11813   0.12031   0.12243   0.12306
 Alpha virt. eigenvalues --    0.12526   0.12592   0.12646   0.13126   0.13263
 Alpha virt. eigenvalues --    0.13439   0.13572   0.13890   0.14079   0.14232
 Alpha virt. eigenvalues --    0.14569   0.14720   0.15182   0.15260   0.15315
 Alpha virt. eigenvalues --    0.15653   0.15961   0.16297   0.16416   0.16866
 Alpha virt. eigenvalues --    0.17167   0.17521   0.17635   0.17872   0.18212
 Alpha virt. eigenvalues --    0.18304   0.18448   0.18832   0.18996   0.19274
 Alpha virt. eigenvalues --    0.19591   0.19796   0.20261   0.20664   0.20752
 Alpha virt. eigenvalues --    0.20859   0.21155   0.21602   0.21866   0.21965
 Alpha virt. eigenvalues --    0.22306   0.22820   0.23036   0.23122   0.23440
 Alpha virt. eigenvalues --    0.23590   0.24567   0.24806   0.25134   0.25514
 Alpha virt. eigenvalues --    0.25957   0.26459   0.26871   0.27222   0.27337
 Alpha virt. eigenvalues --    0.27403   0.28435   0.28498   0.28888   0.29176
 Alpha virt. eigenvalues --    0.29338   0.29815   0.30157   0.30306   0.30526
 Alpha virt. eigenvalues --    0.31029   0.31226   0.31447   0.31923   0.32069
 Alpha virt. eigenvalues --    0.32223   0.32321   0.32624   0.32814   0.33443
 Alpha virt. eigenvalues --    0.33875   0.34148   0.34294   0.34360   0.34926
 Alpha virt. eigenvalues --    0.35115   0.35630   0.35794   0.36254   0.36452
 Alpha virt. eigenvalues --    0.36905   0.36999   0.37152   0.37560   0.38016
 Alpha virt. eigenvalues --    0.38457   0.38688   0.39245   0.40133   0.40461
 Alpha virt. eigenvalues --    0.41114   0.41338   0.41485   0.42730   0.42882
 Alpha virt. eigenvalues --    0.43420   0.44016   0.45154   0.45682   0.46084
 Alpha virt. eigenvalues --    0.46270   0.46897   0.48189   0.50070   0.50518
 Alpha virt. eigenvalues --    0.51022   0.51080   0.52003   0.53155   0.53428
 Alpha virt. eigenvalues --    0.53858   0.54443   0.54924   0.55777   0.56191
 Alpha virt. eigenvalues --    0.56564   0.56849   0.57199   0.57420   0.57560
 Alpha virt. eigenvalues --    0.57843   0.58311   0.58689   0.58923   0.59318
 Alpha virt. eigenvalues --    0.59711   0.59903   0.60055   0.60628   0.60867
 Alpha virt. eigenvalues --    0.61425   0.61901   0.62042   0.62683   0.62979
 Alpha virt. eigenvalues --    0.63203   0.63499   0.64262   0.64541   0.65229
 Alpha virt. eigenvalues --    0.65756   0.66211   0.66550   0.66921   0.67674
 Alpha virt. eigenvalues --    0.68005   0.68193   0.69062   0.69391   0.69533
 Alpha virt. eigenvalues --    0.70139   0.70362   0.71058   0.71258   0.71332
 Alpha virt. eigenvalues --    0.71976   0.72403   0.72602   0.73493   0.74100
 Alpha virt. eigenvalues --    0.74715   0.75495   0.75590   0.76090   0.76377
 Alpha virt. eigenvalues --    0.77385   0.77744   0.77907   0.78389   0.78622
 Alpha virt. eigenvalues --    0.78948   0.79334   0.80770   0.80926   0.81246
 Alpha virt. eigenvalues --    0.81888   0.82487   0.83397   0.84369   0.84951
 Alpha virt. eigenvalues --    0.85292   0.85958   0.86438   0.87016   0.87349
 Alpha virt. eigenvalues --    0.87400   0.88028   0.88371   0.88709   0.89427
 Alpha virt. eigenvalues --    0.89498   0.89727   0.90317   0.91119   0.92400
 Alpha virt. eigenvalues --    0.92673   0.93249   0.94014   0.94682   0.94864
 Alpha virt. eigenvalues --    0.95394   0.95536   0.95942   0.96143   0.96800
 Alpha virt. eigenvalues --    0.97737   0.97869   0.98540   0.99180   0.99673
 Alpha virt. eigenvalues --    1.00938   1.01705   1.02162   1.02719   1.02974
 Alpha virt. eigenvalues --    1.03538   1.04804   1.05775   1.05879   1.06371
 Alpha virt. eigenvalues --    1.06511   1.07108   1.07921   1.08437   1.09035
 Alpha virt. eigenvalues --    1.09653   1.10092   1.10729   1.11349   1.11910
 Alpha virt. eigenvalues --    1.12175   1.12621   1.12848   1.14803   1.15102
 Alpha virt. eigenvalues --    1.15963   1.16474   1.17354   1.18880   1.19429
 Alpha virt. eigenvalues --    1.19834   1.20053   1.20606   1.21160   1.22246
 Alpha virt. eigenvalues --    1.23557   1.24926   1.27326   1.28113   1.28710
 Alpha virt. eigenvalues --    1.29177   1.30492   1.31446   1.32531   1.33618
 Alpha virt. eigenvalues --    1.33973   1.35052   1.37300   1.39051   1.39975
 Alpha virt. eigenvalues --    1.42727   1.48240   1.49330   1.49470   1.50512
 Alpha virt. eigenvalues --    1.51346   1.52151   1.53104   1.53649   1.54980
 Alpha virt. eigenvalues --    1.55405   1.56005   1.56415   1.56947   1.57193
 Alpha virt. eigenvalues --    1.57846   1.58411   1.59370   1.59991   1.61862
 Alpha virt. eigenvalues --    1.62060   1.62314   1.62543   1.63040   1.63164
 Alpha virt. eigenvalues --    1.64413   1.65300   1.66348   1.67011   1.67413
 Alpha virt. eigenvalues --    1.68044   1.68498   1.68750   1.69473   1.71282
 Alpha virt. eigenvalues --    1.71547   1.72144   1.73130   1.73664   1.74820
 Alpha virt. eigenvalues --    1.75862   1.77029   1.78567   1.79451   1.80380
 Alpha virt. eigenvalues --    1.80535   1.81197   1.81478   1.82632   1.83188
 Alpha virt. eigenvalues --    1.83848   1.85662   1.86225   1.87142   1.87454
 Alpha virt. eigenvalues --    1.87993   1.88064   1.88518   1.89405   1.90386
 Alpha virt. eigenvalues --    1.91881   1.92066   1.92611   1.95738   1.96217
 Alpha virt. eigenvalues --    1.96901   1.96945   1.97399   1.98002   1.98252
 Alpha virt. eigenvalues --    1.98749   1.99372   1.99908   2.00212   2.00925
 Alpha virt. eigenvalues --    2.01946   2.03108   2.03450   2.04106   2.04186
 Alpha virt. eigenvalues --    2.05074   2.05932   2.06423   2.07518   2.08614
 Alpha virt. eigenvalues --    2.09760   2.10534   2.11459   2.12920   2.13807
 Alpha virt. eigenvalues --    2.14690   2.15102   2.16260   2.17457   2.17685
 Alpha virt. eigenvalues --    2.20560   2.20793   2.21446   2.21887   2.22249
 Alpha virt. eigenvalues --    2.24712   2.25458   2.26381   2.29151   2.31048
 Alpha virt. eigenvalues --    2.31703   2.34092   2.35220   2.36324   2.37143
 Alpha virt. eigenvalues --    2.37384   2.38232   2.38663   2.38980   2.39492
 Alpha virt. eigenvalues --    2.40049   2.41171   2.42050   2.43009   2.44156
 Alpha virt. eigenvalues --    2.45219   2.46059   2.47490   2.47995   2.49677
 Alpha virt. eigenvalues --    2.50511   2.52499   2.54909   2.58561   2.58835
 Alpha virt. eigenvalues --    2.60828   2.65662   2.67632   2.70046   2.71346
 Alpha virt. eigenvalues --    2.71878   2.73243   2.73990   2.75090   2.75569
 Alpha virt. eigenvalues --    2.75837   2.76960   2.77341   2.78254   2.80214
 Alpha virt. eigenvalues --    2.80512   2.82821   2.83375   2.83930   2.84861
 Alpha virt. eigenvalues --    2.85432   2.86795   2.87744   2.88750   2.89337
 Alpha virt. eigenvalues --    2.89497   2.90092   2.91290   2.91620   2.92133
 Alpha virt. eigenvalues --    2.93459   2.94440   2.94585   2.95001   2.95068
 Alpha virt. eigenvalues --    2.95495   2.97248   2.97730   2.97956   2.98171
 Alpha virt. eigenvalues --    2.98389   2.99454   3.00117   3.01681   3.02081
 Alpha virt. eigenvalues --    3.02658   3.03603   3.03795   3.04672   3.05612
 Alpha virt. eigenvalues --    3.06479   3.08670   3.09500   3.14487   3.15847
 Alpha virt. eigenvalues --    3.16352   3.16374   3.17293   3.17394   3.18095
 Alpha virt. eigenvalues --    3.20355   3.20560   3.22185   3.23465   3.23957
 Alpha virt. eigenvalues --    3.24580   3.29240   3.29694   3.30716   3.31804
 Alpha virt. eigenvalues --    3.33403   3.35951   3.38624   3.39817   3.43700
 Alpha virt. eigenvalues --    3.44065   3.45223   3.45367   3.46322   3.48228
 Alpha virt. eigenvalues --    3.50627   3.52809   3.54970   3.61362   3.63997
 Alpha virt. eigenvalues --    3.64370   3.65936   3.67048   3.67357   3.70157
 Alpha virt. eigenvalues --    3.72457   3.72979   3.78624   3.79979   3.81673
 Alpha virt. eigenvalues --    3.83198   3.84349   3.85970   3.87289   3.88577
 Alpha virt. eigenvalues --    4.00010   4.14950   4.18534   4.23941   4.24416
 Alpha virt. eigenvalues --    4.25617   4.27481   4.28306   4.29346   4.32482
 Alpha virt. eigenvalues --    4.33227   4.33948   4.35355   4.36449   4.37558
 Alpha virt. eigenvalues --    4.38475   4.38979   4.39208   4.43962   4.50434
 Alpha virt. eigenvalues --    4.55280   4.57191   4.71723   4.75674   4.91625
 Alpha virt. eigenvalues --    4.92018   4.93693   5.14840   5.17811   5.19520
 Alpha virt. eigenvalues --    5.37980   5.41909   5.55953   5.85175   5.89068
 Alpha virt. eigenvalues --    5.96511   6.92620   7.63805   7.76192   7.82829
 Alpha virt. eigenvalues --   23.74395  23.82221  23.84154  23.91686  23.94167
 Alpha virt. eigenvalues --   24.00857  24.02752  24.04326  24.09485  24.14291
 Alpha virt. eigenvalues --   24.15527  24.15947  24.16163  24.16839  24.17050
 Alpha virt. eigenvalues --   24.22668  24.26769  24.26861  24.28581  24.34471
 Alpha virt. eigenvalues --   24.35792  24.36231  24.40916  48.48565  49.99188
 Alpha virt. eigenvalues --   50.02537  50.06382 290.54579 290.68203 290.76450
 Alpha virt. eigenvalues -- 1019.61976
          Condensed to atoms (all electrons):
               1          2          3          4          5          6
     1  Br  35.377674  -0.000000  -0.000000  -0.000009  -0.000000  -0.000026
     2  O   -0.000000   8.136003   0.047798  -0.000015  -0.009585  -0.226780
     3  O   -0.000000   0.047798   7.811080   0.000000   0.330037  -0.056911
     4  O   -0.000009  -0.000015   0.000000   7.945739  -0.000046  -0.050539
     5  C   -0.000000  -0.009585   0.330037  -0.000046  36.160884  -0.008129
     6  C   -0.000026  -0.226780  -0.056911  -0.050539  -0.008129  30.665685
     7  C    0.000709   0.075575  -0.000889  -0.187748  -0.262680  -9.023291
     8  C    0.069284   0.000167   0.000000   0.139124  -0.000055  -0.076354
     9  C   -0.008965   0.000865   0.000017  -0.270341  -0.011473  -2.555814
    10  H   -0.002373  -0.000624   0.000008   0.002428  -0.000609   0.105229
    11  C   -0.000305  -0.214743  -0.004784  -0.394995  -0.310760  -3.001895
    12  H   -0.000008   0.003961   0.000366  -0.004183   0.007842  -0.095402
    13  C    0.000000  -0.397323  -0.010909   0.000394 -24.169992   3.071123
    14  C   -0.729811  -0.000000  -0.000000   0.000668  -0.000000  -0.004929
    15  C   -0.019387   0.001621  -0.000006   0.337137  -0.000595  -0.981233
    16  H   -0.001511   0.000072   0.000000  -0.017067   0.000014  -0.007232
    17  C   -0.003804   0.013899   0.000499   0.481470  -0.004471   0.186952
    18  C    0.000020  -0.728333  -0.015654  -0.051582  -1.026185   0.902707
    19  H    0.000004  -0.035296  -0.006823   0.000625  -0.054007  -0.219008
    20  C    0.000004   0.802946   0.000847   0.080490   0.135754  -4.162450
    21  H    0.000000   0.020759   0.000982   0.009682  -0.108548  -1.283909
    22  C   -0.000020   0.137543  -0.003938   0.174364  -0.260990  -2.425468
    23  H    0.000000  -0.006513  -0.000048  -0.041338   0.010918   0.346140
    24  C    0.000000   0.017418   0.047473   0.000003  -4.412509   0.104149
    25  H    0.000000  -0.001167  -0.016715   0.000000   0.001496  -0.013855
    26  C    0.067629  -0.000080  -0.000000   0.015689  -0.000007  -0.092303
    27  H    0.018027  -0.000003  -0.000001   0.001596   0.000001  -0.010976
    28  C    0.000000  -0.026282  -0.135533   0.000005   0.690172  -0.923438
    29  H    0.000000  -0.002458   0.002525  -0.000003  -0.104599  -0.092159
    30  C    0.264488   0.000001  -0.000000  -0.003000   0.000000   0.000056
    31  H   -0.071158   0.000000   0.000000   0.000020   0.000000   0.000075
    32  C   -0.000000   0.405372   0.205566  -0.000779   5.996973  -3.838773
    33  H   -0.000000  -0.036301  -0.007066  -0.000097   0.214226   0.091712
    34  H   -0.000000  -0.048412  -0.012725  -0.000012  -0.190788   0.339151
    35  C    0.062515   0.000006  -0.000000  -0.002509   0.000000   0.014418
    36  H    0.011548  -0.000001  -0.000000   0.001920  -0.000000  -0.000466
    37  C    0.000000  -0.007214  -0.070773   0.000001  -5.884006  -0.034600
    38  H   -0.000000   0.000348  -0.000209  -0.000000   0.090188   0.002983
    39  C    0.367109  -0.000002   0.000000  -0.002764   0.000001   0.007021
    40  H   -0.071845   0.000000   0.000000  -0.000024   0.000000   0.000633
    41  C   -0.000000   0.006416   0.032866   0.000000  -2.075757   0.010777
    42  H   -0.000000   0.000162   0.002573  -0.000000  -0.033609   0.000380
    43  C   -0.000000  -0.003849   0.002822  -0.000000  -0.307177  -0.027305
    44  H   -0.000000  -0.000097   0.000201   0.000000   0.041277  -0.001251
               7          8          9         10         11         12
     1  Br   0.000709   0.069284  -0.008965  -0.002373  -0.000305  -0.000008
     2  O    0.075575   0.000167   0.000865  -0.000624  -0.214743   0.003961
     3  O   -0.000889   0.000000   0.000017   0.000008  -0.004784   0.000366
     4  O   -0.187748   0.139124  -0.270341   0.002428  -0.394995  -0.004183
     5  C   -0.262680  -0.000055  -0.011473  -0.000609  -0.310760   0.007842
     6  C   -9.023291  -0.076354  -2.555814   0.105229  -3.001895  -0.095402
     7  C   39.303793   1.740996  -5.622047   0.195994  -4.379796  -0.481786
     8  C    1.740996  19.981395  -7.893148   0.122929  -0.369854  -0.071839
     9  C   -5.622047  -7.893148  28.385371   0.816076   2.216866   0.040025
    10  H    0.195994   0.122929   0.816076   0.945746  -0.297446  -0.130096
    11  C   -4.379796  -0.369854   2.216866  -0.297446  18.791572   0.881033
    12  H   -0.481786  -0.071839   0.040025  -0.130096   0.881033   0.682217
    13  C   -0.647824   0.000152  -0.027818   0.001049   0.615023  -0.003793
    14  C    0.103246  -2.042932  -0.523137  -0.023007  -0.074454  -0.003397
    15  C    1.910864  -0.744805   0.821607  -0.381425  -1.632621  -0.087399
    16  H   -0.200722  -0.284564   0.179610  -0.039863   0.105621   0.010754
    17  C   -8.111445  -0.760183  -0.245663   0.279181   3.255359   0.184213
    18  C   -1.999393  -0.069102   0.315512  -0.232263   4.641097   0.109313
    19  H    0.204580   0.007730   0.015244   0.013104  -0.028380  -0.066559
    20  C   -7.614509  -0.166398  -2.157223   0.070558  -5.621402   0.032890
    21  H   -0.063588  -0.006992   0.041391  -0.000060  -0.188941   0.009918
    22  C    0.697538   0.028710  -4.147490   0.164462  -4.178060  -0.109095
    23  H    0.001714   0.023427  -0.189950  -0.001981   0.197645  -0.001825
    24  C   -0.015963   0.000002  -0.000172   0.000077  -0.009925  -0.001084
    25  H   -0.000448  -0.000000   0.000000  -0.000004   0.000606   0.000060
    26  C    0.398961  -4.839127  -0.366618  -0.430415  -0.597864   0.011332
    27  H    0.030873  -0.198786  -0.241816  -0.098784  -0.005184  -0.000171
    28  C    0.026635   0.000013   0.001329  -0.000148   0.079657   0.002103
    29  H    0.015000   0.000013   0.000386  -0.000054   0.004002   0.000247
    30  C    0.012767  -0.919621  -0.711012  -0.023388   0.025831   0.002429
    31  H   -0.002949  -0.051415   0.019721  -0.001164   0.002122   0.000159
    32  C   -2.016324  -0.003785  -0.291472   0.015855  -2.009274  -0.060044
    33  H    0.074426   0.000241   0.003356  -0.000147   0.006314   0.000423
    34  H   -0.118392  -0.000145  -0.008764   0.000429  -0.011081  -0.001893
    35  C    0.052394   1.709067  -1.526824   0.133074   0.153855  -0.015179
    36  H    0.034110   0.050486  -0.114080   0.006301  -0.017492  -0.000701
    37  C   -0.016615   0.000001  -0.000041   0.000007   0.010805   0.000173
    38  H   -0.000863  -0.000000  -0.000016   0.000001  -0.000273  -0.000004
    39  C   -0.427568  -0.741272   0.307045  -0.093831   0.184460   0.024239
    40  H   -0.004205   0.096120   0.020494   0.013817   0.002105   0.000363
    41  C   -0.000162   0.000000  -0.000012   0.000009  -0.001651  -0.000133
    42  H   -0.000023  -0.000000  -0.000001   0.000000  -0.000090  -0.000001
    43  C    0.000745   0.000000   0.000016  -0.000005   0.001188   0.000052
    44  H    0.000021   0.000000   0.000000  -0.000000   0.000011   0.000001
              13         14         15         16         17         18
     1  Br   0.000000  -0.729811  -0.019387  -0.001511  -0.003804   0.000020
     2  O   -0.397323  -0.000000   0.001621   0.000072   0.013899  -0.728333
     3  O   -0.010909  -0.000000  -0.000006   0.000000   0.000499  -0.015654
     4  O    0.000394   0.000668   0.337137  -0.017067   0.481470  -0.051582
     5  C  -24.169992  -0.000000  -0.000595   0.000014  -0.004471  -1.026185
     6  C    3.071123  -0.004929  -0.981233  -0.007232   0.186952   0.902707
     7  C   -0.647824   0.103246   1.910864  -0.200722  -8.111445  -1.999393
     8  C    0.000152  -2.042932  -0.744805  -0.284564  -0.760183  -0.069102
     9  C   -0.027818  -0.523137   0.821607   0.179610  -0.245663   0.315512
    10  H    0.001049  -0.023007  -0.381425  -0.039863   0.279181  -0.232263
    11  C    0.615023  -0.074454  -1.632621   0.105621   3.255359   4.641097
    12  H   -0.003793  -0.003397  -0.087399   0.010754   0.184213   0.109313
    13  C   55.032982   0.000004   0.000573  -0.000298  -0.152319   3.994221
    14  C    0.000004  13.117379   0.046368  -0.009906  -0.404978  -0.009808
    15  C    0.000573   0.046368  19.802815   0.459642 -10.667923   0.561972
    16  H   -0.000298  -0.009906   0.459642   0.473027   0.130672   0.020230
    17  C   -0.152319  -0.404978 -10.667923   0.130672  25.171388  -1.444560
    18  C    3.994221  -0.009808   0.561972   0.020230  -1.444560  16.302162
    19  H    0.004626   0.000621   0.036713  -0.000810  -0.080924   0.414378
    20  C   -7.486437   0.000523  -0.822297  -0.023143   1.651359  -8.883864
    21  H   -0.354439   0.000032   0.016728   0.000788   0.248834  -0.425230
    22  C   -0.321194  -0.001934  -2.827751  -0.086757  -0.257799  -1.903294
    23  H    0.031507  -0.000275  -0.064706  -0.003489  -0.200447   0.149082
    24  C    6.141169   0.000000   0.000001  -0.000003  -0.003197   0.184844
    25  H   -0.045096   0.000000   0.000004   0.000000  -0.000013   0.002829
    26  C    0.000026   1.734674   3.923753   0.213378  -2.511272  -0.006722
    27  H    0.000042   0.053041   0.085954   0.013408  -0.104568   0.015736
    28  C   -8.967344   0.000000   0.000172   0.000002   0.002589   0.059616
    29  H   -0.349134   0.000000   0.000189  -0.000001  -0.000533  -0.010092
    30  C   -0.000001   0.144300  -0.216012   0.038251  -0.020084   0.005937
    31  H   -0.000000  -0.109323   0.012344   0.005734   0.019516   0.000122
    32  C  -27.237389  -0.000002  -0.029813  -0.001170   0.204856  -4.365922
    33  H   -0.564862  -0.000001   0.000458   0.000009  -0.006574  -0.025721
    34  H    1.269361  -0.000001  -0.003897  -0.000035  -0.011877   0.089120
    35  C    0.000020  -2.899875  -2.551189  -0.217915  -0.175048   0.010428
    36  H    0.000006  -0.005483  -0.062580  -0.025348  -0.019692  -0.002248
    37  C    5.857081   0.000000  -0.000012  -0.000002  -0.000439   0.084540
    38  H    0.045660  -0.000000  -0.000003  -0.000000  -0.000001  -0.000049
    39  C   -0.000034  -2.953892  -1.018468  -0.009719   0.165952   0.030799
    40  H   -0.000002  -0.141216  -0.011551  -0.000790   0.021496  -0.000723
    41  C    1.430647  -0.000000  -0.000003  -0.000000   0.000064  -0.004993
    42  H    0.010498  -0.000000  -0.000000  -0.000000   0.000002  -0.000536
    43  C   -0.605288   0.000000   0.000003   0.000000  -0.000059   0.003859
    44  H   -0.056105   0.000000   0.000000   0.000000  -0.000001  -0.000055
              19         20         21         22         23         24
     1  Br   0.000004   0.000004   0.000000  -0.000020   0.000000   0.000000
     2  O   -0.035296   0.802946   0.020759   0.137543  -0.006513   0.017418
     3  O   -0.006823   0.000847   0.000982  -0.003938  -0.000048   0.047473
     4  O    0.000625   0.080490   0.009682   0.174364  -0.041338   0.000003
     5  C   -0.054007   0.135754  -0.108548  -0.260990   0.010918  -4.412509
     6  C   -0.219008  -4.162450  -1.283909  -2.425468   0.346140   0.104149
     7  C    0.204580  -7.614509  -0.063588   0.697538   0.001714  -0.015963
     8  C    0.007730  -0.166398  -0.006992   0.028710   0.023427   0.000002
     9  C    0.015244  -2.157223   0.041391  -4.147490  -0.189950  -0.000172
    10  H    0.013104   0.070558  -0.000060   0.164462  -0.001981   0.000077
    11  C   -0.028380  -5.621402  -0.188941  -4.178060   0.197645  -0.009925
    12  H   -0.066559   0.032890   0.009918  -0.109095  -0.001825  -0.001084
    13  C    0.004626  -7.486437  -0.354439  -0.321194   0.031507   6.141169
    14  C    0.000621   0.000523   0.000032  -0.001934  -0.000275   0.000000
    15  C    0.036713  -0.822297   0.016728  -2.827751  -0.064706   0.000001
    16  H   -0.000810  -0.023143   0.000788  -0.086757  -0.003489  -0.000003
    17  C   -0.080924   1.651359   0.248834  -0.257799  -0.200447  -0.003197
    18  C    0.414378  -8.883864  -0.425230  -1.903294   0.149082   0.184844
    19  H    0.479285  -0.069363  -0.005356   0.029021   0.003855   0.002782
    20  C   -0.069363  27.019636   1.554689   4.813476  -0.230327  -0.555939
    21  H   -0.005356   1.554689   0.731205   0.280034  -0.082346  -0.045152
    22  C    0.029021   4.813476   0.280034  15.932260   0.292325  -0.008363
    23  H    0.003855  -0.230327  -0.082346   0.292325   0.470389   0.001636
    24  C    0.002782  -0.555939  -0.045152  -0.008363   0.001636  17.048152
    25  H   -0.000293  -0.001348   0.000360  -0.000112  -0.000013   0.412702
    26  C    0.003605   0.016036   0.002382  -0.085867  -0.012563  -0.000001
    27  H    0.001137  -0.003969  -0.000216  -0.002037   0.000580  -0.000000
    28  C   -0.003725   0.665012   0.097029   0.023913  -0.006943  -9.733444
    29  H   -0.000237   0.049168  -0.002170   0.024679   0.001203  -0.169931
    30  C   -0.000029  -0.003856  -0.000017  -0.024465   0.000216  -0.000000
    31  H   -0.000009  -0.000048  -0.000002   0.000084   0.000026  -0.000000
    32  C    0.044049   7.034691   0.387200  -0.176128  -0.004342  -6.608121
    33  H   -0.001082   0.154947  -0.007196   0.035260   0.000000  -0.052456
    34  H   -0.000808  -0.354875  -0.064554  -0.097827   0.007555   0.198321
    35  C    0.000307  -0.016703  -0.000948  -0.049971   0.008495   0.000000
    36  H    0.000063   0.001395  -0.000012   0.008959   0.000182   0.000000
    37  C   -0.000851  -0.225969   0.004860  -0.020464  -0.000944   3.430062
    38  H   -0.000013  -0.005013  -0.000463  -0.001995  -0.000001   0.129122
    39  C   -0.001869   0.000316  -0.000027  -0.005253   0.000408  -0.000000
    40  H   -0.000132  -0.000011  -0.000000   0.000664  -0.000000  -0.000000
    41  C    0.000765  -0.016916  -0.002812  -0.000810   0.000068   0.796954
    42  H   -0.000003  -0.000202  -0.000072  -0.000108   0.000002  -0.030847
    43  C   -0.000096   0.020464   0.005092   0.001504  -0.000205  -1.533031
    44  H   -0.000007   0.000791   0.000085   0.000128  -0.000001  -0.054772
              25         26         27         28         29         30
     1  Br   0.000000   0.067629   0.018027   0.000000   0.000000   0.264488
     2  O   -0.001167  -0.000080  -0.000003  -0.026282  -0.002458   0.000001
     3  O   -0.016715  -0.000000  -0.000001  -0.135533   0.002525  -0.000000
     4  O    0.000000   0.015689   0.001596   0.000005  -0.000003  -0.003000
     5  C    0.001496  -0.000007   0.000001   0.690172  -0.104599   0.000000
     6  C   -0.013855  -0.092303  -0.010976  -0.923438  -0.092159   0.000056
     7  C   -0.000448   0.398961   0.030873   0.026635   0.015000   0.012767
     8  C   -0.000000  -4.839127  -0.198786   0.000013   0.000013  -0.919621
     9  C    0.000000  -0.366618  -0.241816   0.001329   0.000386  -0.711012
    10  H   -0.000004  -0.430415  -0.098784  -0.000148  -0.000054  -0.023388
    11  C    0.000606  -0.597864  -0.005184   0.079657   0.004002   0.025831
    12  H    0.000060   0.011332  -0.000171   0.002103   0.000247   0.002429
    13  C   -0.045096   0.000026   0.000042  -8.967344  -0.349134  -0.000001
[...]
 4,-0.00068485,0.00003672,0.00005892,0.00003675,0.00002685,0.00003162,0
 .06361112,0.03105971,0.04329299,0.00000902,-0.00021168,-0.00038113,0.0
 0002679,0.00002946,0.00006316,-0.00000111,0.00000037,0.00000184,-0.000
 00485,0.00000887,0.00002272,0.00000127,-0.00000018,-0.00000303,-0.0000
 1627,-0.00003483,-0.00004139,-0.00000258,-0.00000041,-0.00000090,0.003
 65195,-0.00275882,-0.00389864,0.00000309,-0.00000143,-0.00000659,0.000
 00408,-0.00001058,-0.00000700,0.00000038,0.00000001,-0.00000031,-0.000
 02273,-0.00003560,-0.00008819,-0.00005150,0.00003690,0.00006683,0.0000
 0730,-0.00000243,-0.00000719,0.00005276,0.00002746,0.00003904,-0.00003
 093,-0.00000227,-0.00000200,-0.00000292,-0.00001259,-0.00000789,-0.000
 00104,0.00000390,0.00000800,-0.22560341,0.02354178,0.06867459,-0.01168
 506,0.01051303,0.02092259,0.00000112,-0.00000006,-0.00000091,0.0000000
 8,0.00000110,-0.00000067,-0.07176510,0.00764298,0.02463451,-0.00105045
 ,0.00044529,0.00073872,-0.00000176,-0.00000062,0.00000233,-0.00000031,
 0.00000037,0.00000033,0.00207880,0.00028519,-0.00001687,-0.00046803,-0
 .00001386,0.00032162,-0.00049709,0.00019092,0.00017038,-0.00000302,-0.
 00000100,-0.00000058,0.00000012,0.00000015,-0.00000096,-0.00065640,-0.
 04801075,-0.08122289,0.00142443,-0.00121959,-0.00100532,-0.00000067,0.
 00000247,0.00000472,-0.00000020,-0.00000016,-0.00000075,0.67070791,0.0
 0000021,-0.00000039,-0.00000084,0.00003962,-0.00028892,-0.00034398,0.0
 0030535,0.00038669,0.00161627,-0.00000681,-0.00000846,-0.00000858,0.00
 339682,-0.00637666,-0.02227679,0.00010795,0.00002188,0.00007525,-0.000
 00191,-0.00000057,-0.00002367,-0.00000092,0.00000224,-0.00000045,-0.00
 000014,-0.00000531,-0.00000603,0.00000012,-0.00000095,0.00000109,0.000
 01749,0.00001960,-0.00000932,-0.00000043,-0.00000083,-0.00000358,-0.00
 407023,0.00399566,-0.00619678,0.00000279,-0.00000200,0.00000304,0.0000
 0437,-0.00000479,0.00000459,0.00000020,-0.00000150,0.00000049,0.000000
 58,0.00002994,0.00001392,-0.00000673,-0.00004393,-0.00003775,0.0000022
 1,-0.00000799,0.00000450,-0.00002106,0.00002891,-0.00003004,0.00000721
 ,-0.00001862,0.00002194,0.00000517,-0.00002743,0.00002945,-0.00000075,
 0.00000506,-0.00000447,0.06173685,-0.10603671,-0.08352691,-0.00419734,
 0.00629497,0.00352195,0.00000038,0.00000056,-0.00000227,-0.00000038,-0
 .00000034,0.00000068,0.00805051,-0.00469882,-0.00078768,0.00034182,-0.
 00067577,0.00075178,-0.00000199,0.00000281,0.00000054,0.00000045,-0.00
 000026,0.00000009,0.00063727,-0.00078928,0.00032349,-0.00000759,-0.000
 00083,-0.00015167,0.00009543,0.00014406,0.00018375,0.00000109,-0.00000
 129,-0.00000500,0.00000052,-0.00000040,0.00000102,-0.01989652,0.004556
 37,0.00037645,-0.00144197,0.00403977,-0.00563483,-0.00000393,0.0000018
 2,-0.00000112,0.00000064,-0.00000061,0.00000004,0.05043158,0.29505110,
 0.00000140,-0.00000094,-0.00000231,0.00011894,-0.00036147,-0.00071302,
 0.00051471,0.00168081,0.00217677,-0.00001623,-0.00001463,-0.00002221,-
 0.00410779,-0.02706609,-0.03948082,0.00016641,0.00013480,0.00015055,-0
 .00000134,-0.00004111,-0.00003763,0.00000213,-0.00000483,0.00000162,0.
 00000063,-0.00000289,-0.00001940,-0.00000045,0.00000053,0.00000104,0.0
 0003106,-0.00000011,0.00001642,0.00000074,-0.00000309,-0.00000681,-0.0
 0625437,-0.00643609,-0.00194031,-0.00000103,0.00000304,-0.00000126,-0.
 00000751,0.00001254,0.00000152,0.00000027,0.00000027,0.00000036,0.0000
 1266,0.00001452,0.00006508,-0.00000785,-0.00003792,-0.00007879,0.00000
 134,0.00000331,-0.00000469,-0.00004342,-0.00004399,-0.00000164,0.00001
 359,0.00002103,0.00000501,0.00000577,0.00003905,-0.00000052,-0.0000003
 3,-0.00000330,0.00000035,0.13429096,-0.07689179,-0.21979698,-0.0043634
 2,0.00096625,0.00706829,0.00000113,-0.00000100,-0.00000053,-0.00000071
 ,-0.00000026,0.00000023,0.02533169,-0.00070728,-0.01069593,0.00057121,
 0.00072821,0.00001853,0.00000360,-0.00000177,0.00000130,-0.00000019,0.
 00000009,-0.00000050,0.00057922,0.00032795,-0.00051839,0.00018510,0.00
 012135,0.00008325,0.00014473,-0.00009735,-0.00001069,0.00000061,0.0000
 0292,-0.00000158,-0.00000033,0.,0.00000058,-0.03287679,0.00529795,0.02
 113196,-0.00142320,-0.00567872,-0.00203774,0.00000102,-0.00000345,0.00
 000007,-0.00000005,0.00000034,-0.00000032,-0.00720163,0.26321390,0.590
 68366,-0.00000038,0.00000004,0.00000037,0.00002784,0.00012470,0.000193
 36,-0.00017850,-0.00014186,-0.00018065,0.00000535,0.00000475,0.0000054
 6,-0.00208649,0.00102655,0.00361188,-0.00004535,-0.00003733,-0.0000552
 8,0.00000174,0.00000631,0.00001417,0.00000010,-0.00000006,0.00000022,-
 0.00000105,0.00000319,0.00000292,0.00000015,-0.00000017,-0.00000037,-0
 .00000823,-0.00000386,-0.00000419,-0.00000015,0.00000121,0.00000217,0.
 00099505,0.00058229,0.00083220,-0.00000004,0.00000002,-0.00000017,0.00
 000047,0.00000018,-0.00000179,-0.00000004,-0.00000015,-0.00000002,-0.0
 0000284,-0.00001106,-0.00001368,0.00000259,0.00001444,0.00002410,0.000
 00096,-0.00000078,-0.00000090,0.00000823,0.00000885,0.00001487,-0.0000
 0583,-0.00000172,-0.00000090,0.00000135,-0.00000059,-0.00000686,0.0000
 0012,0.00000082,0.00000184,0.01090817,0.01084194,0.01737848,0.00053866
 ,0.00014968,-0.00058663,-0.00000008,0.,0.00000043,0.00000037,0.,-0.000
 00008,-0.00129429,0.00037810,0.00066373,0.00008176,0.00006942,-0.00009
 423,-0.00000003,-0.00000031,-0.00000018,-0.00000006,0.,0.00000013,-0.0
 0028502,0.00002936,0.00006117,-0.00000371,0.00001283,-0.00000556,-0.00
 000723,-0.00001975,-0.00000054,-0.00000089,0.00000002,0.00000030,0.000
 00004,-0.00000012,0.,-0.00566173,-0.00125363,0.00016463,-0.00037253,-0
 .00076680,-0.00123851,0.00000030,0.00000039,0.00000004,-0.00000006,-0.
 00000002,0.00000018,-0.08828438,-0.04747388,-0.07285371,0.08947171,0.0
 0000299,-0.00000099,-0.00000342,0.00000389,-0.00015747,-0.00015285,0.0
 0022902,0.00015106,-0.00004286,-0.00000730,-0.00001286,-0.00001569,0.0
 0127505,0.00599534,-0.00418066,0.00003292,0.00007404,0.00008852,0.0000
 0066,-0.00001693,-0.00002859,0.00000090,-0.00000031,-0.00000079,0.0000
 0437,-0.00000742,-0.00001610,-0.00000063,0.00000101,0.00000106,0.00000
 976,0.00000669,0.00000673,0.00000160,-0.00000074,-0.00000238,-0.000707
 37,-0.00011518,-0.00020793,-0.00000319,0.00000138,0.00000411,-0.000002
 25,0.00000308,0.00000767,-0.00000054,0.00000093,0.00000014,-0.00000028
 ,0.00002147,0.00004444,0.00000700,-0.00002065,-0.00002534,-0.00000205,
 0.00000371,0.00000018,-0.00002094,-0.00001345,-0.00002097,0.00000682,0
 .00000664,0.00000020,-0.00000175,0.00000894,0.00001005,-0.00000032,0.0
 0000075,-0.00000034,-0.00461718,-0.00114969,-0.00744891,0.00050161,-0.
 00302401,0.00209533,-0.00000036,-0.00000101,0.00000033,-0.00000088,-0.
 00000008,0.,0.00035606,-0.00065200,0.00081389,0.00005903,-0.00086150,0
 .00045609,0.00000206,0.00000024,-0.00000129,0.00000001,-0.00000001,-0.
 00000046,0.00013945,-0.00015470,0.00011158,-0.00002360,-0.00001627,-0.
 00003929,0.00002214,0.00002921,0.00002139,0.00000203,0.00000090,0.0000
 0037,-0.00000021,0.00000055,0.00000021,-0.00144314,0.00593681,-0.00242
 629,0.00003156,-0.00005415,-0.00019376,0.00000079,-0.00000200,-0.00000
 270,0.,0.00000042,-0.00000012,-0.04750520,-0.11392919,-0.12077366,0.05
 159020,0.10946367,0.00000529,-0.00000149,-0.00000622,-0.00000805,-0.00
 017823,-0.00035647,0.00045310,0.00002177,0.00010249,-0.00001172,-0.000
 01842,-0.00003046,0.00402328,-0.00415018,0.00045876,0.00006409,0.00010
 523,0.00017656,0.00000033,-0.00002799,-0.00005221,0.00000206,-0.000000
 71,-0.00000108,0.00000825,-0.00001603,-0.00002905,-0.00000017,0.000000
 61,0.00000257,0.00001872,0.00001206,0.00001205,0.00000275,-0.00000244,
 -0.00000361,-0.00138262,-0.00042773,-0.00040681,-0.00000553,0.00000210
 ,0.00000720,-0.00000410,0.00000844,0.00001321,-0.00000041,0.00000075,0
 .00000117,-0.00000350,0.00004014,0.00007757,0.00001100,-0.00002805,-0.
 00005415,-0.00000303,0.00000017,0.00000439,-0.00003612,-0.00002556,-0.
 00003695,0.00001358,0.00000200,0.00000626,-0.00000299,0.00000841,0.000
 02262,-0.00000059,-0.00000004,-0.00000040,-0.00916814,-0.01011011,-0.0
 1213266,0.00001446,0.00215817,-0.00059380,-0.00000139,-0.00000100,-0.0
 0000160,-0.00000136,-0.00000086,0.00000083,0.00065138,0.00081155,0.000
 12420,-0.00011141,0.00045345,-0.00033594,0.00000353,0.00000129,-0.0000
 0207,0.00000018,-0.00000040,-0.00000043,0.00025088,0.00013288,-0.00004
 693,0.00001361,-0.00000349,0.00001559,-0.00001174,-0.00001484,-0.00002
 367,0.00000290,0.00000186,0.00000047,0.00000018,0.00000051,0.00000084,
 -0.00023038,-0.00245692,0.00330722,0.00012610,-0.00005870,-0.00006634,
 0.00000037,-0.00000309,-0.00000442,0.00000057,-0.00000004,-0.00000003,
 -0.07288076,-0.12074067,-0.23364754,0.07745790,0.13401470,0.24306121,-
 0.00000592,0.00000194,0.00000680,0.00006228,0.00006466,0.00008805,-0.0
 0092498,0.00086626,0.00164921,0.00002278,0.00002608,0.00003774,-0.0445
 5860,-0.02165417,-0.03058120,-0.00000012,-0.00013314,-0.00021326,-0.00
 000724,0.00004077,0.00006561,-0.00000373,0.00000282,0.,-0.00000770,0.0
 0001362,0.00003649,0.00000074,-0.00000083,-0.00000326,-0.00001019,-0.0
 0000474,-0.00001392,-0.00000409,0.00000229,0.00000340,-0.00198975,-0.0
 0180059,-0.00303704,0.00000681,-0.00000355,-0.00000732,0.00000193,-0.0
 0000502,-0.00001742,0.00000120,-0.00000122,-0.00000097,-0.00000423,-0.
 00005525,-0.00009315,-0.00002492,0.00001842,0.00004447,0.00000636,-0.0
 0000486,-0.00000826,0.00006285,0.00004042,0.00006900,-0.00000987,-0.00
 001313,-0.00001540,0.00000341,-0.00001083,-0.00003310,0.00000061,0.000
 00085,0.00000088,-0.04419253,0.03129482,0.06250486,-0.00054195,0.00104
 318,0.00325861,0.00000170,0.00000177,0.00000008,0.00000150,0.00000078,
 -0.00000080,0.06996456,0.00233455,-0.00710469,-0.00211897,0.00135732,0
 .00403836,-0.00000475,0.00000006,0.00000283,-0.00000034,0.00000051,0.0
 0000050,-0.00039176,-0.00023271,-0.00020495,0.00029589,0.00002409,-0.0
 0003640,0.00029258,0.00002213,-0.00002926,-0.00000217,-0.00000454,0.00
 000068,0.00000008,-0.00000069,-0.00000083,-0.15540571,-0.02037322,-0.0
 1940176,-0.00546667,-0.01568499,-0.02534768,-0.00000118,0.00000343,0.0
 0000618,-0.00000054,-0.00000011,-0.00000007,-0.32736302,-0.05929553,-0
 .05516890,-0.00431761,-0.00007253,0.00127276,0.69412417,0.00000107,-0.
 00000004,-0.00000110,0.00014961,-0.00019281,-0.00022529,-0.00038435,0.
 00013959,0.00032661,-0.00001532,-0.00000749,-0.00001448,-0.02243348,-0
 .01687018,-0.01343134,0.00004510,0.00005503,0.00021278,-0.00000980,-0.
 00001528,-0.00003319,0.00000076,-0.00000138,-0.00000048,0.00000317,-0.
 00000331,-0.00000864,-0.00000053,0.00000108,0.00000056,0.00001437,-0.0
 0000857,0.00002920,0.00000179,-0.00000493,-0.00000026,-0.00104596,-0.0
 0147535,0.00006849,-0.00000141,0.00000103,-0.00000036,-0.00000354,0.00
 000456,0.00000199,0.,0.00000058,0.00000052,0.00000980,0.00001247,0.000
 03965,0.00000719,0.00001991,-0.00006608,-0.00000209,0.00000157,-0.0000
 0044,-0.00003014,-0.00001310,-0.00001588,0.00001329,0.00002515,-0.0000
 0860,0.00000384,0.00001395,0.00000168,0.00000016,-0.00000739,-0.000000
 66,0.00328491,0.02303760,0.02876009,0.00090430,0.00531321,-0.00474033,
 -0.00000129,-0.00000039,-0.00000066,0.00000031,-0.00000083,0.00000066,
 0.03165422,-0.00727431,-0.02841106,0.00106383,0.00539068,-0.00391877,0
 .00000168,-0.00000033,-0.00000123,-0.00000007,-0.00000017,-0.00000007,
 -0.00043964,0.00050008,-0.00044445,0.00018198,0.00002004,-0.00000289,0
 .00020995,-0.00014742,0.00000642,0.00000049,0.00000107,0.00000195,0.00
 000010,-0.00000014,0.00000024,-0.05945744,-0.13398552,-0.11093589,-0.0
 0007245,0.00149207,-0.00350218,0.00000131,-0.00000176,-0.00000027,0.00
 000014,-0.00000002,-0.00000011,-0.02023325,-0.08753186,-0.03796921,-0.
 01567082,0.00121192,-0.00137935,0.02364472,0.28569645,0.00000243,-0.00
 000091,-0.00000283,0.00023058,-0.00022377,-0.00046364,-0.00048664,0.00
 010632,0.00027060,-0.00003343,-0.00002732,-0.00002758,-0.03199319,-0.0
 1359000,-0.02453707,0.00006988,0.00024792,0.00032859,-0.00001786,-0.00
 003986,-0.00006081,-0.00000002,0.00000015,-0.00000140,0.00000274,-0.00
 001010,-0.00002019,-0.00000049,0.00000010,0.00000259,0.00002664,0.0000
 3657,0.00002325,0.00000202,-0.00000083,-0.00000480,-0.00171109,0.00021
 835,-0.00077025,-0.00000230,0.00000092,0.00000308,0.00000181,0.0000031
 8,0.00000956,-0.00000060,0.00000084,0.00000008,0.00001736,0.00004758,0
 .00007399,0.00002656,-0.00007508,-0.00007031,-0.00000512,0.00000160,0.
 00000536,-0.00005836,-0.00003570,-0.00003953,0.00002841,-0.00000195,0.
 00001759,0.00000344,0.00000843,0.00001640,0.,-0.00000096,-0.00000953,0
 .01439987,0.02387053,0.04450608,0.00305617,-0.00475935,-0.00074899,-0.
 00000038,-0.00000031,-0.00000002,-0.00000105,-0.00000041,0.00000028,0.
 04331193,-0.02330739,-0.04151702,0.00352272,-0.00397262,0.00013924,0.0
 0000136,0.00000054,-0.00000032,0.00000047,-0.00000023,-0.00000043,-0.0
 0056447,-0.00043914,0.00006789,0.00026333,0.00012961,-0.00016611,0.000
 28450,-0.00007075,0.00000818,0.00000190,0.00000146,-0.00000063,-0.0000
 0014,0.00000034,0.00000030,-0.08651943,-0.11776082,-0.25123317,0.00146
 044,-0.00078039,0.00194860,-0.00000046,-0.00000132,-0.00000276,0.00000
 038,0.00000005,-0.00000002,0.01188978,-0.03122353,-0.11885578,-0.02552
 562,-0.00402807,0.00099575,-0.05636932,0.24696507,0.57436088,-0.000002
 41,0.00000068,0.00000286,0.00002985,0.00005557,0.00007978,0.00010838,0
 .00011909,0.00022308,0.00000265,0.00000732,0.00001097,-0.00053312,-0.0
 0065204,-0.00117554,-0.00001182,-0.00003360,-0.00004665,-0.00000016,0.
 00000970,0.00001669,-0.00000059,-0.00000002,0.00000078,-0.00000382,0.0
 0000692,0.00001112,0.00000022,-0.00000055,-0.00000092,-0.00000489,-0.0
 0000434,-0.00000431,-0.00000109,0.00000036,0.00000074,-0.00022625,0.00
 006975,-0.00006635,0.00000283,-0.00000105,-0.00000354,0.00000178,-0.00
 000320,-0.00000583,0.00000013,-0.00000037,-0.00000032,0.00000354,-0.00
 001502,-0.00002847,-0.00000613,0.00000846,0.00001394,0.00000166,-0.000
 00109,-0.00000195,0.00000775,0.00000946,0.00001263,-0.00000383,-0.0000
 0003,0.00000112,0.00000348,-0.00000300,-0.00000688,0.00000040,-0.00000
 048,0.00000007,-0.00542124,-0.00204553,-0.00125445,-0.00059873,0.00055
 816,0.00102532,0.00000080,-0.00000029,0.00000086,0.00000052,0.00000036
 ,-0.00000023,0.00062405,-0.00190606,-0.00203327,0.00034412,-0.00025190
 ,-0.00050956,-0.00000159,-0.00000031,0.00000054,-0.00000002,0.00000010
 ,0.00000026,-0.00003803,-0.00002361,-0.00000677,0.00000950,0.00002055,
 -0.00000939,0.00000149,-0.00000610,0.00001536,-0.00000122,-0.00000085,
 -0.00000012,0.,-0.00000024,-0.00000030,0.01043709,-0.00431984,-0.00852
 104,0.00051735,0.00053591,0.00013809,-0.00000050,0.00000181,0.00000162
 ,-0.00000012,-0.00000013,-0.00000006,-0.01313884,0.01124149,0.02235036
 ,0.00051157,0.00012978,-0.00053325,-0.17749093,0.05860347,0.12468525,0
 .18487618,0.00000160,-0.00000068,-0.00000200,0.00005679,-0.00006385,-0
 .00004519,0.00005235,0.00018402,-0.00005974,-0.00000701,-0.00001038,-0
 .00001020,-0.00059992,-0.00076537,0.00027896,0.00000935,0.00006011,0.0
 0004584,0.00000028,-0.00001158,-0.00001837,0.00000059,-0.00000045,-0.0
 0000022,0.00000217,-0.00000475,-0.00000983,-0.00000055,0.00000062,0.00
 000067,0.00000567,0.00000166,0.00000445,0.00000093,0.00000026,-0.00000
 133,0.00004041,-0.00099571,0.00053381,-0.00000161,0.00000089,0.0000024
 3,0.00000025,0.00000152,0.00000548,-0.00000034,0.00000046,0.00000002,0
 .00000177,0.00001950,0.00002564,0.00000577,-0.00000731,-0.00001517,-0.
 00000091,0.00000114,0.00000013,-0.00001809,-0.00001035,-0.00000753,0.0
 0000408,0.00000550,0.00000333,0.00000209,-0.00000193,0.00001242,-0.000
 00021,0.00000209,-0.00000077,-0.00192585,0.00569483,-0.00278610,-0.000
 20235,-0.00006869,0.00029359,-0.00000039,-0.00000010,-0.00000012,-0.00
 000059,0.00000006,-0.00000014,-0.00199333,0.00434953,-0.00544283,0.000
 54071,-0.00030469,-0.00043704,0.00000101,-0.00000001,-0.00000029,0.000
 00007,0.,-0.00000033,-0.00006642,0.00012713,-0.00004992,-0.00004902,0.
 00001429,0.00004981,0.00006154,-0.00006971,0.00000774,0.00000099,0.000
 00093,-0.00000042,-0.00000020,0.00000037,0.00000008,0.01124813,-0.0004
 3531,-0.00977301,0.00014478,-0.00282084,0.00199905,0.00000031,-0.00000
 140,-0.00000144,-0.00000002,0.00000026,0.,-0.00428937,0.00587231,0.003
 57208,0.00053763,-0.00272815,0.00187024,0.05854617,-0.07539544,-0.0712
 8873,-0.06210928,0.06735918,0.00000340,-0.00000103,-0.00000409,0.00008
 488,-0.00004561,-0.00013112,0.00010280,-0.00007028,0.00007191,-0.00001
 018,-0.00001297,-0.00002137,-0.00114135,0.00028905,-0.00017622,0.00002
 131,0.00005762,0.00011298,0.00000111,-0.00001927,-0.00003495,0.0000017
 1,-0.00000123,-0.00000009,0.00000489,-0.00000991,-0.00001985,-0.000000
 28,0.00000033,0.00000186,0.00000958,0.00000776,0.00000599,0.00000208,-
 0.00000119,-0.00000136,-0.00009481,0.00051834,-0.00039647,-0.00000365,
 0.00000167,0.00000452,-0.00000251,0.00000560,0.00000863,-0.00000021,0.
 00000020,0.00000087,0.00000085,0.00002613,0.00005415,0.00001020,-0.000
 01569,-0.00002500,-0.00000163,-0.00000018,0.00000157,-0.00003259,-0.00
 001111,-0.00001871,0.00000775,0.00000383,0.00000865,0.00000205,0.00001
 107,0.00001341,-0.00000021,-0.00000014,0.00000109,-0.00106526,-0.00274
 585,0.00296542,-0.00028131,0.00015864,0.00010401,-0.00000105,-0.000000
 30,-0.00000094,-0.00000064,-0.00000079,0.00000067,-0.00216510,-0.00545
 743,-0.00130514,0.00085158,-0.00030139,-0.00076632,0.00000234,0.000000
 57,-0.00000134,0.00000022,-0.00000034,-0.00000026,-0.00007937,-0.00006
 184,0.00008375,0.00002943,0.00006120,-0.00004211,-0.00002345,-0.000002
 02,0.00005008,0.00000163,0.00000191,-0.00000025,0.00000013,0.00000019,
 0.00000068,0.01823266,-0.00705563,-0.01120000,-0.00053252,0.00192272,-
 0.00059340,0.00000050,-0.00000210,-0.00000318,0.00000035,-0.00000005,0
 .00000017,-0.00429490,0.00087173,0.00646881,0.00013935,0.00193548,-0.0
 0055811,0.12460245,-0.07130265,-0.18424508,-0.13438224,0.08124495,0.18
 958614\\0.00000121,0.00000119,-0.00000106,-0.00000178,0.00000089,-0.00
 000198,-0.00000195,0.00000269,-0.00000169,0.00000062,-0.00000141,0.000
 00066,-0.00000117,0.00000158,-0.00000190,0.00000169,0.00000297,0.00000
 135,0.00000314,-0.00000040,-0.00000040,0.00000271,0.00000250,0.0000000
 7,0.00000035,-0.00000038,-0.00000081,0.00000211,0.00000139,-0.00000035
 ,-0.00000313,0.00000023,-0.00000130,0.00000199,0.00000091,-0.00000090,
 0.00000098,-0.00000171,0.00000168,-0.00000124,-0.00000082,-0.00000343,
 0.00000064,-0.00000014,0.00000237,-0.00000037,-0.00000200,0.00000055,0
 .00000048,-0.00000289,0.00000227,-0.00000186,0.00000060,-0.00000089,0.
 00000119,0.00000211,-0.00000028,0.00000109,-0.00000141,-0.00000178,-0.
 00000145,-0.00000088,0.00000146,0.00000003,0.00000096,0.00000358,-0.00
 000049,-0.00000282,0.00000063,-0.00000237,0.00000127,-0.00000010,0.000
 00027,0.00000199,-0.00000113,-0.00000107,0.00000003,0.00000058,-0.0000
 0030,0.00000272,0.00000131,-0.00000003,0.00000017,0.00000121,-0.000001
 02,-0.00000205,-0.00000074,0.00000103,0.00000107,0.00000010,0.00000064
 ,-0.00000237,0.00000017,0.00000118,-0.00000206,-0.00000066,-0.00000015
 ,-0.00000022,0.00000071,-0.00000179,0.00000046,-0.00000164,0.00000244,
 -0.00000265,0.00000059,0.00000073,-0.00000225,0.00000079,0.00000046,-0
 .00000079,-0.00000048,-0.00000188,-0.00000251,0.00000042,0.00000001,0.
 00000172,0.00000239,0.00000061,0.00000236,-0.00000037,-0.00000162,-0.0
 0000070,-0.00000178,-0.00000092,0.00000227,0.00000031,0.00000090,-0.00
 000142,-0.00000053,-0.00000193,-0.00000021,0.00000101\\\@


 SCIENCE IS A VERY HUMAN FORM OF KNOWLEDGE.
 WE ARE ALWAYS AT THE BRINK OF THE KNOWN,
 WE ALWAYS FEEL FORWARD FOR WHAT IS HOPED.
 EVERY JUDGEMENT IN SCIENCE STANDS ON THE EDGE OF ERROR, AND IS PERSONAL.
 SCIENCE IS A TRIBUTE TO WHAT WE CAN KNOW ALTHOUGH WE ARE FALLIBLE.

                     -- J. BRONOWSKI
 Job cpu time:       0 days 19 hours  4 minutes 36.5 seconds.
 Elapsed time:       0 days  1 hours 11 minutes 46.4 seconds.
 File lengths (MBytes):  RWF=   2163 Int=      0 D2E=      0 Chk=     44 Scr=      1
 Normal termination of Gaussian 16 at Mon Oct  6 11:53:17 2025.
