 Entering Gaussian System, Link 0=g16
 Input=EBUL0112.gjf
 Output=EBUL0112.log
 Initial command:
 /usr/local/g16/l1.exe "/dados_01/scratch/Gau-2078452.inp" -scrdir="/dados_01/scratch/"
 Entering Link 1 = /usr/local/g16/l1.exe PID=   2078455.
  
 Copyright (c) 1988-2017, Gaussian, Inc.  All Rights Reserved.
  
 This is part of the Gaussian(R) 16 program.  It is based on
 the Gaussian(R) 09 system (copyright 2009, Gaussian, Inc.),
 the Gaussian(R) 03 system (copyright 2003, Gaussian, Inc.),
 the Gaussian(R) 98 system (copyright 1998, Gaussian, Inc.),
 the Gaussian(R) 94 system (copyright 1995, Gaussian, Inc.),
 the Gaussian 92(TM) system (copyright 1992, Gaussian, Inc.),
 the Gaussian 90(TM) system (copyright 1990, Gaussian, Inc.),
 the Gaussian 88(TM) system (copyright 1988, Gaussian, Inc.),
 the Gaussian 86(TM) system (copyright 1986, Carnegie Mellon
 University), and the Gaussian 82(TM) system (copyright 1983,
 Carnegie Mellon University). Gaussian is a federally registered
 trademark of Gaussian, Inc.
  
 This software contains proprietary and confidential information,
 including trade secrets, belonging to Gaussian, Inc.
  
 This software is provided under written license and may be
 used, copied, transmitted, or stored only in accord with that
 written license.
  
 The following legend is applicable only to US Government
 contracts under FAR:
  
                    RESTRICTED RIGHTS LEGEND
  
 Use, reproduction and disclosure by the US Government is
 subject to restrictions as set forth in subparagraphs (a)
 and (c) of the Commercial Computer Software - Restricted
 Rights clause in FAR 52.227-19.
  
 Gaussian, Inc.
 340 Quinnipiac St., Bldg. 40, Wallingford CT 06492
  
  
 ---------------------------------------------------------------
 Warning -- This program may not be used in any manner that
 competes with the business of Gaussian, Inc. or will provide
 assistance to any competitor of Gaussian, Inc.  The licensee
 of this program is prohibited from giving any competitor of
 Gaussian, Inc. access to this program.  By using this program,
 the user acknowledges that Gaussian, Inc. is engaged in the
 business of creating and licensing software in the field of
 computational chemistry and represents and warrants to the
 licensee that it is not a competitor of Gaussian, Inc. and that
 it will not use this program in any manner prohibited above.
 ---------------------------------------------------------------
  

 Cite this work as:
 Gaussian 16, Revision B.01,
 M. J. Frisch, G. W. Trucks, H. B. Schlegel, G. E. Scuseria, 
 M. A. Robb, J. R. Cheeseman, G. Scalmani, V. Barone, 
 G. A. Petersson, H. Nakatsuji, X. Li, M. Caricato, A. V. Marenich, 
 J. Bloino, B. G. Janesko, R. Gomperts, B. Mennucci, H. P. Hratchian, 
 J. V. Ortiz, A. F. Izmaylov, J. L. Sonnenberg, D. Williams-Young, 
 F. Ding, F. Lipparini, F. Egidi, J. Goings, B. Peng, A. Petrone, 
 T. Henderson, D. Ranasinghe, V. G. Zakrzewski, J. Gao, N. Rega, 
 G. Zheng, W. Liang, M. Hada, M. Ehara, K. Toyota, R. Fukuda, 
 J. Hasegawa, M. Ishida, T. Nakajima, Y. Honda, O. Kitao, H. Nakai, 
 T. Vreven, K. Throssell, J. A. Montgomery, Jr., J. E. Peralta, 
 F. Ogliaro, M. J. Bearpark, J. J. Heyd, E. N. Brothers, K. N. Kudin, 
 V. N. Staroverov, T. A. Keith, R. Kobayashi, J. Normand, 
 K. Raghavachari, A. P. Rendell, J. C. Burant, S. S. Iyengar, 
 J. Tomasi, M. Cossi, J. M. Millam, M. Klene, C. Adamo, R. Cammi, 
 J. W. Ochterski, R. L. Martin, K. Morokuma, O. Farkas, 
 J. B. Foresman, and D. J. Fox, Gaussian, Inc., Wallingford CT, 2016.
 
 ******************************************
 Gaussian 16:  ES64L-G16RevB.01 20-Dec-2017
                19-Sep-2025 
 ******************************************
 %nprocs=16
 Will use up to   16 processors via shared memory.
 %mem=40GB
 %chk=EBUL0112.chk
 ----------------------------------------------------------------------
 # opt freq=noraman M08HX/6-311++G** scf=xqc Empiricaldispersion=pfd In
 t(Grid=ultraFine)
 ----------------------------------------------------------------------
 1/18=20,19=15,26=4,38=1/1,3;
 2/9=110,12=2,17=6,18=5,40=1/2;
 3/5=4,6=6,7=1111,11=2,25=1,30=1,71=1,74=-74,75=-5,124=11/1,2,3;
 4//1;
 5/5=2,8=3,13=1,38=5/2,8;
 6/7=2,8=2,9=2,10=2,28=1/1;
 7//1,2,3,16;
 1/18=20,19=15,26=4/3(2);
 2/9=110/2;
 99//99;
 2/9=110/2;
 3/5=4,6=6,7=1111,11=2,25=1,30=1,71=1,74=-74,75=-5,124=11/1,2,3;
 4/5=5,16=3,69=1/1;
 5/5=2,8=3,13=1,38=5/2,8;
 7//1,2,3,16;
 1/18=20,19=15,26=4/3(-5);
 2/9=110/2;
 6/7=2,8=2,9=2,10=2,19=2,28=1/1;
 99/9=1/99;
 --------
 EBUL0112
 --------
 Symbolic Z-matrix:
 Charge =  0 Multiplicity = 1
 O                    -2.3537    0.237     0.0004 
 C                     1.1359   -0.3976    0.0002 
 C                     2.5002    0.2099    0.0002 
 C                     0.0089    0.3239   -0.0005 
 C                    -1.2913   -0.3731   -0.0003 
 H                     1.0939   -1.4838    0.0008 
 H                     3.0526   -0.1152   -0.8867 
 H                     3.0524   -0.1143    0.8875 
 H                     2.4672    1.3041   -0.0003 
 H                     0.009     1.4073   -0.001 
 H                    -1.2553   -1.4754    0.0001 
 

 GradGradGradGradGradGradGradGradGradGradGradGradGradGradGradGradGradGrad
 Berny optimization.
 Initialization pass.
                           ----------------------------
                           !    Initial Parameters    !
                           ! (Angstroms and Degrees)  !
 --------------------------                            --------------------------
 ! Name  Definition              Value          Derivative Info.                !
 --------------------------------------------------------------------------------
 ! R1    R(1,5)                  1.2251         estimate D2E/DX2                !
 ! R2    R(2,3)                  1.4934         estimate D2E/DX2                !
 ! R3    R(2,4)                  1.3382         estimate D2E/DX2                !
 ! R4    R(2,6)                  1.087          estimate D2E/DX2                !
 ! R5    R(3,7)                  1.0943         estimate D2E/DX2                !
 ! R6    R(3,8)                  1.0942         estimate D2E/DX2                !
 ! R7    R(3,9)                  1.0947         estimate D2E/DX2                !
 ! R8    R(4,5)                  1.4752         estimate D2E/DX2                !
 ! R9    R(4,10)                 1.0834         estimate D2E/DX2                !
 ! R10   R(5,11)                 1.1029         estimate D2E/DX2                !
 ! A1    A(3,2,4)              123.3702         estimate D2E/DX2                !
 ! A2    A(3,2,6)              116.217          estimate D2E/DX2                !
 ! A3    A(4,2,6)              120.4128         estimate D2E/DX2                !
 ! A4    A(2,3,7)              109.8956         estimate D2E/DX2                !
 ! A5    A(2,3,8)              109.9067         estimate D2E/DX2                !
 ! A6    A(2,3,9)              112.2751         estimate D2E/DX2                !
 ! A7    A(7,3,8)              108.3275         estimate D2E/DX2                !
 ! A8    A(7,3,9)              108.1681         estimate D2E/DX2                !
 ! A9    A(8,3,9)              108.1636         estimate D2E/DX2                !
 ! A10   A(2,4,5)              119.1783         estimate D2E/DX2                !
 ! A11   A(2,4,10)             122.6219         estimate D2E/DX2                !
 ! A12   A(5,4,10)             118.1998         estimate D2E/DX2                !
 ! A13   A(1,5,4)              121.9382         estimate D2E/DX2                !
 ! A14   A(1,5,11)             121.7378         estimate D2E/DX2                !
 ! A15   A(4,5,11)             116.3239         estimate D2E/DX2                !
 ! D1    D(4,2,3,7)           -120.429          estimate D2E/DX2                !
 ! D2    D(4,2,3,8)            120.4461         estimate D2E/DX2                !
 ! D3    D(4,2,3,9)              0.0076         estimate D2E/DX2                !
 ! D4    D(6,2,3,7)             59.5704         estimate D2E/DX2                !
 ! D5    D(6,2,3,8)            -59.5545         estimate D2E/DX2                !
 ! D6    D(6,2,3,9)           -179.993          estimate D2E/DX2                !
 ! D7    D(3,2,4,5)           -179.9941         estimate D2E/DX2                !
 ! D8    D(3,2,4,10)            -0.0075         estimate D2E/DX2                !
 ! D9    D(6,2,4,5)              0.0066         estimate D2E/DX2                !
 ! D10   D(6,2,4,10)           179.9931         estimate D2E/DX2                !
 ! D11   D(2,4,5,1)            179.9276         estimate D2E/DX2                !
 ! D12   D(2,4,5,11)            -0.0193         estimate D2E/DX2                !
 ! D13   D(10,4,5,1)            -0.0596         estimate D2E/DX2                !
 ! D14   D(10,4,5,11)          179.9935         estimate D2E/DX2                !
 --------------------------------------------------------------------------------
 Trust Radius=3.00D-01 FncErr=1.00D-07 GrdErr=1.00D-06 EigMax=2.50D+02 EigMin=1.00D-04
 Number of steps in this run=     49 maximum allowed number of steps=    100.
 GradGradGradGradGradGradGradGradGradGradGradGradGradGradGradGradGradGrad

                          Input orientation:                          
 ---------------------------------------------------------------------
 Center     Atomic      Atomic             Coordinates (Angstroms)
 Number     Number       Type             X           Y           Z
 ---------------------------------------------------------------------
      1          8           0       -2.353700    0.237000    0.000400
      2          6           0        1.135900   -0.397600    0.000200
      3          6           0        2.500200    0.209900    0.000200
      4          6           0        0.008900    0.323900   -0.000500
      5          6           0       -1.291300   -0.373100   -0.000300
      6          1           0        1.093900   -1.483800    0.000800
      7          1           0        3.052600   -0.115200   -0.886700
      8          1           0        3.052400   -0.114300    0.887500
      9          1           0        2.467200    1.304100   -0.000300
     10          1           0        0.009000    1.407300   -0.001000
     11          1           0       -1.255300   -1.475400    0.000100
 ---------------------------------------------------------------------
                    Distance matrix (angstroms):
                    1          2          3          4          5
     1  O    0.000000
     2  C    3.546833   0.000000
     3  C    4.853976   1.493443   0.000000
     4  C    2.364198   1.338167   2.493907   0.000000
     5  C    1.225119   2.427324   3.836061   1.475239   0.000000
     6  H    3.853193   1.087012   2.201431   2.108318   2.631128
     7  H    5.489906   2.130746   1.094270   3.200355   4.440910
     8  H    5.489652   2.130853   1.094227   3.200540   4.441047
     9  H    4.937588   2.160589   1.094698   2.646513   4.115741
    10  H    2.636656   2.127809   2.764027   1.083400   2.204678
    11  H    2.034403   2.622878   4.116311   2.199019   1.102888
                    6          7          8          9         10
     6  H    0.000000
     7  H    2.548966   0.000000
     8  H    2.549017   1.774200   0.000000
     9  H    3.107787   1.772797   1.772712   0.000000
    10  H    3.087956   3.516528   3.516672   2.460365   0.000000
    11  H    2.349215   4.603755   4.603950   4.645711   3.147763
                   11
    11  H    0.000000
 Stoichiometry    C4H6O
 Framework group  C1[X(C4H6O)]
 Deg. of freedom    27
 Full point group                 C1      NOp   1
 Largest Abelian subgroup         C1      NOp   1
 Largest concise Abelian subgroup C1      NOp   1
                         Standard orientation:                         
 ---------------------------------------------------------------------
 Center     Atomic      Atomic             Coordinates (Angstroms)
 Number     Number       Type             X           Y           Z
 ---------------------------------------------------------------------
      1          8           0        2.447775   -0.271913    0.000455
      2          6           0       -1.032446    0.412255    0.000063
      3          6           0       -2.405249   -0.175779    0.000185
      4          6           0        0.084178   -0.325201   -0.000456
      5          6           0        1.394160    0.353236   -0.000399
      6          1           0       -0.975001    1.497748    0.000414
      7          1           0       -2.952960    0.156941   -0.886797
      8          1           0       -2.952791    0.156446    0.887403
      9          1           0       -2.387815   -1.270338   -0.000063
     10          1           0        0.068669   -1.408490   -0.000707
     11          1           0        1.373841    1.455936   -0.000253
 ---------------------------------------------------------------------
 Rotational constants (GHZ):          31.6169982           2.2126751           2.0951497
 Standard basis: 6-311++G(d,p) (5D, 7F)
 There are   157 symmetry adapted cartesian basis functions of A   symmetry.
 There are   152 symmetry adapted basis functions of A   symmetry.
   152 basis functions,   234 primitive gaussians,   157 cartesian basis functions
    19 alpha electrons       19 beta electrons
       nuclear repulsion energy       153.2509280308 Hartrees.
 NAtoms=   11 NActive=   11 NUniq=   11 SFac= 1.00D+00 NAtFMM=   60 NAOKFM=F Big=F
 Integral buffers will be    131072 words long.
 Raffenetti 2 integral format.
 Two-electron integral symmetry is turned on.
 R6APFD:  NTU= -4 IXU= 1 FactS= 1.050
 Nuclear repulsion after empirical dispersion term =      153.2473165627 Hartrees.
 One-electron integrals computed using PRISM.
 NBasis=   152 RedAO= T EigKep=  1.55D-05  NBF=   152
 NBsUse=   152 1.00D-06 EigRej= -1.00D+00 NBFU=   152
 ExpMin= 3.60D-02 ExpMax= 8.59D+03 ExpMxC= 1.30D+03 IAcc=3 IRadAn=         5 AccDes= 0.00D+00
 Harris functional with IExCor= 1009 and IRadAn=       5 diagonalized for initial guess.
 HarFok:  IExCor= 1009 AccDes= 0.00D+00 IRadAn=         5 IDoV= 1 UseB2=F ITyADJ=14
 ICtDFT=  3500011 ScaDFX=  1.000000  1.000000  1.000000  1.000000
 FoFCou: FMM=F IPFlag=           0 FMFlag=      100000 FMFlg1=           0
         NFxFlg=           0 DoJE=T BraDBF=F KetDBF=T FulRan=T
         wScrn=  0.000000 ICntrl=       500 IOpCl=  0 I1Cent=   200000004 NGrid=           0
         NMat0=    1 NMatS0=      1 NMatT0=    0 NMatD0=    1 NMtDS0=    0 NMtDT0=    0
 Petite list used in FoFCou.
 Keep R1 ints in memory in canonical form, NReq=83380191.
 Requested convergence on RMS density matrix=1.00D-08 within  32 cycles.
 Requested convergence on MAX density matrix=1.00D-06.
 Requested convergence on             energy=1.00D-06.
 No special actions if energy rises.
 SCF Done:  E(RM08HX) =  -231.222661333     A.U. after   13 cycles
            NFock= 13  Conv=0.40D-08     -V/T= 2.0047
 QCSCF skips out because SCF is already converged.

 **********************************************************************

            Population analysis using the SCF Density.

 **********************************************************************

 Orbital symmetries:
       Occupied  (A) (A) (A) (A) (A) (A) (A) (A) (A) (A) (A) (A)
                 (A) (A) (A) (A) (A) (A) (A)
       Virtual   (A) (A) (A) (A) (A) (A) (A) (A) (A) (A) (A) (A)
                 (A) (A) (A) (A) (A) (A) (A) (A) (A) (A) (A) (A)
                 (A) (A) (A) (A) (A) (A) (A) (A) (A) (A) (A) (A)
                 (A) (A) (A) (A) (A) (A) (A) (A) (A) (A) (A) (A)
                 (A) (A) (A) (A) (A) (A) (A) (A) (A) (A) (A) (A)
                 (A) (A) (A) (A) (A) (A) (A) (A) (A) (A) (A) (A)
                 (A) (A) (A) (A) (A) (A) (A) (A) (A) (A) (A) (A)
                 (A) (A) (A) (A) (A) (A) (A) (A) (A) (A) (A) (A)
                 (A) (A) (A) (A) (A) (A) (A) (A) (A) (A) (A) (A)
                 (A) (A) (A) (A) (A) (A) (A) (A) (A) (A) (A) (A)
                 (A) (A) (A) (A) (A) (A) (A) (A) (A) (A) (A) (A)
                 (A)
 The electronic state is 1-A.
 Alpha  occ. eigenvalues --  -19.60828 -10.62328 -10.57197 -10.54844 -10.54463
 Alpha  occ. eigenvalues --   -1.16365  -0.93447  -0.83021  -0.70126  -0.66499
 Alpha  occ. eigenvalues --   -0.57422  -0.53909  -0.50994  -0.49909  -0.46895
 Alpha  occ. eigenvalues --   -0.46876  -0.44970  -0.34281  -0.33674
 Alpha virt. eigenvalues --   -0.03463  -0.03041  -0.01697  -0.00264   0.00261
 Alpha virt. eigenvalues --    0.01737   0.02357   0.02608   0.04640   0.04959
 Alpha virt. eigenvalues --    0.06346   0.06943   0.09502   0.09897   0.10036
 Alpha virt. eigenvalues --    0.10963   0.11748   0.12489   0.12928   0.13475
 Alpha virt. eigenvalues --    0.13867   0.14920   0.16105   0.17783   0.19621
 Alpha virt. eigenvalues --    0.20178   0.21278   0.24765   0.25590   0.26158
 Alpha virt. eigenvalues --    0.28469   0.29884   0.32431   0.34115   0.35567
 Alpha virt. eigenvalues --    0.38540   0.42850   0.43410   0.44670   0.48651
 Alpha virt. eigenvalues --    0.52097   0.53841   0.55384   0.58590   0.61647
 Alpha virt. eigenvalues --    0.62341   0.62426   0.65358   0.66882   0.67300
 Alpha virt. eigenvalues --    0.69527   0.72626   0.75368   0.77509   0.79291
 Alpha virt. eigenvalues --    0.83768   0.86393   0.91450   0.94049   0.98465
 Alpha virt. eigenvalues --    0.99039   1.06194   1.12577   1.14747   1.19777
 Alpha virt. eigenvalues --    1.23309   1.26768   1.29803   1.42712   1.45474
 Alpha virt. eigenvalues --    1.46912   1.51151   1.52653   1.54993   1.57185
 Alpha virt. eigenvalues --    1.59364   1.61838   1.66505   1.66859   1.69467
 Alpha virt. eigenvalues --    1.72962   1.77982   1.80516   1.83476   1.86615
 Alpha virt. eigenvalues --    1.94772   2.04608   2.06836   2.07338   2.12698
 Alpha virt. eigenvalues --    2.20033   2.21619   2.25428   2.30729   2.34750
 Alpha virt. eigenvalues --    2.37439   2.41526   2.47559   2.48929   2.54526
 Alpha virt. eigenvalues --    2.57567   2.59275   2.60610   2.69663   2.72171
 Alpha virt. eigenvalues --    2.74740   2.85415   2.86957   2.90248   2.97290
 Alpha virt. eigenvalues --    2.97348   3.04120   3.12733   3.19403   3.29965
 Alpha virt. eigenvalues --    3.41564   3.52953   3.55646   3.62616   3.82056
 Alpha virt. eigenvalues --    3.82459   3.85781   3.98695   4.24241   4.43311
 Alpha virt. eigenvalues --    5.12135   5.28657   5.82462  23.78563  23.93165
 Alpha virt. eigenvalues --   24.00451  24.27174  49.98166
          Condensed to atoms (all electrons):
               1          2          3          4          5          6
     1  O    7.988934   0.053130   0.014571  -0.251995   0.480673  -0.002284
     2  C    0.053130   7.037989  -0.597222  -1.906340   0.993175   0.408584
     3  C    0.014571  -0.597222   6.063143   0.448589  -0.148032  -0.076162
     4  C   -0.251995  -1.906340   0.448589   8.515393  -1.001148  -0.056703
     5  C    0.480673   0.993175  -0.148032  -1.001148   5.678678   0.042245
     6  H   -0.002284   0.408584  -0.076162  -0.056703   0.042245   0.439868
     7  H    0.000206  -0.027678   0.414930  -0.020322  -0.002323  -0.000026
     8  H    0.000212  -0.027876   0.414958  -0.020132  -0.002330  -0.000069
     9  H    0.000675  -0.015735   0.355331  -0.033694   0.027736  -0.000075
    10  H   -0.019242  -0.158704   0.031262   0.542419  -0.085395  -0.005195
    11  H   -0.024519   0.156803   0.025676  -0.411595   0.417619  -0.005972
               7          8          9         10         11
     1  O    0.000206   0.000212   0.000675  -0.019242  -0.024519
     2  C   -0.027678  -0.027876  -0.015735  -0.158704   0.156803
     3  C    0.414930   0.414958   0.355331   0.031262   0.025676
     4  C   -0.020322  -0.020132  -0.033694   0.542419  -0.411595
     5  C   -0.002323  -0.002330   0.027736  -0.085395   0.417619
     6  H   -0.000026  -0.000069  -0.000075  -0.005195  -0.005972
     7  H    0.538717  -0.066021  -0.031245   0.000145   0.000113
     8  H   -0.066021   0.538738  -0.031297   0.000172   0.000135
     9  H   -0.031245  -0.031297   0.513876  -0.003730   0.001189
    10  H    0.000145   0.000172  -0.003730   0.423463  -0.010397
    11  H    0.000113   0.000135   0.001189  -0.010397   0.687021
 Mulliken charges:
               1
     1  O   -0.240360
     2  C    0.083874
     3  C   -0.947044
     4  C    0.195528
     5  C   -0.400897
     6  H    0.255788
     7  H    0.193504
     8  H    0.193510
     9  H    0.216969
    10  H    0.285202
    11  H    0.163928
 Sum of Mulliken charges =  -0.00000
 Mulliken charges with hydrogens summed into heavy atoms:
               1
     1  O   -0.240360
     2  C    0.339662
     3  C   -0.343062
     4  C    0.480730
     5  C   -0.236969
 Electronic spatial extent (au):  <R**2>=            570.9655
 Charge=             -0.0000 electrons
 Dipole moment (field-independent basis, Debye):
    X=             -4.0445    Y=              1.2095    Z=             -0.0011  Tot=              4.2215
 Quadrupole moment (field-independent basis, Debye-Ang):
   XX=            -37.7696   YY=            -28.4932   ZZ=            -31.7005
   XY=              2.2049   XZ=             -0.0042   YZ=              0.0012
 Traceless Quadrupole moment (field-independent basis, Debye-Ang):
   XX=             -5.1152   YY=              4.1612   ZZ=              0.9540
   XY=              2.2049   XZ=             -0.0042   YZ=              0.0012
 Octapole moment (field-independent basis, Debye-Ang**2):
  XXX=            -28.7490  YYY=             -0.3160  ZZZ=              0.0039  XYY=              1.2494
  XXY=              5.5963  XXZ=             -0.0061  XZZ=              1.9941  YZZ=              0.1207
  YYZ=              0.0002  XYZ=              0.0007
 Hexadecapole moment (field-independent basis, Debye-Ang**3):
 XXXX=           -698.4851 YYYY=            -76.5712 ZZZZ=            -41.0509 XXXY=              6.7918
 XXXZ=             -0.0175 YYYX=              1.5122 YYYZ=              0.0041 ZZZX=              0.0001
 ZZZY=             -0.0003 XXYY=           -118.1047 XXZZ=           -106.2372 YYZZ=            -22.0606
 XXYZ=             -0.0011 YYXZ=              0.0008 ZZXY=             -1.8481
 N-N= 1.532473165627D+02 E-N=-8.452768818032D+02  KE= 2.301388056739D+02
 R6APFD:  NTU= -4 IXU= 1 FactS= 1.050
 Calling FoFJK, ICntrl=      2127 FMM=F ISym2X=0 I1Cent= 0 IOpClX= 0 NMat=1 NMatS=1 NMatT=0.
 ***** Axes restored to original set *****
 -------------------------------------------------------------------
 Center     Atomic                   Forces (Hartrees/Bohr)
 Number     Number              X              Y              Z
 -------------------------------------------------------------------
      1        8           0.025045243   -0.021491462   -0.000056867
      2        6           0.001165399    0.013650205   -0.000006696
      3        6          -0.000813273    0.000346950   -0.000017567
      4        6           0.000104390   -0.018151555   -0.000021057
      5        6          -0.025647470    0.034260948    0.000115578
      6        1          -0.003170086   -0.004735244   -0.000002471
      7        1           0.003366940   -0.001224123   -0.000423707
      8        1           0.003372291   -0.001241537    0.000447649
      9        1          -0.001517203    0.000059499   -0.000005439
     10        1          -0.000893598    0.004149903   -0.000001933
     11        1          -0.001012634   -0.005623584   -0.000027489
 -------------------------------------------------------------------
 Cartesian Forces:  Max     0.034260948 RMS     0.010372319

 GradGradGradGradGradGradGradGradGradGradGradGradGradGradGradGradGradGrad
 Berny optimization.
 FormGI is forming the generalized inverse of G from B-inverse, IUseBI=4.
 Internal  Forces:  Max     0.032421420 RMS     0.005997170
 Search for a local minimum.
 Step number   1 out of a maximum of   49
 All quantities printed in internal units (Hartrees-Bohrs-Radians)
 Mixed Optimization -- RFO/linear search
 Second derivative matrix not updated -- first step.
 ITU=  0
     Eigenvalues ---    0.00853   0.01093   0.01093   0.01713   0.02041
     Eigenvalues ---    0.02907   0.07204   0.07483   0.16000   0.16000
     Eigenvalues ---    0.16000   0.16000   0.16000   0.16000   0.22000
     Eigenvalues ---    0.22000   0.22000   0.33075   0.33365   0.34275
     Eigenvalues ---    0.34324   0.34329   0.35120   0.35160   0.35587
     Eigenvalues ---    0.57618   0.93151
 RFO step:  Lambda=-2.63929094D-03 EMin= 8.52689620D-03
 Linear search not attempted -- first point.
 Iteration  1 RMS(Cart)=  0.01948145 RMS(Int)=  0.00023318
 Iteration  2 RMS(Cart)=  0.00031425 RMS(Int)=  0.00001919
 Iteration  3 RMS(Cart)=  0.00000007 RMS(Int)=  0.00001919
 Variable       Old X    -DE/DX   Delta X   Delta X   Delta X     New X
                                 (Linear)    (Quad)   (Total)
    R1        2.31514  -0.03242   0.00000  -0.03471  -0.03471   2.28043
    R2        2.82220   0.00319   0.00000   0.00957   0.00957   2.83177
    R3        2.52877  -0.00167   0.00000  -0.00289  -0.00289   2.52588
    R4        2.05415   0.00485   0.00000   0.01370   0.01370   2.06786
    R5        2.06787   0.00241   0.00000   0.00696   0.00696   2.07483
    R6        2.06779   0.00243   0.00000   0.00703   0.00703   2.07482
    R7        2.06868   0.00011   0.00000   0.00030   0.00030   2.06898
    R8        2.78780  -0.00195   0.00000  -0.00552  -0.00552   2.78228
    R9        2.04733   0.00415   0.00000   0.01158   0.01158   2.05890
   R10        2.08416   0.00559   0.00000   0.01662   0.01662   2.10077
    A1        2.15322   0.00583   0.00000   0.02617   0.02617   2.17939
    A2        2.02837   0.00015   0.00000   0.00576   0.00576   2.03413
    A3        2.10160  -0.00598   0.00000  -0.03193  -0.03193   2.06967
    A4        1.91804   0.00249   0.00000   0.01439   0.01440   1.93244
    A5        1.91823   0.00247   0.00000   0.01428   0.01429   1.93252
    A6        1.95957  -0.00271   0.00000  -0.01481  -0.01476   1.94481
    A7        1.89067  -0.00318   0.00000  -0.02331  -0.02335   1.86732
    A8        1.88789   0.00040   0.00000   0.00424   0.00429   1.89218
    A9        1.88781   0.00041   0.00000   0.00431   0.00436   1.89217
   A10        2.08005   0.00466   0.00000   0.02093   0.02093   2.10098
   A11        2.14016  -0.00141   0.00000  -0.00484  -0.00484   2.13532
   A12        2.06298  -0.00324   0.00000  -0.01609  -0.01609   2.04689
   A13        2.12822   0.00868   0.00000   0.03901   0.03900   2.16723
   A14        2.12473  -0.00559   0.00000  -0.02716  -0.02717   2.09756
   A15        2.03024  -0.00310   0.00000  -0.01184  -0.01184   2.01839
    D1       -2.10188  -0.00043   0.00000  -0.00550  -0.00547  -2.10735
    D2        2.10218   0.00043   0.00000   0.00548   0.00545   2.10763
    D3        0.00013  -0.00000   0.00000  -0.00002  -0.00002   0.00011
    D4        1.03970  -0.00043   0.00000  -0.00548  -0.00544   1.03425
    D5       -1.03942   0.00043   0.00000   0.00551   0.00547  -1.03395
    D6       -3.14147  -0.00000   0.00000   0.00000   0.00000  -3.14147
    D7       -3.14149   0.00000   0.00000   0.00016   0.00016  -3.14133
    D8       -0.00013   0.00000   0.00000   0.00015   0.00015   0.00002
    D9        0.00011   0.00000   0.00000   0.00013   0.00013   0.00025
   D10        3.14147   0.00000   0.00000   0.00012   0.00012  -3.14159
   D11        3.14033   0.00004   0.00000   0.00281   0.00281  -3.14004
   D12       -0.00034  -0.00003   0.00000  -0.00217  -0.00217  -0.00251
   D13       -0.00104   0.00004   0.00000   0.00282   0.00282   0.00178
   D14        3.14148  -0.00003   0.00000  -0.00216  -0.00216   3.13932
         Item               Value     Threshold  Converged?
 Maximum Force            0.032421     0.000450     NO 
 RMS     Force            0.005997     0.000300     NO 
 Maximum Displacement     0.055540     0.001800     NO 
 RMS     Displacement     0.019371     0.001200     NO 
 Predicted change in Energy=-1.330419D-03
 GradGradGradGradGradGradGradGradGradGradGradGradGradGradGradGradGradGrad

                          Input orientation:                          
 ---------------------------------------------------------------------
 Center     Atomic      Atomic             Coordinates (Angstroms)
 Number     Number       Type             X           Y           Z
 ---------------------------------------------------------------------
      1          8           0       -2.366370    0.207610   -0.000880
      2          6           0        1.136112   -0.382651    0.000492
      3          6           0        2.513191    0.208256    0.000038
      4          6           0        0.001417    0.323799    0.000105
      5          6           0       -1.301964   -0.360975    0.000948
      6          1           0        1.072685   -1.475074    0.001206
      7          1           0        3.077137   -0.121529   -0.882406
      8          1           0        3.077399   -0.120578    0.882663
      9          1           0        2.478905    1.302578   -0.000543
     10          1           0       -0.006927    1.413292   -0.000604
     11          1           0       -1.261785   -1.471928   -0.000618
 ---------------------------------------------------------------------
                    Distance matrix (angstroms):
                    1          2          3          4          5
     1  O    0.000000
     2  C    3.551871   0.000000
     3  C    4.879562   1.498506   0.000000
     4  C    2.370637   1.336639   2.514430   0.000000
     5  C    1.206753   2.438173   3.857388   1.472318   0.000000
     6  H    3.828646   1.094263   2.215550   2.093696   2.623009
     7  H    5.524236   2.148318   1.097952   3.230664   4.473720
     8  H    5.524761   2.148373   1.097948   3.230797   4.473705
     9  H    4.967459   2.154783   1.094859   2.663823   4.130664
    10  H    2.649650   2.128838   2.793405   1.089525   2.196623
    11  H    2.010213   2.633712   4.132005   2.195522   1.111680
                    6          7          8          9         10
     6  H    0.000000
     7  H    2.575010   0.000000
     8  H    2.574977   1.765069   0.000000
     9  H    3.113327   1.778664   1.778657   0.000000
    10  H    3.083541   3.555939   3.556120   2.488296   0.000000
    11  H    2.334473   4.628971   4.629779   4.657322   3.146294
                   11
    11  H    0.000000
 Stoichiometry    C4H6O
 Framework group  C1[X(C4H6O)]
 Deg. of freedom    27
 Full point group                 C1      NOp   1
 Largest Abelian subgroup         C1      NOp   1
 Largest concise Abelian subgroup C1      NOp   1
                         Standard orientation:                         
 ---------------------------------------------------------------------
 Center     Atomic      Atomic             Coordinates (Angstroms)
 Number     Number       Type             X           Y           Z
 ---------------------------------------------------------------------
      1          8           0        2.456750   -0.255529   -0.000482
      2          6           0       -1.034140    0.399814    0.000047
      3          6           0       -2.421978   -0.165362   -0.000187
      4          6           0        0.087210   -0.327631    0.000278
      5          6           0        1.403111    0.332768    0.000830
      6          1           0       -0.950393    1.490868    0.000038
      7          1           0       -2.979586    0.174270   -0.882924
      8          1           0       -2.980071    0.174508    0.882145
      9          1           0       -2.408064   -1.260132   -0.000032
     10          1           0        0.075277   -1.417091    0.000299
     11          1           0        1.383615    1.444275   -0.001484
 ---------------------------------------------------------------------
 Rotational constants (GHZ):          32.6599211           2.1896985           2.0786152
 Standard basis: 6-311++G(d,p) (5D, 7F)
 There are   157 symmetry adapted cartesian basis functions of A   symmetry.
 There are   152 symmetry adapted basis functions of A   symmetry.
   152 basis functions,   234 primitive gaussians,   157 cartesian basis functions
    19 alpha electrons       19 beta electrons
       nuclear repulsion energy       153.2259458207 Hartrees.
 NAtoms=   11 NActive=   11 NUniq=   11 SFac= 1.00D+00 NAtFMM=   60 NAOKFM=F Big=F
 Integral buffers will be    131072 words long.
 Raffenetti 2 integral format.
 Two-electron integral symmetry is turned on.
 R6APFD:  NTU= -4 IXU= 1 FactS= 1.050
 Nuclear repulsion after empirical dispersion term =      153.2223586190 Hartrees.
 One-electron integrals computed using PRISM.
 NBasis=   152 RedAO= T EigKep=  1.55D-05  NBF=   152
 NBsUse=   152 1.00D-06 EigRej= -1.00D+00 NBFU=   152
 Initial guess from the checkpoint file:  "EBUL0112.chk"
 B after Tr=     0.000000    0.000000   -0.000000
         Rot=    1.000000    0.000050    0.000004    0.000468 Ang=   0.05 deg.
 ExpMin= 3.60D-02 ExpMax= 8.59D+03 ExpMxC= 1.30D+03 IAcc=3 IRadAn=         5 AccDes= 0.00D+00
 Harris functional with IExCor= 1009 and IRadAn=       5 diagonalized for initial guess.
 HarFok:  IExCor= 1009 AccDes= 0.00D+00 IRadAn=         5 IDoV= 1 UseB2=F ITyADJ=14
 ICtDFT=  3500011 ScaDFX=  1.000000  1.000000  1.000000  1.000000
 FoFCou: FMM=F IPFlag=           0 FMFlag=      100000 FMFlg1=           0
         NFxFlg=           0 DoJE=T BraDBF=F KetDBF=T FulRan=T
         wScrn=  0.000000 ICntrl=       500 IOpCl=  0 I1Cent=   200000004 NGrid=           0
         NMat0=    1 NMatS0=      1 NMatT0=    0 NMatD0=    1 NMtDS0=    0 NMtDT0=    0
 Petite list used in FoFCou.
 Keep R1 ints in memory in canonical form, NReq=83380191.
 Requested convergence on RMS density matrix=1.00D-08 within  32 cycles.
 Requested convergence on MAX density matrix=1.00D-06.
 Requested convergence on             energy=1.00D-06.
 No special actions if energy rises.
 SCF Done:  E(RM08HX) =  -231.224149222     A.U. after   12 cycles
            NFock= 12  Conv=0.54D-08     -V/T= 2.0046
 QCSCF skips out because SCF is already converged.
 R6APFD:  NTU= -4 IXU= 1 FactS= 1.050
 Calling FoFJK, ICntrl=      2127 FMM=F ISym2X=0 I1Cent= 0 IOpClX= 0 NMat=1 NMatS=1 NMatT=0.
 ***** Axes restored to original set *****
 -------------------------------------------------------------------
 Center     Atomic                   Forces (Hartrees/Bohr)
 Number     Number              X              Y              Z
 -------------------------------------------------------------------
      1        8           0.005294297   -0.002594680    0.000170486
      2        6           0.001543850    0.002770914    0.000006139
      3        6          -0.001744449   -0.000012585   -0.000029698
      4        6           0.002079622   -0.002793879    0.000157908
      5        6          -0.007270380    0.005432537   -0.000481355
      6        1          -0.000923056   -0.000624234    0.000009506
      7        1           0.000012528   -0.000353881    0.000243582
      8        1          -0.000000060   -0.000360166   -0.000239172
      9        1          -0.000172287    0.000080747   -0.000000291
     10        1          -0.000098160    0.000854351    0.000002220
     11        1           0.001278096   -0.002399123    0.000160677
 -------------------------------------------------------------------
 Cartesian Forces:  Max     0.007270380 RMS     0.002149412

 GradGradGradGradGradGradGradGradGradGradGradGradGradGradGradGradGradGrad
 Berny optimization.
 Using GEDIIS/GDIIS optimizer.
 FormGI is forming the generalized inverse of G from B-inverse, IUseBI=4.
 Internal  Forces:  Max     0.005893269 RMS     0.001197445
 Search for a local minimum.
 Step number   2 out of a maximum of   49
 All quantities printed in internal units (Hartrees-Bohrs-Radians)
 Mixed Optimization -- RFO/linear search
 Update second derivatives using D2CorX and points    1    2
 DE= -1.49D-03 DEPred=-1.33D-03 R= 1.12D+00
 TightC=F SS=  1.41D+00  RLast= 9.08D-02 DXNew= 5.0454D-01 2.7241D-01
 Trust test= 1.12D+00 RLast= 9.08D-02 DXMaxT set to 3.00D-01
 ITU=  1  0
 Use linear search instead of GDIIS.
     Eigenvalues ---    0.00853   0.01093   0.01095   0.01693   0.02046
     Eigenvalues ---    0.02907   0.07212   0.07325   0.15223   0.16000
     Eigenvalues ---    0.16000   0.16000   0.16000   0.16590   0.21718
     Eigenvalues ---    0.22000   0.22373   0.32363   0.33646   0.34275
     Eigenvalues ---    0.34326   0.34541   0.35057   0.35442   0.35578
     Eigenvalues ---    0.57394   0.84253
 RFO step:  Lambda=-1.12284229D-04 EMin= 8.52689612D-03
 Quartic linear search produced a step of  0.13387.
 Iteration  1 RMS(Cart)=  0.00780145 RMS(Int)=  0.00009393
 Iteration  2 RMS(Cart)=  0.00009389 RMS(Int)=  0.00004090
 Iteration  3 RMS(Cart)=  0.00000001 RMS(Int)=  0.00004090
 Variable       Old X    -DE/DX   Delta X   Delta X   Delta X     New X
                                 (Linear)    (Quad)   (Total)
    R1        2.28043  -0.00589  -0.00465  -0.00397  -0.00862   2.27182
    R2        2.83177  -0.00200   0.00128  -0.00777  -0.00649   2.82527
    R3        2.52588  -0.00189  -0.00039  -0.00344  -0.00383   2.52205
    R4        2.06786   0.00068   0.00183   0.00088   0.00272   2.07058
    R5        2.07483  -0.00008   0.00093  -0.00093  -0.00000   2.07483
    R6        2.07482  -0.00008   0.00094  -0.00095  -0.00000   2.07482
    R7        2.06898   0.00009   0.00004   0.00026   0.00030   2.06928
    R8        2.78228   0.00041  -0.00074   0.00186   0.00112   2.78340
    R9        2.05890   0.00085   0.00155   0.00163   0.00318   2.06208
   R10        2.10077   0.00244   0.00222   0.00673   0.00895   2.10972
    A1        2.17939   0.00057   0.00350   0.00040   0.00390   2.18329
    A2        2.03413   0.00063   0.00077   0.00441   0.00518   2.03931
    A3        2.06967  -0.00120  -0.00428  -0.00481  -0.00908   2.06058
    A4        1.93244  -0.00015   0.00193  -0.00306  -0.00113   1.93131
    A5        1.93252  -0.00018   0.00191  -0.00326  -0.00135   1.93118
    A6        1.94481  -0.00005  -0.00198   0.00222   0.00025   1.94507
    A7        1.86732  -0.00017  -0.00313  -0.00109  -0.00423   1.86309
    A8        1.89218   0.00028   0.00057   0.00264   0.00322   1.89539
    A9        1.89217   0.00029   0.00058   0.00263   0.00322   1.89539
   A10        2.10098  -0.00011   0.00280  -0.00257   0.00023   2.10121
   A11        2.13532   0.00015  -0.00065   0.00140   0.00075   2.13607
   A12        2.04689  -0.00004  -0.00215   0.00117  -0.00098   2.04590
   A13        2.16723   0.00052   0.00522  -0.00105   0.00402   2.17125
   A14        2.09756   0.00099  -0.00364   0.01020   0.00642   2.10398
   A15        2.01839  -0.00151  -0.00159  -0.00904  -0.01077   2.00762
    D1       -2.10735  -0.00021  -0.00073  -0.00265  -0.00337  -2.11072
    D2        2.10763   0.00021   0.00073   0.00273   0.00345   2.11107
    D3        0.00011   0.00000  -0.00000   0.00011   0.00011   0.00022
    D4        1.03425  -0.00022  -0.00073  -0.00293  -0.00366   1.03060
    D5       -1.03395   0.00021   0.00073   0.00244   0.00316  -1.03079
    D6       -3.14147   0.00000   0.00000  -0.00018  -0.00018   3.14154
    D7       -3.14133  -0.00002   0.00002  -0.00114  -0.00111   3.14074
    D8        0.00002  -0.00001   0.00002  -0.00032  -0.00030  -0.00028
    D9        0.00025  -0.00002   0.00002  -0.00084  -0.00083  -0.00058
   D10       -3.14159  -0.00000   0.00002  -0.00003  -0.00001   3.14158
   D11       -3.14004  -0.00014   0.00038  -0.01572  -0.01534   3.12780
   D12       -0.00251   0.00016  -0.00029   0.01679   0.01650   0.01399
   D13        0.00178  -0.00016   0.00038  -0.01650  -0.01612  -0.01433
   D14        3.13932   0.00015  -0.00029   0.01601   0.01572  -3.12815
         Item               Value     Threshold  Converged?
 Maximum Force            0.005893     0.000450     NO 
 RMS     Force            0.001197     0.000300     NO 
 Maximum Displacement     0.025851     0.001800     NO 
 RMS     Displacement     0.007826     0.001200     NO 
 Predicted change in Energy=-7.797067D-05
 GradGradGradGradGradGradGradGradGradGradGradGradGradGradGradGradGradGrad

                          Input orientation:                          
 ---------------------------------------------------------------------
 Center     Atomic      Atomic             Coordinates (Angstroms)
 Number     Number       Type             X           Y           Z
 ---------------------------------------------------------------------
      1          8           0       -2.364435    0.201764    0.005219
      2          6           0        1.135727   -0.377453   -0.001618
      3          6           0        2.511314    0.208198    0.000892
      4          6           0        0.002002    0.326720   -0.003287
      5          6           0       -1.301328   -0.359421   -0.006790
      6          1           0        1.063451   -1.470768   -0.002372
      7          1           0        3.076036   -0.125724   -0.879494
      8          1           0        3.073077   -0.126679    0.882802
      9          1           0        2.480402    1.302779    0.001435
     10          1           0       -0.008341    1.417877   -0.002677
     11          1           0       -1.248105   -1.474493    0.006290
 ---------------------------------------------------------------------
                    Distance matrix (angstroms):
                    1          2          3          4          5
     1  O    0.000000
     2  C    3.547770   0.000000
     3  C    4.875755   1.495070   0.000000
     4  C    2.369749   1.334614   2.512113   0.000000
     5  C    1.202194   2.437127   3.854671   1.472912   0.000000
     6  H    3.814160   1.095702   2.217036   2.087495   2.612908
     7  H    5.521657   2.144490   1.097951   3.228332   4.469624
     8  H    5.517659   2.144390   1.097945   3.228347   4.470006
     9  H    4.968369   2.152054   1.095018   2.663677   4.130914
    10  H    2.651447   2.128874   2.794995   1.091207   2.197867
    11  H    2.013959   2.624160   4.118824   2.192539   1.116418
                    6          7          8          9         10
     6  H    0.000000
     7  H    2.574682   0.000000
     8  H    2.574628   1.762299   0.000000
     9  H    3.114535   1.780853   1.780848   0.000000
    10  H    3.081073   3.558778   3.558773   2.491406   0.000000
    11  H    2.311575   4.615408   4.610585   4.649196   3.146888
                   11
    11  H    0.000000
 Stoichiometry    C4H6O
 Framework group  C1[X(C4H6O)]
 Deg. of freedom    27
 Full point group                 C1      NOp   1
 Largest Abelian subgroup         C1      NOp   1
 Largest concise Abelian subgroup C1      NOp   1
                         Standard orientation:                         
 ---------------------------------------------------------------------
 Center     Atomic      Atomic             Coordinates (Angstroms)
 Number     Number       Type             X           Y           Z
 ---------------------------------------------------------------------
      1          8           0        2.454917   -0.251740    0.004522
      2          6           0       -1.033264    0.395750   -0.000276
      3          6           0       -2.420028   -0.162920    0.001891
      4          6           0        0.086488   -0.330432   -0.003332
      5          6           0        1.402972    0.330121   -0.006326
      6          1           0       -0.939643    1.487445    0.000482
      7          1           0       -2.978403    0.183214   -0.877828
      8          1           0       -2.974858    0.181620    0.884467
      9          1           0       -2.410504   -1.257896    0.000882
     10          1           0        0.075514   -1.421583   -0.004261
     11          1           0        1.371547    1.446001    0.008342
 ---------------------------------------------------------------------
 Rotational constants (GHZ):          32.8157361           2.1932140           2.0823465
 Standard basis: 6-311++G(d,p) (5D, 7F)
 There are   157 symmetry adapted cartesian basis functions of A   symmetry.
 There are   152 symmetry adapted basis functions of A   symmetry.
   152 basis functions,   234 primitive gaussians,   157 cartesian basis functions
    19 alpha electrons       19 beta electrons
       nuclear repulsion energy       153.3892236266 Hartrees.
 NAtoms=   11 NActive=   11 NUniq=   11 SFac= 1.00D+00 NAtFMM=   60 NAOKFM=F Big=F
 Integral buffers will be    131072 words long.
 Raffenetti 2 integral format.
 Two-electron integral symmetry is turned on.
 R6APFD:  NTU= -4 IXU= 1 FactS= 1.050
 Nuclear repulsion after empirical dispersion term =      153.3856482814 Hartrees.
 One-electron integrals computed using PRISM.
 NBasis=   152 RedAO= T EigKep=  1.54D-05  NBF=   152
 NBsUse=   152 1.00D-06 EigRej= -1.00D+00 NBFU=   152
 Initial guess from the checkpoint file:  "EBUL0112.chk"
 B after Tr=    -0.000000   -0.000000   -0.000000
         Rot=    1.000000   -0.000115   -0.000027    0.000054 Ang=  -0.01 deg.
 ExpMin= 3.60D-02 ExpMax= 8.59D+03 ExpMxC= 1.30D+03 IAcc=3 IRadAn=         5 AccDes= 0.00D+00
 Harris functional with IExCor= 1009 and IRadAn=       5 diagonalized for initial guess.
 HarFok:  IExCor= 1009 AccDes= 0.00D+00 IRadAn=         5 IDoV= 1 UseB2=F ITyADJ=14
 ICtDFT=  3500011 ScaDFX=  1.000000  1.000000  1.000000  1.000000
 FoFCou: FMM=F IPFlag=           0 FMFlag=      100000 FMFlg1=           0
         NFxFlg=           0 DoJE=T BraDBF=F KetDBF=T FulRan=T
         wScrn=  0.000000 ICntrl=       500 IOpCl=  0 I1Cent=   200000004 NGrid=           0
         NMat0=    1 NMatS0=      1 NMatT0=    0 NMatD0=    1 NMtDS0=    0 NMtDT0=    0
 Petite list used in FoFCou.
 Keep R1 ints in memory in canonical form, NReq=83380191.
 Requested convergence on RMS density matrix=1.00D-08 within  32 cycles.
 Requested convergence on MAX density matrix=1.00D-06.
 Requested convergence on             energy=1.00D-06.
 No special actions if energy rises.
 SCF Done:  E(RM08HX) =  -231.224196171     A.U. after   11 cycles
            NFock= 11  Conv=0.97D-08     -V/T= 2.0045
 QCSCF skips out because SCF is already converged.
 R6APFD:  NTU= -4 IXU= 1 FactS= 1.050
 Calling FoFJK, ICntrl=      2127 FMM=F ISym2X=0 I1Cent= 0 IOpClX= 0 NMat=1 NMatS=1 NMatT=0.
 ***** Axes restored to original set *****
 -------------------------------------------------------------------
 Center     Atomic                   Forces (Hartrees/Bohr)
 Number     Number              X              Y              Z
 -------------------------------------------------------------------
      1        8          -0.000487555    0.000293790   -0.001120921
      2        6           0.000621082   -0.000230648   -0.000071141
      3        6          -0.000271023    0.000000575    0.000170678
      4        6           0.000340822    0.000655433   -0.001037151
      5        6          -0.000568599   -0.000305089    0.003230053
      6        1          -0.000051655    0.000081693   -0.000053713
      7        1          -0.000013327   -0.000016215    0.000032286
      8        1           0.000055913    0.000007779   -0.000042381
      9        1           0.000072129   -0.000101098   -0.000003491
     10        1          -0.000015394   -0.000136302   -0.000007223
     11        1           0.000317607   -0.000249918   -0.001096996
 -------------------------------------------------------------------
 Cartesian Forces:  Max     0.003230053 RMS     0.000696699

 GradGradGradGradGradGradGradGradGradGradGradGradGradGradGradGradGradGrad
 Berny optimization.
 Using GEDIIS/GDIIS optimizer.
 FormGI is forming the generalized inverse of G from B-inverse, IUseBI=4.
 Internal  Forces:  Max     0.001094516 RMS     0.000396849
 Search for a local minimum.
 Step number   3 out of a maximum of   49
 All quantities printed in internal units (Hartrees-Bohrs-Radians)
 Mixed Optimization -- En-DIIS/RFO-DIIS
 Update second derivatives using D2CorX and points    1    2    3
 DE= -4.69D-05 DEPred=-7.80D-05 R= 6.02D-01
 TightC=F SS=  1.41D+00  RLast= 4.04D-02 DXNew= 5.0454D-01 1.2128D-01
 Trust test= 6.02D-01 RLast= 4.04D-02 DXMaxT set to 3.00D-01
 ITU=  1  1  0
 Use linear search instead of GDIIS.
     Eigenvalues ---    0.00853   0.01093   0.01684   0.01824   0.02057
     Eigenvalues ---    0.02914   0.07200   0.07302   0.13216   0.16000
     Eigenvalues ---    0.16000   0.16000   0.16060   0.16443   0.20969
     Eigenvalues ---    0.22004   0.22447   0.30644   0.33563   0.34283
     Eigenvalues ---    0.34326   0.34526   0.35043   0.35393   0.35936
     Eigenvalues ---    0.57919   0.81427
 RFO step:  Lambda=-2.09963854D-04 EMin= 8.52691011D-03
 Quartic linear search produced a step of -0.28285.
 Iteration  1 RMS(Cart)=  0.01656056 RMS(Int)=  0.00070586
 Iteration  2 RMS(Cart)=  0.00061292 RMS(Int)=  0.00041878
 Iteration  3 RMS(Cart)=  0.00000042 RMS(Int)=  0.00041878
 Variable       Old X    -DE/DX   Delta X   Delta X   Delta X     New X
                                 (Linear)    (Quad)   (Total)
    R1        2.27182   0.00056   0.00244  -0.01472  -0.01228   2.25953
    R2        2.82527  -0.00018   0.00184  -0.00920  -0.00737   2.81791
    R3        2.52205   0.00048   0.00108  -0.00518  -0.00410   2.51795
    R4        2.07058  -0.00008  -0.00077   0.00483   0.00406   2.07464
    R5        2.07483  -0.00003   0.00000   0.00045   0.00045   2.07528
    R6        2.07482  -0.00001   0.00000   0.00050   0.00050   2.07532
    R7        2.06928  -0.00010  -0.00008   0.00024   0.00016   2.06944
    R8        2.78340   0.00077  -0.00032   0.00288   0.00256   2.78596
    R9        2.06208  -0.00014  -0.00090   0.00522   0.00432   2.06640
   R10        2.10972   0.00025  -0.00253   0.01490   0.01237   2.12209
    A1        2.18329   0.00018  -0.00110   0.00827   0.00717   2.19046
    A2        2.03931  -0.00003  -0.00147   0.00798   0.00651   2.04582
    A3        2.06058  -0.00015   0.00257  -0.01625  -0.01368   2.04690
    A4        1.93131  -0.00006   0.00032  -0.00092  -0.00060   1.93071
    A5        1.93118   0.00008   0.00038  -0.00054  -0.00016   1.93102
    A6        1.94507   0.00010  -0.00007  -0.00019  -0.00027   1.94480
    A7        1.86309  -0.00005   0.00120  -0.00834  -0.00715   1.85594
    A8        1.89539  -0.00002  -0.00091   0.00491   0.00400   1.89939
    A9        1.89539  -0.00005  -0.00091   0.00496   0.00405   1.89944
   A10        2.10121  -0.00020  -0.00006   0.00123   0.00116   2.10237
   A11        2.13607   0.00012  -0.00021   0.00117   0.00095   2.13703
   A12        2.04590   0.00008   0.00028  -0.00239  -0.00211   2.04379
   A13        2.17125   0.00020  -0.00114   0.01009   0.00744   2.17869
   A14        2.10398   0.00024  -0.00182   0.00955   0.00622   2.11020
   A15        2.00762  -0.00039   0.00305  -0.01736  -0.01582   1.99180
    D1       -2.11072  -0.00003   0.00095  -0.00596  -0.00501  -2.11573
    D2        2.11107   0.00002  -0.00098   0.00530   0.00432   2.11540
    D3        0.00022  -0.00003  -0.00003  -0.00049  -0.00052  -0.00030
    D4        1.03060   0.00000   0.00103  -0.00505  -0.00402   1.02658
    D5       -1.03079   0.00005  -0.00089   0.00620   0.00531  -1.02548
    D6        3.14154   0.00000   0.00005   0.00041   0.00046  -3.14118
    D7        3.14074   0.00015   0.00032   0.00294   0.00325  -3.13919
    D8       -0.00028   0.00006   0.00008   0.00096   0.00104   0.00076
    D9       -0.00058   0.00012   0.00023   0.00202   0.00226   0.00168
   D10        3.14158   0.00003   0.00000   0.00004   0.00005  -3.14155
   D11        3.12780   0.00101   0.00434   0.04665   0.05094  -3.10445
   D12        0.01399  -0.00109  -0.00467  -0.04779  -0.05240  -0.03842
   D13       -0.01433   0.00109   0.00456   0.04853   0.05304   0.03870
   D14       -3.12815  -0.00101  -0.00445  -0.04591  -0.05031   3.10473
         Item               Value     Threshold  Converged?
 Maximum Force            0.001095     0.000450     NO 
 RMS     Force            0.000397     0.000300     NO 
 Maximum Displacement     0.047461     0.001800     NO 
 RMS     Displacement     0.016630     0.001200     NO 
 Predicted change in Energy=-1.154745D-04
 GradGradGradGradGradGradGradGradGradGradGradGradGradGradGradGradGradGrad

                          Input orientation:                          
 ---------------------------------------------------------------------
 Center     Atomic      Atomic             Coordinates (Angstroms)
 Number     Number       Type             X           Y           Z
 ---------------------------------------------------------------------
      1          8           0       -2.363925    0.191562   -0.015074
      2          6           0        1.135208   -0.369483    0.005288
      3          6           0        2.510102    0.207757   -0.001979
      4          6           0        0.001812    0.331096    0.007990
      5          6           0       -1.302000   -0.356965    0.018325
      6          1           0        1.050185   -1.464028    0.009398
      7          1           0        3.069350   -0.136222   -0.882287
      8          1           0        3.076745   -0.130865    0.875697
      9          1           0        2.484369    1.302549   -0.005241
     10          1           0       -0.011971    1.424496    0.004292
     11          1           0       -1.230073   -1.477095   -0.016009
 ---------------------------------------------------------------------
                    Distance matrix (angstroms):
                    1          2          3          4          5
     1  O    0.000000
     2  C    3.543884   0.000000
     3  C    4.874072   1.491172   0.000000
     4  C    2.369960   1.332443   2.511341   0.000000
     5  C    1.195693   2.437275   3.853758   1.474266   0.000000
     6  H    3.794434   1.097850   2.219539   2.078836   2.599701
     7  H    5.511803   2.140819   1.098190   3.228122   4.468616
     8  H    5.522528   2.141055   1.098209   3.228240   4.467619
     9  H    4.973966   2.148497   1.095100   2.665893   4.134142
    10  H    2.655596   2.129409   2.800240   1.093494   2.199540
    11  H    2.017433   2.611860   4.102174   2.188074   1.122962
                    6          7          8          9         10
     6  H    0.000000
     7  H    2.575888   0.000000
     8  H    2.575799   1.758008   0.000000
     9  H    3.116255   1.783669   1.783715   0.000000
    10  H    3.077625   3.566006   3.566323   2.499335   0.000000
    11  H    2.280438   4.586220   4.599582   4.639355   3.146969
                   11
    11  H    0.000000
 Stoichiometry    C4H6O
 Framework group  C1[X(C4H6O)]
 Deg. of freedom    27
 Full point group                 C1      NOp   1
 Largest Abelian subgroup         C1      NOp   1
 Largest concise Abelian subgroup C1      NOp   1
                         Standard orientation:                         
 ---------------------------------------------------------------------
 Center     Atomic      Atomic             Coordinates (Angstroms)
 Number     Number       Type             X           Y           Z
 ---------------------------------------------------------------------
      1          8           0        2.453996   -0.245393   -0.012077
      2          6           0       -1.032546    0.389403    0.000911
      3          6           0       -2.419300   -0.158750   -0.005070
      4          6           0        0.085818   -0.334893    0.008723
      5          6           0        1.403839    0.325570    0.017100
      6          1           0       -0.924464    1.481919   -0.000613
      7          1           0       -2.970151    0.192299   -0.887877
      8          1           0       -2.979689    0.196365    0.870100
      9          1           0       -2.416658   -1.253844   -0.002557
     10          1           0        0.076541   -1.428345    0.010777
     11          1           0        1.355591    1.446771   -0.023200
 ---------------------------------------------------------------------
 Rotational constants (GHZ):          33.0784408           2.1948370           2.0848433
 Standard basis: 6-311++G(d,p) (5D, 7F)
 There are   157 symmetry adapted cartesian basis functions of A   symmetry.
 There are   152 symmetry adapted basis functions of A   symmetry.
   152 basis functions,   234 primitive gaussians,   157 cartesian basis functions
    19 alpha electrons       19 beta electrons
       nuclear repulsion energy       153.5582091124 Hartrees.
 NAtoms=   11 NActive=   11 NUniq=   11 SFac= 1.00D+00 NAtFMM=   60 NAOKFM=F Big=F
 Integral buffers will be    131072 words long.
 Raffenetti 2 integral format.
 Two-electron integral symmetry is turned on.
 R6APFD:  NTU= -4 IXU= 1 FactS= 1.050
 Nuclear repulsion after empirical dispersion term =      153.5546530781 Hartrees.
 One-electron integrals computed using PRISM.
 NBasis=   152 RedAO= T EigKep=  1.53D-05  NBF=   152
 NBsUse=   152 1.00D-06 EigRej= -1.00D+00 NBFU=   152
 Initial guess from the checkpoint file:  "EBUL0112.chk"
 B after Tr=     0.000000   -0.000000   -0.000000
         Rot=    1.000000    0.000356    0.000088    0.000088 Ang=   0.04 deg.
 ExpMin= 3.60D-02 ExpMax= 8.59D+03 ExpMxC= 1.30D+03 IAcc=3 IRadAn=         5 AccDes= 0.00D+00
 Harris functional with IExCor= 1009 and IRadAn=       5 diagonalized for initial guess.
 HarFok:  IExCor= 1009 AccDes= 0.00D+00 IRadAn=         5 IDoV= 1 UseB2=F ITyADJ=14
 ICtDFT=  3500011 ScaDFX=  1.000000  1.000000  1.000000  1.000000
 FoFCou: FMM=F IPFlag=           0 FMFlag=      100000 FMFlg1=           0
         NFxFlg=           0 DoJE=T BraDBF=F KetDBF=T FulRan=T
         wScrn=  0.000000 ICntrl=       500 IOpCl=  0 I1Cent=   200000004 NGrid=           0
         NMat0=    1 NMatS0=      1 NMatT0=    0 NMatD0=    1 NMtDS0=    0 NMtDT0=    0
 Petite list used in FoFCou.
 Keep R1 ints in memory in canonical form, NReq=83380191.
 Requested convergence on RMS density matrix=1.00D-08 within  32 cycles.
 Requested convergence on MAX density matrix=1.00D-06.
 Requested convergence on             energy=1.00D-06.
 No special actions if energy rises.
 SCF Done:  E(RM08HX) =  -231.223880859     A.U. after   12 cycles
            NFock= 12  Conv=0.50D-08     -V/T= 2.0044
 QCSCF skips out because SCF is already converged.
 R6APFD:  NTU= -4 IXU= 1 FactS= 1.050
 Calling FoFJK, ICntrl=      2127 FMM=F ISym2X=0 I1Cent= 0 IOpClX= 0 NMat=1 NMatS=1 NMatT=0.
 ***** Axes restored to original set *****
 -------------------------------------------------------------------
 Center     Atomic                   Forces (Hartrees/Bohr)
 Number     Number              X              Y              Z
 -------------------------------------------------------------------
      1        8          -0.008966806    0.004894867    0.002816057
      2        6          -0.000949643   -0.004344975    0.000203862
      3        6           0.001556268   -0.000020830   -0.000465336
      4        6          -0.001692515    0.005457257    0.002832046
      5        6           0.009607861   -0.008775134   -0.008662005
      6        1           0.001205372    0.001090005    0.000139862
      7        1          -0.000114981    0.000503019   -0.000183822
      8        1          -0.000299638    0.000448110    0.000205852
      9        1           0.000422747   -0.000242307    0.000010091
     10        1           0.000165316   -0.001425145    0.000029138
     11        1          -0.000933982    0.002415132    0.003074255
 -------------------------------------------------------------------
 Cartesian Forces:  Max     0.009607861 RMS     0.003657753

 GradGradGradGradGradGradGradGradGradGradGradGradGradGradGradGradGradGrad
 Berny optimization.
 Using GEDIIS/GDIIS optimizer.
 FormGI is forming the generalized inverse of G from B-inverse, IUseBI=4.
 Internal  Forces:  Max     0.010129665 RMS     0.002065902
 Search for a local minimum.
 Step number   4 out of a maximum of   49
 All quantities printed in internal units (Hartrees-Bohrs-Radians)
 Mixed Optimization -- RFO/linear search
 Update second derivatives using D2CorX and points    1    2    4    3
 DE=  3.15D-04 DEPred=-1.15D-04 R=-2.73D+00
 Trust test=-2.73D+00 RLast= 1.09D-01 DXMaxT set to 1.50D-01
 ITU= -1  1  1  0
 Use linear search instead of GDIIS.
     Eigenvalues ---    0.00853   0.01093   0.01675   0.02045   0.02889
     Eigenvalues ---    0.07159   0.07271   0.07644   0.13667   0.15699
     Eigenvalues ---    0.16000   0.16000   0.16021   0.16055   0.20598
     Eigenvalues ---    0.21872   0.22011   0.30276   0.32944   0.34256
     Eigenvalues ---    0.34287   0.34327   0.34929   0.35321   0.35800
     Eigenvalues ---    0.57855   0.89101
 RFO step:  Lambda=-1.69120458D-05 EMin= 8.52691079D-03
 Quartic linear search produced a step of -0.78895.
 Iteration  1 RMS(Cart)=  0.01271396 RMS(Int)=  0.00033755
 Iteration  2 RMS(Cart)=  0.00034150 RMS(Int)=  0.00011148
 Iteration  3 RMS(Cart)=  0.00000013 RMS(Int)=  0.00011148
 Variable       Old X    -DE/DX   Delta X   Delta X   Delta X     New X
                                 (Linear)    (Quad)   (Total)
    R1        2.25953   0.01013   0.00969   0.00301   0.01270   2.27224
    R2        2.81791   0.00171   0.00581   0.00096   0.00677   2.82468
    R3        2.51795   0.00290   0.00324   0.00169   0.00493   2.52288
    R4        2.07464  -0.00118  -0.00320  -0.00095  -0.00415   2.07048
    R5        2.07528  -0.00007  -0.00036  -0.00010  -0.00046   2.07482
    R6        2.07532  -0.00013  -0.00039  -0.00010  -0.00050   2.07482
    R7        2.06944  -0.00025  -0.00012  -0.00034  -0.00046   2.06897
    R8        2.78596   0.00092  -0.00202   0.00184  -0.00017   2.78578
    R9        2.06640  -0.00143  -0.00341  -0.00120  -0.00461   2.06179
   R10        2.12209  -0.00256  -0.00976  -0.00149  -0.01124   2.11085
    A1        2.19046  -0.00076  -0.00566  -0.00040  -0.00605   2.18441
    A2        2.04582  -0.00078  -0.00514  -0.00135  -0.00649   2.03933
    A3        2.04690   0.00154   0.01080   0.00175   0.01254   2.05944
    A4        1.93071   0.00019   0.00048   0.00014   0.00062   1.93133
    A5        1.93102  -0.00015   0.00013   0.00019   0.00032   1.93133
    A6        1.94480   0.00042   0.00021   0.00078   0.00099   1.94579
    A7        1.85594   0.00035   0.00564   0.00072   0.00636   1.86230
    A8        1.89939  -0.00045  -0.00315  -0.00093  -0.00409   1.89531
    A9        1.89944  -0.00037  -0.00319  -0.00094  -0.00413   1.89531
   A10        2.10237  -0.00061  -0.00092  -0.00115  -0.00207   2.10030
   A11        2.13703   0.00016  -0.00075   0.00042  -0.00034   2.13669
   A12        2.04379   0.00046   0.00167   0.00074   0.00241   2.04619
   A13        2.17869  -0.00068  -0.00587  -0.00057  -0.00603   2.17265
   A14        2.11020  -0.00036  -0.00491  -0.00020  -0.00471   2.10549
   A15        1.99180   0.00143   0.01248   0.00035   0.01324   2.00504
    D1       -2.11573   0.00024   0.00395   0.00051   0.00446  -2.11127
    D2        2.11540  -0.00022  -0.00341  -0.00059  -0.00400   2.11140
    D3       -0.00030   0.00008   0.00041  -0.00006   0.00036   0.00006
    D4        1.02658   0.00016   0.00317   0.00060   0.00377   1.03035
    D5       -1.02548  -0.00030  -0.00419  -0.00049  -0.00468  -1.03016
    D6       -3.14118  -0.00000  -0.00037   0.00004  -0.00033  -3.14150
    D7       -3.13919  -0.00041  -0.00256   0.00021  -0.00235  -3.14155
    D8        0.00076  -0.00017  -0.00082   0.00008  -0.00074   0.00001
    D9        0.00168  -0.00033  -0.00178   0.00011  -0.00167   0.00001
   D10       -3.14155  -0.00009  -0.00004  -0.00002  -0.00006   3.14157
   D11       -3.10445  -0.00278  -0.04019   0.00320  -0.03699  -3.14143
   D12       -0.03842   0.00301   0.04134  -0.00309   0.03826  -0.00016
   D13        0.03870  -0.00301  -0.04184   0.00333  -0.03851   0.00019
   D14        3.10473   0.00278   0.03969  -0.00296   0.03673   3.14146
         Item               Value     Threshold  Converged?
 Maximum Force            0.010130     0.000450     NO 
 RMS     Force            0.002066     0.000300     NO 
 Maximum Displacement     0.034562     0.001800     NO 
 RMS     Displacement     0.012675     0.001200     NO 
 Predicted change in Energy=-3.481643D-05
 GradGradGradGradGradGradGradGradGradGradGradGradGradGradGradGradGradGrad

                          Input orientation:                          
 ---------------------------------------------------------------------
 Center     Atomic      Atomic             Coordinates (Angstroms)
 Number     Number       Type             X           Y           Z
 ---------------------------------------------------------------------
      1          8           0       -2.366837    0.199543   -0.000486
      2          6           0        1.135672   -0.376060    0.000235
      3          6           0        2.511657    0.207854    0.000109
      4          6           0        0.001612    0.328407   -0.000205
      5          6           0       -1.302251   -0.359437    0.000036
      6          1           0        1.062091   -1.469238    0.000763
      7          1           0        3.074798   -0.127866   -0.880603
      8          1           0        3.074664   -0.127152    0.881176
      9          1           0        2.482825    1.302328   -0.000339
     10          1           0       -0.009342    1.419407   -0.000720
     11          1           0       -1.245088   -1.474986    0.000434
 ---------------------------------------------------------------------
                    Distance matrix (angstroms):
                    1          2          3          4          5
     1  O    0.000000
     2  C    3.549492   0.000000
     3  C    4.878502   1.494755   0.000000
     4  C    2.371953   1.335053   2.512939   0.000000
     5  C    1.202416   2.437980   3.855868   1.474174   0.000000
     6  H    3.813447   1.095651   2.216727   2.087137   2.611852
     7  H    5.522064   2.144221   1.097947   3.229203   4.470761
     8  H    5.522137   2.144226   1.097946   3.229244   4.470766
     9  H    4.973465   2.152163   1.094854   2.665509   4.133795
    10  H    2.654402   2.129497   2.797016   1.091055   2.199067
    11  H    2.015532   2.622147   4.116441   2.192370   1.117013
                    6          7          8          9         10
     6  H    0.000000
     7  H    2.574310   0.000000
     8  H    2.574252   1.761779   0.000000
     9  H    3.114492   1.780660   1.780662   0.000000
    10  H    3.080947   3.560922   3.560995   2.494916   0.000000
    11  H    2.307186   4.610029   4.610057   4.648742   3.147154
                   11
    11  H    0.000000
 Stoichiometry    C4H6O
 Framework group  C1[X(C4H6O)]
 Deg. of freedom    27
 Full point group                 C1      NOp   1
 Largest Abelian subgroup         C1      NOp   1
 Largest concise Abelian subgroup C1      NOp   1
                         Standard orientation:                         
 ---------------------------------------------------------------------
 Center     Atomic      Atomic             Coordinates (Angstroms)
 Number     Number       Type             X           Y           Z
 ---------------------------------------------------------------------
      1          8           0        2.456710   -0.250319   -0.000047
      2          6           0       -1.033698    0.394618   -0.000012
      3          6           0       -2.420991   -0.161898   -0.000011
      4          6           0        0.086171   -0.332196    0.000023
      5          6           0        1.403416    0.329660    0.000077
      6          1           0       -0.938456    1.486122   -0.000011
      7          1           0       -2.977271    0.184488   -0.880952
      8          1           0       -2.977338    0.184639    0.880827
      9          1           0       -2.413865   -1.256729    0.000080
     10          1           0        0.075491   -1.423198    0.000044
     11          1           0        1.368383    1.446123   -0.000077
 ---------------------------------------------------------------------
 Rotational constants (GHZ):          32.8538093           2.1910132           2.0804814
 Standard basis: 6-311++G(d,p) (5D, 7F)
 There are   157 symmetry adapted cartesian basis functions of A   symmetry.
 There are   152 symmetry adapted basis functions of A   symmetry.
   152 basis functions,   234 primitive gaussians,   157 cartesian basis functions
    19 alpha electrons       19 beta electrons
       nuclear repulsion energy       153.3425729002 Hartrees.
 NAtoms=   11 NActive=   11 NUniq=   11 SFac= 1.00D+00 NAtFMM=   60 NAOKFM=F Big=F
 Integral buffers will be    131072 words long.
 Raffenetti 2 integral format.
 Two-electron integral symmetry is turned on.
 R6APFD:  NTU= -4 IXU= 1 FactS= 1.050
 Nuclear repulsion after empirical dispersion term =      153.3390006546 Hartrees.
 One-electron integrals computed using PRISM.
 NBasis=   152 RedAO= T EigKep=  1.54D-05  NBF=   152
 NBsUse=   152 1.00D-06 EigRej= -1.00D+00 NBFU=   152
 Lowest energy guess from the checkpoint file:  "EBUL0112.chk"
 B after Tr=    -0.000000   -0.000000    0.000000
         Rot=    1.000000    0.000129    0.000025   -0.000007 Ang=   0.02 deg.
 B after Tr=    -0.000000   -0.000000    0.000000
         Rot=    1.000000   -0.000221   -0.000062   -0.000095 Ang=  -0.03 deg.
 Keep R1 ints in memory in canonical form, NReq=83380191.
 Requested convergence on RMS density matrix=1.00D-08 within  32 cycles.
 Requested convergence on MAX density matrix=1.00D-06.
 Requested convergence on             energy=1.00D-06.
 No special actions if energy rises.
 SCF Done:  E(RM08HX) =  -231.224228409     A.U. after   11 cycles
            NFock= 11  Conv=0.23D-08     -V/T= 2.0046
 QCSCF skips out because SCF is already converged.
 R6APFD:  NTU= -4 IXU= 1 FactS= 1.050
 Calling FoFJK, ICntrl=      2127 FMM=F ISym2X=0 I1Cent= 0 IOpClX= 0 NMat=1 NMatS=1 NMatT=0.
 ***** Axes restored to original set *****
 -------------------------------------------------------------------
 Center     Atomic                   Forces (Hartrees/Bohr)
 Number     Number              X              Y              Z
 -------------------------------------------------------------------
      1        8           0.000185292   -0.000013623    0.000013399
      2        6          -0.000035108   -0.000064632    0.000003680
      3        6          -0.000090099   -0.000022228   -0.000003736
      4        6           0.000068716    0.000207226    0.000012961
      5        6          -0.000216177   -0.000172804   -0.000038678
      6        1           0.000002308    0.000026847   -0.000000342
      7        1          -0.000009727    0.000001326   -0.000002555
      8        1          -0.000010934    0.000000980    0.000003118
      9        1           0.000025519   -0.000000233   -0.000000142
     10        1           0.000018628   -0.000041567   -0.000000351
     11        1           0.000061582    0.000078707    0.000012645
 -------------------------------------------------------------------
 Cartesian Forces:  Max     0.000216177 RMS     0.000075579

 GradGradGradGradGradGradGradGradGradGradGradGradGradGradGradGradGradGrad
 Berny optimization.
 Using GEDIIS/GDIIS optimizer.
 FormGI is forming the generalized inverse of G from B-inverse, IUseBI=4.
 Internal  Forces:  Max     0.000186537 RMS     0.000055933
 Search for a local minimum.
 Step number   5 out of a maximum of   49
 All quantities printed in internal units (Hartrees-Bohrs-Radians)
 Mixed Optimization -- En-DIIS/RFO-DIIS
 Update second derivatives using D2CorX and points    1    2    4    3    5
 DE= -3.22D-05 DEPred=-3.48D-05 R= 9.26D-01
 TightC=F SS=  1.41D+00  RLast= 2.86D-02 DXNew= 2.5227D-01 8.5723D-02
 Trust test= 9.26D-01 RLast= 2.86D-02 DXMaxT set to 1.50D-01
 ITU=  1 -1  1  1  0
 Use linear search instead of GDIIS.
     Eigenvalues ---    0.00853   0.01093   0.01684   0.02043   0.02888
     Eigenvalues ---    0.07167   0.07276   0.07648   0.13727   0.15916
     Eigenvalues ---    0.16000   0.16001   0.16023   0.16073   0.20866
     Eigenvalues ---    0.21921   0.22019   0.31248   0.33188   0.34284
     Eigenvalues ---    0.34326   0.34332   0.34972   0.35221   0.35637
     Eigenvalues ---    0.58619   0.88744
 RFO step:  Lambda=-4.48302231D-07 EMin= 8.52689985D-03
 Quartic linear search produced a step of -0.00546.
 Iteration  1 RMS(Cart)=  0.00067474 RMS(Int)=  0.00000027
 Iteration  2 RMS(Cart)=  0.00000024 RMS(Int)=  0.00000017
 Variable       Old X    -DE/DX   Delta X   Delta X   Delta X     New X
                                 (Linear)    (Quad)   (Total)
    R1        2.27224  -0.00017  -0.00000  -0.00020  -0.00021   2.27203
    R2        2.82468  -0.00008   0.00000  -0.00029  -0.00028   2.82439
    R3        2.52288  -0.00007  -0.00000  -0.00011  -0.00011   2.52277
    R4        2.07048  -0.00003   0.00000  -0.00007  -0.00007   2.07041
    R5        2.07482  -0.00000   0.00000  -0.00001  -0.00001   2.07481
    R6        2.07482  -0.00000  -0.00000  -0.00001  -0.00001   2.07481
    R7        2.06897   0.00000   0.00000  -0.00001  -0.00001   2.06897
    R8        2.78578   0.00002  -0.00001   0.00015   0.00014   2.78592
    R9        2.06179  -0.00004   0.00000  -0.00012  -0.00012   2.06168
   R10        2.11085  -0.00007  -0.00001  -0.00016  -0.00017   2.11068
    A1        2.18441  -0.00000  -0.00001   0.00005   0.00004   2.18445
    A2        2.03933  -0.00000  -0.00000   0.00001   0.00001   2.03934
    A3        2.05944   0.00000   0.00001  -0.00005  -0.00005   2.05940
    A4        1.93133  -0.00001  -0.00000  -0.00009  -0.00009   1.93123
    A5        1.93133  -0.00002  -0.00000  -0.00010  -0.00010   1.93123
    A6        1.94579   0.00004  -0.00000   0.00028   0.00027   1.94606
    A7        1.86230   0.00001   0.00000   0.00001   0.00002   1.86232
    A8        1.89531  -0.00001   0.00000  -0.00005  -0.00005   1.89525
    A9        1.89531  -0.00001   0.00000  -0.00005  -0.00005   1.89526
   A10        2.10030  -0.00019   0.00000  -0.00087  -0.00087   2.09943
   A11        2.13669   0.00008  -0.00000   0.00034   0.00033   2.13702
   A12        2.04619   0.00011  -0.00000   0.00054   0.00054   2.04673
   A13        2.17265  -0.00006  -0.00001  -0.00022  -0.00022   2.17243
   A14        2.10549   0.00010  -0.00001   0.00063   0.00063   2.10612
   A15        2.00504  -0.00004   0.00001  -0.00042  -0.00040   2.00464
    D1       -2.11127  -0.00000   0.00000  -0.00005  -0.00004  -2.11132
    D2        2.11140   0.00000  -0.00000   0.00005   0.00005   2.11145
    D3        0.00006   0.00000   0.00000   0.00001   0.00001   0.00006
    D4        1.03035  -0.00000   0.00000  -0.00010  -0.00009   1.03026
    D5       -1.03016   0.00000  -0.00000   0.00001   0.00000  -1.03016
    D6       -3.14150  -0.00000  -0.00000  -0.00004  -0.00004  -3.14155
    D7       -3.14155  -0.00000  -0.00000  -0.00006  -0.00006   3.14158
    D8        0.00001  -0.00000  -0.00000  -0.00002  -0.00002  -0.00001
    D9        0.00001  -0.00000  -0.00000  -0.00001  -0.00001   0.00000
   D10        3.14157  -0.00000   0.00000   0.00003   0.00003  -3.14159
   D11       -3.14143  -0.00001  -0.00008  -0.00002  -0.00010  -3.14153
   D12       -0.00016   0.00001   0.00008   0.00003   0.00011  -0.00006
   D13        0.00019  -0.00001  -0.00008  -0.00005  -0.00013   0.00006
   D14        3.14146   0.00001   0.00007  -0.00000   0.00007   3.14153
         Item               Value     Threshold  Converged?
 Maximum Force            0.000187     0.000450     YES
 RMS     Force            0.000056     0.000300     YES
 Maximum Displacement     0.002629     0.001800     NO 
 RMS     Displacement     0.000675     0.001200     YES
 Predicted change in Energy=-2.251259D-07
 GradGradGradGradGradGradGradGradGradGradGradGradGradGradGradGradGradGrad

                          Input orientation:                          
 ---------------------------------------------------------------------
 Center     Atomic      Atomic             Coordinates (Angstroms)
 Number     Number       Type             X           Y           Z
 ---------------------------------------------------------------------
      1          8           0       -2.366660    0.198921   -0.000459
      2          6           0        1.135371   -0.375714    0.000250
      3          6           0        2.511402    0.207709    0.000110
      4          6           0        0.001555    0.329034   -0.000200
      5          6           0       -1.301964   -0.359617   -0.000020
      6          1           0        1.061441   -1.468831    0.000748
      7          1           0        3.074367   -0.128292   -0.880600
      8          1           0        3.074234   -0.127559    0.881184
      9          1           0        2.483210    1.302196   -0.000350
     10          1           0       -0.009460    1.419971   -0.000712
     11          1           0       -1.243697   -1.475020    0.000449
 ---------------------------------------------------------------------
                    Distance matrix (angstroms):
                    1          2          3          4          5
     1  O    0.000000
     2  C    3.548862   0.000000
     3  C    4.878069   1.494605   0.000000
     4  C    2.371787   1.334993   2.512777   0.000000
     5  C    1.202307   2.437387   3.855336   1.474246   0.000000
     6  H    3.812253   1.095614   2.216567   2.087026   2.610755
     7  H    5.521457   2.144020   1.097943   3.228997   4.470034
     8  H    5.521523   2.144019   1.097942   3.229036   4.470065
     9  H    4.973776   2.152220   1.094850   2.665643   4.133904
    10  H    2.654686   2.129583   2.797199   1.090993   2.199432
    11  H    2.015719   2.620770   4.114892   2.192091   1.116924
                    6          7          8          9         10
     6  H    0.000000
     7  H    2.574041   0.000000
     8  H    2.574007   1.761784   0.000000
     9  H    3.114485   1.780619   1.780621   0.000000
    10  H    3.080910   3.561083   3.561146   2.495451   0.000000
    11  H    2.305146   4.608210   4.608240   4.647877   3.147112
                   11
    11  H    0.000000
 Stoichiometry    C4H6O
 Framework group  C1[X(C4H6O)]
 Deg. of freedom    27
 Full point group                 C1      NOp   1
 Largest Abelian subgroup         C1      NOp   1
 Largest concise Abelian subgroup C1      NOp   1
                         Standard orientation:                         
 ---------------------------------------------------------------------
 Center     Atomic      Atomic             Coordinates (Angstroms)
 Number     Number       Type             X           Y           Z
 ---------------------------------------------------------------------
      1          8           0        2.456510   -0.249951   -0.000025
      2          6           0       -1.033378    0.394333    0.000009
      3          6           0       -2.420758   -0.161562   -0.000013
      4          6           0        0.086173   -0.332861    0.000023
      5          6           0        1.403152    0.329685    0.000027
      6          1           0       -0.937687    1.485761   -0.000002
      7          1           0       -2.976825    0.185169   -0.880948
      8          1           0       -2.976894    0.185271    0.880837
      9          1           0       -2.414376   -1.256393    0.000048
     10          1           0        0.075453   -1.423802    0.000029
     11          1           0        1.367117    1.446028   -0.000039
 ---------------------------------------------------------------------
 Rotational constants (GHZ):          32.8566659           2.1915257           2.0809551
 Standard basis: 6-311++G(d,p) (5D, 7F)
 There are   157 symmetry adapted cartesian basis functions of A   symmetry.
 There are   152 symmetry adapted basis functions of A   symmetry.
[...]
     Eigenvalues ---    0.62473   0.90040
 Angle between quadratic step and forces=  30.35 degrees.
 Linear search not attempted -- first point.
 Iteration  1 RMS(Cart)=  0.00027150 RMS(Int)=  0.00000004
 Iteration  2 RMS(Cart)=  0.00000005 RMS(Int)=  0.00000000
 Variable       Old X    -DE/DX   Delta X   Delta X   Delta X     New X
                                 (Linear)    (Quad)   (Total)
    R1        2.27203  -0.00001   0.00000  -0.00002  -0.00002   2.27201
    R2        2.82439   0.00001   0.00000   0.00002   0.00002   2.82441
    R3        2.52277   0.00003   0.00000   0.00005   0.00005   2.52282
    R4        2.07041  -0.00000   0.00000  -0.00001  -0.00001   2.07040
    R5        2.07481   0.00000   0.00000   0.00001   0.00001   2.07482
    R6        2.07481   0.00000   0.00000   0.00001   0.00001   2.07482
    R7        2.06897   0.00000   0.00000   0.00001   0.00001   2.06898
    R8        2.78592   0.00004   0.00000   0.00014   0.00014   2.78606
    R9        2.06168  -0.00002   0.00000  -0.00006  -0.00006   2.06162
   R10        2.11068  -0.00002   0.00000  -0.00005  -0.00005   2.11063
    A1        2.18445   0.00002   0.00000   0.00011   0.00011   2.18456
    A2        2.03934  -0.00002   0.00000  -0.00012  -0.00012   2.03922
    A3        2.05940  -0.00000   0.00000   0.00001   0.00001   2.05941
    A4        1.93123   0.00000   0.00000   0.00003   0.00003   1.93126
    A5        1.93123   0.00001   0.00000   0.00003   0.00003   1.93126
    A6        1.94606   0.00000   0.00000   0.00005   0.00005   1.94611
    A7        1.86232  -0.00000   0.00000  -0.00000  -0.00000   1.86231
    A8        1.89525  -0.00001   0.00000  -0.00005  -0.00005   1.89520
    A9        1.89526  -0.00001   0.00000  -0.00006  -0.00006   1.89520
   A10        2.09943  -0.00003   0.00000  -0.00028  -0.00028   2.09915
   A11        2.13702   0.00001   0.00000   0.00004   0.00004   2.13707
   A12        2.04673   0.00002   0.00000   0.00024   0.00024   2.04697
   A13        2.17243   0.00003   0.00000   0.00018   0.00018   2.17261
   A14        2.10612  -0.00001   0.00000  -0.00002  -0.00002   2.10610
   A15        2.00464  -0.00002   0.00000  -0.00016  -0.00016   2.00447
    D1       -2.11132   0.00000   0.00000  -0.00005  -0.00005  -2.11136
    D2        2.11145  -0.00000   0.00000  -0.00008  -0.00008   2.11137
    D3        0.00006  -0.00000   0.00000  -0.00006  -0.00006   0.00000
    D4        1.03026   0.00000   0.00000  -0.00003  -0.00003   1.03023
    D5       -1.03016  -0.00000   0.00000  -0.00006  -0.00006  -1.03022
    D6       -3.14155  -0.00000   0.00000  -0.00004  -0.00004  -3.14159
    D7        3.14158  -0.00000   0.00000   0.00001   0.00001   3.14159
    D8       -0.00001  -0.00000   0.00000   0.00001   0.00001  -0.00000
    D9        0.00000  -0.00000   0.00000  -0.00000  -0.00000  -0.00000
   D10       -3.14159  -0.00000   0.00000  -0.00001  -0.00001  -3.14159
   D11       -3.14153  -0.00000   0.00000  -0.00006  -0.00006  -3.14159
   D12       -0.00006   0.00000   0.00000   0.00006   0.00006   0.00000
   D13        0.00006  -0.00000   0.00000  -0.00006  -0.00006   0.00000
   D14        3.14153   0.00000   0.00000   0.00006   0.00006  -3.14159
         Item               Value     Threshold  Converged?
 Maximum Force            0.000038     0.000450     YES
 RMS     Force            0.000013     0.000300     YES
 Maximum Displacement     0.000811     0.001800     YES
 RMS     Displacement     0.000272     0.001200     YES
 Predicted change in Energy=-1.976237D-08
 Optimization completed.
    -- Stationary point found.
                           ----------------------------
                           !   Optimized Parameters   !
                           ! (Angstroms and Degrees)  !
 --------------------------                            --------------------------
 ! Name  Definition              Value          Derivative Info.                !
 --------------------------------------------------------------------------------
 ! R1    R(1,5)                  1.2023         -DE/DX =    0.0                 !
 ! R2    R(2,3)                  1.4946         -DE/DX =    0.0                 !
 ! R3    R(2,4)                  1.335          -DE/DX =    0.0                 !
 ! R4    R(2,6)                  1.0956         -DE/DX =    0.0                 !
 ! R5    R(3,7)                  1.0979         -DE/DX =    0.0                 !
 ! R6    R(3,8)                  1.0979         -DE/DX =    0.0                 !
 ! R7    R(3,9)                  1.0949         -DE/DX =    0.0                 !
 ! R8    R(4,5)                  1.4742         -DE/DX =    0.0                 !
 ! R9    R(4,10)                 1.091          -DE/DX =    0.0                 !
 ! R10   R(5,11)                 1.1169         -DE/DX =    0.0                 !
 ! A1    A(3,2,4)              125.1596         -DE/DX =    0.0                 !
 ! A2    A(3,2,6)              116.8456         -DE/DX =    0.0                 !
 ! A3    A(4,2,6)              117.9948         -DE/DX =    0.0                 !
 ! A4    A(2,3,7)              110.6515         -DE/DX =    0.0                 !
 ! A5    A(2,3,8)              110.6515         -DE/DX =    0.0                 !
 ! A6    A(2,3,9)              111.5009         -DE/DX =    0.0                 !
 ! A7    A(7,3,8)              106.7029         -DE/DX =    0.0                 !
 ! A8    A(7,3,9)              108.5899         -DE/DX =    0.0                 !
 ! A9    A(8,3,9)              108.5902         -DE/DX =    0.0                 !
 ! A10   A(2,4,5)              120.2885         -DE/DX =    0.0                 !
 ! A11   A(2,4,10)             122.4424         -DE/DX =    0.0                 !
 ! A12   A(5,4,10)             117.269          -DE/DX =    0.0                 !
 ! A13   A(1,5,4)              124.471          -DE/DX =    0.0                 !
 ! A14   A(1,5,11)             120.6717         -DE/DX =    0.0                 !
 ! A15   A(4,5,11)             114.8572         -DE/DX =    0.0                 !
 ! D1    D(4,2,3,7)           -120.9696         -DE/DX =    0.0                 !
 ! D2    D(4,2,3,8)            120.9771         -DE/DX =    0.0                 !
 ! D3    D(4,2,3,9)              0.0036         -DE/DX =    0.0                 !
 ! D4    D(6,2,3,7)             59.0295         -DE/DX =    0.0                 !
 ! D5    D(6,2,3,8)            -59.0237         -DE/DX =    0.0                 !
 ! D6    D(6,2,3,9)           -179.9973         -DE/DX =    0.0                 !
 ! D7    D(3,2,4,5)            179.9992         -DE/DX =    0.0                 !
 ! D8    D(3,2,4,10)            -0.0005         -DE/DX =    0.0                 !
 ! D9    D(6,2,4,5)              0.0001         -DE/DX =    0.0                 !
 ! D10   D(6,2,4,10)          -179.9997         -DE/DX =    0.0                 !
 ! D11   D(2,4,5,1)           -179.9963         -DE/DX =    0.0                 !
 ! D12   D(2,4,5,11)            -0.0032         -DE/DX =    0.0                 !
 ! D13   D(10,4,5,1)             0.0035         -DE/DX =    0.0                 !
 ! D14   D(10,4,5,11)         -180.0034         -DE/DX =    0.0                 !
 --------------------------------------------------------------------------------
 GradGradGradGradGradGradGradGradGradGradGradGradGradGradGradGradGradGrad


 ----------------------------------------------------------------------

 Electric dipole moment (input orientation):
 (Debye = 10**-18 statcoulomb cm , SI units = C m)
                  (au)            (Debye)         (10**-30 SI)
   Tot        0.162498D+01      0.413029D+01      0.137772D+02
   x          0.157782D+01      0.401041D+01      0.133773D+02
   y         -0.388658D+00     -0.987869D+00     -0.329518D+01
   z          0.377362D-03      0.959159D-03      0.319941D-02

 Dipole polarizability, Alpha (input orientation).
 (esu units = cm**3 , SI units = C**2 m**2 J**-1)
 Alpha(0;0):
               (au)            (10**-24 esu)      (10**-40 SI)
   iso        0.538741D+02      0.798332D+01      0.888264D+01
   aniso      0.418973D+02      0.620854D+01      0.690793D+01
   xx         0.797983D+02      0.118249D+02      0.131570D+02
   yx        -0.607071D+01     -0.899587D+00     -0.100093D+01
   yy         0.475623D+02      0.704800D+01      0.784196D+01
   zx         0.813395D-02      0.120533D-02      0.134111D-02
   zy        -0.687806D-02     -0.101922D-02     -0.113404D-02
   zz         0.342618D+02      0.507707D+01      0.564900D+01

 ----------------------------------------------------------------------

 Dipole orientation:
     8         -0.16870200         -0.68419363         -4.43244163
     6         -0.04209934         -0.17112268          2.25308214
     6          0.36346059          1.47201418          4.51423690
     6          0.14490248          0.58681493         -0.14586254
     6         -0.29903286         -1.21196743         -2.22640605
     1         -0.53065151         -2.15088454          2.61149700
     1          1.89312552          0.72232191          5.69868877
     1         -1.33922712          1.51985906          5.69888762
     1          0.84146198          3.40942780          3.96782321
     1          0.62330527          2.52541682         -0.65915527
     1         -0.78296354         -3.17344624         -1.61535447

 Electric dipole moment (dipole orientation):
 (Debye = 10**-18 statcoulomb cm , SI units = C m)
                  (au)            (Debye)         (10**-30 SI)
   Tot        0.162498D+01      0.413029D+01      0.137772D+02
   x          0.000000D+00      0.000000D+00      0.000000D+00
   y          0.000000D+00      0.000000D+00      0.000000D+00
   z          0.162498D+01      0.413029D+01      0.137772D+02

 Dipole polarizability, Alpha (dipole orientation).
 (esu units = cm**3 , SI units = C**2 m**2 J**-1)
 Alpha(0;0):
               (au)            (10**-24 esu)      (10**-40 SI)
   iso        0.538741D+02      0.798332D+01      0.888264D+01
   aniso      0.418973D+02      0.620854D+01      0.690793D+01
   xx         0.349692D+02      0.518191D+01      0.576565D+01
   yx         0.286691D+01      0.424832D+00      0.472689D+00
   yy         0.458792D+02      0.679860D+01      0.756446D+01
   zx         0.505930D+00      0.749710D-01      0.834165D-01
   zy         0.204864D+01      0.303577D+00      0.337775D+00
   zz         0.807739D+02      0.119695D+02      0.133178D+02

 ----------------------------------------------------------------------
 1\1\GINC-PITOMBA\Freq\RM08HX\6-311++G(d,p)\C4H6O1\VALTER\19-Sep-2025\0
 \\#N Geom=AllCheck Guess=TCheck SCRF=Check GenChk RM08HX/6-311++G(d,p)
  Freq\\EBUL0112\\0,1\O,-2.3666597703,0.1989207094,-0.0004588567\C,1.13
 53706556,-0.37571363,0.0002498053\C,2.5114015289,0.2077091027,0.000110
 4674\C,0.0015554308,0.3290340276,-0.0002000621\C,-1.3019636001,-0.3596
 165856,-0.0000201324\H,1.0614413356,-1.4688306753,0.0007483666\H,3.074
 3668135,-0.1282918715,-0.8806001965\H,3.0742343694,-0.1275589239,0.881
 1838215\H,2.4832098707,1.3021962164,-0.0003499031\H,-0.0094598805,1.41
 99712787,-0.0007122164\H,-1.2436967534,-1.4750196484,0.0004489063\\Ver
 sion=ES64L-G16RevB.01\State=1-A\HF=-231.2242287\RMSD=1.425e-09\RMSF=1.
 546e-05\ZeroPoint=0.0895251\Thermal=0.0953573\Dipole=1.577816,-0.38865
 77,0.0003774\DipoleDeriv=-1.3859406,0.2332267,-0.0002211,0.309593,-0.5
 905415,0.0001369,-0.0002952,0.0001432,-0.3678764,0.6225952,-0.0224497,
 0.000086,-0.0743009,0.1303247,-0.0001588,0.0001096,-0.0001456,-0.18703
 19,-0.2124171,-0.0287682,-0.0000141,0.0204442,0.0377193,0.0000284,-0.0
 000148,0.0000187,0.0878381,-0.9135697,0.0068569,-0.0000796,-0.1601374,
 0.0010054,-0.0001077,0.0000052,-0.0000854,-0.1784295,1.8321594,-0.2189
 826,0.0002833,0.1309482,0.7759335,-0.0002401,0.000135,-0.00028,0.21603
 45,0.0252655,-0.0580293,0.0000141,-0.0357083,-0.0921216,0.0001072,0.00
 00081,0.0001038,0.14637,-0.0163752,0.0095263,0.0450512,-0.036667,0.066
 9264,-0.0634648,0.0972061,-0.0475716,-0.0177902,-0.0163477,0.0094788,-
 0.045064,-0.0367592,0.067016,0.0633866,-0.0971819,0.0475015,-0.0179067
 ,0.0263696,0.0507428,-0.0000261,-0.0486653,-0.0966969,0.0000704,0.0000
 121,0.0000809,0.0816916,0.0272192,-0.0268283,-0.000004,-0.0400115,-0.0
 537822,0.0000967,0.0000061,0.000101,0.1660909,0.0110415,0.0452267,-0.0
 000256,-0.0287357,-0.245783,0.0001451,0.0000096,0.0001337,0.0710097\Po
 lar=79.7983153,-6.0707131,47.5622731,0.008134,-0.0068781,34.2617649\Qu
 adrupole=-3.556359,2.9016951,0.6546639,1.3175743,-0.001271,-0.0008735\
 PG=C01 [X(C4H6O1)]\NImag=0\\0.71412325,-0.33266699,0.25423308,0.000266
 10,-0.00016062,0.02362253,0.00457811,-0.00751589,0.00000379,0.75406611
 ,-0.01326024,0.00141238,-0.00000167,-0.11933298,0.67873017,0.00000627,
 -0.00000027,0.00266926,0.00011619,-0.00025349,0.16158155,-0.00348129,0
 .00000165,-0.00000014,-0.21041606,-0.05626014,0.00001307,0.50606925,0.
 00277147,0.00106454,-0.00000183,-0.06535586,-0.11697787,0.00001344,-0.
 02132525,0.57669223,-0.00000049,-0.00000233,-0.00395469,0.00001628,0.0
 0001344,-0.07533542,0.00000995,-0.00002379,0.52879490,-0.07388069,0.00
 501967,-0.00001557,-0.40669891,0.18997561,-0.00012537,-0.03414730,0.01
 789869,-0.00001251,0.72701525,0.02483076,0.02757822,0.00000144,0.19873
 527,-0.24647356,0.00011001,-0.01197379,0.01291334,-0.00000058,-0.12937
 321,0.73644921,-0.00002623,-0.00000198,0.02192081,-0.00012928,0.000109
 64,-0.05495791,0.00000117,0.00000155,0.01357617,0.00012746,-0.00030437
 ,0.11226589,-0.63265776,0.28506571,-0.00022725,-0.05041807,0.00347700,
 -0.00000683,0.00573902,-0.00087195,-0.00000194,-0.16065399,-0.07516815
 ,0.00002847,0.88940738,0.28967983,-0.26466130,0.00014126,0.01834679,0.
 01505962,-0.00000494,0.00481425,-0.00544267,0.00001002,-0.08319852,-0.
 16611972,0.00003346,-0.19495074,0.69241392,-0.00022796,0.00013948,-0.0
 6315816,-0.00001467,-0.00000555,0.00038894,-0.00000302,0.00000958,0.01
 627409,0.00002975,0.00003155,-0.07653652,0.00019775,-0.00025909,0.1884
 1390,0.00086764,-0.00173973,0.00000082,-0.05850757,-0.01925486,0.00000
 740,0.00094649,-0.02859760,0.00001279,0.00556615,0.02807856,-0.0000133
 1,-0.00087725,0.00443683,-0.00000125,0.06062269,0.00066034,0.00032775,
 0.00000074,-0.01559455,-0.31687571,0.00012530,0.00099492,-0.00843865,0
 .00000557,-0.00085636,-0.01669343,0.00001113,-0.00369221,-0.00004879,-
 0.00000453,0.01761991,0.34041167,-0.00000052,0.00000045,0.00163110,0.0
 0000611,0.00012451,-0.04334061,-0.00000101,0.00000301,0.00346119,-0.00
 000020,0.00001433,0.00748688,0.00000279,-0.00000349,-0.00870771,-0.000
 00455,-0.00014389,0.02647338,-0.00084605,-0.00016037,0.00070503,-0.019
 15257,0.01150252,0.02512819,-0.10918791,0.04055603,0.11014627,-0.00259
 208,-0.00372456,-0.00130066,0.00034126,0.00115949,-0.00295930,0.000691
 52,-0.00043043,-0.00074880,0.12311035,-0.00067631,-0.00006264,0.000335
 22,-0.00405747,0.00490705,0.01275027,0.03830122,-0.07266016,-0.0663780
 1,-0.00217717,-0.00067201,-0.00072751,0.00109331,0.00109477,-0.0009078
 6,0.00052856,0.00004687,-0.00024233,-0.04310556,0.07270511,0.00003517,
 0.00005328,0.00016078,-0.00122114,0.00110978,0.00262692,0.10868998,-0.
 06711584,-0.21367607,-0.00089187,0.00058085,-0.00056660,-0.00012543,-0
 .00015584,-0.00049550,0.00066742,0.00024619,0.00030270,-0.11869010,0.0
 7258618,0.23152833,-0.00084573,-0.00016101,-0.00070511,-0.01914861,0.0
 1148168,-0.02514147,-0.10915566,0.04045415,-0.11016490,-0.00259287,-0.
 00372333,0.00130361,0.00034032,0.00116216,0.00295820,0.00069168,-0.000
 42964,0.00074923,0.00871260,-0.00543774,0.01352186,0.12307545,-0.00067
 625,-0.00006298,-0.00033520,-0.00405471,0.00489536,-0.01275301,0.03820
 125,-0.07255007,0.06626733,-0.00217685,-0.00067197,0.00072740,0.001093
 21,0.00109579,0.00090669,0.00052796,0.00004704,0.00024243,-0.00544772,
 0.00219590,-0.00848886,-0.04299579,0.07258495,-0.00003488,-0.00005309,
 0.00016099,0.00122167,-0.00110967,0.00263473,-0.10870748,0.06700487,-0
 .21382161,0.00089314,-0.00058147,-0.00056630,0.00012491,0.00015474,-0.
 00049588,-0.00066780,-0.00024605,0.00030282,-0.01351296,0.00846870,-0.
 02106974,0.11871069,-0.07246098,0.23168625,-0.00000182,0.00033340,-0.0
 0000018,0.00109748,-0.03420843,0.00001461,-0.04786460,0.01288733,-0.00
 000586,0.00193197,-0.00104701,0.00000081,-0.00003690,-0.00042443,0.000
 00026,-0.00524550,-0.00175182,0.00000014,-0.00112951,0.01563400,-0.001
 93597,-0.00112992,0.01563178,0.00192274,0.05284243,-0.00028210,0.00002
 245,-0.00000005,0.00048588,-0.01304501,0.00000518,0.00935147,-0.316790
 10,0.00011347,0.00140505,0.00142995,-0.00000073,0.00017679,0.00044640,
 -0.00000021,-0.00189832,0.00068041,0.00000028,-0.00006112,-0.00749041,
 0.00109709,-0.00006085,-0.00746966,-0.00109005,-0.00846917,0.34181972,
 0.00000007,0.00000002,0.00000583,0.00000039,0.00000264,-0.00114631,-0.
 00000445,0.00011355,-0.04672048,-0.00000053,-0.00000112,-0.00072311,0.
 00000004,-0.00000027,-0.00026373,0.00000031,0.00000049,0.00193140,-0.0
 0021425,-0.02570757,0.00102953,0.00021410,0.02571694,0.00100937,0.0000
 0417,-0.00012477,0.04451550,0.00233735,0.00443441,-0.00000158,0.003148
 02,0.02789409,-0.00001323,0.00165172,0.00134738,0.00000032,-0.05548244
 ,-0.00049874,-0.00000143,0.00431547,-0.02971903,0.00001403,-0.00403034
 ,0.00233448,-0.00000254,0.00007448,-0.00015933,-0.00004624,0.00007473,
 -0.00015938,0.00004636,-0.00055412,-0.00091564,0.00000028,0.05268622,-
 0.00067475,0.00273450,-0.00000237,-0.00261572,-0.01145227,0.00000774,-
 0.00127075,0.00110106,-0.00000402,0.00047764,-0.33235523,0.00013767,0.
 00522926,-0.01245645,0.00000790,0.00166700,-0.00029745,0.00000516,-0.0
 0006134,0.00008365,0.00004686,-0.00006247,0.00008378,-0.00004684,0.001
 00776,0.00030469,0.00000006,-0.00191706,0.35307242,0.00000105,-0.00000
 182,-0.00203042,0.00000075,0.00001112,0.00585762,0.00000153,-0.0000035
 9,-0.00719107,-0.00000185,0.00013742,-0.03850297,-0.00000251,0.0000043
 4,0.00330606,-0.00000225,0.00000512,0.01022442,0.00117444,-0.00015516,
 0.00010168,-0.00117425,0.00015515,0.00010142,-0.00000058,-0.00000024,0
 .00023892,0.00000363,-0.00015349,0.02555330,-0.01019301,0.04738915,-0.
 00002591,0.00145205,-0.00201425,0.00000118,-0.00015366,0.00023561,0.00
 000009,0.00153492,-0.02613580,0.00000938,-0.05549947,-0.01130662,0.000
 00622,-0.00072551,0.00114535,-0.00000066,-0.00002208,0.00005650,-0.000
 00368,-0.00002200,0.00005650,0.00000361,0.00009048,0.00026800,-0.00000
 013,-0.00422109,-0.00177956,0.00000005,0.06775937,0.03029423,-0.022586
 00,0.00002309,0.00095922,-0.00018015,-0.00000024,-0.00083482,0.0010883
 6,-0.00000109,0.00300545,-0.01538480,0.00001374,-0.02145221,-0.2613815
 8,0.00008203,-0.00136830,0.00084029,-0.00000046,-0.00022694,-0.0001481
 3,0.00004030,-0.00022716,-0.00014814,-0.00004017,0.00040657,0.00009156
 ,0.00000004,-0.00264117,-0.00081869,0.00000115,-0.00791487,0.29862727,
 -0.00001858,0.00002688,0.01897196,-0.00000008,-0.00000074,-0.00097878,
 0.00000041,-0.00000096,-0.00140703,-0.00000244,0.00001193,0.01660365,0
 .00000999,0.00007981,-0.05872548,0.00000042,-0.00000007,0.00023442,0.0
 0027214,-0.00002195,0.00005798,-0.00027194,0.00002213,0.00005795,-0.00
 000015,0.00000003,0.00012307,0.00000039,0.00000132,0.00234103,0.000009
 85,-0.00011838,0.02272124\\0.00000283,0.00001545,-0.00000480,0.0000016
 0,0.00002246,0.00000096,0.00000081,0.00001705,0.00000022,-0.00000458,-
 0.00006512,-0.00000449,0.00003008,0.00002209,0.00001363,-0.00000647,-0
 .00000392,-0.00000038,-0.00000459,-0.00000137,0.00000242,-0.00000482,-
 0.00000168,-0.00000271,-0.00000630,-0.00000042,0.,-0.00000784,0.000016
 52,-0.00000016,-0.00000073,-0.00002106,-0.00000471\\\@


 A BIRD IN THE HAND IS SAFER THAN ONE OVERHEAD.

                       -- NEWTON'S SEVENTH LAW
 Job cpu time:       0 days  0 hours 21 minutes 22.6 seconds.
 Elapsed time:       0 days  0 hours  1 minutes 21.5 seconds.
 File lengths (MBytes):  RWF=     28 Int=      0 D2E=      0 Chk=      3 Scr=      1
 Normal termination of Gaussian 16 at Fri Sep 19 17:25:08 2025.
