 Entering Gaussian System, Link 0=g16
 Input=ECOP0045.gjf
 Output=ECOP0045.log
 Initial command:
 /usr/local/g16/l1.exe "/dados_01/scratch/Gau-2455968.inp" -scrdir="/dados_01/scratch/"
 Entering Link 1 = /usr/local/g16/l1.exe PID=   2455969.
  
 Copyright (c) 1988-2017, Gaussian, Inc.  All Rights Reserved.
  
 This is part of the Gaussian(R) 16 program.  It is based on
 the Gaussian(R) 09 system (copyright 2009, Gaussian, Inc.),
 the Gaussian(R) 03 system (copyright 2003, Gaussian, Inc.),
 the Gaussian(R) 98 system (copyright 1998, Gaussian, Inc.),
 the Gaussian(R) 94 system (copyright 1995, Gaussian, Inc.),
 the Gaussian 92(TM) system (copyright 1992, Gaussian, Inc.),
 the Gaussian 90(TM) system (copyright 1990, Gaussian, Inc.),
 the Gaussian 88(TM) system (copyright 1988, Gaussian, Inc.),
 the Gaussian 86(TM) system (copyright 1986, Carnegie Mellon
 University), and the Gaussian 82(TM) system (copyright 1983,
 Carnegie Mellon University). Gaussian is a federally registered
 trademark of Gaussian, Inc.
  
 This software contains proprietary and confidential information,
 including trade secrets, belonging to Gaussian, Inc.
  
 This software is provided under written license and may be
 used, copied, transmitted, or stored only in accord with that
 written license.
  
 The following legend is applicable only to US Government
 contracts under FAR:
  
                    RESTRICTED RIGHTS LEGEND
  
 Use, reproduction and disclosure by the US Government is
 subject to restrictions as set forth in subparagraphs (a)
 and (c) of the Commercial Computer Software - Restricted
 Rights clause in FAR 52.227-19.
  
 Gaussian, Inc.
 340 Quinnipiac St., Bldg. 40, Wallingford CT 06492
  
  
 ---------------------------------------------------------------
 Warning -- This program may not be used in any manner that
 competes with the business of Gaussian, Inc. or will provide
 assistance to any competitor of Gaussian, Inc.  The licensee
 of this program is prohibited from giving any competitor of
 Gaussian, Inc. access to this program.  By using this program,
 the user acknowledges that Gaussian, Inc. is engaged in the
 business of creating and licensing software in the field of
 computational chemistry and represents and warrants to the
 licensee that it is not a competitor of Gaussian, Inc. and that
 it will not use this program in any manner prohibited above.
 ---------------------------------------------------------------
  

 Cite this work as:
 Gaussian 16, Revision B.01,
 M. J. Frisch, G. W. Trucks, H. B. Schlegel, G. E. Scuseria, 
 M. A. Robb, J. R. Cheeseman, G. Scalmani, V. Barone, 
 G. A. Petersson, H. Nakatsuji, X. Li, M. Caricato, A. V. Marenich, 
 J. Bloino, B. G. Janesko, R. Gomperts, B. Mennucci, H. P. Hratchian, 
 J. V. Ortiz, A. F. Izmaylov, J. L. Sonnenberg, D. Williams-Young, 
 F. Ding, F. Lipparini, F. Egidi, J. Goings, B. Peng, A. Petrone, 
 T. Henderson, D. Ranasinghe, V. G. Zakrzewski, J. Gao, N. Rega, 
 G. Zheng, W. Liang, M. Hada, M. Ehara, K. Toyota, R. Fukuda, 
 J. Hasegawa, M. Ishida, T. Nakajima, Y. Honda, O. Kitao, H. Nakai, 
 T. Vreven, K. Throssell, J. A. Montgomery, Jr., J. E. Peralta, 
 F. Ogliaro, M. J. Bearpark, J. J. Heyd, E. N. Brothers, K. N. Kudin, 
 V. N. Staroverov, T. A. Keith, R. Kobayashi, J. Normand, 
 K. Raghavachari, A. P. Rendell, J. C. Burant, S. S. Iyengar, 
 J. Tomasi, M. Cossi, J. M. Millam, M. Klene, C. Adamo, R. Cammi, 
 J. W. Ochterski, R. L. Martin, K. Morokuma, O. Farkas, 
 J. B. Foresman, and D. J. Fox, Gaussian, Inc., Wallingford CT, 2016.
 
 ******************************************
 Gaussian 16:  ES64L-G16RevB.01 20-Dec-2017
                 6-Oct-2025 
 ******************************************
 %nprocs=16
 Will use up to   16 processors via shared memory.
 %mem=40GB
 %chk=ECOP0045.chk
 ----------------------------------------------------------------------
 # opt freq=noraman M08HX/6-311++G** scf=xqc Empiricaldispersion=pfd In
 t(Grid=ultraFine)
 ----------------------------------------------------------------------
 1/18=20,19=15,26=4,38=1/1,3;
 2/9=110,12=2,17=6,18=5,40=1/2;
 3/5=4,6=6,7=1111,11=2,25=1,30=1,71=1,74=-74,75=-5,124=11/1,2,3;
 4//1;
 5/5=2,8=3,13=1,38=5/2,8;
 6/7=2,8=2,9=2,10=2,28=1/1;
 7//1,2,3,16;
 1/18=20,19=15,26=4/3(2);
 2/9=110/2;
 99//99;
 2/9=110/2;
 3/5=4,6=6,7=1111,11=2,25=1,30=1,71=1,74=-74,75=-5,124=11/1,2,3;
 4/5=5,16=3,69=1/1;
 5/5=2,8=3,13=1,38=5/2,8;
 7//1,2,3,16;
 1/18=20,19=15,26=4/3(-5);
 2/9=110/2;
 6/7=2,8=2,9=2,10=2,19=2,28=1/1;
 99/9=1/99;
 --------
 ECOP0045
 --------
 Symbolic Z-matrix:
 Charge =  0 Multiplicity = 1
 C                     6.9767    0.0008   -0.0009 
 C                     5.6684    0.6749   -0.0007 
 O                     5.6105    1.886    -0.001 
 C                     4.4009   -0.1402   -0.0002 
 O                     3.2716    0.7354   -0.0001 
 C                     2.0419    0.1565    0.0004 
 C                     1.9265   -1.227     0.0008 
 C                     0.6778   -1.8218    0.0013 
 C                    -0.4615   -1.044     0.001 
 C                    -0.3553    0.3484    0.0006 
 C                    -1.5748    1.1858    0.0002 
 O                    -1.4797    2.3994   -0.0001 
 C                    -2.8938    0.556     0.0003 
 C                    -4.0077    1.321     0. 
 C                    -5.3347    0.6874    0. 
 C                    -6.4905    1.4763   -0.0003 
 C                    -7.7307    0.8754   -0.0002 
 C                    -7.8349   -0.5063    0.0002 
 Cl                   -9.4015   -1.2543   -0.0003 
 C                    -6.6949   -1.294     0.0005 
 C                    -5.4479   -0.7074   -0.0054 
 C                     0.9049    0.9469    0.0063 
 C                     8.1553    0.7537   -0.0014 
 C                     9.3772    0.1148   -0.0017 
 C                     9.4391   -1.2679   -0.0018 
 C                     8.2773   -2.02     -0.0018 
 C                     7.0477   -1.3959    0.0052 
 H                     4.3729   -0.7691   -0.89 
 H                     4.3734   -0.7686    0.89 
 H                     2.8149   -1.8411    0.0004 
 H                     0.5945   -2.8986    0.0016 
 H                    -1.435    -1.5117    0.0006 
 H                    -2.9781   -0.5207    0.0006 
 H                    -3.9234    2.3977   -0.0003 
 H                    -6.4107    2.5534   -0.0003 
 H                    -8.6236    1.483    -0.0001 
 H                    -6.7838   -2.3704    0.0009 
 H                    -4.5602   -1.3225   -0.0055 
 H                     0.9935    2.0232    0.0063 
 H                     8.1085    1.8327   -0.002 
 H                     10.2882   0.6947   -0.0021 
 H                     10.3992  -1.7625   -0.0024 
 H                     8.3338   -3.0985   -0.0023 
 H                     6.142    -1.9841    0.0053 
 

 GradGradGradGradGradGradGradGradGradGradGradGradGradGradGradGradGradGrad
 Berny optimization.
 Initialization pass.
                           ----------------------------
                           !    Initial Parameters    !
                           ! (Angstroms and Degrees)  !
 --------------------------                            --------------------------
 ! Name  Definition              Value          Derivative Info.                !
 --------------------------------------------------------------------------------
 ! R1    R(1,2)                  1.4718         estimate D2E/DX2                !
 ! R2    R(1,23)                 1.3986         estimate D2E/DX2                !
 ! R3    R(1,27)                 1.3985         estimate D2E/DX2                !
 ! R4    R(2,3)                  1.2125         estimate D2E/DX2                !
 ! R5    R(2,4)                  1.507          estimate D2E/DX2                !
 ! R6    R(4,5)                  1.429          estimate D2E/DX2                !
 ! R7    R(4,28)                 1.09           estimate D2E/DX2                !
 ! R8    R(4,29)                 1.09           estimate D2E/DX2                !
 ! R9    R(5,6)                  1.3591         estimate D2E/DX2                !
 ! R10   R(6,7)                  1.3883         estimate D2E/DX2                !
 ! R11   R(6,22)                 1.3848         estimate D2E/DX2                !
 ! R12   R(7,8)                  1.3831         estimate D2E/DX2                !
 ! R13   R(7,30)                 1.08           estimate D2E/DX2                !
 ! R14   R(8,9)                  1.3795         estimate D2E/DX2                !
 ! R15   R(8,31)                 1.08           estimate D2E/DX2                !
 ! R16   R(9,10)                 1.3964         estimate D2E/DX2                !
 ! R17   R(9,32)                 1.08           estimate D2E/DX2                !
 ! R18   R(10,11)                1.4793         estimate D2E/DX2                !
 ! R19   R(10,22)                1.3951         estimate D2E/DX2                !
 ! R20   R(11,12)                1.2173         estimate D2E/DX2                !
 ! R21   R(11,13)                1.4616         estimate D2E/DX2                !
 ! R22   R(13,14)                1.3513         estimate D2E/DX2                !
 ! R23   R(13,33)                1.08           estimate D2E/DX2                !
 ! R24   R(14,15)                1.4705         estimate D2E/DX2                !
 ! R25   R(14,34)                1.08           estimate D2E/DX2                !
 ! R26   R(15,16)                1.3994         estimate D2E/DX2                !
 ! R27   R(15,21)                1.3994         estimate D2E/DX2                !
 ! R28   R(16,17)                1.3781         estimate D2E/DX2                !
 ! R29   R(16,35)                1.0801         estimate D2E/DX2                !
 ! R30   R(17,18)                1.3856         estimate D2E/DX2                !
 ! R31   R(17,36)                1.08           estimate D2E/DX2                !
 ! R32   R(18,19)                1.736          estimate D2E/DX2                !
 ! R33   R(18,20)                1.3857         estimate D2E/DX2                !
 ! R34   R(20,21)                1.3781         estimate D2E/DX2                !
 ! R35   R(20,37)                1.0801         estimate D2E/DX2                !
 ! R36   R(21,38)                1.08           estimate D2E/DX2                !
 ! R37   R(22,39)                1.0799         estimate D2E/DX2                !
 ! R38   R(23,24)                1.3789         estimate D2E/DX2                !
 ! R39   R(23,40)                1.08           estimate D2E/DX2                !
 ! R40   R(24,25)                1.3841         estimate D2E/DX2                !
 ! R41   R(24,41)                1.0799         estimate D2E/DX2                !
 ! R42   R(25,26)                1.384          estimate D2E/DX2                !
 ! R43   R(25,42)                1.08           estimate D2E/DX2                !
 ! R44   R(26,27)                1.3789         estimate D2E/DX2                !
 ! R45   R(26,43)                1.08           estimate D2E/DX2                !
 ! R46   R(27,44)                1.0799         estimate D2E/DX2                !
 ! A1    A(2,1,23)             120.1695         estimate D2E/DX2                !
 ! A2    A(2,1,27)             120.1695         estimate D2E/DX2                !
 ! A3    A(23,1,27)            119.6605         estimate D2E/DX2                !
 ! A4    A(1,2,3)              119.9968         estimate D2E/DX2                !
 ! A5    A(1,2,4)              119.9961         estimate D2E/DX2                !
 ! A6    A(3,2,4)              120.007          estimate D2E/DX2                !
 ! A7    A(2,4,5)              109.4677         estimate D2E/DX2                !
 ! A8    A(2,4,28)             109.4765         estimate D2E/DX2                !
 ! A9    A(2,4,29)             109.4705         estimate D2E/DX2                !
 ! A10   A(5,4,28)             109.4692         estimate D2E/DX2                !
 ! A11   A(5,4,29)             109.4667         estimate D2E/DX2                !
 ! A12   A(28,4,29)            109.4766         estimate D2E/DX2                !
 ! A13   A(4,5,6)              117.0025         estimate D2E/DX2                !
 ! A14   A(5,6,7)              119.9775         estimate D2E/DX2                !
 ! A15   A(5,6,22)             119.9848         estimate D2E/DX2                !
 ! A16   A(7,6,22)             120.0371         estimate D2E/DX2                !
 ! A17   A(6,7,8)              120.2382         estimate D2E/DX2                !
 ! A18   A(6,7,30)             119.8858         estimate D2E/DX2                !
 ! A19   A(8,7,30)             119.876          estimate D2E/DX2                !
 ! A20   A(7,8,9)              120.2085         estimate D2E/DX2                !
 ! A21   A(7,8,31)             119.8936         estimate D2E/DX2                !
 ! A22   A(9,8,31)             119.8978         estimate D2E/DX2                !
 ! A23   A(8,9,10)             119.9598         estimate D2E/DX2                !
 ! A24   A(8,9,32)             120.0176         estimate D2E/DX2                !
 ! A25   A(10,9,32)            120.0227         estimate D2E/DX2                !
 ! A26   A(9,10,11)            120.1148         estimate D2E/DX2                !
 ! A27   A(9,10,22)            119.7654         estimate D2E/DX2                !
 ! A28   A(11,10,22)           120.1192         estimate D2E/DX2                !
 ! A29   A(10,11,12)           119.9958         estimate D2E/DX2                !
 ! A30   A(10,11,13)           119.9999         estimate D2E/DX2                !
 ! A31   A(12,11,13)           120.0043         estimate D2E/DX2                !
 ! A32   A(11,13,14)           119.996          estimate D2E/DX2                !
 ! A33   A(11,13,33)           120.0005         estimate D2E/DX2                !
 ! A34   A(14,13,33)           120.0035         estimate D2E/DX2                !
 ! A35   A(13,14,15)           119.9967         estimate D2E/DX2                !
 ! A36   A(13,14,34)           120.0035         estimate D2E/DX2                !
 ! A37   A(15,14,34)           119.9998         estimate D2E/DX2                !
 ! A38   A(14,15,16)           120.1612         estimate D2E/DX2                !
 ! A39   A(14,15,21)           120.1626         estimate D2E/DX2                !
 ! A40   A(16,15,21)           119.6756         estimate D2E/DX2                !
 ! A41   A(15,16,17)           119.8332         estimate D2E/DX2                !
 ! A42   A(15,16,35)           120.0786         estimate D2E/DX2                !
 ! A43   A(17,16,35)           120.0882         estimate D2E/DX2                !
 ! A44   A(16,17,18)           120.1638         estimate D2E/DX2                !
 ! A45   A(16,17,36)           119.9145         estimate D2E/DX2                !
 ! A46   A(18,17,36)           119.9217         estimate D2E/DX2                !
 ! A47   A(17,18,19)           119.8357         estimate D2E/DX2                !
 ! A48   A(17,18,20)           120.3304         estimate D2E/DX2                !
 ! A49   A(19,18,20)           119.8339         estimate D2E/DX2                !
 ! A50   A(18,20,21)           120.1638         estimate D2E/DX2                !
 ! A51   A(18,20,37)           119.9218         estimate D2E/DX2                !
 ! A52   A(21,20,37)           119.9139         estimate D2E/DX2                !
 ! A53   A(15,21,20)           119.831          estimate D2E/DX2                !
 ! A54   A(15,21,38)           120.0785         estimate D2E/DX2                !
 ! A55   A(20,21,38)           120.0884         estimate D2E/DX2                !
 ! A56   A(6,22,10)            119.7885         estimate D2E/DX2                !
 ! A57   A(6,22,39)            120.0994         estimate D2E/DX2                !
 ! A58   A(10,22,39)           120.1098         estimate D2E/DX2                !
 ! A59   A(1,23,24)            119.8253         estimate D2E/DX2                !
 ! A60   A(1,23,40)            120.0872         estimate D2E/DX2                !
 ! A61   A(24,23,40)           120.0875         estimate D2E/DX2                !
 ! A62   A(23,24,25)           120.1672         estimate D2E/DX2                !
 ! A63   A(23,24,41)           119.9172         estimate D2E/DX2                !
 ! A64   A(25,24,41)           119.9156         estimate D2E/DX2                !
 ! A65   A(24,25,26)           120.354          estimate D2E/DX2                !
 ! A66   A(24,25,42)           119.8187         estimate D2E/DX2                !
 ! A67   A(26,25,42)           119.8272         estimate D2E/DX2                !
 ! A68   A(25,26,27)           120.1716         estimate D2E/DX2                !
 ! A69   A(25,26,43)           119.9185         estimate D2E/DX2                !
 ! A70   A(27,26,43)           119.9093         estimate D2E/DX2                !
 ! A71   A(1,27,26)            119.8186         estimate D2E/DX2                !
 ! A72   A(1,27,44)            120.091          estimate D2E/DX2                !
 ! A73   A(26,27,44)           120.0875         estimate D2E/DX2                !
 ! D1    D(23,1,2,3)             0.0017         estimate D2E/DX2                !
 ! D2    D(23,1,2,4)           179.9983         estimate D2E/DX2                !
 ! D3    D(27,1,2,3)           179.7273         estimate D2E/DX2                !
 ! D4    D(27,1,2,4)            -0.2761         estimate D2E/DX2                !
 ! D5    D(2,1,23,24)         -179.9945         estimate D2E/DX2                !
 ! D6    D(2,1,23,40)           -0.022          estimate D2E/DX2                !
 ! D7    D(27,1,23,24)           0.2786         estimate D2E/DX2                !
 ! D8    D(27,1,23,40)        -179.749          estimate D2E/DX2                !
 ! D9    D(2,1,27,26)          179.6758         estimate D2E/DX2                !
 ! D10   D(2,1,27,44)            0.293          estimate D2E/DX2                !
 ! D11   D(23,1,27,26)          -0.5972         estimate D2E/DX2                !
 ! D12   D(23,1,27,44)        -179.9801         estimate D2E/DX2                !
 ! D13   D(1,2,4,5)           -179.9995         estimate D2E/DX2                !
 ! D14   D(1,2,4,28)           -60.0009         estimate D2E/DX2                !
 ! D15   D(1,2,4,29)            60.0086         estimate D2E/DX2                !
 ! D16   D(3,2,4,5)             -0.0029         estimate D2E/DX2                !
 ! D17   D(3,2,4,28)           119.9957         estimate D2E/DX2                !
 ! D18   D(3,2,4,29)          -119.9948         estimate D2E/DX2                !
 ! D19   D(2,4,5,6)           -179.9971         estimate D2E/DX2                !
 ! D20   D(28,4,5,6)            59.9997         estimate D2E/DX2                !
 ! D21   D(29,4,5,6)           -60.0029         estimate D2E/DX2                !
 ! D22   D(4,5,6,7)              0.0007         estimate D2E/DX2                !
 ! D23   D(4,5,6,22)           179.7241         estimate D2E/DX2                !
 ! D24   D(5,6,7,8)           -179.9995         estimate D2E/DX2                !
 ! D25   D(5,6,7,30)            -0.0192         estimate D2E/DX2                !
 ! D26   D(22,6,7,8)             0.2772         estimate D2E/DX2                !
 ! D27   D(22,6,7,30)         -179.7424         estimate D2E/DX2                !
 ! D28   D(5,6,22,10)          179.707          estimate D2E/DX2                !
 ! D29   D(5,6,22,39)            0.258          estimate D2E/DX2                !
 ! D30   D(7,6,22,10)           -0.5697         estimate D2E/DX2                !
 ! D31   D(7,6,22,39)          179.9813         estimate D2E/DX2                !
 ! D32   D(6,7,8,9)              0.0194         estimate D2E/DX2                !
 ! D33   D(6,7,8,31)           179.9994         estimate D2E/DX2                !
 ! D34   D(30,7,8,9)          -179.9609         estimate D2E/DX2                !
 ! D35   D(30,7,8,31)            0.019          estimate D2E/DX2                !
 ! D36   D(7,8,9,10)            -0.0195         estimate D2E/DX2                !
 ! D37   D(7,8,9,32)           179.9515         estimate D2E/DX2                !
 ! D38   D(31,8,9,10)         -179.9994         estimate D2E/DX2                !
 ! D39   D(31,8,9,32)           -0.0285         estimate D2E/DX2                !
 ! D40   D(8,9,10,11)          179.9965         estimate D2E/DX2                !
 ! D41   D(8,9,10,22)           -0.2741         estimate D2E/DX2                !
 ! D42   D(32,9,10,11)           0.0256         estimate D2E/DX2                !
 ! D43   D(32,9,10,22)         179.7549         estimate D2E/DX2                !
 ! D44   D(9,10,11,12)         179.9974         estimate D2E/DX2                !
 ! D45   D(9,10,11,13)           0.0035         estimate D2E/DX2                !
 ! D46   D(22,10,11,12)          0.269          estimate D2E/DX2                !
 ! D47   D(22,10,11,13)       -179.7249         estimate D2E/DX2                !
 ! D48   D(9,10,22,6)            0.5681         estimate D2E/DX2                !
 ! D49   D(9,10,22,39)        -179.983          estimate D2E/DX2                !
 ! D50   D(11,10,22,6)        -179.7026         estimate D2E/DX2                !
 ! D51   D(11,10,22,39)         -0.2536         estimate D2E/DX2                !
 ! D52   D(10,11,13,14)        179.9968         estimate D2E/DX2                !
 ! D53   D(10,11,13,33)         -0.004          estimate D2E/DX2                !
 ! D54   D(12,11,13,14)          0.0029         estimate D2E/DX2                !
 ! D55   D(12,11,13,33)       -179.9979         estimate D2E/DX2                !
 ! D56   D(11,13,14,15)        179.9955         estimate D2E/DX2                !
 ! D57   D(11,13,14,34)         -0.0008         estimate D2E/DX2                !
 ! D58   D(33,13,14,15)         -0.0037         estimate D2E/DX2                !
 ! D59   D(33,13,14,34)       -180.0            estimate D2E/DX2                !
 ! D60   D(13,14,15,16)        179.9995         estimate D2E/DX2                !
 ! D61   D(13,14,15,21)         -0.2704         estimate D2E/DX2                !
 ! D62   D(34,14,15,16)         -0.0042         estimate D2E/DX2                !
 ! D63   D(34,14,15,21)        179.7259         estimate D2E/DX2                !
 ! D64   D(14,15,16,17)       -179.9953         estimate D2E/DX2                !
 ! D65   D(14,15,16,35)         -0.0143         estimate D2E/DX2                !
 ! D66   D(21,15,16,17)          0.2733         estimate D2E/DX2                !
 ! D67   D(21,15,16,35)       -179.7456         estimate D2E/DX2                !
 ! D68   D(14,15,21,20)        179.7189         estimate D2E/DX2                !
 ! D69   D(14,15,21,38)          0.2504         estimate D2E/DX2                !
 ! D70   D(16,15,21,20)         -0.5497         estimate D2E/DX2                !
 ! D71   D(16,15,21,38)        179.9818         estimate D2E/DX2                !
 ! D72   D(15,16,17,18)          0.0002         estimate D2E/DX2                !
 ! D73   D(15,16,17,36)        179.9797         estimate D2E/DX2                !
 ! D74   D(35,16,17,18)       -179.9809         estimate D2E/DX2                !
 ! D75   D(35,16,17,36)         -0.0013         estimate D2E/DX2                !
 ! D76   D(16,17,18,19)       -179.9763         estimate D2E/DX2                !
 ! D77   D(16,17,18,20)         -0.0001         estimate D2E/DX2                !
 ! D78   D(36,17,18,19)          0.0442         estimate D2E/DX2                !
 ! D79   D(36,17,18,20)       -179.9797         estimate D2E/DX2                !
 ! D80   D(17,18,20,21)         -0.279          estimate D2E/DX2                !
 ! D81   D(17,18,20,37)        179.9946         estimate D2E/DX2                !
 ! D82   D(19,18,20,21)        179.6972         estimate D2E/DX2                !
 ! D83   D(19,18,20,37)         -0.0293         estimate D2E/DX2                !
 ! D84   D(18,20,21,15)          0.5524         estimate D2E/DX2                !
 ! D85   D(18,20,21,38)       -179.9791         estimate D2E/DX2                !
 ! D86   D(37,20,21,15)       -179.7211         estimate D2E/DX2                !
 ! D87   D(37,20,21,38)         -0.2527         estimate D2E/DX2                !
 ! D88   D(1,23,24,25)           0.014          estimate D2E/DX2                !
 ! D89   D(1,23,24,41)         179.9992         estimate D2E/DX2                !
 ! D90   D(40,23,24,25)       -179.9584         estimate D2E/DX2                !
 ! D91   D(40,23,24,41)          0.0267         estimate D2E/DX2                !
 ! D92   D(23,24,25,26)          0.0096         estimate D2E/DX2                !
 ! D93   D(23,24,25,42)        179.9777         estimate D2E/DX2                !
 ! D94   D(41,24,25,26)       -179.9756         estimate D2E/DX2                !
 ! D95   D(41,24,25,42)         -0.0074         estimate D2E/DX2                !
 ! D96   D(24,25,26,27)         -0.3316         estimate D2E/DX2                !
 ! D97   D(24,25,26,43)        179.9742         estimate D2E/DX2                !
 ! D98   D(42,25,26,27)        179.7003         estimate D2E/DX2                !
 ! D99   D(42,25,26,43)          0.0061         estimate D2E/DX2                !
 ! D100  D(25,26,27,1)           0.6238         estimate D2E/DX2                !
 ! D101  D(25,26,27,44)       -179.9933         estimate D2E/DX2                !
 ! D102  D(43,26,27,1)        -179.682          estimate D2E/DX2                !
 ! D103  D(43,26,27,44)         -0.2991         estimate D2E/DX2                !
 --------------------------------------------------------------------------------
 Trust Radius=3.00D-01 FncErr=1.00D-07 GrdErr=1.00D-06 EigMax=2.50D+02 EigMin=1.00D-04
 Number of steps in this run=    232 maximum allowed number of steps=    264.
 GradGradGradGradGradGradGradGradGradGradGradGradGradGradGradGradGradGrad

                          Input orientation:                          
 ---------------------------------------------------------------------
 Center     Atomic      Atomic             Coordinates (Angstroms)
 Number     Number       Type             X           Y           Z
 ---------------------------------------------------------------------
      1          6           0        6.976700    0.000800   -0.000900
      2          6           0        5.668400    0.674900   -0.000700
      3          8           0        5.610500    1.886000   -0.001000
      4          6           0        4.400900   -0.140200   -0.000200
      5          8           0        3.271600    0.735400   -0.000100
      6          6           0        2.041900    0.156500    0.000400
      7          6           0        1.926500   -1.227000    0.000800
      8          6           0        0.677800   -1.821800    0.001300
      9          6           0       -0.461500   -1.044000    0.001000
     10          6           0       -0.355300    0.348400    0.000600
     11          6           0       -1.574800    1.185800    0.000200
     12          8           0       -1.479700    2.399400   -0.000100
     13          6           0       -2.893800    0.556000    0.000300
     14          6           0       -4.007700    1.321000    0.000000
     15          6           0       -5.334700    0.687400    0.000000
     16          6           0       -6.490500    1.476300   -0.000300
     17          6           0       -7.730700    0.875400   -0.000200
     18          6           0       -7.834900   -0.506300    0.000200
     19         17           0       -9.401500   -1.254300   -0.000300
     20          6           0       -6.694900   -1.294000    0.000500
     21          6           0       -5.447900   -0.707400   -0.005400
     22          6           0        0.904900    0.946900    0.006300
     23          6           0        8.155300    0.753700   -0.001400
     24          6           0        9.377200    0.114800   -0.001700
     25          6           0        9.439100   -1.267900   -0.001800
     26          6           0        8.277300   -2.020000   -0.001800
     27          6           0        7.047700   -1.395900    0.005200
     28          1           0        4.372900   -0.769100   -0.890000
     29          1           0        4.373400   -0.768600    0.890000
     30          1           0        2.814900   -1.841100    0.000400
     31          1           0        0.594500   -2.898600    0.001600
     32          1           0       -1.435000   -1.511700    0.000600
     33          1           0       -2.978100   -0.520700    0.000600
     34          1           0       -3.923400    2.397700   -0.000300
     35          1           0       -6.410700    2.553400   -0.000300
     36          1           0       -8.623600    1.483000   -0.000100
     37          1           0       -6.783800   -2.370400    0.000900
     38          1           0       -4.560200   -1.322500   -0.005500
     39          1           0        0.993500    2.023200    0.006300
     40          1           0        8.108500    1.832700   -0.002000
     41          1           0       10.288200    0.694700   -0.002100
     42          1           0       10.399200   -1.762500   -0.002400
     43          1           0        8.333800   -3.098500   -0.002300
     44          1           0        6.142000   -1.984100    0.005300
 ---------------------------------------------------------------------
                    Distance matrix (angstroms):
                    1          2          3          4          5
     1  C    0.000000
     2  C    1.471754   0.000000
     3  O    2.328193   1.212483   0.000000
     4  C    2.579656   1.506965   2.359792   0.000000
     5  O    3.777222   2.397564   2.606594   1.428984   0.000000
     6  C    4.937256   3.663365   3.965612   2.377585   1.359150
     7  C    5.197309   4.197504   4.823135   2.702553   2.379140
     8  C    6.557287   5.580287   6.170844   4.085248   3.642399
     9  C    7.511220   6.366341   6.741965   4.945684   4.135493
    10  C    7.340235   6.032542   6.160762   4.781231   3.647489
    11  C    8.633214   7.261196   7.219336   6.121051   4.867284
    12  O    8.789993   7.353179   7.108763   6.405546   5.034257
    13  C    9.886102   8.563026   8.607672   7.327847   6.168010
    14  C   11.063452   9.697647   9.634781   8.534615   7.302817
    15  C   12.330531  11.003107  11.010633   9.770713   8.606434
    16  C   13.547789  12.185282  12.107934  11.010707   9.790175
    17  C   14.733382  13.400600  13.379422  12.174036  11.003191
    18  C   14.820278  13.554864  13.656569  12.241276  11.175695
    19  Cl  16.426220  15.192883  15.336937  13.847291  12.828342
    20  C   13.732777  12.519096  12.709653  11.155628  10.171017
    21  C   12.444768  11.201915  11.358431   9.865121   8.838064
    22  C    6.145072   4.771265   4.798399   3.661126   2.376140
    23  C    1.398555   2.488148   2.785338   3.859349   4.883734
    24  C    2.403206   3.750855   4.162353   4.982829   6.137059
    25  C    2.770021   4.241775   4.960369   5.162864   6.484695
    26  C    2.403163   3.750846   4.729552   4.308147   5.713953
    27  C    1.398517   2.488115   3.582799   2.929567   4.336058
    28  H    2.857100   2.134083   3.061296   1.089974   2.065987
    29  H    2.857070   2.134025   3.061241   1.089999   2.065976
    30  H    4.551173   3.804303   4.659040   2.325609   2.616663
    31  H    7.009922   6.205995   6.932003   4.700793   4.513626
    32  H    8.546599   7.432329   7.821984   5.994893   5.215510
    33  H    9.968451   8.728770   8.919431   7.388804   6.374679
    34  H   11.160525   9.745289   9.547622   8.702580   7.384529
    35  H   13.628582  12.224296  12.039712  11.142090   9.851500
    36  H   15.670554  14.314828  14.239804  13.125257  11.918670
    37  H   13.963307  12.819171  13.104794  11.404881  10.524118
    38  H   11.612545  10.421799  10.664785   9.038760   8.097658
    39  H    6.315761   4.865455   4.619044   4.036176   2.616908
    40  H    2.153330   2.700850   2.498569   4.199838   4.959806
    41  H    3.383420   4.619843   4.827015   5.946206   7.016718
    42  H    3.850031   5.321785   6.020233   6.213812   7.552628
    43  H    3.383398   4.619838   5.679930   4.921305   6.350170
    44  H    2.153274   2.700854   3.906431   2.536026   3.954100
                    6          7          8          9         10
     6  C    0.000000
     7  C    1.388305   0.000000
     8  C    2.403007   1.383127   0.000000
     9  C    2.776367   2.395002   1.379484   0.000000
    10  C    2.404869   2.772814   2.403552   1.396444   0.000000
    11  C    3.760316   4.252141   3.757641   2.492277   1.479331
    12  O    4.175197   4.975236   4.740605   3.590785   2.338991
    13  C    4.951842   5.139492   4.290718   2.911371   2.546975
    14  C    6.160659   6.458098   5.641906   4.262483   3.779679
    15  C    7.395680   7.509324   6.515078   5.171637   4.990926
    16  C    8.633871   8.840459   7.890627   6.534581   6.238016
    17  C    9.799006   9.883400   8.830502   7.518335   7.394204
    18  C    9.899014   9.787969   8.613745   7.392980   7.528275
    19  Cl  11.530037  11.328033  10.095264   8.942473   9.187077
    20  C    8.856389   8.621660   7.391568   6.238411   6.548893
    21  C    7.539460   7.392685   6.226245   4.997752   5.200896
    22  C    1.384751   2.401986   2.778003   2.414697   1.395112
    23  C    6.142500   6.536140   7.908616   8.802328   8.520246
    24  C    7.335419   7.570559   8.912350   9.906707   9.735303
    25  C    7.533093   7.512712   8.778792   9.903132   9.926868
    26  C    6.604345   6.400118   7.602085   8.793134   8.951598
    27  C    5.240993   5.123986   6.384123   7.517442   7.605722
    28  H    2.661411   2.643496   3.944155   4.923502   4.939418
    29  H    2.661408   2.643507   3.944170   4.923660   4.939567
    30  H    2.141946   1.079988   2.137187   3.371968   3.852801
    31  H    3.380622   2.137398   1.080017   2.134169   3.383065
    32  H    3.856388   3.373535   2.135436   1.080021   2.150750
    33  H    5.065471   4.955195   3.880524   2.570432   2.763044
    34  H    6.372424   6.881844   6.243014   4.881603   4.114726
    35  H    8.785874   9.154252   8.330019   6.952285   6.444369
    36  H   10.747674  10.892599   9.871056   8.544332   8.345784
    37  H    9.180316   8.785026   7.481740   6.459939   6.979791
    38  H    6.765737   6.487406   5.261748   4.108156   4.524724
    39  H    2.140969   3.381467   3.857942   3.394815   2.150407
    40  H    6.293909   6.897746   8.280742   9.039929   8.592966
    41  H    8.263845   8.579683   9.934414  10.889405  10.649133
    42  H    8.574791   8.489606   9.721582  10.884441  10.959707
    43  H    7.083999   6.675029   7.761721   9.032070   9.347812
    44  H    4.625258   4.282950   5.466611   6.670084   6.903295
                   11         12         13         14         15
    11  C    0.000000
    12  O    1.217320   0.000000
    13  C    1.461646   2.323317   0.000000
    14  C    2.436654   2.748405   1.351295   0.000000
    15  C    3.792789   4.218053   2.444434   1.470503   0.000000
    16  C    4.924276   5.095118   3.712574   2.487652   1.399370
    17  C    6.163721   6.434095   4.847434   3.749572   2.403364
    18  C    6.484756   6.987965   5.054003   4.241048   2.770545
    19  Cl   8.198251   8.723786   6.754802   5.977060   4.506558
    20  C    5.689010   6.390580   4.227394   3.749569   2.403350
    21  C    4.311049   5.039727   2.849498   2.487692   1.399396
    22  C    2.491189   2.792152   3.818764   4.926828   6.244997
    23  C    9.739690   9.774536  11.050869  12.176223  13.490163
    24  C   11.004242  11.094669  12.278929  13.439139  14.723039
    25  C   11.283911  11.518215  12.467038  13.693752  14.902630
    26  C   10.360552  10.711216  11.464260  12.731202  13.878637
    27  C    9.000706   9.333857  10.131306  11.384351  12.556432
    28  H    6.323703   6.714480   7.439990   8.683034   9.856520
    29  H    6.323963   6.714706   7.440318   8.683396   9.856939
    30  H    5.332128   6.035348   6.191554   7.519757   8.532836
    31  H    4.624737   5.689562   4.909430   6.243819   6.929272
    32  H    2.701120   3.911355   2.530510   3.826614   4.477019
    33  H    2.209388   3.282101   1.079995   2.109961   2.648220
    34  H    2.642844   2.443701   2.109961   1.079995   2.217407
    35  H    5.025561   4.933404   4.044526   2.700596   2.154004
    36  H    7.055063   7.202437   5.804303   4.618742   3.383762
    37  H    6.307158   7.133335   4.867845   4.618784   3.383790
    38  H    3.899258   4.831361   2.511112   2.700626   2.153968
    39  H    2.701378   2.501657   4.154975   5.050260   6.467652
    40  H    9.704885   9.604933  11.076126  12.127001  13.491899
    41  H   11.873161  11.890731  13.182730  14.309613  15.622902
    42  H   12.331632  12.586885  13.493676  14.733185  15.923493
    43  H   10.795165  11.248631  11.807387  13.108951  14.183122
    44  H    8.342499   8.792350   9.386044  10.674274  11.783530
                   16         17         18         19         20
    16  C    0.000000
    17  C    1.378106   0.000000
    18  C    2.395436   1.385624   0.000000
    19  Cl   3.991253   2.706879   1.736013   0.000000
    20  C    2.777830   2.403992   1.385666   2.706891   0.000000
    21  C    2.419832   2.777851   2.395463   3.991250   1.378094
    22  C    7.414327   8.635898   8.859793  10.538843   7.923296
    23  C   14.663615  15.886466  16.039766  17.671256  14.990714
    24  C   15.926004  17.124799  17.223303  18.828542  16.133726
    25  C   16.164244  17.303057  17.290781  18.840605  16.134021
    26  C   15.176035  16.267741  16.183148  17.695374  14.989792
    27  C   13.839524  14.951921  14.909165  16.449810  13.742979
    28  H   11.128650  12.247173  12.243035  13.811628  11.115966
    29  H   11.129085  12.247630  12.243494  13.812183  11.116408
    30  H    9.879049  10.889860  10.733123  12.230485   9.525524
    31  H    8.326883   9.140680   8.762299  10.130338   7.463920
    32  H    5.872497   6.733059   6.478391   7.970657   5.264403
    33  H    4.040416   4.953413   4.856821   6.465156   3.796392
    34  H    2.727449   4.100357   4.871658   6.583820   4.616261
    35  H    1.080052   2.134967   3.374924   4.841845   3.857882
    36  H    2.133111   1.080022   2.139944   2.845688   3.381067
    37  H    3.857866   3.381100   2.140019   2.845704   1.080065
    38  H    3.399907   3.857831   3.374889   4.841783   2.134899
    39  H    7.503959   8.799384   9.183630  10.899453   8.373491
    40  H   14.603350  15.868103  16.114060  17.780036  15.130000
    41  H   16.796895  18.019806  18.162851  19.785927  17.099141
    42  H   17.197436  18.320802  18.277321  19.807221  17.100519
    43  H   15.514144  16.548717  16.375175  17.830927  15.136646
    44  H   13.097880  14.164342  14.054809  15.560624  12.855437
                   21         22         23         24         25
    21  C    0.000000
    22  C    6.564672   0.000000
    23  C   13.681443   7.252978   0.000000
    24  C   14.847883   8.513068   1.378852   0.000000
    25  C   14.897548   8.816914   2.394788   1.384085   0.000000
    26  C   13.787822   7.947002   2.776382   2.401489   1.383992
    27  C   12.514558   6.574398   2.418181   2.776478   2.394833
    28  H    9.860752   3.971780   4.173138   5.158815   5.167599
    29  H    9.862222   3.969176   4.173099   5.158831   5.167777
    30  H    8.340214   3.379509   5.937412   6.847578   6.648954
    31  H    6.427441   3.858010   8.396726   9.285279   8.993672
    32  H    4.092713   3.394095   9.854232  10.933855  10.876833
    33  H    2.476854   4.151093  11.206101  12.371633  12.439661
    34  H    3.459158   5.041562  12.190067  13.495095  13.856155
    35  H    3.399974   7.489919  14.676760  15.975123  16.303941
    36  H    3.857843   9.543571  16.794742  18.052722  18.270977
    37  H    2.133129   8.373805  15.262264  16.350968  16.260320
    38  H    1.079981   5.917570  12.883888  14.011316  13.999407
    39  H    6.996281   1.079941   7.273450   8.598167   9.064191
    40  H   13.792320   7.257862   1.080015   2.135598   3.374050
    41  H   15.798441   9.386692   2.133716   1.079910   2.138404
    42  H   15.882186   9.873331   3.371402   2.137461   1.080010
    43  H   13.987588   8.458953   3.856333   3.378458   2.138407
    44  H   11.660011   6.001498   3.398378   3.856417   3.373998
                   26         27         28         29         30
    26  C    0.000000
    27  C    1.378937   0.000000
    28  H    4.194996   2.889432   0.000000
    29  H    4.195443   2.885872   1.780000   0.000000
    30  H    5.465329   4.256151   2.090301   2.090590   0.000000
    31  H    7.732876   6.625852   4.427869   4.427893   2.459367
    32  H    9.725592   8.483492   5.922527   5.922900   4.262646
    33  H   11.354820  10.063929   7.408918   7.409254   5.941574
    34  H   12.975868  11.608465   8.924617   8.924964   7.960660
    35  H   15.383541  14.025888  11.318860  11.319237  10.218773
    36  H   17.260111  15.933541  13.220170  13.220590  11.911714
    37  H   15.065176  13.865787  11.306185  11.306608   9.613283
    38  H   12.856435  11.608137   8.993824   8.995440   7.393313
    39  H    8.330743   6.952955   4.474443   4.472001   4.272043
    40  H    3.856396   3.398412   4.638169   4.638254   6.443525
    41  H    3.378360   3.856359   6.158072   6.158080   7.891800
    42  H    2.137467   3.371499   6.171788   6.172073   7.584708
    43  H    1.079979   2.133766   4.680047   4.680748   5.660329
    44  H    2.135614   1.079941   2.325404   2.321224   3.330175
                   31         32         33         34         35
    31  H    0.000000
    32  H    2.458122   0.000000
    33  H    4.291606   1.833913   0.000000
    34  H    6.961481   4.634171   3.067679   0.000000
    35  H    8.876775   6.425156   4.607910   2.492168   0.000000
    36  H   10.206458   7.787439   5.990533   4.788377   2.458187
    37  H    7.397182   5.417290   4.231400   5.560276   4.937916
    38  H    5.390276   3.130928   1.773686   3.774312   4.294995
    39  H    4.937949   4.288725   4.716468   4.931146   7.423162
    40  H    8.879494  10.112537  11.333631  12.045159  14.537076
    41  H   10.338261  11.929025  13.321859  14.313273  16.802025
    42  H    9.870303  11.836858  13.434814  14.914561  17.355107
    43  H    7.741882   9.896838  11.601903  13.433063  15.790638
    44  H    5.622373   7.591713   9.236763  10.977818  13.347630
                   36         37         38         39         40
    36  H    0.000000
    37  H    4.270077   0.000000
    38  H    4.937821   2.458156   0.000000
    39  H    9.632262   8.932533   6.483628   0.000000
    40  H   16.735754  15.474064  13.055698   7.117555   0.000000
    41  H   18.928222  17.344971  14.984795   9.389166   2.458889
    42  H   19.297673  17.193750  14.965870  10.138974   4.262953
    43  H   17.565408  15.135124  13.015737   8.950525   4.936344
    44  H   15.167193  12.931572  10.722636   6.524225   4.293616
                   41         42         43         44
    41  H    0.000000
    42  H    2.459706   0.000000
    43  H    4.267089   2.459832   0.000000
    44  H    4.936294   4.262971   2.458848   0.000000
 Stoichiometry    C23H17ClO3
 Framework group  C1[X(C23H17ClO3)]
 Deg. of freedom   126
 Full point group                 C1      NOp   1
 Largest Abelian subgroup         C1      NOp   1
 Largest concise Abelian subgroup C1      NOp   1
                         Standard orientation:                         
 ---------------------------------------------------------------------
 Center     Atomic      Atomic             Coordinates (Angstroms)
 Number     Number       Type             X           Y           Z
 ---------------------------------------------------------------------
      1          6           0       -6.887213    0.053837    0.000902
      2          6           0       -5.575230    0.720740    0.000702
      3          8           0       -5.510677    1.931504    0.001002
      4          6           0       -4.312227   -0.101311    0.000202
      5          8           0       -3.178134    0.768072    0.000102
      6          6           0       -1.951632    0.182425   -0.000398
      7          6           0       -1.843835   -1.201688   -0.000798
      8          6           0       -0.598421   -1.803339   -0.001298
      9          6           0        0.545135   -1.031809   -0.000998
     10          6           0        0.446586    0.361153   -0.000598
     11          6           0        1.670668    1.191841   -0.000198
     12          8           0        1.582236    2.405945    0.000102
     13          6           0        2.986188    0.554804   -0.000298
     14          6           0        4.104274    1.313674    0.000002
     15          6           0        5.427773    0.672793    0.000002
     16          6           0        6.587889    1.455332    0.000302
     17          6           0        7.824769    0.847628    0.000202
     18          6           0        7.921377   -0.534624   -0.000198
     19         17           0        9.483845   -1.291219    0.000302
     20          6           0        6.777067   -1.316049   -0.000498
     21          6           0        5.533309   -0.722608    0.005402
     22          6           0       -0.810307    0.966567   -0.006298
     23          6           0       -8.061659    0.813201    0.001402
     24          6           0       -9.287051    0.181023    0.001702
     25          6           0       -9.356546   -1.201316    0.001802
     26          6           0       -8.198895   -1.959787    0.001802
     27          6           0       -6.965885   -1.342452   -0.005198
     28          1           0       -4.287682   -0.730355    0.890002
     29          1           0       -4.288179   -0.729852   -0.889998
     30          1           0       -2.735595   -1.810898   -0.000398
     31          1           0       -0.521038   -2.880580   -0.001598
     32          1           0        1.516051   -1.504850   -0.000598
     33          1           0        3.064572   -0.522342   -0.000598
     34          1           0        4.025890    2.390821    0.000302
     35          1           0        6.514008    2.532854    0.000302
     36          1           0        8.720994    1.450313    0.000102
     37          1           0        6.860053   -2.392921   -0.000898
     38          1           0        4.642243   -1.332822    0.005502
     39          1           0       -0.892993    2.043338   -0.006298
     40          1           0       -8.008932    1.891927    0.002002
     41          1           0      -10.194851    0.765919    0.002102
     42          1           0      -10.319348   -1.690634    0.002402
     43          1           0       -8.261319   -3.037961    0.002302
     44          1           0       -6.063430   -1.935618   -0.005298
 ---------------------------------------------------------------------
 Rotational constants (GHZ):           0.8771144           0.0370929           0.0355959
 Standard basis: 6-311++G(d,p) (5D, 7F)
 There are   748 symmetry adapted cartesian basis functions of A   symmetry.
 There are   721 symmetry adapted basis functions of A   symmetry.
   721 basis functions,  1142 primitive gaussians,   748 cartesian basis functions
    98 alpha electrons       98 beta electrons
       nuclear repulsion energy      2117.9582150528 Hartrees.
 NAtoms=   44 NActive=   44 NUniq=   44 SFac= 1.00D+00 NAtFMM=   60 NAOKFM=F Big=F
 Integral buffers will be    131072 words long.
 Raffenetti 2 integral format.
 Two-electron integral symmetry is turned on.
 R6APFD:  NTU= -4 IXU= 1 FactS= 1.050
 Nuclear repulsion after empirical dispersion term =     2117.9264151093 Hartrees.
 One-electron integrals computed using PRISM.
 NBasis=   721 RedAO= T EigKep=  1.27D-06  NBF=   721
 NBsUse=   711 1.00D-06 EigRej=  8.89D-07 NBFU=   711
 ExpMin= 3.60D-02 ExpMax= 1.06D+05 ExpMxC= 3.62D+03 IAcc=3 IRadAn=         5 AccDes= 0.00D+00
 Harris functional with IExCor= 1009 and IRadAn=       5 diagonalized for initial guess.
 HarFok:  IExCor= 1009 AccDes= 0.00D+00 IRadAn=         5 IDoV= 1 UseB2=F ITyADJ=14
 ICtDFT=  3500011 ScaDFX=  1.000000  1.000000  1.000000  1.000000
 FoFCou: FMM=F IPFlag=           0 FMFlag=      100000 FMFlg1=           0
         NFxFlg=           0 DoJE=T BraDBF=F KetDBF=T FulRan=T
         wScrn=  0.000000 ICntrl=       500 IOpCl=  0 I1Cent=   200000004 NGrid=           0
         NMat0=    1 NMatS0=      1 NMatT0=    0 NMatD0=    1 NMtDS0=    0 NMtDT0=    0
 Petite list used in FoFCou.
 Requested convergence on RMS density matrix=1.00D-08 within  32 cycles.
 Requested convergence on MAX density matrix=1.00D-06.
 Requested convergence on             energy=1.00D-06.
 No special actions if energy rises.
 SCF Done:  E(RM08HX) =  -1572.49496798     A.U. after   16 cycles
            NFock= 16  Conv=0.46D-08     -V/T= 2.0035
 QCSCF skips out because SCF is already converged.

 **********************************************************************

            Population analysis using the SCF Density.

 **********************************************************************

 Orbital symmetries:
       Occupied  (A) (A) (A) (A) (A) (A) (A) (A) (A) (A) (A) (A)
                 (A) (A) (A) (A) (A) (A) (A) (A) (A) (A) (A) (A)
                 (A) (A) (A) (A) (A) (A) (A) (A) (A) (A) (A) (A)
                 (A) (A) (A) (A) (A) (A) (A) (A) (A) (A) (A) (A)
                 (A) (A) (A) (A) (A) (A) (A) (A) (A) (A) (A) (A)
                 (A) (A) (A) (A) (A) (A) (A) (A) (A) (A) (A) (A)
                 (A) (A) (A) (A) (A) (A) (A) (A) (A) (A) (A) (A)
                 (A) (A) (A) (A) (A) (A) (A) (A) (A) (A) (A) (A)
                 (A) (A)
       Virtual   (A) (A) (A) (A) (A) (A) (A) (A) (A) (A) (A) (A)
                 (A) (A) (A) (A) (A) (A) (A) (A) (A) (A) (A) (A)
                 (A) (A) (A) (A) (A) (A) (A) (A) (A) (A) (A) (A)
                 (A) (A) (A) (A) (A) (A) (A) (A) (A) (A) (A) (A)
                 (A) (A) (A) (A) (A) (A) (A) (A) (A) (A) (A) (A)
                 (A) (A) (A) (A) (A) (A) (A) (A) (A) (A) (A) (A)
                 (A) (A) (A) (A) (A) (A) (A) (A) (A) (A) (A) (A)
                 (A) (A) (A) (A) (A) (A) (A) (A) (A) (A) (A) (A)
                 (A) (A) (A) (A) (A) (A) (A) (A) (A) (A) (A) (A)
                 (A) (A) (A) (A) (A) (A) (A) (A) (A) (A) (A) (A)
                 (A) (A) (A) (A) (A) (A) (A) (A) (A) (A) (A) (A)
                 (A) (A) (A) (A) (A) (A) (A) (A) (A) (A) (A) (A)
                 (A) (A) (A) (A) (A) (A) (A) (A) (A) (A) (A) (A)
                 (A) (A) (A) (A) (A) (A) (A) (A) (A) (A) (A) (A)
                 (A) (A) (A) (A) (A) (A) (A) (A) (A) (A) (A) (A)
                 (A) (A) (A) (A) (A) (A) (A) (A) (A) (A) (A) (A)
                 (A) (A) (A) (A) (A) (A) (A) (A) (A) (A) (A) (A)
                 (A) (A) (A) (A) (A) (A) (A) (A) (A) (A) (A) (A)
                 (A) (A) (A) (A) (A) (A) (A) (A) (A) (A) (A) (A)
                 (A) (A) (A) (A) (A) (A) (A) (A) (A) (A) (A) (A)
                 (A) (A) (A) (A) (A) (A) (A) (A) (A) (A) (A) (A)
                 (A) (A) (A) (A) (A) (A) (A) (A) (A) (A) (A) (A)
                 (A) (A) (A) (A) (A) (A) (A) (A) (A) (A) (A) (A)
                 (A) (A) (A) (A) (A) (A) (A) (A) (A) (A) (A) (A)
                 (A) (A) (A) (A) (A) (A) (A) (A) (A) (A) (A) (A)
                 (A) (A) (A) (A) (A) (A) (A) (A) (A) (A) (A) (A)
                 (A) (A) (A) (A) (A) (A) (A) (A) (A) (A) (A) (A)
                 (A) (A) (A) (A) (A) (A) (A) (A) (A) (A) (A) (A)
                 (A) (A) (A) (A) (A) (A) (A) (A) (A) (A) (A) (A)
                 (A) (A) (A) (A) (A) (A) (A) (A) (A) (A) (A) (A)
                 (A) (A) (A) (A) (A) (A) (A) (A) (A) (A) (A) (A)
                 (A) (A) (A) (A) (A) (A) (A) (A) (A) (A) (A) (A)
                 (A) (A) (A) (A) (A) (A) (A) (A) (A) (A) (A) (A)
                 (A) (A) (A) (A) (A) (A) (A) (A) (A) (A) (A) (A)
                 (A) (A) (A) (A) (A) (A) (A) (A) (A) (A) (A) (A)
                 (A) (A) (A) (A) (A) (A) (A) (A) (A) (A) (A) (A)
                 (A) (A) (A) (A) (A) (A) (A) (A) (A) (A) (A) (A)
                 (A) (A) (A) (A) (A) (A) (A) (A) (A) (A) (A) (A)
                 (A) (A) (A) (A) (A) (A) (A) (A) (A) (A) (A) (A)
                 (A) (A) (A) (A) (A) (A) (A) (A) (A) (A) (A) (A)
                 (A) (A) (A) (A) (A) (A) (A) (A) (A) (A) (A) (A)
                 (A) (A) (A) (A) (A) (A) (A) (A) (A) (A) (A) (A)
                 (A) (A) (A) (A) (A) (A) (A) (A) (A) (A) (A) (A)
                 (A) (A) (A) (A) (A) (A) (A) (A) (A) (A) (A) (A)
                 (A) (A) (A) (A) (A) (A) (A) (A) (A) (A) (A) (A)
                 (A) (A) (A) (A) (A) (A) (A) (A) (A) (A) (A) (A)
                 (A) (A) (A) (A) (A) (A) (A) (A) (A) (A) (A) (A)
                 (A) (A) (A) (A) (A) (A) (A) (A) (A) (A) (A) (A)
                 (A) (A) (A) (A) (A) (A) (A) (A) (A) (A) (A) (A)
                 (A) (A) (A) (A) (A) (A) (A) (A) (A) (A) (A) (A)
                 (A) (A) (A) (A) (A) (A) (A) (A) (A) (A) (A) (A)
                 (A)
 The electronic state is 1-A.
 Alpha  occ. eigenvalues -- -102.66524 -19.65575 -19.61106 -19.59468 -10.63712
 Alpha  occ. eigenvalues --  -10.62297 -10.61345 -10.61179 -10.61137 -10.56670
 Alpha  occ. eigenvalues --  -10.56587 -10.56502 -10.56379 -10.56014 -10.55928
 Alpha  occ. eigenvalues --  -10.55922 -10.55804 -10.55801 -10.55649 -10.55618
 Alpha  occ. eigenvalues --  -10.55595 -10.55326 -10.55157 -10.54978 -10.54722
 Alpha  occ. eigenvalues --  -10.54579 -10.54439  -9.79285  -7.54597  -7.53923
 Alpha  occ. eigenvalues --   -7.53905  -1.21215  -1.17801  -1.16819  -1.02300
 Alpha  occ. eigenvalues --   -1.00077  -0.99059  -0.97002  -0.91757  -0.90841
 Alpha  occ. eigenvalues --   -0.88525  -0.88290  -0.88117  -0.87805  -0.84364
 Alpha  occ. eigenvalues --   -0.83314  -0.77004  -0.75011  -0.73433  -0.72264
 Alpha  occ. eigenvalues --   -0.71566  -0.70660  -0.68280  -0.66012  -0.64636
 Alpha  occ. eigenvalues --   -0.62749  -0.62339  -0.60230  -0.59132  -0.58473
 Alpha  occ. eigenvalues --   -0.58269  -0.57352  -0.55820  -0.55511  -0.55132
 Alpha  occ. eigenvalues --   -0.54121  -0.52617  -0.52577  -0.51974  -0.51701
 Alpha  occ. eigenvalues --   -0.51330  -0.51247  -0.50605  -0.49887  -0.49491
 Alpha  occ. eigenvalues --   -0.48842  -0.47637  -0.46454  -0.46247  -0.44927
 Alpha  occ. eigenvalues --   -0.44456  -0.44441  -0.43859  -0.43019  -0.42858
 Alpha  occ. eigenvalues --   -0.42715  -0.41119  -0.41085  -0.39131  -0.36566
 Alpha  occ. eigenvalues --   -0.34536  -0.34037  -0.33900  -0.33662  -0.33303
 Alpha  occ. eigenvalues --   -0.32720  -0.30118  -0.29149
 Alpha virt. eigenvalues --   -0.07340  -0.05168  -0.04198  -0.03290  -0.02414
 Alpha virt. eigenvalues --   -0.02327  -0.01939  -0.01276  -0.01231  -0.01136
 Alpha virt. eigenvalues --   -0.00774  -0.00476  -0.00459   0.00358   0.00609
 Alpha virt. eigenvalues --    0.00638   0.01095   0.01588   0.01845   0.02056
 Alpha virt. eigenvalues --    0.02325   0.02772   0.02958   0.03351   0.03555
 Alpha virt. eigenvalues --    0.03992   0.04343   0.04762   0.04796   0.04939
 Alpha virt. eigenvalues --    0.05679   0.05735   0.05891   0.06119   0.06170
 Alpha virt. eigenvalues --    0.06719   0.06840   0.08039   0.08122   0.08417
 Alpha virt. eigenvalues --    0.08459   0.08926   0.09226   0.09339   0.10132
 Alpha virt. eigenvalues --    0.10198   0.10283   0.10349   0.10754   0.10874
 Alpha virt. eigenvalues --    0.10984   0.11038   0.11100   0.11300   0.11676
 Alpha virt. eigenvalues --    0.11924   0.12041   0.12136   0.12450   0.12466
 Alpha virt. eigenvalues --    0.12535   0.12737   0.12782   0.13215   0.13547
 Alpha virt. eigenvalues --    0.13822   0.14075   0.14099   0.14600   0.14620
 Alpha virt. eigenvalues --    0.14831   0.15016   0.15200   0.15633   0.15915
 Alpha virt. eigenvalues --    0.16089   0.16163   0.16508   0.16720   0.16993
 Alpha virt. eigenvalues --    0.17169   0.17308   0.17429   0.18019   0.18075
 Alpha virt. eigenvalues --    0.18680   0.19227   0.19243   0.19525   0.19630
 Alpha virt. eigenvalues --    0.19768   0.20260   0.20468   0.20501   0.20659
 Alpha virt. eigenvalues --    0.21078   0.21227   0.21675   0.22122   0.22765
 Alpha virt. eigenvalues --    0.22827   0.22928   0.23105   0.23238   0.23355
 Alpha virt. eigenvalues --    0.23808   0.24038   0.24624   0.25134   0.25621
 Alpha virt. eigenvalues --    0.26039   0.26241   0.26543   0.27352   0.27447
 Alpha virt. eigenvalues --    0.27920   0.28421   0.28603   0.29024   0.29436
 Alpha virt. eigenvalues --    0.29656   0.29913   0.30086   0.30558   0.30679
 Alpha virt. eigenvalues --    0.30749   0.30766   0.31754   0.31990   0.32021
 Alpha virt. eigenvalues --    0.32548   0.32782   0.32952   0.33846   0.34002
 Alpha virt. eigenvalues --    0.34094   0.34218   0.34961   0.35286   0.35788
 Alpha virt. eigenvalues --    0.36345   0.36575   0.37335   0.37732   0.38294
 Alpha virt. eigenvalues --    0.38306   0.38537   0.38952   0.39155   0.39877
 Alpha virt. eigenvalues --    0.40274   0.41062   0.41400   0.41764   0.43119
 Alpha virt. eigenvalues --    0.43715   0.43872   0.44088   0.45861   0.47119
 Alpha virt. eigenvalues --    0.47952   0.48430   0.48621   0.48742   0.49738
 Alpha virt. eigenvalues --    0.50633   0.51877   0.52427   0.52754   0.52948
 Alpha virt. eigenvalues --    0.53226   0.53818   0.54156   0.54632   0.54971
 Alpha virt. eigenvalues --    0.55072   0.56000   0.56075   0.56363   0.56603
 Alpha virt. eigenvalues --    0.57170   0.57370   0.57652   0.58015   0.58298
 Alpha virt. eigenvalues --    0.58557   0.58821   0.58926   0.59383   0.59535
 Alpha virt. eigenvalues --    0.60101   0.60500   0.60798   0.61732   0.62263
 Alpha virt. eigenvalues --    0.62571   0.62792   0.63196   0.64121   0.64715
 Alpha virt. eigenvalues --    0.65032   0.65239   0.65620   0.66528   0.66782
 Alpha virt. eigenvalues --    0.67404   0.67682   0.68303   0.68588   0.69337
 Alpha virt. eigenvalues --    0.70151   0.70302   0.70375   0.70533   0.70798
 Alpha virt. eigenvalues --    0.71203   0.71930   0.72233   0.72832   0.73450
 Alpha virt. eigenvalues --    0.73691   0.74260   0.74717   0.75043   0.76305
 Alpha virt. eigenvalues --    0.76406   0.76726   0.77290   0.77960   0.78456
 Alpha virt. eigenvalues --    0.79724   0.80004   0.80545   0.80938   0.82218
 Alpha virt. eigenvalues --    0.82706   0.83513   0.84285   0.84767   0.85689
 Alpha virt. eigenvalues --    0.85849   0.86505   0.86967   0.87550   0.87834
 Alpha virt. eigenvalues --    0.88038   0.89303   0.89825   0.90034   0.90152
 Alpha virt. eigenvalues --    0.90879   0.91035   0.91852   0.92586   0.92796
 Alpha virt. eigenvalues --    0.93240   0.93686   0.94177   0.94503   0.95339
 Alpha virt. eigenvalues --    0.95521   0.96171   0.96981   0.97395   0.97863
 Alpha virt. eigenvalues --    0.98223   0.98498   0.98836   0.99473   1.00742
 Alpha virt. eigenvalues --    1.00849   1.00935   1.01410   1.01784   1.03302
 Alpha virt. eigenvalues --    1.03645   1.03902   1.04045   1.04793   1.05375
 Alpha virt. eigenvalues --    1.05713   1.06013   1.06497   1.06596   1.07495
 Alpha virt. eigenvalues --    1.09320   1.09628   1.09786   1.10489   1.11168
 Alpha virt. eigenvalues --    1.11381   1.11473   1.12619   1.13191   1.13455
 Alpha virt. eigenvalues --    1.14081   1.15951   1.16554   1.17174   1.17954
 Alpha virt. eigenvalues --    1.18427   1.19268   1.20432   1.20645   1.20967
 Alpha virt. eigenvalues --    1.21866   1.24912   1.25789   1.27214   1.27715
 Alpha virt. eigenvalues --    1.28665   1.29482   1.29596   1.29953   1.32018
 Alpha virt. eigenvalues --    1.33142   1.33474   1.34498   1.35911   1.40103
 Alpha virt. eigenvalues --    1.41198   1.43625   1.46789   1.48167   1.49294
 Alpha virt. eigenvalues --    1.50835   1.51158   1.51430   1.52567   1.52964
 Alpha virt. eigenvalues --    1.53627   1.53646   1.54893   1.54965   1.55835
 Alpha virt. eigenvalues --    1.56262   1.56713   1.57619   1.58062   1.58530
 Alpha virt. eigenvalues --    1.58578   1.59332   1.59914   1.60073   1.60520
 Alpha virt. eigenvalues --    1.61728   1.61870   1.62719   1.62827   1.63614
 Alpha virt. eigenvalues --    1.64026   1.64707   1.65370   1.66740   1.67591
 Alpha virt. eigenvalues --    1.67995   1.69239   1.70647   1.71353   1.71541
 Alpha virt. eigenvalues --    1.72596   1.73159   1.75017   1.75351   1.75466
 Alpha virt. eigenvalues --    1.77084   1.77533   1.78861   1.79188   1.79484
 Alpha virt. eigenvalues --    1.79516   1.80692   1.81912   1.82394   1.82914
 Alpha virt. eigenvalues --    1.84368   1.85503   1.87029   1.87542   1.88362
 Alpha virt. eigenvalues --    1.90609   1.91977   1.92507   1.92582   1.93937
 Alpha virt. eigenvalues --    1.94340   1.94573   1.95128   1.96979   1.97030
 Alpha virt. eigenvalues --    1.97168   1.97299   1.97551   1.97986   1.98591
 Alpha virt. eigenvalues --    1.99361   2.00302   2.00677   2.00904   2.01437
 Alpha virt. eigenvalues --    2.01845   2.03425   2.04957   2.06063   2.06785
 Alpha virt. eigenvalues --    2.08542   2.09005   2.09239   2.09809   2.10250
 Alpha virt. eigenvalues --    2.11210   2.12026   2.12340   2.13077   2.13979
 Alpha virt. eigenvalues --    2.15488   2.16142   2.16882   2.20039   2.22392
 Alpha virt. eigenvalues --    2.23349   2.27134   2.28500   2.28789   2.29536
 Alpha virt. eigenvalues --    2.30508   2.31779   2.33025   2.33768   2.34858
 Alpha virt. eigenvalues --    2.36214   2.37370   2.38808   2.39547   2.39611
 Alpha virt. eigenvalues --    2.40922   2.41536   2.45375   2.45795   2.46742
 Alpha virt. eigenvalues --    2.47118   2.47757   2.48339   2.49668   2.50113
 Alpha virt. eigenvalues --    2.50846   2.52556   2.53155   2.56216   2.57077
 Alpha virt. eigenvalues --    2.57511   2.57999   2.64183   2.65922   2.66177
 Alpha virt. eigenvalues --    2.66572   2.67502   2.68132   2.68382   2.69316
 Alpha virt. eigenvalues --    2.69373   2.70534   2.71388   2.71581   2.71647
 Alpha virt. eigenvalues --    2.72322   2.72413   2.72912   2.73711   2.73841
 Alpha virt. eigenvalues --    2.74341   2.74687   2.75500   2.76230   2.76798
 Alpha virt. eigenvalues --    2.77812   2.78496   2.79594   2.80014   2.81758
 Alpha virt. eigenvalues --    2.82520   2.85203   2.86101   2.86500   2.87238
 Alpha virt. eigenvalues --    2.87393   2.88504   2.89067   2.89417   2.90396
 Alpha virt. eigenvalues --    2.91644   2.93084   2.93898   2.93914   2.95809
 Alpha virt. eigenvalues --    2.96644   2.97505   2.98053   2.98221   2.98290
 Alpha virt. eigenvalues --    2.99135   3.00127   3.02271   3.03353   3.03589
 Alpha virt. eigenvalues --    3.08258   3.09917   3.13935   3.15127   3.15628
 Alpha virt. eigenvalues --    3.15961   3.16387   3.17373   3.17454   3.21985
 Alpha virt. eigenvalues --    3.23034   3.25995   3.27854   3.28913   3.29974
 Alpha virt. eigenvalues --    3.30960   3.34191   3.35164   3.35473   3.38785
 Alpha virt. eigenvalues --    3.41803   3.43169   3.44387   3.44664   3.45816
 Alpha virt. eigenvalues --    3.45993   3.48696   3.51470   3.52525   3.55489
 Alpha virt. eigenvalues --    3.56319   3.58953   3.60340   3.60378   3.61890
 Alpha virt. eigenvalues --    3.63572   3.64348   3.68811   3.69537   3.70556
 Alpha virt. eigenvalues --    3.71735   3.74072   3.77529   3.83601   3.85531
 Alpha virt. eigenvalues --    3.86464   3.88193   3.99733   4.02536   4.04800
 Alpha virt. eigenvalues --    4.07536   4.09990   4.12801   4.18184   4.19307
 Alpha virt. eigenvalues --    4.20221   4.21546   4.22562   4.24542   4.30049
 Alpha virt. eigenvalues --    4.32675   4.35782   4.49661   4.50756   4.73660
 Alpha virt. eigenvalues --    4.91721   4.91789   4.94809   5.14366   5.17468
 Alpha virt. eigenvalues --    5.19498   5.38916   5.42373   5.54135   5.86518
 Alpha virt. eigenvalues --    5.89842   5.97062   9.98175  23.60753  23.67027
 Alpha virt. eigenvalues --   23.71865  23.87290  23.93137  23.96542  23.97919
 Alpha virt. eigenvalues --   23.98629  24.01279  24.01653  24.02009  24.02685
 Alpha virt. eigenvalues --   24.03129  24.08982  24.13000  24.14200  24.17298
 Alpha virt. eigenvalues --   24.17782  24.17799  24.24192  24.24602  24.26484
 Alpha virt. eigenvalues --   24.26843  26.03193  26.35055  26.84307  50.00186
 Alpha virt. eigenvalues --   50.04059  50.07954 215.57433
          Condensed to atoms (all electrons):
               1          2          3          4          5          6
     1  C   27.207442  -7.165517   0.041872  -5.539011  -0.009311  -0.247997
     2  C   -7.165517  13.955238   0.543498   1.565886   0.162478  -0.980077
     3  O    0.041872   0.543498   7.851656  -0.251385   0.054114  -0.033315
     4  C   -5.539011   1.565886  -0.251385  15.861412  -0.323056   1.260762
     5  O   -0.009311   0.162478   0.054114  -0.323056   8.170920  -0.269127
     6  C   -0.247997  -0.980077  -0.033315   1.260762  -0.269127  19.488097
     7  C   -1.421112   0.407034  -0.032921  -2.541318   0.535932  -4.342579
     8  C   -0.199354   0.325021  -0.004835  -1.964402   0.203049  -3.036491
     9  C   -0.071045   0.082553  -0.003499  -1.313611   0.009814  -0.952271
    10  C   -0.039409  -0.487479   0.002832   0.512966  -0.040377  -6.488142
    11  C    0.053165   0.132256   0.001965  -0.135592  -0.000933   1.047672
    12  O   -0.000204  -0.001196   0.000006  -0.003427  -0.000330   0.118350
    13  C    0.024497   0.028443  -0.000105   0.034151  -0.007233   0.982346
    14  C    0.002523   0.010499  -0.000037   0.026227  -0.002476   0.670661
    15  C    0.000362   0.001412  -0.000006   0.013998   0.000376   0.260801
    16  C    0.000007   0.000124  -0.000000   0.000632  -0.000004   0.038001
    17  C   -0.000000   0.000000  -0.000000   0.000013   0.000000  -0.002131
    18  C    0.000001   0.000006  -0.000000   0.000112  -0.000000   0.005856
    19  Cl   0.000000   0.000000  -0.000000   0.000000   0.000000   0.000060
    20  C    0.000001  -0.000013   0.000000   0.000101   0.000011  -0.010703
    21  C    0.000054   0.000269  -0.000000  -0.001369  -0.000101   0.038582
    22  C   -0.088018  -0.433168   0.010791   1.353034  -0.433098  -0.135781
    23  C    2.205065  -4.603956   0.281496  -0.512995   0.038729   0.215321
    24  C   -0.952883  -0.294657   0.120512  -0.461046   0.013303  -0.094843
    25  C   -0.538522   0.515247  -0.008078  -0.092270  -0.006366  -0.013098
    26  C   -3.745350  -0.308282  -0.060336  -0.381096  -0.018657   0.107547
    27  C   -4.817246   3.265444  -0.336395  -0.944496  -0.074147  -0.716950
    28  H    0.088282   0.022623  -0.004542   0.195530  -0.025238  -0.012749
    29  H    0.018579   0.034171  -0.004915   0.209186  -0.027847   0.005702
    30  H   -0.114148   0.038298  -0.001750  -0.033610   0.004820  -0.542123
    31  H    0.007962  -0.010223   0.000148   0.070272  -0.002066   0.152752
    32  H   -0.003693   0.006850  -0.000120  -0.075722   0.000116  -0.130995
    33  H    0.000214  -0.001999   0.000027   0.019310   0.000325  -0.026821
    34  H    0.000025   0.000141  -0.000000  -0.000552  -0.000136   0.000096
    35  H   -0.000000   0.000002  -0.000000  -0.000005   0.000001   0.000684
    36  H    0.000000   0.000000  -0.000000   0.000002   0.000000   0.000025
    37  H   -0.000000   0.000001  -0.000000   0.000004   0.000000   0.000202
    38  H    0.000017   0.000026  -0.000000  -0.000668   0.000005   0.008037
    39  H   -0.033881  -0.038443  -0.003302   0.045502  -0.021036  -0.164489
    40  H   -0.035088  -0.012639  -0.014283  -0.024694  -0.001314   0.000830
    41  H   -0.014273  -0.010045   0.002578  -0.007749   0.000162  -0.000241
    42  H    0.022188   0.000246  -0.000237  -0.009493  -0.000103  -0.000381
    43  H    0.115520  -0.059921   0.000151  -0.007176   0.000452   0.003504
    44  H   -0.293599   0.123084  -0.003405   0.004623  -0.005328  -0.056040
               7          8          9         10         11         12
     1  C   -1.421112  -0.199354  -0.071045  -0.039409   0.053165  -0.000204
     2  C    0.407034   0.325021   0.082553  -0.487479   0.132256  -0.001196
     3  O   -0.032921  -0.004835  -0.003499   0.002832   0.001965   0.000006
     4  C   -2.541318  -1.964402  -1.313611   0.512966  -0.135592  -0.003427
     5  O    0.535932   0.203049   0.009814  -0.040377  -0.000933  -0.000330
     6  C   -4.342579  -3.036491  -0.952271  -6.488142   1.047672   0.118350
     7  C   20.483928   1.125622  -7.803395   1.514836   1.612061   0.009031
     8  C    1.125622  12.977361   3.123070  -4.088174  -0.524534  -0.068264
     9  C   -7.803395   3.123070  20.591625  -3.920011   1.069582  -0.395484
    10  C    1.514836  -4.088174  -3.920011  28.886573  -6.686723  -0.268460
    11  C    1.612061  -0.524534   1.069582  -6.686723  19.737827   0.511254
    12  O    0.009031  -0.068264  -0.395484  -0.268460   0.511254   7.980975
    13  C    0.462429  -0.925044  -1.129486 -10.135804   2.536557  -0.412559
    14  C   -0.031872   0.124584  -0.468646  -2.299621  -3.292883   0.144786
    15  C   -0.317901  -0.402753  -1.698852   6.466294  -1.905044   0.236795
    16  C   -0.033095  -0.045442  -0.333379   1.680339  -0.796481   0.056183
    17  C    0.001838   0.010070   0.042348   0.073156   0.073303   0.001121
    18  C    0.002866   0.003306  -0.029383   0.011909  -0.231549  -0.000142
    19  Cl  -0.000033  -0.000443  -0.002685   0.005227  -0.002153  -0.000000
    20  C    0.025629   0.016766   0.049000  -0.478749   0.219594  -0.004006
    21  C    0.099088   0.111380   0.206514  -2.312725  -1.028853  -0.059934
    22  C   -4.877950  -0.587563  -0.293203   2.652333  -5.694014   0.342888
    23  C    0.047748   0.018269   0.003425   0.006362   0.001725  -0.000011
    24  C    0.025719   0.002784  -0.002906  -0.002372   0.001733  -0.000002
    25  C   -0.009144  -0.001079   0.001257  -0.001045  -0.000612   0.000000
    26  C    0.061329  -0.009429   0.002464   0.012745  -0.003323  -0.000001
    27  C   -0.185163  -0.030873   0.025261  -0.002264  -0.030300   0.000019
    28  H    0.089410   0.040395   0.018917  -0.025148   0.011596   0.000036
    29  H    0.053224   0.023201   0.017662  -0.028749   0.010785   0.000032
    30  H    1.094387   0.057211  -0.252864   0.154789   0.029705  -0.000180
    31  H   -0.089121   0.172300  -0.100108   0.043884  -0.041967  -0.000143
    32  H   -0.310627  -0.011159   1.054977  -0.191091   0.114334  -0.006593
    33  H    0.125705  -0.144896  -0.480942   0.422625   0.059848   0.028440
    34  H    0.012892   0.018454   0.075548  -0.301133   0.103331  -0.038983
    35  H   -0.001100  -0.002730  -0.017032   0.051655   0.006563   0.002991
    36  H    0.000047   0.000122   0.000777  -0.002109   0.002692   0.000007
    37  H   -0.001040  -0.004685  -0.007093   0.021355  -0.001726   0.000032
    38  H   -0.006905   0.042544   0.045819  -0.080171  -0.046726  -0.000849
    39  H   -0.149842   0.066662   0.178668   0.170073  -0.199677  -0.006471
    40  H   -0.004312  -0.000743   0.000135   0.001187  -0.000379   0.000000
    41  H   -0.000408  -0.000057  -0.000035  -0.000000   0.000018  -0.000000
    42  H   -0.000274   0.000020   0.000019   0.000010  -0.000008   0.000000
    43  H   -0.000963  -0.000351  -0.000024   0.000180   0.000073  -0.000000
    44  H   -0.003005  -0.002401  -0.002909   0.005237  -0.003172   0.000003
              13         14         15         16         17         18
     1  C    0.024497   0.002523   0.000362   0.000007  -0.000000   0.000001
     2  C    0.028443   0.010499   0.001412   0.000124   0.000000   0.000006
     3  O   -0.000105  -0.000037  -0.000006  -0.000000  -0.000000  -0.000000
     4  C    0.034151   0.026227   0.013998   0.000632   0.000013   0.000112
     5  O   -0.007233  -0.002476   0.000376  -0.000004   0.000000  -0.000000
     6  C    0.982346   0.670661   0.260801   0.038001  -0.002131   0.005856
     7  C    0.462429  -0.031872  -0.317901  -0.033095   0.001838   0.002866
     8  C   -0.925044   0.124584  -0.402753  -0.045442   0.010070   0.003306
     9  C   -1.129486  -0.468646  -1.698852  -0.333379   0.042348  -0.029383
    10  C  -10.135804  -2.299621   6.466294   1.680339   0.073156   0.011909
    11  C    2.536557  -3.292883  -1.905044  -0.796481   0.073303  -0.231549
    12  O   -0.412559   0.144786   0.236795   0.056183   0.001121  -0.000142
    13  C   23.051387   7.631839 -11.389618  -5.158595  -0.387949  -1.207444
    14  C    7.631839  18.736591  -7.911888  -6.866955  -0.489488  -1.761542
    15  C  -11.389618  -7.911888  27.359613   5.323761  -1.560411  -0.966169
    16  C   -5.158595  -6.866955   5.323761  16.850770   3.425677  -2.752282
    17  C   -0.387949  -0.489488  -1.560411   3.425677  15.339122  -0.729399
    18  C   -1.207444  -1.761542  -0.966169  -2.752282  -0.729399  17.049367
    19  Cl  -0.110876  -0.216681  -0.427670   0.484235   0.129674  -1.483572
    20  C    0.042933  -0.191381  -4.164430  -2.745267  -5.517946   1.440757
    21  C    2.275448   2.674393  -4.081319  -3.289197  -4.119247  -3.590260
    22  C   -1.041195  -0.379110   0.901464   0.032344  -0.005735   0.014422
    23  C    0.001407   0.000030   0.000006  -0.000000  -0.000000   0.000000
    24  C    0.000085   0.000006  -0.000001  -0.000000  -0.000000   0.000000
    25  C   -0.000050  -0.000001   0.000000   0.000000   0.000000  -0.000000
    26  C   -0.000358  -0.000070  -0.000004  -0.000000   0.000000  -0.000000
    27  C   -0.007685  -0.000738  -0.000009  -0.000001   0.000000  -0.000000
    28  H    0.002255   0.000628  -0.000043   0.000006  -0.000002   0.000001
    29  H    0.001353   0.000598  -0.000050   0.000008  -0.000001   0.000000
    30  H   -0.004640  -0.007381  -0.007296  -0.000756   0.000035  -0.000017
    31  H   -0.019302   0.004112   0.027453   0.003329  -0.000070   0.000242
    32  H    0.071868  -0.090971  -0.134099  -0.020091   0.000171  -0.014642
    33  H    0.437015  -0.017932   0.198169  -0.029614  -0.015358   0.089271
    34  H    0.265706   0.536769  -0.429181  -0.212810  -0.012130  -0.005592
    35  H   -0.123661  -0.135131   0.110500   0.500980  -0.049506   0.020016
    36  H   -0.019521   0.019547  -0.054146   0.116704   0.560322  -0.199493
    37  H   -0.035086  -0.086321   0.102003   0.025513  -0.116709  -0.137920
    38  H   -0.018074  -0.009158   0.035617   0.060913   0.032655  -0.152527
    39  H   -0.167073  -0.029135   0.031488   0.007365   0.000812  -0.000231
    40  H   -0.000013  -0.000004   0.000001   0.000000   0.000000  -0.000000
    41  H    0.000002   0.000000  -0.000000  -0.000000  -0.000000   0.000000
    42  H   -0.000000  -0.000000   0.000000   0.000000   0.000000  -0.000000
    43  H    0.000021   0.000001  -0.000000  -0.000000  -0.000000   0.000000
    44  H   -0.000675  -0.000072   0.000025   0.000001   0.000000  -0.000000
              19         20         21         22         23         24
     1  C    0.000000   0.000001   0.000054  -0.088018   2.205065  -0.952883
     2  C    0.000000  -0.000013   0.000269  -0.433168  -4.603956  -0.294657
     3  O   -0.000000   0.000000  -0.000000   0.010791   0.281496   0.120512
     4  C    0.000000   0.000101  -0.001369   1.353034  -0.512995  -0.461046
     5  O    0.000000   0.000011  -0.000101  -0.433098   0.038729   0.013303
     6  C    0.000060  -0.010703   0.038582  -0.135781   0.215321  -0.094843
     7  C   -0.000033   0.025629   0.099088  -4.877950   0.047748   0.025719
     8  C   -0.000443   0.016766   0.111380  -0.587563   0.018269   0.002784
     9  C   -0.002685   0.049000   0.206514  -0.293203   0.003425  -0.002906
    10  C    0.005227  -0.478749  -2.312725   2.652333   0.006362  -0.002372
    11  C   -0.002153   0.219594  -1.028853  -5.694014   0.001725   0.001733
    12  O   -0.000000  -0.004006  -0.059934   0.342888  -0.000011  -0.000002
    13  C   -0.110876   0.042933   2.275448  -1.041195   0.001407   0.000085
    14  C   -0.216681  -0.191381   2.674393  -0.379110   0.000030   0.000006
    15  C   -0.427670  -4.164430  -4.081319   0.901464   0.000006  -0.000001
    16  C    0.484235  -2.745267  -3.289197   0.032344  -0.000000  -0.000000
    17  C    0.129674  -5.517946  -4.119247  -0.005735  -0.000000  -0.000000
    18  C   -1.483572   1.440757  -3.590260   0.014422   0.000000   0.000000
    19  Cl  17.662927   0.245611   0.055000   0.000419   0.000000   0.000000
    20  C    0.245611  14.182865   3.253413   0.025904   0.000000   0.000000
    21  C    0.055000   3.253413  16.146006  -0.032561   0.000003   0.000000
    22  C    0.000419   0.025904  -0.032561  14.008375  -0.081055  -0.020236
    23  C    0.000000   0.000000   0.000003  -0.081055  13.929033  -1.548754
    24  C    0.000000   0.000000   0.000000  -0.020236  -1.548754   9.579638
    25  C    0.000000  -0.000000  -0.000000   0.010415  -1.500049  -0.330344
    26  C   -0.000000   0.000000  -0.000000  -0.005703   1.307220  -0.797530
    27  C   -0.000000  -0.000001  -0.000039   0.234668  -4.793618   1.008378
    28  H   -0.000000  -0.000007   0.000047  -0.035702  -0.000529   0.003242
    29  H   -0.000000  -0.000010   0.000028  -0.013150  -0.021464  -0.001999
    30  H   -0.000001   0.000928   0.002051  -0.166080   0.000345   0.006535
    31  H    0.000029  -0.004626  -0.007993   0.053908   0.000002   0.000027
    32  H   -0.000441   0.023749   0.033811   0.043695  -0.000078  -0.000033
    33  H    0.005845  -0.040131  -0.173030  -0.025045  -0.000002   0.000001
    34  H    0.001791   0.045178   0.208912  -0.031345   0.000001   0.000000
    35  H   -0.008057   0.037505  -0.082039   0.003214   0.000000  -0.000000
    36  H    0.043897  -0.121821  -0.054320   0.000466   0.000000   0.000000
    37  H    0.044164   0.398253   0.063696   0.000769  -0.000000  -0.000000
    38  H   -0.022664  -0.121654   0.575200   0.007308   0.000001   0.000000
    39  H   -0.000000  -0.001811  -0.015328   0.597039  -0.002006  -0.000806
    40  H    0.000000  -0.000000  -0.000000   0.001980   0.402813  -0.090801
    41  H   -0.000000   0.000000   0.000000  -0.000198  -0.057388   0.472306
    42  H    0.000000  -0.000000  -0.000000   0.000098  -0.022119  -0.081394
    43  H   -0.000000   0.000000   0.000000  -0.000789   0.088276   0.017289
    44  H    0.000000  -0.000001  -0.000016   0.008465  -0.089837   0.043455
              25         26         27         28         29         30
     1  C   -0.538522  -3.745350  -4.817246   0.088282   0.018579  -0.114148
     2  C    0.515247  -0.308282   3.265444   0.022623   0.034171   0.038298
     3  O   -0.008078  -0.060336  -0.336395  -0.004542  -0.004915  -0.001750
     4  C   -0.092270  -0.381096  -0.944496   0.195530   0.209186  -0.033610
     5  O   -0.006366  -0.018657  -0.074147  -0.025238  -0.027847   0.004820
     6  C   -0.013098   0.107547  -0.716950  -0.012749   0.005702  -0.542123
     7  C   -0.009144   0.061329  -0.185163   0.089410   0.053224   1.094387
     8  C   -0.001079  -0.009429  -0.030873   0.040395   0.023201   0.057211
     9  C    0.001257   0.002464   0.025261   0.018917   0.017662  -0.252864
    10  C   -0.001045   0.012745  -0.002264  -0.025148  -0.028749   0.154789
    11  C   -0.000612  -0.003323  -0.030300   0.011596   0.010785   0.029705
    12  O    0.000000  -0.000001   0.000019   0.000036   0.000032  -0.000180
    13  C   -0.000050  -0.000358  -0.007685   0.002255   0.001353  -0.004640
    14  C   -0.000001  -0.000070  -0.000738   0.000628   0.000598  -0.007381
    15  C    0.000000  -0.000004  -0.000009  -0.000043  -0.000050  -0.007296
    16  C    0.000000  -0.000000  -0.000001   0.000006   0.000008  -0.000756
    17  C    0.000000   0.000000   0.000000  -0.000002  -0.000001   0.000035
    18  C   -0.000000  -0.000000  -0.000000   0.000001   0.000000  -0.000017
    19  Cl   0.000000  -0.000000  -0.000000  -0.000000  -0.000000  -0.000001
[...]
 6,0.00035034,0.00006262,-0.00045009,-0.00016985,-0.00005532,0.00018975
 ,0.00014943,0.00003560,-0.00002821,-0.00004335,-0.00001070,0.00000595,
 0.00000915,0.00000177,-0.00002304,-0.00001651,0.00000173,-0.00001889,0
 .00002869,0.00000124,0.00007315,-0.00003438,-0.00000545,-0.00002855,0.
 00002402,0.00000103,-0.00003698,0.00001070,0.00000166,0.00001673,-0.00
 000519,-0.00000113,-0.00000292,-0.00000042,0.00000136,-0.00000054,-0.0
 0000417,-0.00000018,-0.00000188,-0.00000258,0.00000223,0.00000926,0.00
 000124,-0.00000128,-0.00000930,-0.00000208,0.00000147,-0.00000540,0.00
 000275,-0.00000115,-0.00000012,0.00000180,0.00000047,-0.00005786,-0.00
 001081,-0.00000712,-0.01695973,-0.01988603,-0.00449799,-0.22649366,-0.
 13257716,-0.03345977,0.00754664,0.00526401,0.00108740,0.00146712,0.001
 69329,-0.00016186,-0.00006997,0.00117160,0.00025378,-0.00000460,0.0000
 0241,-0.00001226,-0.00001058,-0.00000588,0.00000932,0.00000261,0.00001
 829,0.00000253,-0.00000320,-0.00000389,-0.00000104,-0.00000309,-0.0000
 0182,-0.00000126,0.00000320,-0.00000061,-0.00000104,0.00000129,-0.0000
 0003,0.00000038,0.00000090,-0.00000055,0.00000005,-0.00000087,0.000000
 07,-0.00000008,-0.00000007,-0.00000053,0.,0.00000090,0.00000126,-0.000
 00095,0.00000754,-0.00000511,0.00000066,0.00066025,0.00025572,0.000381
 33,0.23813534,0.00297123,0.00046590,-0.00097668,0.00056197,0.00063942,
 0.00012858,-0.00016669,-0.00005476,-0.00004307,0.00012778,-0.00014357,
 0.00002156,0.00005617,0.00004446,0.00002000,0.00001852,-0.00001161,-0.
 00000229,0.00000098,-0.00000434,-0.00000109,0.00000101,0.00000160,0.00
 000089,-0.00000222,-0.00000013,0.00000127,-0.00000373,-0.00000169,-0.0
 0000150,0.00001684,0.00000175,-0.00000166,-0.00000695,-0.00000106,0.00
 000077,-0.00000892,0.00000184,0.00000055,0.00000548,-0.00000046,-0.000
 00066,-0.00000073,-0.00000061,-0.00000109,0.00000014,-0.00000069,0.000
 00013,-0.00000087,-0.00000110,0.00000067,0.00000319,0.00000117,0.00000
 046,-0.00000385,-0.00000121,0.00000036,-0.00000136,0.00000054,-0.00000
 021,-0.00000025,0.00000009,0.00000055,0.00000348,0.00000687,0.00000285
 ,0.01055901,0.01092698,0.00185083,-0.13255127,-0.16321513,-0.02832361,
 -0.02543750,-0.01257321,-0.00425749,0.00212594,-0.00511704,-0.00176889
 ,0.00118249,-0.00062559,0.00016190,-0.00000078,-0.00000249,0.00001053,
 -0.00000967,-0.00001049,-0.00001644,0.00000104,0.00000006,-0.00000082,
 0.00000124,0.00000030,-0.00000011,-0.00000063,-0.00000045,-0.00000051,
 0.00000053,-0.00000032,-0.00000006,0.00000026,-0.00000006,0.00000031,0
 .00000043,0.00000002,0.,-0.00000009,0.00000004,-0.00000009,-0.00000009
 ,-0.00000020,-0.00000013,0.00000028,0.00000031,-0.00000022,0.00000112,
 0.00000023,-0.00000048,-0.00043077,0.00042176,0.00068673,0.14197181,0.
 16955252,-0.00044212,-0.00093435,0.00810295,0.00006609,-0.00005591,0.0
 0006388,-0.00003562,0.00000956,0.00015005,0.00002897,0.00003563,-0.000
 21590,-0.00002016,0.00000417,-0.00006611,0.00001529,0.00000777,0.00001
 272,-0.00000290,-0.00000641,0.00001472,0.00000119,0.00000230,-0.000006
 90,-0.00000151,-0.00000039,-0.00000518,-0.00000327,0.00000183,0.000007
 01,0.00000678,-0.00000576,-0.00000309,-0.00000216,0.00000456,-0.000003
 37,-0.00000304,0.00000056,-0.00000018,0.00000165,-0.00000004,0.0000004
 8,-0.00000024,0.00000023,-0.00000047,-0.00000003,-0.00000089,-0.000000
 40,-0.00000026,-0.00000020,-0.00000029,0.00000098,0.00000028,0.0000002
 2,-0.00000097,-0.00000017,-0.00000003,-0.00000072,-0.00000002,-0.00000
 047,0.00000028,-0.00000045,-0.00000022,-0.00000273,0.00000074,-0.00000
 540,0.00014519,-0.00029246,0.00364098,-0.03343633,-0.02833076,-0.04606
 615,-0.00361664,-0.00207875,0.00299725,-0.00010416,-0.00181151,0.00720
 570,0.00025720,0.00015710,-0.00111791,-0.00003308,-0.00003937,0.000004
 62,0.00003120,0.00003501,0.00001793,-0.00000005,0.00000069,0.00000544,
 -0.00000003,-0.00000041,0.00000111,-0.00000042,-0.00000043,0.00000142,
 0.00000050,0.00000036,0.00000056,0.00000010,0.00000022,0.00000072,0.00
 000017,0.00000021,0.00000042,-0.00000010,0.00000008,0.00000034,0.00000
 013,0.00000005,0.00000030,0.00000001,0.00000040,0.00000051,0.00000030,
 -0.00000108,0.00000400,0.00028966,0.00072439,-0.00414304,0.03660513,0.
 03187397,0.03422621,0.00069712,-0.00083288,-0.00001699,-0.00008131,-0.
 00002741,0.00008336,-0.00006645,0.00005709,-0.00001143,0.00007319,-0.0
 0005863,-0.00002432,-0.00018722,0.00002664,-0.00000667,0.00012972,0.00
 007123,0.00002416,-0.00000875,-0.00003426,-0.00000612,0.00000402,0.000
 01170,0.00000194,-0.00001577,-0.00000902,0.00000014,-0.00001420,0.0000
 1561,0.00000193,0.00005665,-0.00001780,-0.00000639,-0.00002217,0.00001
 110,0.00000127,-0.00002920,0.00000754,0.00000155,0.00001421,-0.0000036
 9,-0.00000179,-0.00000240,-0.00000055,0.00000081,-0.00000022,-0.000002
 31,0.00000121,-0.00000188,-0.00000300,0.00000086,0.00000819,0.00000127
 ,-0.00000094,-0.00000822,-0.00000191,0.00000143,-0.00000420,0.00000202
 ,-0.00000156,-0.00000034,0.00000147,0.00000065,-0.00002689,0.00000021,
 -0.00000353,0.00178223,0.00076373,-0.00028714,-0.00029052,-0.00115177,
 -0.00050949,-0.30004002,0.09486718,-0.00384844,-0.01654278,0.01189181,
 0.00035431,-0.00219882,-0.00375034,-0.00126896,0.00000640,0.00000487,0
 .00005378,0.00002360,0.00001173,-0.00004095,0.00000726,0.00001206,0.00
 000186,-0.00000108,-0.00000239,-0.00000063,-0.00000295,-0.00000097,-0.
 00000056,0.00000222,-0.00000067,-0.00000050,0.00000099,-0.00000007,0.0
 0000032,0.00000074,-0.00000046,0.00000012,-0.00000056,0.00000017,0.,-0
 .00000013,-0.00000038,0.00000021,0.00000072,0.00000115,-0.00000070,0.0
 0000414,-0.00000317,0.00000045,-0.00010435,-0.00016678,-0.00001687,0.0
 0052449,0.00034568,0.00036671,0.31675000,-0.00091024,-0.00128753,-0.00
 012918,0.00000933,-0.00025261,0.00016197,0.00019158,0.00021485,0.00001
 386,0.00001824,-0.00006395,-0.00003453,0.00001704,0.00007005,0.0000191
 7,-0.00000518,-0.00000455,-0.00000520,0.00000693,-0.00000244,0.0000010
 5,-0.00000022,0.00000274,0.00000081,0.00000028,0.00000134,-0.00000025,
 -0.00000032,-0.00000248,0.00000121,-0.00000745,0.00000112,0.00000255,0
 .00000335,0.,-0.00000021,0.00000474,-0.00000105,-0.00000045,-0.0000021
 4,0.00000127,0.00000014,0.00000046,-0.00000015,-0.00000181,-0.00000011
 ,0.00000031,-0.00000035,0.00000018,0.00000068,0.00000027,-0.00000203,0
 .00000006,0.00000092,0.00000111,-0.00000003,-0.00000044,0.00000105,-0.
 00000038,0.00000063,-0.00000020,-0.00000064,-0.00000002,0.00000451,-0.
 00000053,-0.00000185,0.00054833,-0.00574425,-0.00198688,0.02938631,-0.
 00486108,0.00068464,0.09499443,-0.09592779,-0.00186951,-0.01878257,0.0
 1120639,-0.00024368,-0.00356542,-0.00150334,-0.00165779,-0.00000418,0.
 00001234,0.00004484,0.00002145,0.00000924,-0.00002517,0.00000438,0.000
 00086,-0.00000042,0.00000025,0.00000016,-0.00000011,-0.00000010,0.0000
 0069,-0.00000019,-0.00000031,0.00000012,-0.00000011,-0.00000032,0.,-0.
 00000012,-0.00000004,0.00000024,-0.00000004,0.00000015,-0.00000010,-0.
 00000007,-0.00000016,0.00000004,-0.00000016,0.00000006,-0.00000016,0.0
 0000012,-0.00000169,0.00000034,-0.00000051,0.00132815,-0.00024765,0.00
 008925,-0.00044448,0.00044781,0.00063521,-0.10214435,0.09714273,-0.000
 03310,-0.00011952,-0.00088678,0.00009280,0.00015722,-0.00127035,0.0000
 0870,0.00000510,0.00021427,-0.00000199,-0.00003462,0.00015329,-0.00000
 606,0.00001927,-0.00004212,0.00000620,0.00000053,0.00002931,0.00000117
 ,-0.00000144,-0.00001087,0.00000015,0.00000076,0.00000025,-0.00000097,
 -0.00000028,0.00000089,-0.00000063,0.00000051,-0.00000724,0.00000123,-
 0.00000325,0.00000391,-0.00000042,0.00000299,-0.00000291,0.00000021,0.
 00000019,0.00000075,0.00000006,-0.00000005,-0.00000087,0.00000012,-0.0
 0000043,-0.00000161,-0.00000042,0.00000009,0.00000053,0.00000015,-0.00
 000004,-0.00000061,0.00000002,0.00000004,0.00000081,-0.00000028,-0.000
 00006,-0.00000024,-0.00000007,-0.00000013,-0.00000072,0.00000008,-0.00
 000028,0.00000048,-0.00000171,-0.00000051,0.00000539,-0.00031997,-0.00
 197969,0.00718079,0.00416996,-0.00145990,0.00428910,-0.00384453,-0.001
 86599,-0.04030917,-0.00433053,0.00191827,0.00408207,-0.00125352,-0.001
 67283,0.00735538,0.00006990,-0.00003560,-0.00003691,-0.00005730,0.0000
 5090,-0.00005162,0.00000084,0.00000031,0.00000450,-0.00000022,-0.00000
 036,0.00000143,-0.00000032,-0.00000002,0.00000074,0.00000034,0.0000003
 7,0.00000063,-0.00000020,0.00000019,0.00000056,0.00000003,0.00000019,0
 .00000033,-0.00000007,0.00000004,0.00000022,0.00000015,0.00000013,0.00
 000033,-0.00000011,0.00000009,0.00000036,-0.00000008,-0.00000046,0.000
 00186,0.00021136,-0.00001791,-0.00020041,0.00024305,0.00067700,-0.0037
 5413,0.00488405,0.00360824,0.02722074,-0.00543406,0.00159242,-0.000697
 74,0.00115406,0.00097989,0.00020388,-0.00077040,0.00068673,0.00007265,
 0.00003420,0.00005321,0.00001387,-0.00017418,-0.00011231,-0.00003083,0
 .00013475,0.00007958,0.00001818,-0.00003102,-0.00001665,-0.00000095,-0
 .00000320,0.00000105,-0.00000094,-0.00000724,-0.00001590,-0.00000285,0
 .00001366,0.00001034,0.00000502,-0.00000031,0.00000932,0.00000169,-0.0
 0000272,-0.00000983,-0.00000033,-0.00000209,0.00000045,-0.00000168,-0.
 00000014,-0.00000059,-0.00000012,0.00000009,-0.00000026,-0.00000033,0.
 00000037,-0.00000021,-0.00000073,-0.00000014,-0.00000019,0.00000080,-0
 .00000101,0.00000013,-0.00000022,0.00000032,-0.00000023,-0.00000008,0.
 00000034,0.,0.00000044,-0.00000070,0.00000038,-0.00000036,-0.00004033,
 -0.00000646,-0.00000631,-0.00143267,-0.00040149,-0.00007804,-0.0034968
 1,-0.00308381,-0.00124597,0.00839269,-0.02460959,-0.00342455,-0.065045
 78,0.04212920,0.00448851,0.00034053,0.02935419,0.00428439,-0.00000420,
 0.00000150,-0.00002553,-0.00001007,-0.00000329,0.00002337,-0.00000108,
 0.00001606,0.00000109,-0.00000893,-0.00000491,-0.00000149,-0.00000038,
 -0.00000039,-0.00000050,-0.00000049,-0.00000024,0.00000050,0.00000042,
 0.00000004,0.00000025,0.00000004,0.,0.00000021,0.00000007,0.,0.,-0.000
 00039,0.00000003,0.00000009,0.00000033,0.00000021,0.00000009,0.0000070
 4,-0.00000180,0.00000018,0.00005969,0.00004631,0.00007941,0.00022906,-
 0.00123393,-0.00017537,0.00052514,0.00034302,0.00037873,0.06501973,0.0
 0251632,0.00163646,-0.00075112,-0.00090930,-0.00001066,-0.00012508,0.0
 0037577,-0.00039374,0.00001485,-0.00002218,0.00001732,-0.00000317,0.00
 022152,0.00006065,0.00002775,-0.00015631,-0.00008803,-0.00003081,0.000
 01955,0.00003199,0.00001259,-0.00000014,-0.00000654,-0.00000197,0.0000
 1423,0.00001488,0.00000035,0.00000254,-0.00001634,0.00000291,-0.000042
 31,0.00000739,0.00000375,0.00001850,-0.00000262,0.00000014,0.00002333,
 -0.00000558,0.00000054,-0.00001090,0.00000296,0.00000083,0.00000169,0.
 00000034,-0.00000149,-0.00000008,0.00000226,0.00000010,0.00000151,0.00
 000232,-0.00000102,-0.00000620,-0.00000128,0.00000093,0.00000656,0.000
 00169,-0.00000111,0.00000334,-0.00000131,0.00000136,0.00000050,-0.0000
 0129,-0.00000039,0.00004192,0.00000023,0.00000107,-0.00052502,0.000733
 51,0.00025805,-0.00359514,-0.00024222,-0.00142546,0.00617064,-0.013456
 39,-0.00214242,0.04234873,-0.32626409,-0.04094319,-0.00133590,-0.00664
 279,-0.00158808,0.00001434,-0.00000799,-0.00000874,0.00001218,-0.00000
 557,0.00000691,-0.00000005,-0.00001651,-0.00000530,0.00000462,0.000004
 80,0.00000065,0.00000231,0.00000127,0.00000039,-0.00000152,0.00000056,
 -0.00000030,-0.00000105,-0.00000002,-0.00000068,-0.00000065,0.00000027
 ,-0.00000030,0.00000038,-0.00000020,-0.00000015,0.00000022,0.00000023,
 -0.00000028,-0.00000077,-0.00000100,0.00000028,-0.00000696,0.00000265,
 -0.00000144,0.00002935,-0.00008601,0.00013445,0.00033811,-0.00075852,-
 0.00010180,-0.00043197,0.00045656,0.00065019,-0.04548075,0.34451799,-0
 .00055146,-0.00081035,0.00760873,-0.00008830,0.00001173,0.00037755,0.0
 0002597,0.00003779,-0.00030981,-0.00000516,0.00000370,0.00001658,0.000
 02166,0.00000368,-0.00000598,-0.00001688,-0.00001164,0.00002983,0.0000
 0395,0.00000932,-0.00004028,-0.00000041,-0.00000183,0.00000605,0.00000
 186,0.00000114,0.00000185,0.00000271,0.00000139,-0.00002198,-0.0000090
 5,-0.00000131,0.00000871,0.00000372,0.00000220,-0.00000363,0.00000493,
 -0.00000210,-0.00000233,-0.00000254,-0.00000074,-0.00000293,0.00000069
 ,0.00000124,0.00000287,-0.00000026,0.00000014,-0.00000056,0.00000029,0
 .00000075,-0.00000054,-0.00000112,-0.00000106,-0.00000082,0.00000114,0
 .00000058,-0.00000007,0.00000029,-0.00000049,-0.00000066,0.00000085,-0
 .00000051,-0.00000024,0.00000239,-0.00000258,0.00000940,-0.00010027,0.
 00025869,-0.00117933,-0.00130852,-0.00139806,0.00714824,0.00127126,-0.
 00429376,0.00295769,0.00453337,-0.04097337,-0.04381064,-0.00039890,0.0
 0056995,0.00317840,-0.00000585,0.00001398,0.00000282,0.00000945,-0.000
 01646,0.00000376,-0.00000143,-0.00000416,0.00001897,-0.00000006,-0.000
 00003,0.00000306,0.00000015,-0.00000008,0.00000166,0.00000006,0.000000
 56,0.00000110,-0.00000039,0.00000023,0.00000050,-0.00000012,0.00000036
 ,0.00000037,0.00000004,0.00000012,0.00000038,0.00000035,0.00000030,0.0
 0000054,-0.00000030,-0.00000002,0.00000086,-0.00000088,-0.00000035,0.0
 0000430,0.00007751,0.00013533,-0.00093021,0.00006327,-0.00021030,0.000
 03420,0.00025221,0.00070218,-0.00388107,-0.00416118,0.04530084,0.03269
 348,0.00734153,0.00324303,0.00090121,-0.00008423,-0.00050296,0.0002238
 7,0.00020426,-0.00059304,-0.00011892,-0.00249301,0.00125832,-0.0001672
 7,0.00050191,0.00066258,0.00018154,0.00003474,-0.00013534,-0.00002345,
 -0.00001382,0.00009161,0.00001830,0.00001492,-0.00005356,-0.00000545,0
 .00003014,0.00002087,0.00000289,0.00002088,-0.00001927,-0.00000153,-0.
 00006144,0.00002182,0.00000315,0.00002415,-0.00001309,-0.00000009,0.00
 003095,-0.00000828,-0.00000167,-0.00001342,0.00000457,0.00000419,0.000
 00232,0.00000046,-0.00000043,0.00000058,0.00000227,-0.00000071,0.00000
 155,0.00000306,-0.00000096,-0.00000642,-0.00000148,-0.00000039,0.00000
 763,0.00000201,-0.00000098,0.00000367,-0.00000154,0.00000242,0.0000008
 0,-0.00000160,-0.00000152,0.00003615,0.00000115,0.00000765,0.00149125,
 0.00184772,-0.00012561,-0.00017764,0.00113915,0.00023962,-0.00439140,0
 .00348118,-0.00031217,-0.01695500,-0.02083456,-0.00468465,-0.21855643,
 -0.13136275,-0.03288123,-0.00134509,0.00078657,-0.00025900,-0.00148337
 ,0.00065537,0.00034959,0.00004016,-0.00006145,-0.00001190,0.00000399,0
 .00000536,-0.00000033,0.00000667,-0.00000240,0.00000027,-0.00000235,0.
 00000060,0.00000020,-0.00000123,-0.00000007,-0.00000079,-0.00000078,0.
 00000037,-0.00000051,0.00000055,-0.00000016,-0.00000008,0.00000045,0.0
 0000031,-0.00000037,-0.00000098,-0.00000133,0.00000065,-0.00000088,-0.
 00000161,-0.00000141,0.00023285,0.00032036,0.00003896,-0.00002369,-0.0
 0009632,0.00006435,-0.00096060,-0.00101384,-0.00021680,0.00055578,0.00
 035901,0.00037496,0.23598388,-0.02489629,-0.01190500,-0.00382475,-0.00
 254871,0.00018321,0.00047486,0.00066092,0.00044525,0.00002624,0.001551
 24,-0.00104206,-0.00043038,-0.00103180,0.00064235,0.00011048,0.0008631
 4,0.00045132,0.00014398,-0.00006647,-0.00018660,-0.00003257,0.00001946
 ,0.00004531,0.00001425,-0.00007359,-0.00005622,0.00000136,-0.00003543,
 0.00007769,0.00000508,0.00019647,-0.00008448,-0.00001704,-0.00007676,0
 .00005513,0.00000462,-0.00009986,0.00002816,0.00000186,0.00004530,-0.0
 0001542,-0.00000400,-0.00000797,-0.00000035,0.00000617,0.00000061,-0.0
 0001149,0.00000184,-0.00000675,-0.00000798,0.00000517,0.00002642,0.000
 00448,-0.00000560,-0.00002543,-0.00000634,0.00000449,-0.00001402,0.000
 00752,-0.00000231,-0.00000136,0.00000591,-0.00000089,-0.00017027,-0.00
 002336,-0.00002218,0.00268292,-0.00528683,-0.00170710,0.00097359,-0.00
 043377,0.00017313,0.00286355,0.00042956,-0.00087870,0.01016379,0.01066
 455,0.00169495,-0.13213804,-0.16763836,-0.02937882,0.00089356,-0.00022
 165,0.00085052,0.00073676,0.00007897,-0.00056154,0.00005054,0.00008968
 ,0.00000052,-0.00001729,-0.00001562,-0.00000643,-0.00000963,-0.0000038
 9,-0.00000317,0.00000817,-0.00000173,-0.00000220,0.00000346,-0.0000002
 6,0.00000070,0.00000259,-0.00000133,0.00000017,-0.00000202,0.00000033,
 -0.00000006,-0.00000072,-0.00000117,0.00000038,0.00000292,0.00000363,-
 0.00000228,0.00001734,-0.00001925,0.00000084,-0.00143968,-0.00066736,-
 0.00026581,-0.00011685,0.00001107,0.00016585,0.00054050,0.00033077,0.0
 0010074,-0.00032125,0.00051236,0.00067303,0.14079693,0.17356328,-0.003
 40459,-0.00185145,0.00125747,-0.00010751,0.00064515,-0.00411988,0.0000
 7372,-0.00006493,0.00060155,-0.00009314,-0.00038466,0.00214142,-0.0000
 7596,0.00022637,-0.00051292,0.00013126,0.00006016,0.00001326,-0.000003
 15,-0.00001806,-0.00005639,0.00000673,0.00001124,-0.00004255,-0.000008
 33,-0.00000626,-0.00000557,-0.00000727,0.00000745,0.00002426,0.0000218
 9,-0.00001770,-0.00000353,-0.00000719,0.00001388,-0.00000815,-0.000010
 69,0.00000078,-0.00000160,0.00000611,-0.00000061,0.00000178,-0.0000022
 3,-0.00000112,-0.00000508,0.00000064,-0.00000132,0.00000241,-0.0000007
 6,-0.00000113,-0.00000153,0.00000338,0.00000171,0.00000167,-0.00000287
 ,-0.00000076,-0.00000018,-0.00000228,0.00000034,-0.00000135,0.00000086
 ,-0.00000063,0.00000061,-0.00002239,-0.00000135,-0.00000721,0.00000308
 ,-0.00178252,0.00691627,0.00021124,0.00019140,-0.00108310,-0.00041854,
 -0.00084165,0.00738602,0.00004750,-0.00050308,0.00424124,-0.03300816,-
 0.02933386,-0.04373544,-0.00062441,0.00044429,-0.00041161,0.00075225,-
 0.00019487,-0.00061338,0.00000466,-0.00000683,0.00010807,-0.00000372,-
 0.00000433,0.00001717,-0.00000202,-0.00000165,0.00000525,0.00000183,0.
 00000094,0.00000195,0.00000030,0.00000066,0.00000158,0.00000036,0.0000
 0030,0.00000065,-0.00000035,0.00000014,0.00000041,0.00000041,0.0000000
 2,0.00000065,0.00000001,0.00000085,0.00000100,0.00000181,-0.00000457,0
 .00000546,-0.00023037,-0.00014186,0.00037505,0.00006006,0.00016753,-0.
 00110450,0.00002065,-0.00000801,-0.00009130,0.00028278,0.00071537,-0.0
 0392080,0.03640439,0.03268462,0.03262085\\-0.00000372,0.00000388,0.000
 00238,0.00001146,-0.00000071,-0.00000165,-0.00000214,-0.00000386,-0.00
 000254,0.00000513,0.00000428,0.00000627,-0.00000662,0.00000077,-0.0000
 0281,0.00000616,-0.00000048,-0.00000016,-0.00000687,-0.00000256,0.0000
 0140,-0.00000149,0.00000348,0.00000064,0.00000190,-0.00001737,0.000001
 71,0.00000410,0.00001386,0.00000690,0.00001033,-0.00000351,0.00000180,
 -0.00000235,-0.00000094,-0.00000007,-0.00001021,0.00000606,-0.00000931
 ,0.00001333,-0.00000547,0.00000086,-0.00000669,0.00000288,-0.00000224,
 0.00001261,-0.00000511,0.00000047,-0.00000903,-0.00000417,0.00000099,-
 0.00000969,0.00001012,-0.00000237,0.00000538,-0.00000291,0.00000137,0.
 00000334,0.00000061,0.00000137,0.00000019,0.00000087,0.00000070,-0.000
 00693,-0.00000182,-0.00000657,0.00000241,-0.00000016,0.00000072,-0.000
 00164,0.00000183,0.00000016,-0.00000301,-0.00000172,0.00000006,0.,-0.0
 0000176,0.00000113,0.00000538,-0.00000141,-0.00000114,0.00000018,-0.00
 000217,-0.00000111,0.00000228,-0.00000119,-0.00000059,-0.00000162,0.00
 000064,0.00000002,0.00000026,-0.00000039,0.00000307,-0.00000381,0.0000
 0617,-0.00000105,-0.00000021,-0.00000433,0.00000441,-0.00000388,0.0000
 0200,-0.00000277,-0.00000198,0.00000086,-0.00000282,0.00000129,0.00000
 069,-0.00000215,-0.00000039,0.00000043,0.00000016,0.00000115,-0.000000
 54,-0.00000036,-0.00000194,0.00000058,0.00000007,-0.00000136,0.0000005
 7,-0.00000137,0.00000169,-0.00000150,-0.00000023,0.00000129,0.00000283
 ,0.00000129,-0.00000214,0.00000026,0.00000149,-0.00000217,0.00000040,0
 .00000187\\\@


 O WAD SOME POWER THE GIFTIE GIE US       
 TO SEE OURSELS AS OTHERS SEE US.....     
 IT WOULD FRAE MONIE A BLUNDER FREE US,   
                     AND FOOLISH NOTION...
 WHAT AIRS IN DRESS AND GAIT WAD LEA'E US,
                     AND EV'N DEVOTION....
                                          
              (ROBERT BURNS 'TO A LOUSE') 
 Job cpu time:       0 days 19 hours  2 minutes  9.5 seconds.
 Elapsed time:       0 days  1 hours 11 minutes 37.0 seconds.
 File lengths (MBytes):  RWF=   1988 Int=      0 D2E=      0 Chk=     52 Scr=      1
 Normal termination of Gaussian 16 at Mon Oct  6 16:28:20 2025.
