 Entering Gaussian System, Link 0=g16
 Input=EEBC0009.gjf
 Output=EEBC0009.log
 Initial command:
 /usr/local/g16/l1.exe "/dados_01/scratch/Gau-2463457.inp" -scrdir="/dados_01/scratch/"
 Entering Link 1 = /usr/local/g16/l1.exe PID=   2463458.
  
 Copyright (c) 1988-2017, Gaussian, Inc.  All Rights Reserved.
  
 This is part of the Gaussian(R) 16 program.  It is based on
 the Gaussian(R) 09 system (copyright 2009, Gaussian, Inc.),
 the Gaussian(R) 03 system (copyright 2003, Gaussian, Inc.),
 the Gaussian(R) 98 system (copyright 1998, Gaussian, Inc.),
 the Gaussian(R) 94 system (copyright 1995, Gaussian, Inc.),
 the Gaussian 92(TM) system (copyright 1992, Gaussian, Inc.),
 the Gaussian 90(TM) system (copyright 1990, Gaussian, Inc.),
 the Gaussian 88(TM) system (copyright 1988, Gaussian, Inc.),
 the Gaussian 86(TM) system (copyright 1986, Carnegie Mellon
 University), and the Gaussian 82(TM) system (copyright 1983,
 Carnegie Mellon University). Gaussian is a federally registered
 trademark of Gaussian, Inc.
  
 This software contains proprietary and confidential information,
 including trade secrets, belonging to Gaussian, Inc.
  
 This software is provided under written license and may be
 used, copied, transmitted, or stored only in accord with that
 written license.
  
 The following legend is applicable only to US Government
 contracts under FAR:
  
                    RESTRICTED RIGHTS LEGEND
  
 Use, reproduction and disclosure by the US Government is
 subject to restrictions as set forth in subparagraphs (a)
 and (c) of the Commercial Computer Software - Restricted
 Rights clause in FAR 52.227-19.
  
 Gaussian, Inc.
 340 Quinnipiac St., Bldg. 40, Wallingford CT 06492
  
  
 ---------------------------------------------------------------
 Warning -- This program may not be used in any manner that
 competes with the business of Gaussian, Inc. or will provide
 assistance to any competitor of Gaussian, Inc.  The licensee
 of this program is prohibited from giving any competitor of
 Gaussian, Inc. access to this program.  By using this program,
 the user acknowledges that Gaussian, Inc. is engaged in the
 business of creating and licensing software in the field of
 computational chemistry and represents and warrants to the
 licensee that it is not a competitor of Gaussian, Inc. and that
 it will not use this program in any manner prohibited above.
 ---------------------------------------------------------------
  

 Cite this work as:
 Gaussian 16, Revision B.01,
 M. J. Frisch, G. W. Trucks, H. B. Schlegel, G. E. Scuseria, 
 M. A. Robb, J. R. Cheeseman, G. Scalmani, V. Barone, 
 G. A. Petersson, H. Nakatsuji, X. Li, M. Caricato, A. V. Marenich, 
 J. Bloino, B. G. Janesko, R. Gomperts, B. Mennucci, H. P. Hratchian, 
 J. V. Ortiz, A. F. Izmaylov, J. L. Sonnenberg, D. Williams-Young, 
 F. Ding, F. Lipparini, F. Egidi, J. Goings, B. Peng, A. Petrone, 
 T. Henderson, D. Ranasinghe, V. G. Zakrzewski, J. Gao, N. Rega, 
 G. Zheng, W. Liang, M. Hada, M. Ehara, K. Toyota, R. Fukuda, 
 J. Hasegawa, M. Ishida, T. Nakajima, Y. Honda, O. Kitao, H. Nakai, 
 T. Vreven, K. Throssell, J. A. Montgomery, Jr., J. E. Peralta, 
 F. Ogliaro, M. J. Bearpark, J. J. Heyd, E. N. Brothers, K. N. Kudin, 
 V. N. Staroverov, T. A. Keith, R. Kobayashi, J. Normand, 
 K. Raghavachari, A. P. Rendell, J. C. Burant, S. S. Iyengar, 
 J. Tomasi, M. Cossi, J. M. Millam, M. Klene, C. Adamo, R. Cammi, 
 J. W. Ochterski, R. L. Martin, K. Morokuma, O. Farkas, 
 J. B. Foresman, and D. J. Fox, Gaussian, Inc., Wallingford CT, 2016.
 
 ******************************************
 Gaussian 16:  ES64L-G16RevB.01 20-Dec-2017
                 6-Oct-2025 
 ******************************************
 %nprocs=16
 Will use up to   16 processors via shared memory.
 %mem=40GB
 %chk=EEBC0009.chk
 ----------------------------------------------------------------------
 # opt freq=noraman M08HX/6-311++G** scf=xqc Empiricaldispersion=pfd In
 t(Grid=ultraFine)
 ----------------------------------------------------------------------
 1/18=20,19=15,26=4,38=1/1,3;
 2/9=110,12=2,17=6,18=5,40=1/2;
 3/5=4,6=6,7=1111,11=2,25=1,30=1,71=1,74=-74,75=-5,124=11/1,2,3;
 4//1;
 5/5=2,8=3,13=1,38=5/2,8;
 6/7=2,8=2,9=2,10=2,28=1/1;
 7//1,2,3,16;
 1/18=20,19=15,26=4/3(2);
 2/9=110/2;
 99//99;
 2/9=110/2;
 3/5=4,6=6,7=1111,11=2,25=1,30=1,71=1,74=-74,75=-5,124=11/1,2,3;
 4/5=5,16=3,69=1/1;
 5/5=2,8=3,13=1,38=5/2,8;
 7//1,2,3,16;
 1/18=20,19=15,26=4/3(-5);
 2/9=110/2;
 6/7=2,8=2,9=2,10=2,19=2,28=1/1;
 99/9=1/99;
 --------
 EEBC0009
 --------
 Symbolic Z-matrix:
 Charge =  0 Multiplicity = 1
 Cl                   -4.0783    11.0177  -0.1387 
 Cl                    9.5379    10.655    9.0627 
 O                     1.5577    9.0778    6.1798 
 C                     2.1244    9.6827    5.2792 
 C                    -0.938     10.1673   3.0007 
 C                     1.3592    10.1655   4.0796 
 C                     3.5896    10.0129   5.3747 
 C                     0.0625    9.8196    4.0153 
 H                    -0.2503    9.2732    4.7268 
 C                     4.1418    9.8252    6.587 
 H                     3.5371    9.4911    7.2392 
 C                    -1.972     9.2572    2.7528 
 H                    -2.0096    8.4513    3.2545 
 C                    -2.9425    9.5018    1.7938 
 H                    -3.6249    8.8641    1.62 
 C                     4.3114    10.5308   4.1551 
 H                     5.1656    10.0571   4.0737 
 H                     4.5271    11.4981   4.2852 
 C                     5.5012    10.0397   7.09 
 C                     5.7616    9.5902    8.3953 
 H                     5.0736    9.1413    8.8725 
 C                    -2.8954    10.6949   1.0957 
 C                    -1.9188    11.6442   1.3509 
 H                    -1.9249    12.4659   0.8762 
 C                     2.1105    10.9374   3.0267 
 H                     2.1768    11.8707   3.2721 
 H                     1.6203    10.9161   2.1773 
 C                    -0.9414    11.3782   2.2959 
 H                    -0.2662    12.0239   2.468 
 C                     3.5137    10.3706   2.8699 
 H                     3.4675    9.4158    2.6376 
 H                     3.9832    10.8353   2.1491 
 C                     6.5465    10.6836   6.4101 
 H                     6.4046    11.       5.5256 
 C                     6.9887    9.7801    9.009 
 H                     7.1386    9.4768    9.8967 
 C                     7.9916    10.4202   8.3033 
 C                     7.7858    10.865    7.0112 
 H                     8.4885    11.2929   6.5362 
 

 GradGradGradGradGradGradGradGradGradGradGradGradGradGradGradGradGradGrad
 Berny optimization.
 Initialization pass.
                           ----------------------------
                           !    Initial Parameters    !
                           ! (Angstroms and Degrees)  !
 --------------------------                            --------------------------
 ! Name  Definition              Value          Derivative Info.                !
 --------------------------------------------------------------------------------
 ! R1    R(1,22)                 1.7399         estimate D2E/DX2                !
 ! R2    R(2,37)                 1.7386         estimate D2E/DX2                !
 ! R3    R(3,4)                  1.224          estimate D2E/DX2                !
 ! R4    R(4,6)                  1.5026         estimate D2E/DX2                !
 ! R5    R(4,7)                  1.505          estimate D2E/DX2                !
 ! R6    R(5,8)                  1.4667         estimate D2E/DX2                !
 ! R7    R(5,12)                 1.3996         estimate D2E/DX2                !
 ! R8    R(5,28)                 1.4011         estimate D2E/DX2                !
 ! R9    R(6,8)                  1.3436         estimate D2E/DX2                !
 ! R10   R(6,25)                 1.5063         estimate D2E/DX2                !
 ! R11   R(7,10)                 1.3453         estimate D2E/DX2                !
 ! R12   R(7,16)                 1.5089         estimate D2E/DX2                !
 ! R13   R(8,9)                  0.9501         estimate D2E/DX2                !
 ! R14   R(10,11)                0.9501         estimate D2E/DX2                !
 ! R15   R(10,19)                1.4653         estimate D2E/DX2                !
 ! R16   R(12,13)                0.95           estimate D2E/DX2                !
 ! R17   R(12,14)                1.3861         estimate D2E/DX2                !
 ! R18   R(14,15)                0.95           estimate D2E/DX2                !
 ! R19   R(14,22)                1.3831         estimate D2E/DX2                !
 ! R20   R(16,17)                0.9801         estimate D2E/DX2                !
 ! R21   R(16,18)                0.9996         estimate D2E/DX2                !
 ! R22   R(16,30)                1.5211         estimate D2E/DX2                !
 ! R23   R(19,20)                1.4049         estimate D2E/DX2                !
 ! R24   R(19,33)                1.4034         estimate D2E/DX2                !
 ! R25   R(20,21)                0.95           estimate D2E/DX2                !
 ! R26   R(20,35)                1.3851         estimate D2E/DX2                !
 ! R27   R(22,23)                1.3857         estimate D2E/DX2                !
 ! R28   R(23,24)                0.949          estimate D2E/DX2                !
 ! R29   R(23,28)                1.3853         estimate D2E/DX2                !
 ! R30   R(25,26)                0.9673         estimate D2E/DX2                !
 ! R31   R(25,27)                0.9809         estimate D2E/DX2                !
 ! R32   R(25,30)                1.5215         estimate D2E/DX2                !
 ! R33   R(28,29)                0.95           estimate D2E/DX2                !
 ! R34   R(30,31)                0.9837         estimate D2E/DX2                !
 ! R35   R(30,32)                0.9777         estimate D2E/DX2                !
 ! R36   R(33,34)                0.95           estimate D2E/DX2                !
 ! R37   R(33,38)                1.3893         estimate D2E/DX2                !
 ! R38   R(35,36)                0.95           estimate D2E/DX2                !
 ! R39   R(35,37)                1.3833         estimate D2E/DX2                !
 ! R40   R(37,38)                1.3819         estimate D2E/DX2                !
 ! R41   R(38,39)                0.95           estimate D2E/DX2                !
 ! A1    A(3,4,6)              120.6938         estimate D2E/DX2                !
 ! A2    A(3,4,7)              120.8305         estimate D2E/DX2                !
 ! A3    A(6,4,7)              118.4224         estimate D2E/DX2                !
 ! A4    A(8,5,12)             118.1848         estimate D2E/DX2                !
 ! A5    A(8,5,28)             123.6768         estimate D2E/DX2                !
 ! A6    A(12,5,28)            118.1056         estimate D2E/DX2                !
 ! A7    A(4,6,8)              116.5502         estimate D2E/DX2                !
 ! A8    A(4,6,25)             117.9512         estimate D2E/DX2                !
 ! A9    A(8,6,25)             125.4401         estimate D2E/DX2                !
 ! A10   A(4,7,10)             115.2259         estimate D2E/DX2                !
 ! A11   A(4,7,16)             119.3241         estimate D2E/DX2                !
 ! A12   A(10,7,16)            125.4448         estimate D2E/DX2                !
 ! A13   A(5,8,6)              129.0797         estimate D2E/DX2                !
 ! A14   A(5,8,9)              115.4544         estimate D2E/DX2                !
 ! A15   A(6,8,9)              115.4659         estimate D2E/DX2                !
 ! A16   A(7,10,11)            113.9799         estimate D2E/DX2                !
 ! A17   A(7,10,19)            132.0465         estimate D2E/DX2                !
 ! A18   A(11,10,19)           113.9736         estimate D2E/DX2                !
 ! A19   A(5,12,13)            119.1632         estimate D2E/DX2                !
 ! A20   A(5,12,14)            121.6717         estimate D2E/DX2                !
 ! A21   A(13,12,14)           119.1652         estimate D2E/DX2                !
 ! A22   A(12,14,15)           120.7328         estimate D2E/DX2                !
 ! A23   A(12,14,22)           118.5267         estimate D2E/DX2                !
 ! A24   A(15,14,22)           120.7404         estimate D2E/DX2                !
 ! A25   A(7,16,17)            108.5511         estimate D2E/DX2                !
 ! A26   A(7,16,18)            109.2802         estimate D2E/DX2                !
 ! A27   A(7,16,30)            113.3234         estimate D2E/DX2                !
 ! A28   A(17,16,18)           106.8844         estimate D2E/DX2                !
 ! A29   A(17,16,30)           109.6315         estimate D2E/DX2                !
 ! A30   A(18,16,30)           108.9692         estimate D2E/DX2                !
 ! A31   A(10,19,20)           116.3644         estimate D2E/DX2                !
 ! A32   A(10,19,33)           126.2905         estimate D2E/DX2                !
 ! A33   A(20,19,33)           117.3144         estimate D2E/DX2                !
 ! A34   A(19,20,21)           118.9238         estimate D2E/DX2                !
 ! A35   A(19,20,35)           122.142          estimate D2E/DX2                !
 ! A36   A(21,20,35)           118.9342         estimate D2E/DX2                !
 ! A37   A(1,22,14)            119.6682         estimate D2E/DX2                !
 ! A38   A(1,22,23)            118.8639         estimate D2E/DX2                !
 ! A39   A(14,22,23)           121.4671         estimate D2E/DX2                !
 ! A40   A(22,23,24)           119.7717         estimate D2E/DX2                !
 ! A41   A(22,23,28)           119.4293         estimate D2E/DX2                !
 ! A42   A(24,23,28)           120.7987         estimate D2E/DX2                !
 ! A43   A(6,25,26)            110.5665         estimate D2E/DX2                !
 ! A44   A(6,25,27)            110.1754         estimate D2E/DX2                !
 ! A45   A(6,25,30)            109.9464         estimate D2E/DX2                !
 ! A46   A(26,25,27)           105.9549         estimate D2E/DX2                !
 ! A47   A(26,25,30)           108.8067         estimate D2E/DX2                !
 ! A48   A(27,25,30)           111.3189         estimate D2E/DX2                !
 ! A49   A(5,28,23)            120.7181         estimate D2E/DX2                !
 ! A50   A(5,28,29)            119.6424         estimate D2E/DX2                !
 ! A51   A(23,28,29)           119.6395         estimate D2E/DX2                !
 ! A52   A(16,30,25)           110.9377         estimate D2E/DX2                !
 ! A53   A(16,30,31)           109.0485         estimate D2E/DX2                !
 ! A54   A(16,30,32)           108.7241         estimate D2E/DX2                !
 ! A55   A(25,30,31)           110.0355         estimate D2E/DX2                !
 ! A56   A(25,30,32)           109.9861         estimate D2E/DX2                !
 ! A57   A(31,30,32)           108.0455         estimate D2E/DX2                !
 ! A58   A(19,33,34)           119.5114         estimate D2E/DX2                !
 ! A59   A(19,33,38)           120.9788         estimate D2E/DX2                !
 ! A60   A(34,33,38)           119.5098         estimate D2E/DX2                !
 ! A61   A(20,35,36)           120.667          estimate D2E/DX2                !
 ! A62   A(20,35,37)           118.6664         estimate D2E/DX2                !
 ! A63   A(36,35,37)           120.6666         estimate D2E/DX2                !
 ! A64   A(2,37,35)            118.9773         estimate D2E/DX2                !
 ! A65   A(2,37,38)            119.826          estimate D2E/DX2                !
 ! A66   A(35,37,38)           121.1957         estimate D2E/DX2                !
 ! A67   A(33,38,37)           119.6939         estimate D2E/DX2                !
 ! A68   A(33,38,39)           120.1527         estimate D2E/DX2                !
 ! A69   A(37,38,39)           120.1534         estimate D2E/DX2                !
 ! D1    D(3,4,6,8)             -4.3376         estimate D2E/DX2                !
 ! D2    D(3,4,6,25)           178.2908         estimate D2E/DX2                !
 ! D3    D(7,4,6,8)            178.2977         estimate D2E/DX2                !
 ! D4    D(7,4,6,25)             0.926          estimate D2E/DX2                !
 ! D5    D(3,4,7,10)           -11.8001         estimate D2E/DX2                !
 ! D6    D(3,4,7,16)           168.9835         estimate D2E/DX2                !
 ! D7    D(6,4,7,10)           165.5609         estimate D2E/DX2                !
 ! D8    D(6,4,7,16)           -13.6555         estimate D2E/DX2                !
 ! D9    D(12,5,8,6)           149.7626         estimate D2E/DX2                !
 ! D10   D(12,5,8,9)           -30.2409         estimate D2E/DX2                !
 ! D11   D(28,5,8,6)           -32.3644         estimate D2E/DX2                !
 ! D12   D(28,5,8,9)           147.6321         estimate D2E/DX2                !
 ! D13   D(8,5,12,13)            1.1288         estimate D2E/DX2                !
 ! D14   D(8,5,12,14)         -178.8656         estimate D2E/DX2                !
 ! D15   D(28,5,12,13)        -176.8645         estimate D2E/DX2                !
 ! D16   D(28,5,12,14)           3.1411         estimate D2E/DX2                !
 ! D17   D(8,5,28,23)         -179.8821         estimate D2E/DX2                !
 ! D18   D(8,5,28,29)            0.109          estimate D2E/DX2                !
 ! D19   D(12,5,28,23)          -2.0075         estimate D2E/DX2                !
 ! D20   D(12,5,28,29)         177.9836         estimate D2E/DX2                !
 ! D21   D(4,6,8,5)            178.1544         estimate D2E/DX2                !
 ! D22   D(4,6,8,9)             -1.8421         estimate D2E/DX2                !
 ! D23   D(25,6,8,5)            -4.6955         estimate D2E/DX2                !
 ! D24   D(25,6,8,9)           175.308          estimate D2E/DX2                !
 ! D25   D(4,6,25,26)          -83.6075         estimate D2E/DX2                !
 ! D26   D(4,6,25,27)          159.607          estimate D2E/DX2                !
 ! D27   D(4,6,25,30)           36.5556         estimate D2E/DX2                !
 ! D28   D(8,6,25,26)           99.2786         estimate D2E/DX2                !
 ! D29   D(8,6,25,27)          -17.5069         estimate D2E/DX2                !
 ! D30   D(8,6,25,30)         -140.5583         estimate D2E/DX2                !
 ! D31   D(4,7,10,11)            0.888          estimate D2E/DX2                !
 ! D32   D(4,7,10,19)         -179.1027         estimate D2E/DX2                !
 ! D33   D(16,7,10,11)        -179.9505         estimate D2E/DX2                !
 ! D34   D(16,7,10,19)           0.0587         estimate D2E/DX2                !
 ! D35   D(4,7,16,17)         -134.6953         estimate D2E/DX2                !
 ! D36   D(4,7,16,18)          109.0761         estimate D2E/DX2                !
 ! D37   D(4,7,16,30)          -12.6487         estimate D2E/DX2                !
 ! D38   D(10,7,16,17)          46.1748         estimate D2E/DX2                !
 ! D39   D(10,7,16,18)         -70.0538         estimate D2E/DX2                !
 ! D40   D(10,7,16,30)         168.2214         estimate D2E/DX2                !
 ! D41   D(7,10,19,20)        -173.1253         estimate D2E/DX2                !
 ! D42   D(7,10,19,33)           8.9561         estimate D2E/DX2                !
 ! D43   D(11,10,19,20)          6.8839         estimate D2E/DX2                !
 ! D44   D(11,10,19,33)       -171.0347         estimate D2E/DX2                !
 ! D45   D(5,12,14,15)         178.3245         estimate D2E/DX2                !
 ! D46   D(5,12,14,22)          -1.6827         estimate D2E/DX2                !
 ! D47   D(13,12,14,15)         -1.6699         estimate D2E/DX2                !
 ! D48   D(13,12,14,22)        178.3229         estimate D2E/DX2                !
 ! D49   D(12,14,22,1)         178.6771         estimate D2E/DX2                !
 ! D50   D(12,14,22,23)         -0.9735         estimate D2E/DX2                !
 ! D51   D(15,14,22,1)          -1.33           estimate D2E/DX2                !
 ! D52   D(15,14,22,23)        179.0194         estimate D2E/DX2                !
 ! D53   D(7,16,30,25)          51.1396         estimate D2E/DX2                !
 ! D54   D(7,16,30,31)         -70.2049         estimate D2E/DX2                !
 ! D55   D(7,16,30,32)         172.2102         estimate D2E/DX2                !
 ! D56   D(17,16,30,25)        172.5817         estimate D2E/DX2                !
 ! D57   D(17,16,30,31)         51.2372         estimate D2E/DX2                !
 ! D58   D(17,16,30,32)        -66.3477         estimate D2E/DX2                !
 ! D59   D(18,16,30,25)        -70.759          estimate D2E/DX2                !
 ! D60   D(18,16,30,31)        167.8965         estimate D2E/DX2                !
 ! D61   D(18,16,30,32)         50.3116         estimate D2E/DX2                !
 ! D62   D(10,19,20,21)          2.6649         estimate D2E/DX2                !
 ! D63   D(10,19,20,35)       -177.3409         estimate D2E/DX2                !
 ! D64   D(33,19,20,21)       -179.2232         estimate D2E/DX2                !
 ! D65   D(33,19,20,35)          0.771          estimate D2E/DX2                !
 ! D66   D(10,19,33,34)         -2.1099         estimate D2E/DX2                !
 ! D67   D(10,19,33,38)        177.9015         estimate D2E/DX2                !
 ! D68   D(20,19,33,34)        179.989          estimate D2E/DX2                !
 ! D69   D(20,19,33,38)          0.0004         estimate D2E/DX2                !
 ! D70   D(19,20,35,36)        179.2471         estimate D2E/DX2                !
 ! D71   D(19,20,35,37)         -0.7571         estimate D2E/DX2                !
 ! D72   D(21,20,35,36)         -0.7587         estimate D2E/DX2                !
 ! D73   D(21,20,35,37)        179.2371         estimate D2E/DX2                !
 ! D74   D(1,22,23,24)           2.2233         estimate D2E/DX2                !
 ! D75   D(1,22,23,28)        -177.5895         estimate D2E/DX2                !
 ! D76   D(14,22,23,24)       -178.1234         estimate D2E/DX2                !
 ! D77   D(14,22,23,28)          2.0638         estimate D2E/DX2                !
 ! D78   D(22,23,28,5)          -0.5198         estimate D2E/DX2                !
 ! D79   D(22,23,28,29)        179.4891         estimate D2E/DX2                !
 ! D80   D(24,23,28,5)         179.6694         estimate D2E/DX2                !
 ! D81   D(24,23,28,29)         -0.3217         estimate D2E/DX2                !
 ! D82   D(6,25,30,16)         -63.1178         estimate D2E/DX2                !
 ! D83   D(6,25,30,31)          57.6449         estimate D2E/DX2                !
 ! D84   D(6,25,30,32)         176.5583         estimate D2E/DX2                !
 ! D85   D(26,25,30,16)         58.106          estimate D2E/DX2                !
 ! D86   D(26,25,30,31)        178.8687         estimate D2E/DX2                !
 ! D87   D(26,25,30,32)        -62.2179         estimate D2E/DX2                !
 ! D88   D(27,25,30,16)        174.5052         estimate D2E/DX2                !
 ! D89   D(27,25,30,31)        -64.7322         estimate D2E/DX2                !
 ! D90   D(27,25,30,32)         54.1813         estimate D2E/DX2                !
 ! D91   D(19,33,38,37)         -0.7643         estimate D2E/DX2                !
 ! D92   D(19,33,38,39)        179.2402         estimate D2E/DX2                !
 ! D93   D(34,33,38,37)        179.2472         estimate D2E/DX2                !
 ! D94   D(34,33,38,39)         -0.7484         estimate D2E/DX2                !
 ! D95   D(20,35,37,2)        -179.6648         estimate D2E/DX2                !
 ! D96   D(20,35,37,38)         -0.0418         estimate D2E/DX2                !
 ! D97   D(36,35,37,2)           0.331          estimate D2E/DX2                !
 ! D98   D(36,35,37,38)        179.954          estimate D2E/DX2                !
 ! D99   D(2,37,38,33)        -179.5892         estimate D2E/DX2                !
 ! D100  D(2,37,38,39)           0.4064         estimate D2E/DX2                !
 ! D101  D(35,37,38,33)          0.7909         estimate D2E/DX2                !
 ! D102  D(35,37,38,39)       -179.2135         estimate D2E/DX2                !
 --------------------------------------------------------------------------------
 Trust Radius=3.00D-01 FncErr=1.00D-07 GrdErr=1.00D-06 EigMax=2.50D+02 EigMin=1.00D-04
 Number of steps in this run=    222 maximum allowed number of steps=    234.
 GradGradGradGradGradGradGradGradGradGradGradGradGradGradGradGradGradGrad

                          Input orientation:                          
 ---------------------------------------------------------------------
 Center     Atomic      Atomic             Coordinates (Angstroms)
 Number     Number       Type             X           Y           Z
 ---------------------------------------------------------------------
      1         17           0       -4.078300   11.017700   -0.138700
      2         17           0        9.537900   10.655000    9.062700
      3          8           0        1.557700    9.077800    6.179800
      4          6           0        2.124400    9.682700    5.279200
      5          6           0       -0.938000   10.167300    3.000700
      6          6           0        1.359200   10.165500    4.079600
      7          6           0        3.589600   10.012900    5.374700
      8          6           0        0.062500    9.819600    4.015300
      9          1           0       -0.250300    9.273200    4.726800
     10          6           0        4.141800    9.825200    6.587000
     11          1           0        3.537100    9.491100    7.239200
     12          6           0       -1.972000    9.257200    2.752800
     13          1           0       -2.009600    8.451300    3.254500
     14          6           0       -2.942500    9.501800    1.793800
     15          1           0       -3.624900    8.864100    1.620000
     16          6           0        4.311400   10.530800    4.155100
     17          1           0        5.165600   10.057100    4.073700
     18          1           0        4.527100   11.498100    4.285200
     19          6           0        5.501200   10.039700    7.090000
     20          6           0        5.761600    9.590200    8.395300
     21          1           0        5.073600    9.141300    8.872500
     22          6           0       -2.895400   10.694900    1.095700
     23          6           0       -1.918800   11.644200    1.350900
     24          1           0       -1.924900   12.465900    0.876200
     25          6           0        2.110500   10.937400    3.026700
     26          1           0        2.176800   11.870700    3.272100
     27          1           0        1.620300   10.916100    2.177300
     28          6           0       -0.941400   11.378200    2.295900
     29          1           0       -0.266200   12.023900    2.468000
     30          6           0        3.513700   10.370600    2.869900
     31          1           0        3.467500    9.415800    2.637600
     32          1           0        3.983200   10.835300    2.149100
     33          6           0        6.546500   10.683600    6.410100
     34          1           0        6.404600   11.000000    5.525600
     35          6           0        6.988700    9.780100    9.009000
     36          1           0        7.138600    9.476800    9.896700
     37          6           0        7.991600   10.420200    8.303300
     38          6           0        7.785800   10.865000    7.011200
     39          1           0        8.488500   11.292900    6.536200
 ---------------------------------------------------------------------
                    Distance matrix (angstroms):
                    1          2          3          4          5
     1  Cl   0.000000
     2  Cl  16.437707   0.000000
     3  O    8.686262   8.630311   0.000000
     4  C    8.343222   8.379751   1.223983   0.000000
     5  C    4.521117  12.113223   4.185953   3.847687   0.000000
     6  C    6.934458   9.589683   2.373464   1.502554   2.537943
     7  C    9.497573   7.028222   2.377229   1.504980   5.114575
     8  C    5.986433  10.768349   2.733304   2.422316   1.466734
     9  H    6.431948  10.794362   2.327714   2.472253   2.061981
    10  C   10.687710   5.994627   2.720660   2.408433   6.227596
    11  H   10.712527   6.378826   2.282799   2.423640   6.200697
    12  C    3.987058  13.200245   4.922936   4.831588   1.399604
    13  H    4.730722  13.112446   4.655697   4.765051   2.038970
    14  C    2.706021  14.488863   6.298299   6.152578   2.432595
    15  H    2.817195  15.226963   6.906286   6.863986   3.289999
    16  C    9.437206   7.170514   3.713958   2.601123   5.387112
    17  H   10.203762   6.660677   4.290877   3.292765   6.198178
    18  H    9.687858   6.974485   4.273722   3.171227   5.769600
    19  C   12.040656   4.534874   4.159917   3.848275   7.629020
    20  C   13.103074   3.979907   4.779516   4.790392   8.620870
    21  H   12.979980   4.717779   4.429020   4.680032   8.465816
    22  C    1.739884  14.766910   6.949330   6.612459   2.781870
    23  C    2.697193  13.845806   6.480026   5.968793   2.421785
    24  H    2.786474  14.201899   7.192767   6.597685   3.281925
    25  C    6.951795   9.574932   3.702126   2.578415   3.144373
    26  H    7.175475   9.444298   4.079007   2.969603   3.560507
    27  H    6.152091  10.495966   4.404915   3.375970   2.789908
    28  C    3.987152  12.495132   5.159653   4.601514   1.401083
    29  H    4.726461  11.894719   5.077753   4.370244   2.045006
    30  C    8.192001   8.644226   4.056194   2.864976   4.458259
    31  H    8.198355   8.925653   4.038411   2.975433   4.483863
    32  H    8.381830   8.870460   5.021792   3.818527   5.038815
    33  C   12.485383   3.998197   5.245928   4.672869   8.240650
    34  H   11.915360   4.737897   5.255023   4.485098   7.809115
    35  C   14.411473   2.695692   6.163875   6.130441   9.954002
    36  H   15.129523   2.800063   6.717216   6.819524  10.642513
    37  C   14.741332   1.738638   6.906979   6.641771  10.388421
    38  C   13.852843   2.706032   6.532575   6.037310   9.626816
    39  H   14.232164   2.809156   7.284894   6.683903  10.130431
                    6          7          8          9         10
     6  C    0.000000
     7  C    2.583651   0.000000
     8  C    1.343582   3.784940   0.000000
     9  H    1.950784   3.963807   0.950068   0.000000
    10  C    3.761080   1.345298   4.822278   4.801624   0.000000
    11  H    3.896298   1.936851   4.751241   4.550168   0.950079
    12  C    3.698959   6.194904   2.459551   2.619386   7.238941
    13  H    3.868861   6.187478   2.597048   2.436868   7.129718
    14  C    4.916300   7.466753   3.750478   3.987817   8.559595
    15  H    5.708286   8.213801   4.499707   4.605160   9.269112
    16  C    2.975673   1.508854   4.310278   4.766288   2.537868
    17  H    3.807948   2.044097   5.108957   5.511172   2.723715
    18  H    3.442918   2.066818   4.777328   5.288548   2.871469
    19  C    5.121962   2.568499   6.251534   6.265141   1.465260
    20  C    6.191717   3.744367   7.191437   7.049917   2.439042
    21  H    6.149605   3.898275   7.011676   6.748936   2.561148
    22  C    5.223557   7.799371   4.247280   4.711971   8.968441
    23  C    4.514160   7.013885   3.788633   4.449970   8.213183
    24  H    5.132146   7.527511   4.561426   5.274916   8.740216
    25  C    1.506280   2.924986   2.533991   3.351608   4.247223
    26  H    2.056267   3.141393   3.038029   3.841090   4.362781
    27  H    2.061630   3.862289   2.647130   3.563455   5.195525
    28  C    3.153567   5.645619   2.528514   3.289061   6.831125
    29  H    2.948361   5.230700   2.713138   3.559323   6.421130
    30  C    2.479377   2.531350   3.677815   4.338209   3.809042
    31  H    2.662019   2.804131   3.695286   4.266981   4.027412
    32  H    3.325784   3.351978   4.459399   5.196847   4.554164
    33  C    5.710319   3.203927   6.965904   7.142774   2.559439
    34  H    5.314449   2.986865   6.625450   6.921533   2.761700
    35  C    7.492582   4.981587   8.538785   8.425990   3.738042
    36  H    8.228877   5.773326   9.207582   9.020264   4.478427
    37  C    7.867226   5.302848   9.034284   9.057366   4.256838
    38  C    7.098223   4.583918   8.349709   8.504776   3.813118
    39  H    7.624489   5.194873   8.917568   9.149849   4.588085
                   11         12         13         14         15
    11  H    0.000000
    12  C    7.108634   0.000000
    13  H    6.908321   0.950048   0.000000
    14  C    8.463906   1.386139   2.026696   0.000000
    15  H    9.124844   2.042019   2.334778   0.950020   0.000000
    16  C    3.345473   6.562745   6.714942   7.697639   8.496439
    17  H    3.604547   7.302736   7.398187   8.440829   9.204172
    18  H    3.705977   7.043308   7.285175   8.123251   8.971976
    19  C    2.044728   8.675963   8.581736   9.981740  10.704608
    20  C    2.508942   9.579001   9.387037  10.924696  11.599064
    21  H    2.269551   9.332987   9.066959  10.700272  11.328702
    22  C    8.976012   2.380258   3.237097   1.383130   2.039336
    23  C    8.311123   2.768740   3.718407   2.415367   3.272942
    24  H    8.897789   3.717472   4.666958   3.265484   4.051691
    25  C    4.676765   4.423223   4.817449   5.395720   6.258769
    26  H    4.821908   4.930780   5.405419   5.831320   6.740089
    27  H    5.597105   3.998471   4.517939   4.792334   5.659807
    28  C    6.932123   2.401986   3.259863   2.788796   3.738812
    29  H    6.606400   3.262743   4.052345   3.738732   4.688742
    30  C    4.457000   5.598775   5.859904   6.602675   7.402121
    31  H    4.602742   5.443031   5.595485   6.465872   7.186238
    32  H    5.283464   6.190255   6.543624   7.061854   7.877104
    33  C    3.341549   9.379515   9.388707  10.618286  11.389162
    34  H    3.665482   8.994065   9.080337  10.175422  10.972996
    35  C    3.889634  10.941097  10.763335  12.278652  12.964755
    36  H    4.475859  11.579575  11.351653  12.933916  13.591619
    37  C    4.673126  11.464464  11.375014  12.758197  13.491887
    38  C    4.471134  10.767249  10.765157  12.007331  12.777821
    39  H    5.315736  11.308415  11.360209  12.504645  13.296712
                   16         17         18         19         20
    16  C    0.000000
    17  H    0.980140   0.000000
    18  H    0.999561   1.590250   0.000000
    19  C    3.204753   3.034962   3.307976   0.000000
    20  C    4.578985   4.387418   4.696487   1.404872   0.000000
    21  H    4.976497   4.886270   5.186183   2.041389   0.950039
    22  C    7.831017   8.617134   8.118593  10.337495  11.377529
    23  C    6.922325   7.753789   7.083861   9.516727  10.622195
    24  H    7.306657   8.142574   7.361129   9.982220  11.130534
    25  C    2.506506   3.347353   2.781755   5.367785   6.630788
    26  H    2.670494   3.586730   2.586332   5.383359   6.655723
    27  H    3.361870   4.111370   3.637506   6.321715   7.587615
    28  C    5.636188   6.496255   5.820325   8.141380   9.237415
    29  H    5.101968   5.995917   5.153097   7.652636   8.797167
    30  C    1.521094   2.067895   2.073960   4.676419   6.015989
    31  H    2.063540   2.314561   2.858900   4.934476   6.200356
    32  H    2.055352   2.389090   2.301750   5.229703   6.612715
    33  C    3.178686   2.785346   3.042464   1.403397   2.398460
    34  H    2.545566   2.128895   2.304713   2.045887   3.261313
    35  C    5.593910   5.268549   5.596900   2.441845   1.385086
    36  H    6.486135   6.175500   6.511107   3.297802   2.040390
    37  C    5.546500   5.099768   5.413849   2.796242   2.381232
    38  C    4.510039   4.018340   4.295465   2.430376   2.763735
    39  H    4.868121   4.316570   4.560899   3.286513   3.713681
                   21         22         23         24         25
    21  H    0.000000
    22  C   11.242653   0.000000
    23  C   10.570366   1.385657   0.000000
    24  H   11.134306   2.031377   0.948983   0.000000
    25  C    6.795536   5.370903   4.420761   4.821350   0.000000
    26  H    6.870630   5.643265   4.529487   4.787331   0.967298
    27  H    7.739567   4.648692   3.706521   4.082056   0.980933
    28  C    9.188885   2.392801   1.385313   2.041056   3.168985
    29  H    8.822724   3.249945   2.030559   2.341042   2.672327
    30  C    6.322632   6.658042   5.782860   6.159829   1.521453
    31  H    6.444291   6.670836   5.969388   6.440778   2.075600
    32  H    7.018740   6.960208   6.010412   6.259774   2.070655
    33  C    3.257535  10.834780   9.908560  10.274496   5.584792
    34  H    4.053155  10.305683   9.333922   9.651236   4.968673
    35  C    2.023439  12.694590  11.893903  12.361562   7.805389
    36  H    2.329328  13.402333  12.639811  13.132067   8.637826
    37  C    3.236402  13.059545  12.167583  12.557216   7.918165
    38  C    3.713705  12.211065  11.261679  11.597362   6.934732
    39  H    4.663606  12.631303  11.632826  11.910098   7.288474
                   26         27         28         29         30
    26  H    0.000000
    27  H    1.555487   0.000000
    28  C    3.304345   2.605745   0.000000
    29  H    2.576489   2.206946   0.949969   0.000000
    30  C    2.049236   2.088595   4.603548   4.145186   0.000000
    31  H    2.845177   2.423824   4.837993   4.557572   0.983738
    32  H    2.365642   2.364449   4.956609   4.424010   0.977716
    33  C    5.509131   6.499084   8.571917   7.984325   4.672137
    34  H    4.869361   5.840178   8.033537   7.409242   3.975700
    35  C    7.774124   8.762553  10.512189  10.022619   7.079044
    36  H    8.616005   9.597518  11.254949  10.793719   7.957053
    37  C    7.824885   8.852528  10.807641  10.237863   7.041014
    38  C    6.815657   7.834704   9.932847   9.317640   5.970397
    39  H    7.129219   8.143351  10.339750   9.681394   6.248282
                   31         32         33         34         35
    31  H    0.000000
    32  H    1.587312   0.000000
    33  C    5.031830   4.974901   0.000000
    34  H    4.413252   4.158252   0.950045   0.000000
    35  C    7.288779   7.563379   2.786778   3.736764   0.000000
    36  H    8.134816   8.475103   3.736754   4.686727   0.949985
    37  C    7.319594   7.356205   2.396226   3.251208   1.383311
    38  C    6.314766   6.172574   1.389277   2.032965   2.409062
    39  H    6.628199   6.305059   2.039243   2.334468   3.263848
                   36         37         38         39
    36  H    0.000000
    37  C    2.038758   0.000000
    38  C    3.266815   1.381927   0.000000
    39  H    4.051347   2.032525   0.950006   0.000000
 Stoichiometry    C20H16Cl2O
 Framework group  C1[X(C20H16Cl2O)]
 Deg. of freedom   111
 Full point group                 C1      NOp   1
 Largest Abelian subgroup         C1      NOp   1
 Largest concise Abelian subgroup C1      NOp   1
                         Standard orientation:                         
 ---------------------------------------------------------------------
 Center     Atomic      Atomic             Coordinates (Angstroms)
 Number     Number       Type             X           Y           Z
 ---------------------------------------------------------------------
      1         17           0       -8.184399   -0.583965   -0.237501
      2         17           0        8.252804   -0.464413   -0.285233
      3          8           0        0.045049    2.176604    0.088995
      4          6           0        0.006078    0.955190    0.158013
      5          6           0       -3.814753    0.564851   -0.073446
      6          6           0       -1.304866    0.224410    0.086929
      7          6           0        1.272148    0.147364    0.255212
      8          6           0       -2.413043    0.982453    0.036675
      9          1           0       -2.268514    1.920542    0.078251
     10          6           0        2.406696    0.828037    0.011672
     11          1           0        2.270991    1.748390   -0.181160
     12          6           0       -4.794196    1.376750    0.509995
     13          1           0       -4.531288    2.179428    0.944943
     14          6           0       -6.138037    1.039369    0.469421
     15          1           0       -6.789311    1.588213    0.890312
     16          6           0        1.187575   -1.321737    0.588724
     17          1           0        1.863524   -1.526650    1.268268
     18          1           0        1.419287   -1.858156   -0.222253
     19          6           0        3.812563    0.415772   -0.012059
     20          6           0        4.760992    1.441292   -0.161919
     21          1           0        4.461441    2.342005   -0.201415
     22          6           0       -6.509686   -0.113930   -0.197534
     23          6           0       -5.574804   -0.914784   -0.833673
     24          1           0       -5.859482   -1.686568   -1.306830
     25          6           0       -1.277845   -1.280740    0.138621
     26          1           0       -1.106025   -1.647880   -0.739645
     27          1           0       -2.155640   -1.625817    0.408119
     28          6           0       -4.232525   -0.578787   -0.766694
     29          1           0       -3.588351   -1.129731   -1.195579
     30          6           0       -0.184580   -1.747929    1.088002
     31          1           0       -0.331972   -1.369584    1.984033
     32          1           0       -0.202099   -2.722521    1.164122
     33          6           0        4.293438   -0.900742    0.059173
     34          1           0        3.679289   -1.618449    0.160673
     35          6           0        6.118467    1.181909   -0.253828
     36          1           0        6.740779    1.890939   -0.365523
     37          6           0        6.549837   -0.130327   -0.179622
     38          6           0        5.654273   -1.170045   -0.016300
     39          1           0        5.967713   -2.064822    0.044024
 ---------------------------------------------------------------------
 Rotational constants (GHZ):           1.1390503           0.0545332           0.0527008
 Standard basis: 6-311++G(d,p) (5D, 7F)
 There are   657 symmetry adapted cartesian basis functions of A   symmetry.
 There are   634 symmetry adapted basis functions of A   symmetry.
   634 basis functions,  1006 primitive gaussians,   657 cartesian basis functions
    89 alpha electrons       89 beta electrons
       nuclear repulsion energy      1871.8183146591 Hartrees.
 NAtoms=   39 NActive=   39 NUniq=   39 SFac= 1.00D+00 NAtFMM=   60 NAOKFM=F Big=F
 Integral buffers will be    131072 words long.
 Raffenetti 2 integral format.
 Two-electron integral symmetry is turned on.
 R6APFD:  NTU= -4 IXU= 1 FactS= 1.050
 Nuclear repulsion after empirical dispersion term =     1871.7879460489 Hartrees.
 One-electron integrals computed using PRISM.
 NBasis=   634 RedAO= T EigKep=  1.79D-06  NBF=   634
 NBsUse=   626 1.00D-06 EigRej=  9.91D-07 NBFU=   626
 ExpMin= 3.60D-02 ExpMax= 1.06D+05 ExpMxC= 3.62D+03 IAcc=3 IRadAn=         5 AccDes= 0.00D+00
 Harris functional with IExCor= 1009 and IRadAn=       5 diagonalized for initial guess.
 HarFok:  IExCor= 1009 AccDes= 0.00D+00 IRadAn=         5 IDoV= 1 UseB2=F ITyADJ=14
 ICtDFT=  3500011 ScaDFX=  1.000000  1.000000  1.000000  1.000000
 FoFCou: FMM=F IPFlag=           0 FMFlag=      100000 FMFlg1=           0
         NFxFlg=           0 DoJE=T BraDBF=F KetDBF=T FulRan=T
         wScrn=  0.000000 ICntrl=       500 IOpCl=  0 I1Cent=   200000004 NGrid=           0
         NMat0=    1 NMatS0=      1 NMatT0=    0 NMatD0=    1 NMtDS0=    0 NMtDT0=    0
 Petite list used in FoFCou.
 Requested convergence on RMS density matrix=1.00D-08 within  32 cycles.
 Requested convergence on MAX density matrix=1.00D-06.
 Requested convergence on             energy=1.00D-06.
 No special actions if energy rises.
 SCF Done:  E(RM08HX) =  -1767.14313892     A.U. after   17 cycles
            NFock= 17  Conv=0.68D-08     -V/T= 2.0014
 QCSCF skips out because SCF is already converged.

 **********************************************************************

            Population analysis using the SCF Density.

 **********************************************************************

 Orbital symmetries:
       Occupied  (A) (A) (A) (A) (A) (A) (A) (A) (A) (A) (A) (A)
                 (A) (A) (A) (A) (A) (A) (A) (A) (A) (A) (A) (A)
                 (A) (A) (A) (A) (A) (A) (A) (A) (A) (A) (A) (A)
                 (A) (A) (A) (A) (A) (A) (A) (A) (A) (A) (A) (A)
                 (A) (A) (A) (A) (A) (A) (A) (A) (A) (A) (A) (A)
                 (A) (A) (A) (A) (A) (A) (A) (A) (A) (A) (A) (A)
                 (A) (A) (A) (A) (A) (A) (A) (A) (A) (A) (A) (A)
                 (A) (A) (A) (A) (A)
       Virtual   (A) (A) (A) (A) (A) (A) (A) (A) (A) (A) (A) (A)
                 (A) (A) (A) (A) (A) (A) (A) (A) (A) (A) (A) (A)
                 (A) (A) (A) (A) (A) (A) (A) (A) (A) (A) (A) (A)
                 (A) (A) (A) (A) (A) (A) (A) (A) (A) (A) (A) (A)
                 (A) (A) (A) (A) (A) (A) (A) (A) (A) (A) (A) (A)
                 (A) (A) (A) (A) (A) (A) (A) (A) (A) (A) (A) (A)
                 (A) (A) (A) (A) (A) (A) (A) (A) (A) (A) (A) (A)
                 (A) (A) (A) (A) (A) (A) (A) (A) (A) (A) (A) (A)
                 (A) (A) (A) (A) (A) (A) (A) (A) (A) (A) (A) (A)
                 (A) (A) (A) (A) (A) (A) (A) (A) (A) (A) (A) (A)
                 (A) (A) (A) (A) (A) (A) (A) (A) (A) (A) (A) (A)
                 (A) (A) (A) (A) (A) (A) (A) (A) (A) (A) (A) (A)
                 (A) (A) (A) (A) (A) (A) (A) (A) (A) (A) (A) (A)
                 (A) (A) (A) (A) (A) (A) (A) (A) (A) (A) (A) (A)
                 (A) (A) (A) (A) (A) (A) (A) (A) (A) (A) (A) (A)
                 (A) (A) (A) (A) (A) (A) (A) (A) (A) (A) (A) (A)
                 (A) (A) (A) (A) (A) (A) (A) (A) (A) (A) (A) (A)
                 (A) (A) (A) (A) (A) (A) (A) (A) (A) (A) (A) (A)
                 (A) (A) (A) (A) (A) (A) (A) (A) (A) (A) (A) (A)
                 (A) (A) (A) (A) (A) (A) (A) (A) (A) (A) (A) (A)
                 (A) (A) (A) (A) (A) (A) (A) (A) (A) (A) (A) (A)
                 (A) (A) (A) (A) (A) (A) (A) (A) (A) (A) (A) (A)
                 (A) (A) (A) (A) (A) (A) (A) (A) (A) (A) (A) (A)
                 (A) (A) (A) (A) (A) (A) (A) (A) (A) (A) (A) (A)
                 (A) (A) (A) (A) (A) (A) (A) (A) (A) (A) (A) (A)
                 (A) (A) (A) (A) (A) (A) (A) (A) (A) (A) (A) (A)
                 (A) (A) (A) (A) (A) (A) (A) (A) (A) (A) (A) (A)
                 (A) (A) (A) (A) (A) (A) (A) (A) (A) (A) (A) (A)
                 (A) (A) (A) (A) (A) (A) (A) (A) (A) (A) (A) (A)
                 (A) (A) (A) (A) (A) (A) (A) (A) (A) (A) (A) (A)
                 (A) (A) (A) (A) (A) (A) (A) (A) (A) (A) (A) (A)
                 (A) (A) (A) (A) (A) (A) (A) (A) (A) (A) (A) (A)
                 (A) (A) (A) (A) (A) (A) (A) (A) (A) (A) (A) (A)
                 (A) (A) (A) (A) (A) (A) (A) (A) (A) (A) (A) (A)
                 (A) (A) (A) (A) (A) (A) (A) (A) (A) (A) (A) (A)
                 (A) (A) (A) (A) (A) (A) (A) (A) (A) (A) (A) (A)
                 (A) (A) (A) (A) (A) (A) (A) (A) (A) (A) (A) (A)
                 (A) (A) (A) (A) (A) (A) (A) (A) (A) (A) (A) (A)
                 (A) (A) (A) (A) (A) (A) (A) (A) (A) (A) (A) (A)
                 (A) (A) (A) (A) (A) (A) (A) (A) (A) (A) (A) (A)
                 (A) (A) (A) (A) (A) (A) (A) (A) (A) (A) (A) (A)
                 (A) (A) (A) (A) (A) (A) (A) (A) (A) (A) (A) (A)
                 (A) (A) (A) (A) (A) (A) (A) (A) (A) (A) (A) (A)
                 (A) (A) (A) (A) (A) (A) (A) (A) (A) (A) (A) (A)
                 (A) (A) (A) (A) (A) (A) (A) (A) (A)
 The electronic state is 1-A.
 Alpha  occ. eigenvalues -- -102.66287-102.66169 -19.59556 -10.62487 -10.60834
 Alpha  occ. eigenvalues --  -10.60715 -10.56397 -10.56219 -10.55451 -10.55370
 Alpha  occ. eigenvalues --  -10.54520 -10.54380 -10.54347 -10.54263 -10.54245
 Alpha  occ. eigenvalues --  -10.54239 -10.54172 -10.54122 -10.53894 -10.53873
 Alpha  occ. eigenvalues --  -10.52316 -10.51780 -10.51527  -9.79054  -9.78934
 Alpha  occ. eigenvalues --   -7.54361  -7.54242  -7.53695  -7.53677  -7.53575
 Alpha  occ. eigenvalues --   -7.53559  -1.16338  -1.02154  -1.02072  -0.97981
 Alpha  occ. eigenvalues --   -0.96851  -0.95797  -0.92315  -0.89799  -0.89237
 Alpha  occ. eigenvalues --   -0.89172  -0.85871  -0.84742  -0.81462  -0.77042
 Alpha  occ. eigenvalues --   -0.75145  -0.74916  -0.72754  -0.72150  -0.70626
 Alpha  occ. eigenvalues --   -0.67354  -0.62564  -0.61230  -0.60667  -0.59240
 Alpha  occ. eigenvalues --   -0.59098  -0.57887  -0.57071  -0.56389  -0.55104
 Alpha  occ. eigenvalues --   -0.54085  -0.53780  -0.53615  -0.52454  -0.51545
 Alpha  occ. eigenvalues --   -0.50073  -0.49989  -0.49005  -0.48631  -0.48017
 Alpha  occ. eigenvalues --   -0.47521  -0.45417  -0.45257  -0.44848  -0.44200
 Alpha  occ. eigenvalues --   -0.43506  -0.42344  -0.42245  -0.41974  -0.40857
 Alpha  occ. eigenvalues --   -0.38934  -0.38840  -0.35960  -0.35085  -0.33678
 Alpha  occ. eigenvalues --   -0.33661  -0.32977  -0.29274  -0.28873
 Alpha virt. eigenvalues --   -0.07346  -0.03569  -0.02827  -0.02461  -0.01808
 Alpha virt. eigenvalues --   -0.01673  -0.01317  -0.01291  -0.00987  -0.00828
 Alpha virt. eigenvalues --    0.00082   0.00286   0.00780   0.00851   0.01097
 Alpha virt. eigenvalues --    0.01870   0.02051   0.02188   0.02859   0.03369
 Alpha virt. eigenvalues --    0.03550   0.03879   0.04283   0.04367   0.04944
 Alpha virt. eigenvalues --    0.05164   0.05283   0.06007   0.06243   0.06653
 Alpha virt. eigenvalues --    0.07285   0.07606   0.07718   0.07977   0.08374
 Alpha virt. eigenvalues --    0.08975   0.09154   0.09561   0.09718   0.10223
 Alpha virt. eigenvalues --    0.10401   0.10619   0.10794   0.10925   0.11233
 Alpha virt. eigenvalues --    0.11416   0.11515   0.11626   0.12130   0.12249
 Alpha virt. eigenvalues --    0.12402   0.12676   0.12886   0.13030   0.13084
 Alpha virt. eigenvalues --    0.13398   0.13654   0.13773   0.14065   0.14123
 Alpha virt. eigenvalues --    0.14293   0.14553   0.14827   0.14916   0.15315
 Alpha virt. eigenvalues --    0.15590   0.15843   0.16105   0.16448   0.16624
 Alpha virt. eigenvalues --    0.16895   0.17337   0.18099   0.18195   0.18494
 Alpha virt. eigenvalues --    0.18844   0.18964   0.19345   0.19452   0.19581
 Alpha virt. eigenvalues --    0.20122   0.20487   0.20744   0.20904   0.21010
 Alpha virt. eigenvalues --    0.21376   0.21893   0.22171   0.22459   0.23096
 Alpha virt. eigenvalues --    0.23286   0.23710   0.23945   0.24430   0.24812
 Alpha virt. eigenvalues --    0.24829   0.25790   0.26071   0.26539   0.26673
 Alpha virt. eigenvalues --    0.27031   0.27246   0.27550   0.28201   0.28327
 Alpha virt. eigenvalues --    0.28695   0.29257   0.29789   0.30141   0.30478
 Alpha virt. eigenvalues --    0.30595   0.31077   0.31188   0.31634   0.31751
 Alpha virt. eigenvalues --    0.32264   0.32860   0.32955   0.33411   0.33545
 Alpha virt. eigenvalues --    0.34232   0.34278   0.34519   0.35205   0.35387
 Alpha virt. eigenvalues --    0.35815   0.36212   0.36485   0.36608   0.37503
 Alpha virt. eigenvalues --    0.38129   0.38454   0.39209   0.39418   0.40447
 Alpha virt. eigenvalues --    0.40676   0.41284   0.42164   0.43168   0.43456
 Alpha virt. eigenvalues --    0.44842   0.45317   0.46916   0.47278   0.47755
 Alpha virt. eigenvalues --    0.48384   0.48585   0.48883   0.49040   0.49242
 Alpha virt. eigenvalues --    0.50366   0.50720   0.51412   0.53802   0.54946
 Alpha virt. eigenvalues --    0.55433   0.56187   0.56319   0.57157   0.57247
 Alpha virt. eigenvalues --    0.57482   0.58168   0.58348   0.58745   0.59693
 Alpha virt. eigenvalues --    0.60222   0.60636   0.61049   0.61290   0.61785
 Alpha virt. eigenvalues --    0.62344   0.62921   0.64106   0.64524   0.64726
 Alpha virt. eigenvalues --    0.65305   0.65576   0.65985   0.66373   0.66714
 Alpha virt. eigenvalues --    0.67301   0.67927   0.68855   0.69398   0.70012
 Alpha virt. eigenvalues --    0.70143   0.70784   0.71373   0.72269   0.72293
 Alpha virt. eigenvalues --    0.72699   0.73379   0.74127   0.74657   0.75387
 Alpha virt. eigenvalues --    0.75925   0.76426   0.76821   0.77806   0.78261
 Alpha virt. eigenvalues --    0.78973   0.79095   0.79674   0.80399   0.80652
 Alpha virt. eigenvalues --    0.80758   0.82042   0.82713   0.83406   0.84116
 Alpha virt. eigenvalues --    0.84219   0.84963   0.85725   0.86196   0.86671
 Alpha virt. eigenvalues --    0.87500   0.87857   0.88270   0.88334   0.88876
 Alpha virt. eigenvalues --    0.89509   0.89912   0.90672   0.91087   0.91675
 Alpha virt. eigenvalues --    0.92266   0.92440   0.92731   0.93191   0.93259
 Alpha virt. eigenvalues --    0.93743   0.94148   0.94337   0.95432   0.95703
 Alpha virt. eigenvalues --    0.96060   0.96343   0.97262   0.97661   0.98436
 Alpha virt. eigenvalues --    0.98706   0.99108   1.00295   1.01078   1.01893
 Alpha virt. eigenvalues --    1.02224   1.03276   1.04213   1.05008   1.05597
 Alpha virt. eigenvalues --    1.06460   1.07002   1.07669   1.08909   1.09296
 Alpha virt. eigenvalues --    1.09879   1.10799   1.11464   1.12519   1.12573
 Alpha virt. eigenvalues --    1.13472   1.14301   1.15650   1.17031   1.17607
 Alpha virt. eigenvalues --    1.19351   1.19932   1.20419   1.23102   1.23894
 Alpha virt. eigenvalues --    1.24370   1.26038   1.27001   1.28343   1.29386
 Alpha virt. eigenvalues --    1.30774   1.32228   1.34656   1.35001   1.35423
 Alpha virt. eigenvalues --    1.35817   1.36162   1.36720   1.38873   1.44479
 Alpha virt. eigenvalues --    1.44776   1.45283   1.48197   1.50456   1.51125
 Alpha virt. eigenvalues --    1.51727   1.52265   1.53421   1.54361   1.55395
 Alpha virt. eigenvalues --    1.55739   1.56468   1.57613   1.58062   1.59260
 Alpha virt. eigenvalues --    1.60203   1.60946   1.61218   1.62145   1.63619
 Alpha virt. eigenvalues --    1.64564   1.64810   1.65676   1.66392   1.68429
 Alpha virt. eigenvalues --    1.68566   1.69048   1.69363   1.69885   1.71470
 Alpha virt. eigenvalues --    1.72560   1.73525   1.74193   1.74774   1.75181
 Alpha virt. eigenvalues --    1.75498   1.77063   1.78552   1.79560   1.80863
 Alpha virt. eigenvalues --    1.81091   1.82017   1.83637   1.86044   1.86535
 Alpha virt. eigenvalues --    1.87347   1.87650   1.88489   1.89512   1.89768
 Alpha virt. eigenvalues --    1.90377   1.91645   1.93301   1.93904   1.94651
 Alpha virt. eigenvalues --    1.95510   1.95976   1.96273   1.97295   1.98097
 Alpha virt. eigenvalues --    1.98629   1.99142   2.00114   2.00732   2.02313
 Alpha virt. eigenvalues --    2.03221   2.03704   2.04508   2.05392   2.06605
 Alpha virt. eigenvalues --    2.07303   2.08173   2.09523   2.11008   2.11512
 Alpha virt. eigenvalues --    2.13454   2.13972   2.15364   2.16135   2.17516
 Alpha virt. eigenvalues --    2.19575   2.21783   2.22080   2.23883   2.24555
 Alpha virt. eigenvalues --    2.26658   2.27182   2.29002   2.29579   2.30601
 Alpha virt. eigenvalues --    2.31233   2.31525   2.32871   2.33524   2.36278
 Alpha virt. eigenvalues --    2.36719   2.38086   2.39367   2.40203   2.40538
 Alpha virt. eigenvalues --    2.40908   2.43395   2.44247   2.46043   2.48186
 Alpha virt. eigenvalues --    2.49215   2.50350   2.51616   2.52625   2.53410
 Alpha virt. eigenvalues --    2.55169   2.58151   2.58981   2.59371   2.59945
 Alpha virt. eigenvalues --    2.60450   2.63151   2.65737   2.67409   2.68494
 Alpha virt. eigenvalues --    2.69295   2.70769   2.72591   2.72948   2.75008
 Alpha virt. eigenvalues --    2.75678   2.77478   2.78572   2.79590   2.80081
 Alpha virt. eigenvalues --    2.81278   2.82411   2.84512   2.84748   2.86869
 Alpha virt. eigenvalues --    2.87242   2.87572   2.88964   2.89895   2.90820
 Alpha virt. eigenvalues --    2.91378   2.91641   2.92167   2.92652   2.94984
 Alpha virt. eigenvalues --    2.95092   2.95390   2.96030   2.96525   2.97256
 Alpha virt. eigenvalues --    2.97611   2.99438   3.00073   3.01896   3.02566
 Alpha virt. eigenvalues --    3.03041   3.03939   3.05524   3.06524   3.08141
 Alpha virt. eigenvalues --    3.10371   3.10678   3.12218   3.14053   3.16049
 Alpha virt. eigenvalues --    3.16847   3.17625   3.19280   3.20558   3.21348
 Alpha virt. eigenvalues --    3.22938   3.24076   3.25835   3.28583   3.29890
 Alpha virt. eigenvalues --    3.31591   3.32716   3.36674   3.39215   3.42573
 Alpha virt. eigenvalues --    3.44510   3.44706   3.45455   3.46325   3.53407
 Alpha virt. eigenvalues --    3.55447   3.56898   3.64290   3.64406   3.68663
 Alpha virt. eigenvalues --    3.71179   3.76946   3.80161   3.80794   3.81278
 Alpha virt. eigenvalues --    3.84950   3.90012   3.90370   3.92491   4.02406
 Alpha virt. eigenvalues --    4.11254   4.12725   4.23949   4.24029   4.29023
 Alpha virt. eigenvalues --    4.32075   4.33350   4.35502   4.36960   4.38632
 Alpha virt. eigenvalues --    4.39463   4.41680   4.45713   4.61286   4.65993
 Alpha virt. eigenvalues --    4.72272   4.91345   4.91695   5.18990   5.42791
 Alpha virt. eigenvalues --    5.89302   9.98279   9.98450  23.72838  23.76372
 Alpha virt. eigenvalues --   23.85596  23.89097  23.92095  24.00443  24.01273
 Alpha virt. eigenvalues --   24.11338  24.15300  24.15695  24.16021  24.16251
 Alpha virt. eigenvalues --   24.22976  24.26223  24.26641  24.29118  24.33853
 Alpha virt. eigenvalues --   24.33971  24.35093  24.36387  26.03506  26.03960
 Alpha virt. eigenvalues --   26.34140  26.34801  26.83518  26.86011  50.06523
 Alpha virt. eigenvalues --  215.57560 215.57765
          Condensed to atoms (all electrons):
               1          2          3          4          5          6
     1  Cl  17.569728  -0.000000  -0.000002   0.014572  -0.254654  -0.069853
     2  Cl  -0.000000  17.607116   0.000003   0.009678  -0.000018  -0.000438
     3  O   -0.000002   0.000003   7.859785   0.599173   0.130835  -0.363078
     4  C    0.014572   0.009678   0.599173  23.716084  -0.209482  -1.034220
     5  C   -0.254654  -0.000018   0.130835  -0.209482  15.064655  -8.066465
     6  C   -0.069853  -0.000438  -0.363078  -1.034220  -8.066465  29.058015
     7  C    0.000454  -0.041835  -0.355086  -3.163506   1.621317  -7.575091
     8  C   -0.007395   0.000031   0.335932  -7.536604   0.645840   0.680147
     9  H    0.004875  -0.000010  -0.034377   0.230887  -0.185441   0.244153
    10  C    0.000314  -0.039511   0.176816  -4.487850   0.702230  -2.514702
    11  H   -0.000006   0.005795  -0.035766   0.007670   0.007511  -0.168822
    12  C    0.148431  -0.000001   0.003341   1.530757   0.574973  -1.263709
    13  H   -0.020837   0.000000   0.001988  -0.016410   0.017423  -0.027133
    14  C    0.014794  -0.000000  -0.003053   0.174284  -1.065545  -0.273515
    15  H    0.051421  -0.000000   0.000060   0.001501  -0.011379  -0.024376
    16  C   -0.000268  -0.023396  -0.040769  -3.092895   0.018527   2.643657
    17  H   -0.000011   0.000070  -0.001773  -0.028761   0.005704   0.079397
    18  H   -0.000048   0.002244   0.000636   0.107489  -0.014709  -0.099892
    19  C   -0.000021  -0.445011   0.057991   2.714729  -0.170819  -0.195936
    20  C   -0.000001   0.288817  -0.008334   0.299734  -0.011987   0.270909
    21  H    0.000000  -0.018738   0.003219   0.041129  -0.001346   0.019945
    22  C   -1.554255  -0.000000   0.000196  -0.085363  -0.223263  -1.069110
    23  C    0.467982   0.000000  -0.000301  -0.019282  -2.736447   0.440777
    24  H    0.073270  -0.000000  -0.000068   0.033218  -0.027093  -0.021917
    25  C    0.010816   0.000319  -0.126373   1.513744  -0.799939  -2.863516
    26  H    0.002126  -0.000102  -0.000425  -0.111354   0.148863  -0.194891
    27  H    0.002168  -0.000015  -0.004499  -0.010455   0.161916  -0.505266
    28  C    0.004795   0.000004   0.014128  -2.342260  -0.148071   0.425734
    29  H   -0.036637   0.000003   0.001254  -0.033655  -0.202209   0.389663
    30  C   -0.001355  -0.005110  -0.093063   0.003648   0.256130  -2.674679
    31  H    0.000260  -0.000027   0.001616  -0.062341   0.026956  -0.052678
    32  H   -0.000115  -0.000047  -0.002350   0.066087  -0.032120  -0.009703
    33  C    0.000007  -0.139796   0.040779  -2.099037   0.074975  -0.116191
    34  H    0.000003  -0.031314   0.002253  -0.114779   0.004040   0.046310
    35  C   -0.000000   0.104755  -0.006212  -0.425691   0.001434   0.024959
    36  H   -0.000000   0.059879  -0.000012   0.000744   0.000026  -0.002585
    37  C    0.000000  -1.369435   0.001078  -0.049910   0.000740   0.004247
    38  C    0.000000   0.381273   0.002772   0.158598   0.005881  -0.115187
    39  H   -0.000000   0.059425  -0.000085   0.023994  -0.000412  -0.000670
               7          8          9         10         11         12
     1  Cl   0.000454  -0.007395   0.004875   0.000314  -0.000006   0.148431
     2  Cl  -0.041835   0.000031  -0.000010  -0.039511   0.005795  -0.000001
     3  O   -0.355086   0.335932  -0.034377   0.176816  -0.035766   0.003341
     4  C   -3.163506  -7.536604   0.230887  -4.487850   0.007670   1.530757
     5  C    1.621317   0.645840  -0.185441   0.702230   0.007511   0.574973
     6  C   -7.575091   0.680147   0.244153  -2.514702  -0.168822  -1.263709
     7  C   16.829168  -0.543413  -0.167294   3.210997   0.072501   0.770194
     8  C   -0.543413  13.877403   0.229236  -0.763334  -0.002055  -2.083427
     9  H   -0.167294   0.229236   0.469672  -0.026186  -0.003679  -0.092195
    10  C    3.210997  -0.763334  -0.026186  12.510871   0.266213   0.285847
    11  H    0.072501  -0.002055  -0.003679   0.266213   0.491373  -0.000700
    12  C    0.770194  -2.083427  -0.092195   0.285847  -0.000700  11.820688
    13  H    0.027406  -0.045734  -0.024857   0.006444   0.000053   0.396102
    14  C    0.051566  -0.331071  -0.004236   0.021531  -0.000321   2.780899
    15  H   -0.002393   0.019785   0.004210  -0.000422   0.000011   0.107899
    16  C   -2.500186   0.660278  -0.024119   0.769481   0.230289  -0.151084
    17  H    0.141578   0.007110   0.001253   0.081886  -0.006872  -0.002730
    18  H    0.022956  -0.015079  -0.001940   0.014877  -0.001839   0.007459
    19  C   -1.117734  -0.352568  -0.004860  -0.118119  -0.196582   0.010171
    20  C   -0.357465   0.018808  -0.000430  -1.475568   0.006446  -0.010904
    21  H   -0.045119  -0.007384   0.000226  -0.005095  -0.034108   0.000270
    22  C   -0.045551   0.032998   0.011780   0.000919  -0.000235  -3.033185
    23  C   -0.096248  -0.544956  -0.022898  -0.043659   0.000062  -1.710393
    24  H    0.008144  -0.044021   0.001471   0.003180  -0.000026   0.005459
    25  C   -0.041894  -0.844016   0.144286  -0.817737   0.030920  -0.285861
    26  H   -0.021933   0.047591  -0.003684   0.073717  -0.004785   0.009512
    27  H    0.056962   0.106699   0.006366  -0.039950   0.002136  -0.012544
    28  C   -0.793245   2.175945  -0.079679  -0.375907   0.001714  -3.462228
    29  H    0.006544  -0.047431  -0.009441  -0.019671   0.000992  -0.006064
    30  C   -0.242986   0.561594   0.055513  -0.821042   0.033743  -0.162755
    31  H    0.006155  -0.003971  -0.004340   0.052451  -0.001818   0.023472
    32  H   -0.104610  -0.021607   0.003072  -0.044427   0.003344  -0.016070
    33  C    0.052751  -0.011735  -0.007632   0.174906  -0.067458   0.019995
    34  H   -0.056936  -0.002249   0.000186  -0.129271  -0.002995  -0.000261
    35  C    0.266583   0.030444  -0.001256   1.226123   0.165589  -0.001552
    36  H   -0.017745   0.000623  -0.000014   0.022262   0.006697  -0.000004
    37  C   -0.476922   0.001079  -0.000506  -0.892112   0.018096   0.000158
    38  C   -0.354321  -0.006506   0.000183  -1.408725  -0.045042   0.001656
    39  H   -0.000810  -0.000435  -0.000021  -0.012797   0.001428  -0.000026
              13         14         15         16         17         18
     1  Cl  -0.020837   0.014794   0.051421  -0.000268  -0.000011  -0.000048
     2  Cl   0.000000  -0.000000  -0.000000  -0.023396   0.000070   0.002244
     3  O    0.001988  -0.003053   0.000060  -0.040769  -0.001773   0.000636
     4  C   -0.016410   0.174284   0.001501  -3.092895  -0.028761   0.107489
     5  C    0.017423  -1.065545  -0.011379   0.018527   0.005704  -0.014709
     6  C   -0.027133  -0.273515  -0.024376   2.643657   0.079397  -0.099892
     7  C    0.027406   0.051566  -0.002393  -2.500186   0.141578   0.022956
     8  C   -0.045734  -0.331071   0.019785   0.660278   0.007110  -0.015079
     9  H   -0.024857  -0.004236   0.004210  -0.024119   0.001253  -0.001940
    10  C    0.006444   0.021531  -0.000422   0.769481   0.081886   0.014877
    11  H    0.000053  -0.000321   0.000011   0.230289  -0.006872  -0.001839
    12  C    0.396102   2.780899   0.107899  -0.151084  -0.002730   0.007459
    13  H    0.475201  -0.121636  -0.027288   0.003760   0.000043   0.000119
    14  C   -0.121636  13.267790   0.559033  -0.033138   0.000332   0.000843
    15  H   -0.027288   0.559033   0.450214   0.000458   0.000005  -0.000038
    16  C    0.003760  -0.033138   0.000458  18.136794   0.285991   0.420952
    17  H    0.000043   0.000332   0.000005   0.285991   0.635085  -0.027610
    18  H    0.000119   0.000843  -0.000038   0.420952  -0.027610   0.496851
    19  C    0.001085   0.000400  -0.000079  -1.328818   0.091962   0.105728
    20  C   -0.000105  -0.001020   0.000010  -0.340828  -0.013318  -0.024991
    21  H    0.000012   0.000027  -0.000001  -0.081588   0.000073  -0.000524
    22  C   -0.029107   0.300984  -0.200016   0.012920   0.000208  -0.002579
    23  C    0.079197  -6.020567  -0.142251   0.029732   0.000728  -0.003422
    24  H    0.002496  -0.174309  -0.004522  -0.001163  -0.000067  -0.000285
    25  C   -0.038958   0.085936   0.006411  -2.772716  -0.166102  -0.005791
    26  H    0.000221  -0.004942   0.000207   0.046144  -0.012651  -0.032338
    27  H   -0.006049   0.043147   0.000578  -0.613048   0.004865  -0.005562
    28  C    0.097694  -2.597638  -0.066316   0.286655  -0.003276  -0.010834
    29  H    0.003602   0.010195   0.000378   0.084415  -0.000687   0.008225
    30  C   -0.013049   0.069514   0.001472  -5.523441  -0.033875  -0.159251
    31  H   -0.000126   0.003639   0.000135   0.179132  -0.028994   0.005790
    32  H   -0.000480  -0.001826   0.000067   0.025267  -0.018233  -0.005143
    33  C    0.000683   0.000907  -0.000025  -0.595785  -0.044599  -0.031047
    34  H   -0.000016  -0.000065   0.000003   0.182464  -0.093651  -0.057987
    35  C   -0.000016  -0.000097   0.000001   0.906661   0.007276  -0.012490
    36  H    0.000000  -0.000000   0.000000   0.010349  -0.000219   0.000256
    37  C    0.000019   0.000000  -0.000000  -0.292551   0.008169   0.027970
    38  C    0.000031   0.000076  -0.000002  -0.864434  -0.067661  -0.003637
    39  H    0.000001  -0.000001  -0.000000  -0.025017   0.004281   0.005848
              19         20         21         22         23         24
     1  Cl  -0.000021  -0.000001   0.000000  -1.554255   0.467982   0.073270
     2  Cl  -0.445011   0.288817  -0.018738  -0.000000   0.000000  -0.000000
     3  O    0.057991  -0.008334   0.003219   0.000196  -0.000301  -0.000068
     4  C    2.714729   0.299734   0.041129  -0.085363  -0.019282   0.033218
     5  C   -0.170819  -0.011987  -0.001346  -0.223263  -2.736447  -0.027093
     6  C   -0.195936   0.270909   0.019945  -1.069110   0.440777  -0.021917
     7  C   -1.117734  -0.357465  -0.045119  -0.045551  -0.096248   0.008144
     8  C   -0.352568   0.018808  -0.007384   0.032998  -0.544956  -0.044021
     9  H   -0.004860  -0.000430   0.000226   0.011780  -0.022898   0.001471
    10  C   -0.118119  -1.475568  -0.005095   0.000919  -0.043659   0.003180
    11  H   -0.196582   0.006446  -0.034108  -0.000235   0.000062  -0.000026
    12  C    0.010171  -0.010904   0.000270  -3.033185  -1.710393   0.005459
    13  H    0.001085  -0.000105   0.000012  -0.029107   0.079197   0.002496
    14  C    0.000400  -0.001020   0.000027   0.300984  -6.020567  -0.174309
    15  H   -0.000079   0.000010  -0.000001  -0.200016  -0.142251  -0.004522
    16  C   -1.328818  -0.340828  -0.081588   0.012920   0.029732  -0.001163
    17  H    0.091962  -0.013318   0.000073   0.000208   0.000728  -0.000067
    18  H    0.105728  -0.024991  -0.000524  -0.002579  -0.003422  -0.000285
    19  C   12.442350  -0.432598   0.065561  -0.001848   0.001812  -0.000111
    20  C   -0.432598  11.968321   0.463662   0.000083   0.001124  -0.000048
    21  H    0.065561   0.463662   0.476342  -0.000000  -0.000015   0.000002
    22  C   -0.001848   0.000083  -0.000000  15.005541  -0.857399  -0.234265
    23  C    0.001812   0.001124  -0.000015  -0.857399  14.988603   0.612663
    24  H   -0.000111  -0.000048   0.000002  -0.234265   0.612663   0.460153
    25  C    0.207918  -0.058474  -0.000864   0.179512   0.054586  -0.001907
    26  H   -0.040720   0.001865   0.000668   0.038394  -0.005522   0.004388
    27  H   -0.019380  -0.004963  -0.000175   0.022030  -0.047179  -0.002532
    28  C   -0.008712   0.013020  -0.000324  -2.491328   2.374874   0.046540
    29  H    0.006737   0.000796  -0.000079  -0.197646  -0.053746  -0.034952
    30  C   -0.865779  -0.260694  -0.008997   0.016482   0.001026  -0.006107
    31  H   -0.005431  -0.005161   0.000366   0.001845  -0.003433   0.000172
    32  H    0.001473   0.003808  -0.000520   0.000200   0.001844  -0.000274
    33  C   -0.598029  -1.799850   0.065457  -0.000346  -0.004807   0.000261
    34  H   -0.287932   0.068523   0.000486   0.000147   0.000009   0.000037
    35  C   -1.872238   0.139591  -0.260376   0.000016   0.000164  -0.000006
    36  H   -0.058127   0.094662  -0.028903  -0.000000   0.000000  -0.000000
    37  C   -0.251111  -2.307970  -0.002759  -0.000005  -0.000053   0.000002
    38  C   -2.284159  -0.355618   0.096460  -0.000059  -0.000586   0.000026
    39  H    0.003154  -0.013042   0.002541  -0.000001   0.000014  -0.000001
              25         26         27         28         29         30
     1  Cl   0.010816   0.002126   0.002168   0.004795  -0.036637  -0.001355
     2  Cl   0.000319  -0.000102  -0.000015   0.000004   0.000003  -0.005110
     3  O   -0.126373  -0.000425  -0.004499   0.014128   0.001254  -0.093063
     4  C    1.513744  -0.111354  -0.010455  -2.342260  -0.033655   0.003648
     5  C   -0.799939   0.148863   0.161916  -0.148071  -0.202209   0.256130
     6  C   -2.863516  -0.194891  -0.505266   0.425734   0.389663  -2.674679
     7  C   -0.041894  -0.021933   0.056962  -0.793245   0.006544  -0.242986
     8  C   -0.844016   0.047591   0.106699   2.175945  -0.047431   0.561594
     9  H    0.144286  -0.003684   0.006366  -0.079679  -0.009441   0.055513
    10  C   -0.817737   0.073717  -0.039950  -0.375907  -0.019671  -0.821042
    11  H    0.030920  -0.004785   0.002136   0.001714   0.000992   0.033743
    12  C   -0.285861   0.009512  -0.012544  -3.462228  -0.006064  -0.162755
    13  H   -0.038958   0.000221  -0.006049   0.097694   0.003602  -0.013049
    14  C    0.085936  -0.004942   0.043147  -2.597638   0.010195   0.069514
    15  H    0.006411   0.000207   0.000578  -0.066316   0.000378   0.001472
    16  C   -2.772716   0.046144  -0.613048   0.286655   0.084415  -5.523441
    17  H   -0.166102  -0.012651   0.004865  -0.003276  -0.000687  -0.033875
    18  H   -0.005791  -0.032338  -0.005562  -0.010834   0.008225  -0.159251
    19  C    0.207918  -0.040720  -0.019380  -0.008712   0.006737  -0.865779
    20  C   -0.058474   0.001865  -0.004963   0.013020   0.000796  -0.260694
    21  H   -0.000864   0.000668  -0.000175  -0.000324  -0.000079  -0.008997
    22  C    0.179512   0.038394   0.022030  -2.491328  -0.197646   0.016482
    23  C    0.054586  -0.005522  -0.047179   2.374874  -0.053746   0.001026
    24  H   -0.001907   0.004388  -0.002532   0.046540  -0.034952  -0.006107
    25  C   12.046639   0.451223   0.716247   0.054648  -0.104394   0.642141
    26  H    0.451223   0.501109  -0.023890  -0.040754  -0.051343  -0.106337
    27  H    0.716247  -0.023890   0.645567  -0.036998  -0.060598   0.582783
    28  C    0.054648  -0.040754  -0.036998  13.239645   0.606537  -0.097820
    29  H   -0.104394  -0.051343  -0.060598   0.606537   0.614073  -0.086015
    30  C    0.642141  -0.106337   0.582783  -0.097820  -0.086015  17.919759
    31  H   -0.008576   0.013537  -0.030731  -0.017496   0.002539   0.151751
    32  H   -0.042304  -0.001434  -0.018415   0.011503   0.002149   0.545209
    33  C   -0.121748   0.036095  -0.023403  -0.033707  -0.002540  -1.155403
    34  H    0.018625   0.019758  -0.004407   0.001229  -0.001078  -0.055192
    35  C   -0.016492  -0.000871   0.000550   0.002279   0.000156   0.099037
    36  H    0.000050  -0.000088  -0.000011   0.000006   0.000006  -0.000931
    37  C   -0.013334  -0.000484  -0.001348  -0.000512   0.000050  -0.142031
    38  C    0.035125   0.000309   0.000443  -0.004328  -0.000349  -0.147226
    39  H    0.002512  -0.000785   0.000063   0.000087   0.000036  -0.005748
              31         32         33         34         35         36
     1  Cl   0.000260  -0.000115   0.000007   0.000003  -0.000000  -0.000000
     2  Cl  -0.000027  -0.000047  -0.139796  -0.031314   0.104755   0.059879
     3  O    0.001616  -0.002350   0.040779   0.002253  -0.006212  -0.000012
     4  C   -0.062341   0.066087  -2.099037  -0.114779  -0.425691   0.000744
     5  C    0.026956  -0.032120   0.074975   0.004040   0.001434   0.000026
     6  C   -0.052678  -0.009703  -0.116191   0.046310   0.024959  -0.002585
     7  C    0.006155  -0.104610   0.052751  -0.056936   0.266583  -0.017745
     8  C   -0.003971  -0.021607  -0.011735  -0.002249   0.030444   0.000623
     9  H   -0.004340   0.003072  -0.007632   0.000186  -0.001256  -0.000014
    10  C    0.052451  -0.044427   0.174906  -0.129271   1.226123   0.022262
    11  H   -0.001818   0.003344  -0.067458  -0.002995   0.165589   0.006697
    12  C    0.023472  -0.016070   0.019995  -0.000261  -0.001552  -0.000004
    13  H   -0.000126  -0.000480   0.000683  -0.000016  -0.000016   0.000000
    14  C    0.003639  -0.001826   0.000907  -0.000065  -0.000097  -0.000000
    15  H    0.000135   0.000067  -0.000025   0.000003   0.000001   0.000000
    16  C    0.179132   0.025267  -0.595785   0.182464   0.906661   0.010349
    17  H   -0.028994  -0.018233  -0.044599  -0.093651   0.007276  -0.000219
    18  H    0.005790  -0.005143  -0.031047  -0.057987  -0.012490   0.000256
    19  C   -0.005431   0.001473  -0.598029  -0.287932  -1.872238  -0.058127
    20  C   -0.005161   0.003808  -1.799850   0.068523   0.139591   0.094662
    21  H    0.000366  -0.000520   0.065457   0.000486  -0.260376  -0.028903
    22  C    0.001845   0.000200  -0.000346   0.000147   0.000016  -0.000000
    23  C   -0.003433   0.001844  -0.004807   0.000009   0.000164   0.000000
    24  H    0.000172  -0.000274   0.000261   0.000037  -0.000006  -0.000000
    25  C   -0.008576  -0.042304  -0.121748   0.018625  -0.016492   0.000050
    26  H    0.013537  -0.001434   0.036095   0.019758  -0.000871  -0.000088
    27  H   -0.030731  -0.018415  -0.023403  -0.004407   0.000550  -0.000011
    28  C   -0.017496   0.011503  -0.033707   0.001229   0.002279   0.000006
    29  H    0.002539   0.002149  -0.002540  -0.001078   0.000156   0.000006
    30  C    0.151751   0.545209  -1.155403  -0.055192   0.099037  -0.000931
    31  H    0.424518  -0.006210   0.036499   0.010799  -0.001645  -0.000011
    32  H   -0.006210   0.446363  -0.025935   0.002123   0.003119   0.000029
    33  C    0.036499  -0.025935  15.249962   0.813444  -3.236627  -0.102061
    34  H    0.010799   0.002123   0.813444   0.784637  -0.031025   0.001613
    35  C   -0.001645   0.003119  -3.236627  -0.031025  18.302470   0.673677
    36  H   -0.000011   0.000029  -0.102061   0.001613   0.673677   0.455825
    37  C    0.002109  -0.004105  -2.121093  -0.135630  -2.325239  -0.238584
    38  C    0.003067  -0.010750   2.866516   0.116922  -6.908349  -0.146003
    39  H   -0.000377  -0.000071   0.068134  -0.064495  -0.117879  -0.004488
              37         38         39
     1  Cl   0.000000   0.000000  -0.000000
     2  Cl  -1.369435   0.381273   0.059425
     3  O    0.001078   0.002772  -0.000085
     4  C   -0.049910   0.158598   0.023994
     5  C    0.000740   0.005881  -0.000412
     6  C    0.004247  -0.115187  -0.000670
     7  C   -0.476922  -0.354321  -0.000810
     8  C    0.001079  -0.006506  -0.000435
     9  H   -0.000506   0.000183  -0.000021
    10  C   -0.892112  -1.408725  -0.012797
    11  H    0.018096  -0.045042   0.001428
    12  C    0.000158   0.001656  -0.000026
    13  H    0.000019   0.000031   0.000001
    14  C    0.000000   0.000076  -0.000001
    15  H   -0.000000  -0.000002  -0.000000
    16  C   -0.292551  -0.864434  -0.025017
    17  H    0.008169  -0.067661   0.004281
    18  H    0.027970  -0.003637   0.005848
    19  C   -0.251111  -2.284159   0.003154
    20  C   -2.307970  -0.355618  -0.013042
    21  H   -0.002759   0.096460   0.002541
    22  C   -0.000005  -0.000059  -0.000001
    23  C   -0.000053  -0.000586   0.000014
    24  H    0.000002   0.000026  -0.000001
    25  C   -0.013334   0.035125   0.002512
    26  H   -0.000484   0.000309  -0.000785
    27  H   -0.001348   0.000443   0.000063
    28  C   -0.000512  -0.004328   0.000087
    29  H    0.000050  -0.000349   0.000036
    30  C   -0.142031  -0.147226  -0.005748
    31  H    0.002109   0.003067  -0.000377
    32  H   -0.004105  -0.010750  -0.000071
    33  C   -2.121093   2.866516   0.068134
    34  H   -0.135630   0.116922  -0.064495
    35  C   -2.325239  -6.908349  -0.117879
    36  H   -0.238584  -0.146003  -0.004488
    37  C   14.798312   1.450083  -0.160019
    38  C    1.450083  13.881057   0.445709
    39  H   -0.160019   0.445709   0.465454
 Mulliken charges:
               1
     1  Cl   0.579442
     2  Cl   0.595393
     3  O   -0.158231
     4  C   -0.323866
     5  C    0.691422
     6  C    0.975709
     7  C    0.977047
     8  C   -0.216552
     9  H    0.291728
    10  C    0.435022
    11  H    0.220524
    12  C   -0.201590
    13  H    0.258224
    14  C   -0.752916
    15  H    0.275247
    16  C   -0.628682
    17  H    0.195074
    18  H    0.288796
    19  C    0.945651
    20  C   -0.156809
    21  H    0.260470
    22  C    0.401309
    23  C   -0.742033
    24  H    0.302192
    25  C   -1.070659
    26  H    0.263607
    27  H    0.118898
    28  C   -0.745604
    29  H    0.210182
    30  C   -2.270914
    31  H    0.286559
    32  H    0.251091
    33  C   -1.162516
    34  H   -0.004329
    35  C   -0.736821
    36  H    0.273081
    37  C    0.473600
    38  C   -0.723245
    39  H    0.324501
 Sum of Mulliken charges =  -0.00000
 Mulliken charges with hydrogens summed into heavy atoms:
               1
     1  Cl   0.579442
     2  Cl   0.595393
     3  O   -0.158231
     4  C   -0.323866
     5  C    0.691422
     6  C    0.975709
     7  C    0.977047
     8  C    0.075176
    10  C    0.655546
    12  C    0.056634
    14  C   -0.477669
    16  C   -0.144812
    19  C    0.945651
    20  C    0.103661
    22  C    0.401309
    23  C   -0.439841
    25  C   -0.688155
    28  C   -0.535422
    30  C   -1.733264
    33  C   -1.166845
    35  C   -0.463740
    37  C    0.473600
    38  C   -0.398744
 Electronic spatial extent (au):  <R**2>=          17901.1422
 Charge=              0.0000 electrons
 Dipole moment (field-independent basis, Debye):
[...]
 6697,0.00120158,0.00004584,0.00056837,0.00001160,0.00000394,-0.0000138
 6,-0.00001978,-0.00005685,-0.00013960,0.00023374,0.00057087,-0.0015776
 8,0.00009833,0.00003179,0.00006602,0.00001965,0.00000804,0.00000626,0.
 00285086,-0.00135794,0.00708351,-0.00004368,-0.00067833,0.00002424,0.0
 0001081,0.00001163,-0.00000936,0.00000705,0.00000355,0.00000174,-0.000
 00471,0.00001970,-0.00002208,-0.00000316,-0.00000117,-0.00000178,-0.00
 077145,-0.00012079,-0.00000162,0.00030378,-0.00009214,0.00025122,0.000
 17674,0.00005580,-0.00005685,0.02284341,0.03448928,-0.01215664,0.02110
 915,-0.11080140,0.03941168,-0.02329548,0.00334785,-0.00587350,0.000026
 73,-0.00000525,0.00004285,-0.00000815,-0.00001811,-0.00001492,-0.00000
 205,0.00000205,-0.00000403,-0.00001791,-0.00002394,-0.00002092,-0.0000
 0070,0.00001658,0.00000464,-0.00000671,0.00000385,-0.00000362,-0.00002
 972,-0.00000735,0.00001179,0.00000182,-0.00000698,0.00000626,0.0000039
 5,0.00011251,0.00003860,0.00002259,0.00002156,0.00004479,-0.00001902,0
 .00000943,-0.00006688,-0.03122637,-0.01782570,-0.00035462,-0.00055390,
 -0.00021967,-0.00090328,0.03472606,0.55216292,-0.00001046,0.00000184,-
 0.00001115,-0.01090134,-0.00560528,0.00529617,-0.00014601,-0.00000424,
 0.00018054,0.00037752,-0.00068357,-0.00036944,0.00000921,-0.00003429,-
 0.00002191,-0.00006596,0.00015665,0.00004147,-0.00044727,-0.00071147,0
 .00006832,0.00002170,0.00003385,0.00001429,-0.00000512,0.00001685,0.00
 000232,-0.00012071,0.00594572,0.00232174,-0.00041929,-0.00040814,0.000
 23046,-0.00000740,0.00001128,-0.00000125,-0.00000003,0.00000039,0.0000
 0115,0.00000252,-0.00000380,-0.00001078,-0.00000187,-0.00000018,-0.000
 00077,0.00008010,0.00012984,-0.00011900,-0.00006120,0.00010547,-0.0000
 3967,0.00006742,-0.00001132,-0.00000798,-0.02305110,0.00231511,-0.0001
 0378,-0.08907203,0.02093486,-0.09957693,0.01092043,0.00060953,0.006351
 33,0.00000100,0.00000214,0.00001659,0.00000608,-0.00001395,-0.00001133
 ,-0.00000100,0.00000144,0.00000031,-0.00000452,-0.00000562,-0.00001954
 ,0.00000348,-0.00000110,0.00000439,-0.00000852,0.00000307,-0.00000274,
 -0.00001205,0.00000832,0.00001460,0.00000141,-0.00000479,0.00000436,0.
 00000314,0.00000864,0.00008160,-0.00001434,-0.00002122,-0.00000729,-0.
 00000098,0.00000552,-0.00001244,0.00491943,0.00078142,-0.00333357,0.00
 042682,-0.00080876,-0.00050662,0.12214620,-0.27006420,0.34376149,-0.00
 001065,0.00000065,-0.00001327,0.00053603,-0.00005971,0.00093029,-0.000
 14371,-0.00002964,0.00006466,0.00030625,-0.00003503,-0.00012739,-0.000
 00370,-0.00000787,0.00000360,-0.00010781,0.00000801,-0.00001419,-0.000
 60545,-0.00010426,-0.00004566,0.00002382,0.00001492,-0.00001566,0.0000
 0383,0.00000644,0.00000495,0.00018447,0.00110502,-0.00082715,-0.000014
 61,-0.00002713,0.00001374,0.00000156,0.00000757,-0.00001096,0.00000221
 ,0.00000063,0.00000094,-0.00000343,0.00000308,-0.00000451,-0.00000168,
 -0.00000017,-0.00000175,-0.00003708,0.00003495,0.00002675,0.00000786,-
 0.00001132,0.00000607,0.00000762,0.00001401,-0.00003171,-0.00470156,-0
 .00180842,-0.00202931,-0.00562980,0.02219683,-0.01725449,0.00030379,0.
 00033021,0.00104309,0.00000984,0.00000012,0.00001194,-0.00000605,-0.00
 000558,-0.00000392,-0.00000008,0.00000029,-0.00000158,-0.00000721,-0.0
 0001396,0.00000359,0.00000261,0.00000198,0.00000389,-0.00000285,0.0000
 0118,-0.00000562,-0.00000659,-0.00000255,0.00000266,0.00000140,-0.0000
 0317,0.00000214,0.00003340,0.00002430,0.00000618,-0.00000381,-0.000002
 93,0.00000597,-0.00000588,0.00000004,-0.00001901,-0.00117027,-0.000620
 06,0.00042632,0.00000468,0.00016584,0.00010764,-0.09880131,0.07798794,
 -0.06921016,0.10156421,0.00000409,-0.00000083,0.00000409,0.00043537,-0
 .00049283,-0.00136636,0.00002603,-0.00000306,0.00000212,-0.00004396,-0
 .00002084,-0.00003285,0.00000350,-0.00000344,-0.00000332,0.00001400,0.
 00000818,0.00001365,-0.00000192,-0.00008687,-0.00007625,-0.00000708,-0
 .00000077,-0.00000163,-0.00000121,0.00000121,0.00000034,-0.00001121,0.
 00020049,0.00002522,0.00001725,0.00001250,0.00000878,-0.00000067,-0.00
 000114,0.00000097,-0.00000115,0.00000005,0.00000026,0.00000091,-0.0000
 0140,0.00000153,0.00000005,0.00000032,0.00000029,-0.00000940,-0.000016
 34,-0.00000562,0.00000911,0.00001117,0.00000539,0.00000603,-0.00000202
 ,0.00000669,-0.00182983,0.00339639,0.00241099,-0.00221641,0.00480519,-
 0.00151806,0.00085891,-0.00090587,-0.00206788,-0.00000589,0.00000161,-
 0.00000344,0.00000280,0.00000117,0.00000115,-0.00000022,-0.00000004,0.
 00000046,0.00000135,0.00000030,-0.00000405,-0.00000005,-0.00000079,-0.
 00000093,0.00000023,0.00000080,0.00000087,0.00000069,0.00000100,-0.000
 00032,-0.00000071,0.00000105,-0.00000037,-0.00001302,0.00000664,-0.000
 00478,0.00000075,0.00000021,0.00000066,0.00000066,-0.00000010,0.000000
 68,-0.00060702,-0.00004862,-0.00087515,0.00016492,-0.00024460,-0.00032
 620,0.07600399,-0.19547254,0.12690498,-0.08076216,0.20190705,-0.000005
 03,-0.00000007,-0.00000804,0.00059322,-0.00149858,-0.00137903,-0.00006
 444,-0.00002013,0.00001955,0.00017254,0.00000702,-0.00001822,0.0000038
 6,-0.00000644,-0.00000238,-0.00004321,-0.00000276,-0.00000375,-0.00023
 590,-0.00010109,-0.00008824,0.00001445,0.00000511,-0.00000604,0.000002
 84,0.00000504,0.00000417,0.00018231,0.00031522,-0.00002615,0.00001510,
 0.00000122,-0.00001714,0.00000171,0.00000234,-0.00000629,0.00000047,0.
 00000090,0.00000116,-0.00000240,0.00000230,-0.00000215,-0.00000125,0.0
 0000013,-0.00000037,-0.00002106,0.00000685,0.00002035,0.00002974,0.000
 00980,-0.00000229,0.00002478,-0.00000402,-0.00001073,-0.00246615,0.001
 97466,0.00575609,-0.00170219,0.00509034,-0.00041983,0.00073344,-0.0022
 2215,-0.00261593,0.00000308,0.00000173,0.00000798,-0.00000215,-0.00000
 343,-0.00000285,-0.00000044,0.00000048,-0.00000053,-0.00000088,-0.0000
 0548,0.00000048,0.00000276,-0.00000032,0.00000200,-0.00000138,0.000001
 63,-0.00000384,-0.00000365,-0.00000062,0.00000205,-0.00000009,-0.00000
 070,0.00000138,0.00001232,0.00001211,-0.00000252,-0.00000546,-0.000003
 82,0.00000431,-0.00000268,0.00000350,-0.00001203,0.00077323,-0.0006211
 0,-0.00048820,0.00013398,-0.00029886,-0.00055647,-0.06742683,0.1277519
 7,-0.14023253,0.07492902,-0.13996508,0.13895051,0.00013957,-0.00001440
 ,0.00017448,-0.17069473,-0.00451694,-0.03639571,0.00100089,0.00018670,
 -0.00024357,-0.00223172,-0.00030796,-0.00028150,-0.00001171,0.00002980
 ,-0.00002662,0.00056385,0.00005667,0.00032745,0.00229102,-0.00049662,0
 .00159912,-0.00022174,-0.00008527,-0.00004434,-0.00003337,-0.00002852,
 -0.00002995,-0.00372217,0.00007464,-0.00140445,0.00011168,0.00049632,-
 0.00003081,-0.00002351,-0.00005112,0.00008119,-0.00002983,-0.00000790,
 -0.00000700,0.00004079,-0.00005305,0.00005844,0.00001386,0.00000480,0.
 00001039,-0.00002717,0.00024246,0.00004633,0.00006035,-0.00007451,-0.0
 0020255,-0.00005901,-0.00006618,0.00007883,0.00298662,-0.00688187,0.00
 750099,-0.03972224,-0.01933737,-0.00064062,-0.00353505,-0.00021992,-0.
 00286570,-0.00015177,0.00001379,-0.00016960,0.00007612,0.00005870,0.00
 004074,-0.00000027,-0.00000539,0.00001473,0.00003851,0.00012819,0.0000
 7685,-0.00002063,-0.00001770,-0.00005741,0.00007050,-0.00000942,0.0000
 4824,0.00005958,0.00001354,-0.00002064,-0.00001593,0.00003653,-0.00002
 160,-0.00001622,-0.00019025,-0.00012497,0.00001113,0.00001007,-0.00003
 907,0.00002202,-0.00002807,0.00010789,-0.01382565,0.02421328,-0.020592
 76,-0.00378121,-0.00148982,-0.00231410,-0.17125145,-0.12520441,0.05380
 184,0.00919828,0.01160647,-0.00608525,0.51882060,-0.00000632,0.0000020
 6,0.00000201,-0.00447112,-0.03308611,0.00567957,-0.00016516,-0.0001266
 9,0.00002385,0.00037313,0.00032847,0.00016051,-0.00000967,0.00001985,0
 .00003220,-0.00006188,-0.00010423,-0.00000904,-0.00069787,0.00048575,0
 .00114839,0.00000413,0.00000541,-0.00002370,0.00000862,0.00000994,0.00
 000738,-0.00146538,-0.00199077,-0.00048371,0.00017264,0.00011467,-0.00
 039551,-0.00000246,-0.00000903,-0.00001672,0.00000208,0.00000078,0.000
 00080,0.00000193,-0.00000358,0.00001113,-0.00000212,0.00000138,0.00000
 014,0.00128971,0.00044333,0.00036841,-0.00022216,-0.00022440,-0.000663
 67,-0.00022478,0.00005240,-0.00015630,-0.00657672,-0.06358531,0.035662
 50,-0.07451299,0.02959954,-0.03582975,-0.00022774,0.00375822,0.0026955
 3,0.00002655,-0.00000049,-0.00001599,-0.00001811,0.00000140,-0.0000047
 9,-0.00000007,0.00000009,-0.00000034,0.00003890,0.00008751,0.00017469,
 -0.00000037,-0.00000682,-0.00000330,0.00004702,-0.00001694,-0.00001728
 ,0.00002376,-0.00001712,-0.00001023,-0.00000414,0.00000451,0.00000416,
 0.00034318,-0.00029436,-0.00014201,-0.00002567,0.00000188,-0.00000524,
 0.00001046,0.00001052,0.00003367,0.07910971,0.03529545,0.00456201,-0.0
 0159077,0.00337036,0.00235231,-0.05839085,-0.22955557,0.09310568,-0.01
 384319,-0.01181147,0.00577505,0.05847478,0.50644273,0.00003274,0.00000
 050,0.00005717,-0.03619251,0.00586059,-0.03625266,0.00036794,0.0000772
 3,-0.00008669,-0.00080044,-0.00008606,-0.00016526,-0.00005661,0.000032
 84,0.00002629,0.00016914,0.00005367,0.00008463,0.00091451,-0.00039883,
 -0.00017342,-0.00008081,-0.00002840,0.00000032,-0.00001755,-0.00001183
 ,-0.00000983,0.00036843,0.00060998,-0.00095768,0.00004993,0.00005325,0
 .00035217,0.00001505,-0.00002041,0.00001396,-0.00000570,-0.00000316,-0
 .00000330,0.00000144,-0.00000814,0.00001818,0.00000150,0.00000392,0.00
 000418,-0.00070509,-0.00001297,-0.00009336,0.00027399,0.00007993,0.000
 39505,0.00002275,-0.00008381,0.00005577,0.00670758,0.03452616,-0.02838
 782,0.03603650,-0.01964899,0.03016606,-0.00294125,0.00274516,0.0051098
 9,-0.00000705,-0.00002866,-0.00007686,0.00000438,0.00003475,0.00003373
 ,0.00000013,-0.00000121,0.00000455,0.00000053,-0.00000555,-0.00005607,
 -0.00000651,-0.00000427,-0.00000911,-0.00000139,-0.00000007,0.00002425
 ,0.00003587,-0.00001565,-0.00002686,-0.00000293,0.00000999,-0.00000638
 ,-0.00010169,0.00011894,-0.00002433,0.00002190,0.00000814,-0.00000223,
 -0.00001287,-0.00001374,-0.00000144,-0.05711224,-0.01137247,-0.0015905
 0,-0.00232956,0.00203631,0.00557961,0.00986459,0.07451971,-0.11173548,
 0.01109490,0.01298805,-0.00272117,0.06687932,-0.23286633,0.29572121,-0
 .00004680,0.00000497,-0.00005870,-0.03210826,0.02177234,-0.02420090,-0
 .00065655,-0.00022088,0.00027758,0.00168560,0.00066991,0.00013457,0.00
 001962,0.00000109,0.00002795,-0.00028354,-0.00018252,-0.00010846,-0.00
 269388,0.00124659,-0.00032917,0.00009356,0.00004976,-0.00004811,0.0000
 3609,0.00002314,0.00002447,0.00346555,-0.00361358,0.00166481,-0.000033
 88,-0.00050983,-0.00059945,-0.00000337,0.00000620,-0.00004361,0.000011
 14,0.00000471,0.00000377,-0.00001004,0.00001676,-0.00000542,-0.0000054
 3,-0.00000182,-0.00000403,0.00119940,0.00005695,0.00064713,-0.00045185
 ,-0.00031915,-0.00087247,-0.00011517,0.00022698,-0.00014323,-0.0370702
 7,-0.06458195,0.03041154,-0.04842392,0.02415004,-0.02782397,-0.0006659
 5,0.00102817,-0.00045825,0.00005513,0.00000845,0.00004779,-0.00003313,
 -0.00002318,-0.00002930,-0.00000156,0.00000220,-0.00000618,0.00001780,
 0.00006757,0.00022783,0.00000949,0.00000631,0.00000177,0.00005579,-0.0
 0001466,-0.00003506,-0.00001175,-0.00001944,0.00000205,-0.00000176,-0.
 00000224,0.00001277,0.00047172,-0.00025799,-0.00019050,-0.00003050,0.0
 0002244,0.00003682,-0.00000647,0.00003623,-0.00003551,-0.33226653,0.01
 490274,-0.08789080,-0.00680021,-0.00252045,-0.00167619,0.06864435,0.01
 927109,0.00356602,-0.00149487,-0.00414467,0.00072533,-0.13492159,0.012
 24996,-0.02764012,0.67421970,0.00004718,-0.00000467,0.00005558,-0.0011
 5078,0.00430919,-0.00022385,0.00052851,0.00031736,-0.00059592,-0.00166
 855,-0.00053011,-0.00002736,0.00000913,-0.00001874,-0.00003690,0.00016
 429,0.00017385,0.00013895,0.00219439,-0.00052488,0.00081327,-0.0001076
 0,-0.00001475,-0.00000965,-0.00000978,-0.00001684,-0.00001430,-0.00346
 997,-0.00139642,0.00526588,-0.00120696,0.00020251,-0.00023570,-0.00001
 356,-0.00001124,0.00004065,-0.00000820,-0.00000279,-0.00000314,0.00001
 832,-0.00001965,0.00000839,0.00000566,0.00000100,0.00000401,-0.0001680
 9,-0.00007853,-0.00045348,0.00000712,0.00007962,0.00018186,-0.00015014
 ,0.00005821,-0.00023242,-0.02012520,0.02868693,-0.02095688,0.02513616,
 -0.01540882,0.01390627,0.00089395,-0.00020802,-0.00061988,-0.00005741,
 0.00000375,-0.00004309,0.00003184,0.00002175,0.00001446,0.00000052,-0.
 00000177,0.00000490,-0.00002536,-0.00000655,-0.00006183,-0.00001359,0.
 00000062,-0.00003377,0.00000976,0.00000547,0.00002147,0.00000783,0.000
 01155,-0.00000193,-0.00000334,0.00000978,-0.00001099,-0.00010102,0.000
 27660,-0.00010466,0.00005696,0.00001917,0.00007120,-0.00000756,-0.0000
 3833,0.00001614,-0.04854474,-0.11227168,0.01849267,0.02289972,0.004519
 03,0.00614368,-0.02840760,-0.03736454,0.02257470,-0.00383149,-0.000676
 46,0.00345142,0.07895437,-0.22718521,0.12581074,0.10655033,0.57017937,
 -0.00002605,0.00000126,-0.00004021,-0.00953420,0.00624509,-0.00187694,
 -0.00029744,-0.00006662,0.00019547,0.00062814,-0.00018877,-0.00004395,
 0.00004447,-0.00003768,-0.00001935,-0.00004014,-0.00001036,-0.00006649
 ,-0.00008262,0.00090252,-0.00042882,0.00002552,0.00003378,0.00004017,0
 .00000524,0.00000851,0.00000062,0.00117177,0.00335245,0.00514624,0.000
 05007,-0.00066312,-0.00058253,-0.00001257,0.00002333,-0.00000562,0.000
 00587,0.00000135,0.00000162,0.00000320,0.00000145,-0.00001889,-0.00000
 230,-0.00000192,-0.00000329,0.00048070,0.00048357,-0.00047580,-0.00037
 700,0.00009903,-0.00019566,0.00002240,-0.00023924,-0.00015668,-0.00010
 662,-0.03149359,0.02889074,-0.02905034,0.01416263,-0.02137720,-0.00044
 509,-0.00042275,-0.00093391,0.00001187,0.00001306,0.00005230,-0.000009
 69,-0.00002221,-0.00001653,0.00000115,0.00000045,-0.00000350,0.0000157
 2,-0.00002234,-0.00001364,0.00000590,-0.00000034,0.00002009,-0.0000187
 0,0.00000343,-0.00001375,-0.00002039,0.00001325,0.00001479,0.00000525,
 -0.00001174,0.00000264,-0.00000183,-0.00017699,0.00016241,-0.00005250,
 -0.00005239,-0.00004452,0.00002055,0.00001092,0.00001230,-0.04619882,0
 .03640155,-0.09763109,-0.01705407,-0.00119411,-0.00008855,0.03581110,0
 .03595064,-0.00447717,0.00038705,0.00326577,0.00394809,-0.07058869,0.1
 0568368,-0.15319201,0.08727862,-0.24709547,0.31257875,-0.00001015,0.00
 000163,-0.00001310,0.00059004,0.00088249,0.00036908,-0.00016217,-0.000
 01200,-0.00001877,0.00030950,0.00007690,0.00006902,0.00000001,-0.00000
 150,0.00000242,-0.00009652,-0.00001567,-0.00002819,-0.00031290,0.00003
 512,-0.00000577,0.00002749,0.00001479,-0.00001360,0.00000938,0.0000035
 9,0.00000572,-0.00003039,-0.00105021,0.00080274,-0.00028829,-0.0000008
 8,-0.00009829,0.00000151,0.00000464,-0.00000904,0.00000277,0.00000112,
 0.00000069,-0.00000206,0.00000478,-0.00000465,-0.00000123,-0.00000027,
 -0.00000111,0.00001490,-0.00002169,0.00001593,0.00002218,-0.00005075,0
 .00000529,-0.00003012,0.00003825,-0.00004069,-0.00429219,-0.00010701,-
 0.00353339,-0.00072707,0.00092738,-0.00043687,-0.00003375,0.00002780,0
 .00020336,0.00000932,-0.00000026,0.00001080,-0.00000525,-0.00000446,-0
 .00000486,-0.00000112,0.00000021,-0.00000247,-0.00000646,-0.00001466,0
 .00001288,-0.00000042,0.00000818,0.00000027,0.00000145,0.00000240,-0.0
 0000696,-0.00000931,-0.00000606,0.00000166,0.00000081,-0.00000228,0.00
 000253,0.00005472,0.00002602,-0.00001882,0.00000222,0.00000687,0.00001
 481,-0.00000943,-0.00000336,-0.00003195,-0.01093953,-0.02281505,0.0101
 6659,0.00027737,0.00082651,0.00074851,0.00013615,0.00168253,-0.0027929
 9,0.00056658,0.00049946,-0.00028375,0.00879160,0.01034295,-0.00484879,
 -0.15184763,-0.12844511,0.04794451,0.15798799,-0.00000279,0.,-0.000004
 24,0.00035601,-0.00050139,-0.00132627,-0.00001348,0.00000666,-0.000021
 99,0.00004483,-0.00001665,0.00001895,-0.00000020,-0.00000138,-0.000000
 39,-0.00002109,-0.00000520,-0.00000627,0.00001169,-0.00007278,0.000019
 73,0.00000926,0.00000171,-0.00000468,0.00000173,0.00000285,0.00000190,
 -0.00006520,0.00015612,0.00002627,-0.00002052,-0.00004561,-0.00006310,
 0.00000204,0.00000013,-0.00000307,0.00000012,0.00000054,0.00000063,-0.
 00000190,0.00000198,-0.00000095,-0.00000052,-0.00000002,-0.00000005,-0
 .00012605,0.00002228,-0.00005414,0.00001506,-0.00001494,0.00004560,0.0
 0003309,-0.00001742,0.00001761,0.00016592,0.00369523,0.00243846,0.0012
 9999,-0.00005590,-0.00032908,0.00002517,-0.00024614,-0.00030094,0.0000
 0300,-0.00000013,0.00000420,-0.00000122,-0.00000155,-0.00000171,-0.000
 00039,0.00000057,0.00000008,-0.00000425,0.00000397,-0.00000434,0.00000
 100,-0.00000067,0.00000255,-0.00000106,0.00000043,-0.00000102,-0.00000
 095,-0.00000096,0.00000068,-0.00000041,0.00000041,0.00000102,-0.000002
 28,-0.00000640,0.00001699,-0.00000508,-0.00000403,-0.00000241,-0.00000
 480,0.00000371,-0.00001493,0.00104447,0.00351918,0.00033610,0.00034949
 ,-0.00069093,-0.00216707,0.00198413,-0.00068614,0.00472461,-0.00073537
 ,-0.00056533,0.00033582,-0.01551443,-0.01201817,0.00504068,-0.12596261
 ,-0.21309576,0.07504189,0.13713759,0.22063176,0.00000368,-0.00000030,0
 .00000349,0.00068605,-0.00122635,-0.00167855,0.00002031,0.00001721,-0.
 00006151,-0.00004496,-0.00001434,0.00002614,-0.00000020,0.00000108,0.,
 -0.00000792,-0.00000531,0.00000986,0.00007831,-0.00005802,0.00006791,0
 .00000073,-0.00000107,-0.00001323,0.00000234,0.00000221,0.00000168,-0.
 00036625,-0.00018141,0.00024652,-0.00014273,-0.00002015,-0.00008827,0.
 00000127,-0.00000312,-0.00000106,-0.00000115,0.00000062,0.00000041,-0.
 00000020,0.00000029,0.00000221,0.00000004,0.00000037,0.00000059,-0.000
 09911,-0.00005035,-0.00007295,0.00000965,-0.00002863,0.00004248,0.0000
 1549,0.00002074,0.00001781,-0.00291615,0.00289210,0.00474008,-0.000267
 96,-0.00053198,-0.00088206,0.00018680,-0.00035787,-0.00048134,-0.00000
 389,0.00000019,-0.00000481,0.00000267,0.00000133,-0.00000004,-0.000001
 38,0.00000044,0.00000055,-0.00000692,0.00000336,-0.00000483,-0.0000009
 3,0.00000281,-0.00000112,0.00000186,0.00000143,-0.00000006,0.00000032,
 -0.00000253,-0.00000113,-0.00000150,0.00000247,0.00000095,-0.00000517,
 0.00000631,0.00000511,0.00000159,0.00000225,0.00000356,-0.00000445,-0.
 00000085,-0.00002001,-0.00583432,-0.00683621,0.00612620,0.00110066,-0.
 00190241,-0.00275542,-0.00321352,0.00451826,0.00221024,0.00054098,0.00
 060935,-0.00009138,0.01134005,0.01316023,-0.00207456,0.04710860,0.0737
 4497,-0.06936011,-0.04818273,-0.08376711,0.06408663\\0.00000139,-0.000
 00081,0.00000175,-0.00000278,-0.00000004,-0.00000118,-0.00000290,-0.00
 000458,0.00000203,0.00000329,0.00001311,-0.00000371,0.00000581,0.00000
 721,0.00000353,0.00000187,-0.00000312,0.00000437,-0.00000214,-0.000005
 33,-0.00000156,-0.00000632,-0.00000366,-0.00000181,0.00000234,-0.00000
 175,-0.00000321,0.00000531,-0.00000782,0.00000549,0.00000050,-0.000000
 28,-0.00000212,-0.00000785,-0.00000513,-0.00000144,0.00000079,0.000003
 47,-0.00000230,-0.00000034,-0.00000701,0.00000628,0.00000289,0.0000029
 4,0.00000023,0.00000210,0.00000466,0.00000052,-0.00000357,0.00000166,-
 0.00000111,-0.00000047,-0.00000160,-0.00000034,-0.00000695,0.00000531,
 -0.00000252,-0.00000385,-0.00000299,0.00000180,0.00000222,0.00000273,-
 0.00000144,0.00000151,0.00000753,-0.00000577,-0.00000513,-0.00000068,-
 0.00000503,-0.00000005,-0.00000235,0.00000344,-0.00000143,0.00000168,-
 0.00000651,0.00000005,-0.00000209,-0.00000003,0.00000378,0.00000174,0.
 00000550,0.00000313,0.00000088,0.00000326,-0.00000471,-0.00000216,-0.0
 0000193,0.00000465,-0.00000056,-0.00000409,-0.00000082,0.00000001,0.00
 000109,-0.00000239,-0.00000183,0.00000279,0.00000697,0.00000644,-0.000
 00279,0.00000225,-0.00000392,0.00000550,0.00000411,-0.00000250,0.00000
 117,-0.00000261,0.00000297,-0.00000189,0.00000502,-0.00000176,0.000003
 20,-0.00000335,0.00000278,-0.00000262,-0.00000231,-0.00000314,0.000001
 45\\\@


 THERE'S A SUCKER BORN EVERY MINUTE

              -- PHINEAS TAYLOR (P.T.) BARNUM
 Job cpu time:       0 days 16 hours  6 minutes 28.1 seconds.
 Elapsed time:       0 days  1 hours  0 minutes 36.9 seconds.
 File lengths (MBytes):  RWF=   1402 Int=      0 D2E=      0 Chk=     41 Scr=      1
 Normal termination of Gaussian 16 at Mon Oct  6 19:02:51 2025.
