 Entering Gaussian System, Link 0=g16
 Input=EEBD0008.gjf
 Output=EEBD0008.log
 Initial command:
 /usr/local/g16/l1.exe "/dados_01/scratch/Gau-2467269.inp" -scrdir="/dados_01/scratch/"
 Entering Link 1 = /usr/local/g16/l1.exe PID=   2467270.
  
 Copyright (c) 1988-2017, Gaussian, Inc.  All Rights Reserved.
  
 This is part of the Gaussian(R) 16 program.  It is based on
 the Gaussian(R) 09 system (copyright 2009, Gaussian, Inc.),
 the Gaussian(R) 03 system (copyright 2003, Gaussian, Inc.),
 the Gaussian(R) 98 system (copyright 1998, Gaussian, Inc.),
 the Gaussian(R) 94 system (copyright 1995, Gaussian, Inc.),
 the Gaussian 92(TM) system (copyright 1992, Gaussian, Inc.),
 the Gaussian 90(TM) system (copyright 1990, Gaussian, Inc.),
 the Gaussian 88(TM) system (copyright 1988, Gaussian, Inc.),
 the Gaussian 86(TM) system (copyright 1986, Carnegie Mellon
 University), and the Gaussian 82(TM) system (copyright 1983,
 Carnegie Mellon University). Gaussian is a federally registered
 trademark of Gaussian, Inc.
  
 This software contains proprietary and confidential information,
 including trade secrets, belonging to Gaussian, Inc.
  
 This software is provided under written license and may be
 used, copied, transmitted, or stored only in accord with that
 written license.
  
 The following legend is applicable only to US Government
 contracts under FAR:
  
                    RESTRICTED RIGHTS LEGEND
  
 Use, reproduction and disclosure by the US Government is
 subject to restrictions as set forth in subparagraphs (a)
 and (c) of the Commercial Computer Software - Restricted
 Rights clause in FAR 52.227-19.
  
 Gaussian, Inc.
 340 Quinnipiac St., Bldg. 40, Wallingford CT 06492
  
  
 ---------------------------------------------------------------
 Warning -- This program may not be used in any manner that
 competes with the business of Gaussian, Inc. or will provide
 assistance to any competitor of Gaussian, Inc.  The licensee
 of this program is prohibited from giving any competitor of
 Gaussian, Inc. access to this program.  By using this program,
 the user acknowledges that Gaussian, Inc. is engaged in the
 business of creating and licensing software in the field of
 computational chemistry and represents and warrants to the
 licensee that it is not a competitor of Gaussian, Inc. and that
 it will not use this program in any manner prohibited above.
 ---------------------------------------------------------------
  

 Cite this work as:
 Gaussian 16, Revision B.01,
 M. J. Frisch, G. W. Trucks, H. B. Schlegel, G. E. Scuseria, 
 M. A. Robb, J. R. Cheeseman, G. Scalmani, V. Barone, 
 G. A. Petersson, H. Nakatsuji, X. Li, M. Caricato, A. V. Marenich, 
 J. Bloino, B. G. Janesko, R. Gomperts, B. Mennucci, H. P. Hratchian, 
 J. V. Ortiz, A. F. Izmaylov, J. L. Sonnenberg, D. Williams-Young, 
 F. Ding, F. Lipparini, F. Egidi, J. Goings, B. Peng, A. Petrone, 
 T. Henderson, D. Ranasinghe, V. G. Zakrzewski, J. Gao, N. Rega, 
 G. Zheng, W. Liang, M. Hada, M. Ehara, K. Toyota, R. Fukuda, 
 J. Hasegawa, M. Ishida, T. Nakajima, Y. Honda, O. Kitao, H. Nakai, 
 T. Vreven, K. Throssell, J. A. Montgomery, Jr., J. E. Peralta, 
 F. Ogliaro, M. J. Bearpark, J. J. Heyd, E. N. Brothers, K. N. Kudin, 
 V. N. Staroverov, T. A. Keith, R. Kobayashi, J. Normand, 
 K. Raghavachari, A. P. Rendell, J. C. Burant, S. S. Iyengar, 
 J. Tomasi, M. Cossi, J. M. Millam, M. Klene, C. Adamo, R. Cammi, 
 J. W. Ochterski, R. L. Martin, K. Morokuma, O. Farkas, 
 J. B. Foresman, and D. J. Fox, Gaussian, Inc., Wallingford CT, 2016.
 
 ******************************************
 Gaussian 16:  ES64L-G16RevB.01 20-Dec-2017
                 6-Oct-2025 
 ******************************************
 %nprocs=16
 Will use up to   16 processors via shared memory.
 %mem=40GB
 %chk=EEBD0008.chk
 ----------------------------------------------------------------------
 # opt freq=noraman M08HX/6-311++G** scf=xqc Empiricaldispersion=pfd In
 t(Grid=ultraFine)
 ----------------------------------------------------------------------
 1/18=20,19=15,26=4,38=1/1,3;
 2/9=110,12=2,17=6,18=5,40=1/2;
 3/5=4,6=6,7=1111,11=2,25=1,30=1,71=1,74=-74,75=-5,124=11/1,2,3;
 4//1;
 5/5=2,8=3,13=1,38=5/2,8;
 6/7=2,8=2,9=2,10=2,28=1/1;
 7//1,2,3,16;
 1/18=20,19=15,26=4/3(2);
 2/9=110/2;
 99//99;
 2/9=110/2;
 3/5=4,6=6,7=1111,11=2,25=1,30=1,71=1,74=-74,75=-5,124=11/1,2,3;
 4/5=5,16=3,69=1/1;
 5/5=2,8=3,13=1,38=5/2,8;
 7//1,2,3,16;
 1/18=20,19=15,26=4/3(-5);
 2/9=110/2;
 6/7=2,8=2,9=2,10=2,19=2,28=1/1;
 99/9=1/99;
 --------
 EEBD0008
 --------
 Symbolic Z-matrix:
 Charge =  0 Multiplicity = 1
 Cl                   -0.2022    0.2302    20.7921 
 Cl                    8.1322    4.597     29.9907 
 Cl                    4.0622    1.4216    28.663 
 Cl                    1.833     0.5111    15.8698 
 O                     1.9603    2.3979    24.3158 
 C                     2.0623    1.6168    20.2371 
 C                     2.1635    1.9166    21.6611 
 H                     1.3428    2.0183    22.1276 
 C                     4.2686    2.7188    24.6713 
 C                     3.082     2.3831    23.8386 
 C                     3.28      2.0662    22.3902 
 C                     5.0944    3.2515    26.9554 
 C                     1.0297    0.8279    19.7314 
 C                     4.0775    2.852     25.9795 
 H                     3.206     2.6724    26.3108 
 C                     5.1543    2.683     28.2254 
 C                     6.0827    3.0755    29.1687 
 H                     6.1041    2.6869    30.0607 
 C                     0.9399    0.4774    18.4016 
 H                     0.2378   -0.0822    18.0909 
 C                     5.595     2.7764    23.9773 
 H                     6.3213    2.6735    24.6426 
 H                     5.7022    3.6581    23.54 
 C                     2.8909    1.8029    17.9642 
 H                     3.5125    2.1706    17.3475 
 C                     6.9313    4.6751    27.6017 
 H                     7.5447    5.3687    27.3894 
 C                     5.9986    4.2624    26.6813 
 H                     5.933     4.704     25.8505 
 C                     6.9613    4.0677    28.8353 
 C                     2.9693    2.1028    19.2979 
 H                     3.6728    2.6666    19.5959 
 C                     4.6708    1.912     21.855 
 H                     4.9121    2.7261    21.3465 
 H                     4.6912    1.1464    21.2276 
 C                     1.894     0.9595    17.536 
 C                     5.7034    1.6853    22.943 
 H                     5.5622    0.8255    23.3565 
 H                     6.532     1.7056    22.5345 
 

 GradGradGradGradGradGradGradGradGradGradGradGradGradGradGradGradGradGrad
 Berny optimization.
 Initialization pass.
                           ----------------------------
                           !    Initial Parameters    !
                           ! (Angstroms and Degrees)  !
 --------------------------                            --------------------------
 ! Name  Definition              Value          Derivative Info.                !
 --------------------------------------------------------------------------------
 ! R1    R(1,13)                 1.732          estimate D2E/DX2                !
 ! R2    R(2,30)                 1.728          estimate D2E/DX2                !
 ! R3    R(3,16)                 1.7249         estimate D2E/DX2                !
 ! R4    R(4,36)                 1.7266         estimate D2E/DX2                !
 ! R5    R(5,10)                 1.2191         estimate D2E/DX2                !
 ! R6    R(6,7)                  1.4587         estimate D2E/DX2                !
 ! R7    R(6,13)                 1.3944         estimate D2E/DX2                !
 ! R8    R(6,31)                 1.3932         estimate D2E/DX2                !
 ! R9    R(7,8)                  0.9495         estimate D2E/DX2                !
 ! R10   R(7,11)                 1.3418         estimate D2E/DX2                !
 ! R11   R(9,10)                 1.488          estimate D2E/DX2                !
 ! R12   R(9,14)                 1.3288         estimate D2E/DX2                !
 ! R13   R(9,21)                 1.4981         estimate D2E/DX2                !
 ! R14   R(10,11)                1.4958         estimate D2E/DX2                !
 ! R15   R(11,33)                1.4982         estimate D2E/DX2                !
 ! R16   R(12,14)                1.4649         estimate D2E/DX2                !
 ! R17   R(12,16)                1.3927         estimate D2E/DX2                !
 ! R18   R(12,28)                1.3837         estimate D2E/DX2                !
 ! R19   R(13,19)                1.3781         estimate D2E/DX2                !
 ! R20   R(14,15)                0.9495         estimate D2E/DX2                !
 ! R21   R(16,17)                1.3805         estimate D2E/DX2                !
 ! R22   R(17,18)                0.9732         estimate D2E/DX2                !
 ! R23   R(17,30)                1.3666         estimate D2E/DX2                !
 ! R24   R(19,20)                0.9501         estimate D2E/DX2                !
 ! R25   R(19,36)                1.3755         estimate D2E/DX2                !
 ! R26   R(21,22)                0.9903         estimate D2E/DX2                !
 ! R27   R(21,23)                0.99           estimate D2E/DX2                !
 ! R28   R(21,37)                1.5073         estimate D2E/DX2                !
 ! R29   R(24,25)                0.9497         estimate D2E/DX2                !
 ! R30   R(24,31)                1.3692         estimate D2E/DX2                !
 ! R31   R(24,36)                1.3742         estimate D2E/DX2                !
 ! R32   R(26,27)                0.95           estimate D2E/DX2                !
 ! R33   R(26,28)                1.3738         estimate D2E/DX2                !
 ! R34   R(26,30)                1.3754         estimate D2E/DX2                !
 ! R35   R(28,29)                0.9432         estimate D2E/DX2                !
 ! R36   R(31,32)                0.9495         estimate D2E/DX2                !
 ! R37   R(33,34)                0.9897         estimate D2E/DX2                !
 ! R38   R(33,35)                0.99           estimate D2E/DX2                !
 ! R39   R(33,37)                1.517          estimate D2E/DX2                !
 ! R40   R(37,38)                0.9645         estimate D2E/DX2                !
 ! R41   R(37,39)                0.924          estimate D2E/DX2                !
 ! A1    A(7,6,13)             121.445          estimate D2E/DX2                !
 ! A2    A(7,6,31)             122.7675         estimate D2E/DX2                !
 ! A3    A(13,6,31)            115.7842         estimate D2E/DX2                !
 ! A4    A(6,7,8)              116.2105         estimate D2E/DX2                !
 ! A5    A(6,7,11)             127.6661         estimate D2E/DX2                !
 ! A6    A(8,7,11)             116.1234         estimate D2E/DX2                !
 ! A7    A(10,9,14)            117.3147         estimate D2E/DX2                !
 ! A8    A(10,9,21)            117.0963         estimate D2E/DX2                !
 ! A9    A(14,9,21)            125.4196         estimate D2E/DX2                !
 ! A10   A(5,10,9)             120.7943         estimate D2E/DX2                !
 ! A11   A(5,10,11)            120.2252         estimate D2E/DX2                !
 ! A12   A(9,10,11)            118.9543         estimate D2E/DX2                !
 ! A13   A(7,11,10)            116.0791         estimate D2E/DX2                !
 ! A14   A(7,11,33)            124.5307         estimate D2E/DX2                !
 ! A15   A(10,11,33)           119.3796         estimate D2E/DX2                !
 ! A16   A(14,12,16)           121.7359         estimate D2E/DX2                !
 ! A17   A(14,12,28)           121.3911         estimate D2E/DX2                !
 ! A18   A(16,12,28)           116.7917         estimate D2E/DX2                !
 ! A19   A(1,13,6)             119.9896         estimate D2E/DX2                !
 ! A20   A(1,13,19)            117.1816         estimate D2E/DX2                !
 ! A21   A(6,13,19)            122.8256         estimate D2E/DX2                !
 ! A22   A(9,14,12)            125.687          estimate D2E/DX2                !
 ! A23   A(9,14,15)            117.1656         estimate D2E/DX2                !
 ! A24   A(12,14,15)           117.1474         estimate D2E/DX2                !
 ! A25   A(3,16,12)            120.1731         estimate D2E/DX2                !
 ! A26   A(3,16,17)            117.41           estimate D2E/DX2                !
 ! A27   A(12,16,17)           122.4089         estimate D2E/DX2                !
 ! A28   A(16,17,18)           121.8397         estimate D2E/DX2                !
 ! A29   A(16,17,30)           118.17           estimate D2E/DX2                !
 ! A30   A(18,17,30)           119.959          estimate D2E/DX2                !
 ! A31   A(13,19,20)           120.898          estimate D2E/DX2                !
 ! A32   A(13,19,36)           118.2219         estimate D2E/DX2                !
 ! A33   A(20,19,36)           120.8801         estimate D2E/DX2                !
 ! A34   A(9,21,22)            109.52           estimate D2E/DX2                !
 ! A35   A(9,21,23)            109.5567         estimate D2E/DX2                !
 ! A36   A(9,21,37)            110.715          estimate D2E/DX2                !
 ! A37   A(22,21,23)           108.0514         estimate D2E/DX2                !
 ! A38   A(22,21,37)           109.4525         estimate D2E/DX2                !
 ! A39   A(23,21,37)           109.499          estimate D2E/DX2                !
 ! A40   A(25,24,31)           120.6793         estimate D2E/DX2                !
 ! A41   A(25,24,36)           120.6703         estimate D2E/DX2                !
 ! A42   A(31,24,36)           118.6503         estimate D2E/DX2                !
 ! A43   A(27,26,28)           120.5303         estimate D2E/DX2                !
 ! A44   A(27,26,30)           120.5852         estimate D2E/DX2                !
 ! A45   A(28,26,30)           118.8845         estimate D2E/DX2                !
 ! A46   A(12,28,26)           122.0323         estimate D2E/DX2                !
 ! A47   A(12,28,29)           118.1064         estimate D2E/DX2                !
 ! A48   A(26,28,29)           119.7828         estimate D2E/DX2                !
 ! A49   A(2,30,17)            119.6632         estimate D2E/DX2                !
 ! A50   A(2,30,26)            118.6341         estimate D2E/DX2                !
 ! A51   A(17,30,26)           121.6979         estimate D2E/DX2                !
 ! A52   A(6,31,24)            122.8853         estimate D2E/DX2                !
 ! A53   A(6,31,32)            118.5489         estimate D2E/DX2                !
 ! A54   A(24,31,32)           118.5659         estimate D2E/DX2                !
 ! A55   A(11,33,34)           108.9782         estimate D2E/DX2                !
 ! A56   A(11,33,35)           108.9717         estimate D2E/DX2                !
 ! A57   A(11,33,37)           113.0205         estimate D2E/DX2                !
 ! A58   A(34,33,35)           107.7863         estimate D2E/DX2                !
 ! A59   A(34,33,37)           108.9925         estimate D2E/DX2                !
 ! A60   A(35,33,37)           108.9598         estimate D2E/DX2                !
 ! A61   A(4,36,19)            119.4569         estimate D2E/DX2                !
 ! A62   A(4,36,24)            119.0597         estimate D2E/DX2                !
 ! A63   A(19,36,24)           121.4804         estimate D2E/DX2                !
 ! A64   A(21,37,33)           109.5725         estimate D2E/DX2                !
 ! A65   A(21,37,38)           109.9131         estimate D2E/DX2                !
 ! A66   A(21,37,39)           110.6055         estimate D2E/DX2                !
 ! A67   A(33,37,38)           109.9411         estimate D2E/DX2                !
 ! A68   A(33,37,39)           106.8595         estimate D2E/DX2                !
 ! A69   A(38,37,39)           109.9014         estimate D2E/DX2                !
 ! D1    D(13,6,7,8)           -34.3786         estimate D2E/DX2                !
 ! D2    D(13,6,7,11)          145.645          estimate D2E/DX2                !
 ! D3    D(31,6,7,8)           144.9418         estimate D2E/DX2                !
 ! D4    D(31,6,7,11)          -35.0347         estimate D2E/DX2                !
 ! D5    D(7,6,13,1)             2.3155         estimate D2E/DX2                !
 ! D6    D(7,6,13,19)         -177.0144         estimate D2E/DX2                !
 ! D7    D(31,6,13,1)         -177.0498         estimate D2E/DX2                !
 ! D8    D(31,6,13,19)           3.6203         estimate D2E/DX2                !
 ! D9    D(7,6,31,24)          178.7621         estimate D2E/DX2                !
 ! D10   D(7,6,31,32)           -1.224          estimate D2E/DX2                !
 ! D11   D(13,6,31,24)          -1.8818         estimate D2E/DX2                !
 ! D12   D(13,6,31,32)         178.1321         estimate D2E/DX2                !
 ! D13   D(6,7,11,10)          179.5468         estimate D2E/DX2                !
 ! D14   D(6,7,11,33)           -1.6486         estimate D2E/DX2                !
 ! D15   D(8,7,11,10)           -0.4296         estimate D2E/DX2                !
 ! D16   D(8,7,11,33)          178.375          estimate D2E/DX2                !
 ! D17   D(14,9,10,5)            8.9905         estimate D2E/DX2                !
 ! D18   D(14,9,10,11)        -172.8673         estimate D2E/DX2                !
 ! D19   D(21,9,10,5)         -175.4794         estimate D2E/DX2                !
 ! D20   D(21,9,10,11)           2.6628         estimate D2E/DX2                !
 ! D21   D(10,9,14,12)        -176.3499         estimate D2E/DX2                !
 ! D22   D(10,9,14,15)           3.6674         estimate D2E/DX2                !
 ! D23   D(21,9,14,12)           8.5341         estimate D2E/DX2                !
 ! D24   D(21,9,14,15)        -171.4486         estimate D2E/DX2                !
 ! D25   D(10,9,21,22)        -159.3509         estimate D2E/DX2                !
 ! D26   D(10,9,21,23)          82.301          estimate D2E/DX2                !
 ! D27   D(10,9,21,37)         -38.5659         estimate D2E/DX2                !
 ! D28   D(14,9,21,22)          15.7747         estimate D2E/DX2                !
 ! D29   D(14,9,21,23)        -102.5734         estimate D2E/DX2                !
 ! D30   D(14,9,21,37)         136.5597         estimate D2E/DX2                !
 ! D31   D(5,10,11,7)            5.2278         estimate D2E/DX2                !
 ! D32   D(5,10,11,33)        -173.6421         estimate D2E/DX2                !
 ! D33   D(9,10,11,7)         -172.9252         estimate D2E/DX2                !
 ! D34   D(9,10,11,33)           8.2049         estimate D2E/DX2                !
 ! D35   D(7,11,33,34)          77.4753         estimate D2E/DX2                !
 ! D36   D(7,11,33,35)         -39.8993         estimate D2E/DX2                !
 ! D37   D(7,11,33,37)        -161.1889         estimate D2E/DX2                !
 ! D38   D(10,11,33,34)       -103.7568         estimate D2E/DX2                !
 ! D39   D(10,11,33,35)        138.8685         estimate D2E/DX2                !
 ! D40   D(10,11,33,37)         17.579          estimate D2E/DX2                !
 ! D41   D(16,12,14,9)        -141.9287         estimate D2E/DX2                !
 ! D42   D(16,12,14,15)         38.054          estimate D2E/DX2                !
 ! D43   D(28,12,14,9)          41.4563         estimate D2E/DX2                !
 ! D44   D(28,12,14,15)       -138.561          estimate D2E/DX2                !
 ! D45   D(14,12,16,3)           2.9213         estimate D2E/DX2                !
 ! D46   D(14,12,16,17)       -178.1371         estimate D2E/DX2                !
 ! D47   D(28,12,16,3)         179.6844         estimate D2E/DX2                !
 ! D48   D(28,12,16,17)         -1.374          estimate D2E/DX2                !
 ! D49   D(14,12,28,26)        177.9921         estimate D2E/DX2                !
 ! D50   D(14,12,28,29)          1.2228         estimate D2E/DX2                !
 ! D51   D(16,12,28,26)          1.2171         estimate D2E/DX2                !
 ! D52   D(16,12,28,29)       -175.5523         estimate D2E/DX2                !
 ! D53   D(1,13,19,20)          -1.1083         estimate D2E/DX2                !
 ! D54   D(1,13,19,36)         178.8884         estimate D2E/DX2                !
 ! D55   D(6,13,19,20)         178.2392         estimate D2E/DX2                !
 ! D56   D(6,13,19,36)          -1.7641         estimate D2E/DX2                !
 ! D57   D(3,16,17,18)          -2.4565         estimate D2E/DX2                !
 ! D58   D(3,16,17,30)         179.5811         estimate D2E/DX2                !
 ! D59   D(12,16,17,18)        178.5742         estimate D2E/DX2                !
 ! D60   D(12,16,17,30)          0.6118         estimate D2E/DX2                !
 ! D61   D(16,17,30,2)         179.5582         estimate D2E/DX2                !
 ! D62   D(16,17,30,26)          0.3675         estimate D2E/DX2                !
 ! D63   D(18,17,30,2)           1.5561         estimate D2E/DX2                !
 ! D64   D(18,17,30,26)       -177.6346         estimate D2E/DX2                !
 ! D65   D(13,19,36,4)         178.6059         estimate D2E/DX2                !
 ! D66   D(13,19,36,24)         -2.0321         estimate D2E/DX2                !
 ! D67   D(20,19,36,4)          -1.3974         estimate D2E/DX2                !
 ! D68   D(20,19,36,24)        177.9645         estimate D2E/DX2                !
 ! D69   D(9,21,37,33)          64.2292         estimate D2E/DX2                !
 ! D70   D(9,21,37,38)         -56.6871         estimate D2E/DX2                !
 ! D71   D(9,21,37,39)        -178.2204         estimate D2E/DX2                !
 ! D72   D(22,21,37,33)       -174.9458         estimate D2E/DX2                !
 ! D73   D(22,21,37,38)         64.138          estimate D2E/DX2                !
 ! D74   D(22,21,37,39)        -57.3954         estimate D2E/DX2                !
 ! D75   D(23,21,37,33)        -56.672          estimate D2E/DX2                !
 ! D76   D(23,21,37,38)       -177.5882         estimate D2E/DX2                !
 ! D77   D(23,21,37,39)         60.8784         estimate D2E/DX2                !
 ! D78   D(25,24,31,6)         178.3301         estimate D2E/DX2                !
 ! D79   D(25,24,31,32)         -1.6839         estimate D2E/DX2                !
 ! D80   D(36,24,31,6)          -1.6378         estimate D2E/DX2                !
 ! D81   D(36,24,31,32)        178.3483         estimate D2E/DX2                !
 ! D82   D(25,24,36,4)           3.0769         estimate D2E/DX2                !
 ! D83   D(25,24,36,19)       -176.2875         estimate D2E/DX2                !
 ! D84   D(31,24,36,4)        -176.9552         estimate D2E/DX2                !
 ! D85   D(31,24,36,19)          3.6804         estimate D2E/DX2                !
 ! D86   D(27,26,28,12)        179.7171         estimate D2E/DX2                !
 ! D87   D(27,26,28,29)         -3.5663         estimate D2E/DX2                !
 ! D88   D(30,26,28,12)         -0.3159         estimate D2E/DX2                !
 ! D89   D(30,26,28,29)        176.4007         estimate D2E/DX2                !
 ! D90   D(27,26,30,2)           0.2534         estimate D2E/DX2                !
 ! D91   D(27,26,30,17)        179.4522         estimate D2E/DX2                !
 ! D92   D(28,26,30,2)        -179.7136         estimate D2E/DX2                !
 ! D93   D(28,26,30,17)         -0.5147         estimate D2E/DX2                !
 ! D94   D(11,33,37,21)        -53.3703         estimate D2E/DX2                !
 ! D95   D(11,33,37,38)         67.529          estimate D2E/DX2                !
 ! D96   D(11,33,37,39)       -173.2405         estimate D2E/DX2                !
 ! D97   D(34,33,37,21)         67.9574         estimate D2E/DX2                !
 ! D98   D(34,33,37,38)       -171.1433         estimate D2E/DX2                !
 ! D99   D(34,33,37,39)        -51.9128         estimate D2E/DX2                !
 ! D100  D(35,33,37,21)       -174.6667         estimate D2E/DX2                !
 ! D101  D(35,33,37,38)        -53.7674         estimate D2E/DX2                !
 ! D102  D(35,33,37,39)         65.4632         estimate D2E/DX2                !
 --------------------------------------------------------------------------------
 Trust Radius=3.00D-01 FncErr=1.00D-07 GrdErr=1.00D-06 EigMax=2.50D+02 EigMin=1.00D-04
 Number of steps in this run=    222 maximum allowed number of steps=    234.
 GradGradGradGradGradGradGradGradGradGradGradGradGradGradGradGradGradGrad

                          Input orientation:                          
 ---------------------------------------------------------------------
 Center     Atomic      Atomic             Coordinates (Angstroms)
 Number     Number       Type             X           Y           Z
 ---------------------------------------------------------------------
      1         17           0       -0.202200    0.230200   20.792100
      2         17           0        8.132200    4.597000   29.990700
      3         17           0        4.062200    1.421600   28.663000
      4         17           0        1.833000    0.511100   15.869800
      5          8           0        1.960300    2.397900   24.315800
      6          6           0        2.062300    1.616800   20.237100
      7          6           0        2.163500    1.916600   21.661100
      8          1           0        1.342800    2.018300   22.127600
      9          6           0        4.268600    2.718800   24.671300
     10          6           0        3.082000    2.383100   23.838600
     11          6           0        3.280000    2.066200   22.390200
     12          6           0        5.094400    3.251500   26.955400
     13          6           0        1.029700    0.827900   19.731400
     14          6           0        4.077500    2.852000   25.979500
     15          1           0        3.206000    2.672400   26.310800
     16          6           0        5.154300    2.683000   28.225400
     17          6           0        6.082700    3.075500   29.168700
     18          1           0        6.104100    2.686900   30.060700
     19          6           0        0.939900    0.477400   18.401600
     20          1           0        0.237800   -0.082200   18.090900
     21          6           0        5.595000    2.776400   23.977300
     22          1           0        6.321300    2.673500   24.642600
     23          1           0        5.702200    3.658100   23.540000
     24          6           0        2.890900    1.802900   17.964200
     25          1           0        3.512500    2.170600   17.347500
     26          6           0        6.931300    4.675100   27.601700
     27          1           0        7.544700    5.368700   27.389400
     28          6           0        5.998600    4.262400   26.681300
     29          1           0        5.933000    4.704000   25.850500
     30          6           0        6.961300    4.067700   28.835300
     31          6           0        2.969300    2.102800   19.297900
     32          1           0        3.672800    2.666600   19.595900
     33          6           0        4.670800    1.912000   21.855000
     34          1           0        4.912100    2.726100   21.346500
     35          1           0        4.691200    1.146400   21.227600
     36          6           0        1.894000    0.959500   17.536000
     37          6           0        5.703400    1.685300   22.943000
     38          1           0        5.562200    0.825500   23.356500
     39          1           0        6.532000    1.705600   22.534500
 ---------------------------------------------------------------------
                    Distance matrix (angstroms):
                    1          2          3          4          5
     1  Cl   0.000000
     2  Cl  13.158473   0.000000
     3  Cl   9.030814   5.330183   0.000000
     4  Cl   5.333852  15.992946  13.017846   0.000000
     5  O    4.668168   8.667922   4.926387   8.655122   0.000000
     6  C    2.712682  11.868361   8.662188   4.510927   4.154072
     7  C    3.032432  10.592080   7.271636   5.968569   2.705619
     8  H    2.714385  10.703924   7.103706   6.455386   2.305129
     9  C    6.421010   6.837474   4.202261   9.395344   2.357458
    10  C    4.970122   8.261610   5.015985   8.280468   1.219077
    11  C    4.248592   9.365703   6.354161   6.857679   2.357874
    12  C    8.669976   4.500183   2.707373  11.875902   4.185535
    13  C    1.732024  13.034756   9.451032   3.956970   4.934333
    14  C    7.217949   5.964507   3.040962  10.617138   2.730685
    15  H    6.930817   6.443073   2.798289  10.750387   2.367941
    16  C    9.484844   3.955701   1.724908  12.977251   5.056470
    17  C   10.851872   2.681622   2.659612  14.194958   6.403434
    18  H   11.476574   2.786857   2.779191  14.978586   7.089321
    19  C    2.660825  14.248071  10.767386   2.684916   6.301373
    20  H    2.754574  15.027365  11.342696   2.798205   6.918619
    21  C    7.087747   6.775909   5.112802   9.220400   3.669998
    22  H    7.959404   5.965013   4.778536  10.088748   4.381903
    23  H    7.359578   6.956865   5.825518   9.149114   4.023902
    24  C    4.476346  13.413237  10.769478   2.678509   6.446927
    25  H    5.424889  13.677703  11.353577   2.785365   7.142702
    26  C   10.817329   2.674992   4.465798  13.452473   6.379155
    27  H   11.399255   2.776227   5.415668  13.744853   7.032652
    28  C    9.454694   3.951751   3.968239  12.178383   5.037839
    29  H    9.123759   4.689263   4.710010  11.576043   4.843113
    30  C   11.433950   1.728038   3.928907  14.389338   6.944358
    31  C    3.974629  12.133118   9.453230   3.946715   5.126840
    32  H    4.731021  11.474518   9.160456   4.681332   5.028152
    33  C    5.263491   9.240137   6.852718   6.770395   3.693027
    34  H    5.717774   9.412306   7.480322   6.661931   4.199712
    35  H    4.997444  10.026916   7.467031   6.105648   4.308253
    36  C    3.940574  14.396739  11.345693   1.726559   6.931023
    37  C    6.451341   8.002946   5.956633   8.147938   4.050083
    38  H    6.337100   8.052436   5.546555   8.369974   4.045539
    39  H    7.110711   8.155719   6.613553   8.241702   4.955073
                    6          7          8          9         10
     6  C    0.000000
     7  C    1.458731   0.000000
     8  H    2.062249   0.949481   0.000000
     9  C    5.073883   3.759824   3.939723   0.000000
    10  C    3.820708   2.408894   2.466864   1.487986   0.000000
    11  C    2.514079   1.341842   1.955504   2.570337   1.495825
    12  C    7.549929   6.196914   6.237222   2.486529   3.810291
    13  C    1.394403   2.488878   2.693856   6.202305   4.847646
    14  C    6.209823   4.815283   4.796955   1.328777   2.407144
    15  H    6.269942   4.824702   4.625854   1.954286   2.492156
    16  C    8.631928   7.254122   7.221670   3.662973   4.860903
    17  C    9.902772   8.547938   8.553445   4.862592   6.155776
    18  H   10.676347   9.309939   9.276372   5.693480   6.923865
    19  C    2.434558   3.767338   4.052132   7.444008   6.146646
    20  H    3.289616   4.522151   4.682742   8.209422   6.870461
    21  C    5.273873   4.228384   4.698650   1.498096   2.547370
    22  H    6.218048   5.171996   5.616046   2.053400   3.350196
    23  H    5.322117   4.368694   4.867051   2.053615   2.929204
    24  C    2.426373   3.769497   4.447124   6.908120   5.906075
    25  H    3.280177   4.526750   5.251681   7.383106   6.508830
    26  C    9.343323   8.101356   8.261700   4.416370   5.850752
    27  H    9.761601   8.584156   8.796322   5.014267   6.437211
    28  C    8.001336   6.738930   6.888297   3.068501   4.485451
    29  H    7.484877   6.287273   6.491757   2.846359   4.190766
    30  C   10.194908   8.894676   8.986703   5.138975   6.546286
    31  C    1.393177   2.503737   3.264942   5.562469   4.550739
    32  H    2.026556   2.665621   3.501242   5.110517   4.293008
    33  C    3.083669   2.514791   3.340837   2.957066   2.584742
    34  H    3.253102   2.882545   3.721693   3.386509   3.110864
    35  H    2.848417   2.677760   3.575191   3.809213   3.307004
    36  C    2.785015   4.243244   4.744225   7.723106   6.569684
    37  C    4.536981   3.771957   4.448663   2.472609   2.856705
    38  H    4.754589   3.951714   4.553713   2.643234   2.968153
    39  H    5.026346   4.459949   5.214513   3.273449   3.749958
                   11         12         13         14         15
    11  C    0.000000
    12  C    5.053517   0.000000
    13  C    3.696817   8.636075   0.000000
    14  C    3.759862   1.464946   7.240499   0.000000
    15  H    3.967878   2.077720   7.171260   0.949488   0.000000
    16  C    6.159789   1.392724   9.622981   2.496423   2.731607
    17  C    7.404180   2.430311  10.938334   3.773828   4.074983
    18  H    8.197401   3.313783  11.657609   4.559667   4.739298
    19  C    4.889712   9.905705   1.378145   8.538608   8.515203
    20  H    5.688109  10.643283   2.036327   9.251099   9.163230
    21  C    2.895254   3.057025   6.531943   2.513429   3.341161
    22  H    3.832966   2.681121   7.451655   2.617977   3.533835
    23  H    3.118211   3.492807   6.659409   3.039837   3.857454
    24  C    4.450865   9.369927   2.745485   8.170292   8.397681
    25  H    5.049136   9.797066   3.694607   8.677267   8.982566
    26  C    6.877360   2.412165  10.562739   3.754917   4.422114
    27  H    7.354330   3.267241  11.032183   4.510330   5.220894
    28  C    5.534223   1.383701   9.207978   2.484427   3.234808
    29  H    5.096084   2.008435   8.746993   2.624771   3.431589
    30  C    7.687476   2.772277  11.338482   4.236723   4.735213
    31  C    3.108085   8.029500   2.361216   6.814190   7.039974
    32  H    2.884941   7.518331   3.222601   6.399102   6.731108
    33  C    1.498179   5.290348   4.352305   4.271663   4.751631
    34  H    2.046589   5.636403   4.613539   4.709257   5.249565
    35  H    2.046743   6.115694   3.968203   5.085888   5.511208
    36  C    5.168079  10.208865   2.363073   8.924232   9.036176
    37  C    2.514665   4.350082   5.735240   3.636629   4.307372
    38  H    2.771554   4.365363   5.803870   3.631964   4.206020
    39  H    3.275112   4.899067   6.237230   4.382560   5.124199
                   16         17         18         19         20
    16  C    0.000000
    17  C    1.380506   0.000000
    18  H    2.066509   0.973207   0.000000
    19  C   10.914801  12.211837  12.941618   0.000000
    20  H   11.598551  12.917104  13.614606   0.950069   0.000000
    21  C    4.271919   5.222829   6.105321   7.618647   8.457002
    22  H    3.768081   4.550177   5.422468   8.528329   9.355620
    23  H    4.817052   5.671549   6.604868   7.694122   8.575675
    24  C   10.544657  11.719553  12.547168   2.398889   3.257084
    25  H   11.013027  12.131181  12.984930   3.255200   4.043688
    26  C    2.741385   2.394646   3.268621  11.754123  12.565435
    27  H    3.691327   3.249941   4.050089  12.179029  13.021720
    28  C    2.364655   2.757347   3.730104  10.414898  11.218616
    29  H    3.214182   3.699307   4.671590   9.913693  10.749624
    30  C    2.356824   1.366585   2.035437  12.570187  13.336763
    31  C    9.209295  10.395773  11.225240   2.750226   3.700293
    32  H    8.755763   9.879945  10.743541   3.699688   4.649747
    33  C    6.435076   7.539058   8.365903   5.282392   6.147908
    34  H    6.883297   7.917019   8.795435   5.432077   6.350950
    35  H    7.179471   8.289678   9.077064   4.744058   5.584005
    36  C   11.307665  12.543619  13.325801   1.375496   2.033728
    37  C    5.403764   6.390295   7.198987   6.691358   7.519289
    38  H    5.227129   6.254206   6.978880   6.785121   7.543189
    39  H    5.936304   6.789043   7.601956   7.061227   7.909410
                   21         22         23         24         25
    21  C    0.000000
    22  H    0.990315   0.000000
    23  H    0.990009   1.602638   0.000000
    24  C    6.664625   7.558215   6.514194   0.000000
    25  H    6.975532   7.833310   6.734575   0.949689   0.000000
    26  C    4.304304   3.624193   4.363758  10.837701  11.095464
    27  H    4.707842   4.038034   4.597699  11.099873  11.283893
    28  C    3.111705   2.604810   3.212600   9.575739   9.883124
    29  H    2.709015   2.394312   2.546681   8.936693   9.196627
    30  C    5.209069   4.464541   5.458325  11.827015  12.143425
    31  C    5.407848   6.334621   5.280446   1.369249   2.025765
    32  H    4.785768   5.699454   4.545048   2.004941   2.308033
    33  C    2.470929   3.327874   2.636641   4.279985   4.661125
    34  H    2.718454   3.585092   2.510841   4.046913   4.273109
    35  H    3.321838   4.080623   3.560611   3.784422   4.182523
    36  C    7.647802   8.546493   7.604791   1.374223   2.030231
    37  C    1.507324   2.060820   2.061153   5.719479   6.028696
    38  H    2.047554   2.376003   2.841988   6.096561   6.489888
    39  H    2.026389   2.329230   2.347734   5.844204   6.019848
                   26         27         28         29         30
    26  C    0.000000
    27  H    0.949954   0.000000
    28  C    1.373822   2.028726   0.000000
    29  H    2.015971   2.325428   0.943156   0.000000
    30  C    1.375356   2.030661   2.367365   3.220452   0.000000
    31  C    9.553390   9.852551   8.267716   7.647635  10.524205
    32  H    8.873823   9.112167   7.626193   6.955539   9.906757
    33  C    6.765290   7.130053   5.529973   5.035120   7.656241
    34  H    6.855895   7.101448   5.656924   5.023977   7.879165
    35  H    7.622265   7.996128   6.415730   5.964041   8.459577
    36  C   11.853202  12.184455  10.554307   9.973250  12.767639
    37  C    5.670108   6.060387   4.550107   4.197478   6.478992
    38  H    5.891993   6.390247   4.801773   4.626045   6.518174
    39  H    5.886755   6.165543   4.900785   4.510550   6.742692
                   31         32         33         34         35
    31  C    0.000000
    32  H    0.949519   0.000000
    33  C    3.077380   2.582433   0.000000
    34  H    2.891321   2.145695   0.989726   0.000000
    35  H    2.757423   2.451651   0.990046   1.599496   0.000000
    36  C    2.359597   3.212710   5.222225   5.172013   4.635426
    37  C    4.575627   4.036008   1.517036   2.063549   2.063385
    38  H    4.982656   4.593647   2.056594   2.841656   2.322463
    39  H    4.829718   4.211166   1.992081   2.253184   2.325777
                   36         37         38         39
    36  C    0.000000
    37  C    6.653868   0.000000
    38  H    6.881269   0.964456   0.000000
    39  H    6.859498   0.924047   1.546212   0.000000
 Stoichiometry    C20H14Cl4O
 Framework group  C1[X(C20H14Cl4O)]
 Deg. of freedom   111
 Full point group                 C1      NOp   1
 Largest Abelian subgroup         C1      NOp   1
 Largest concise Abelian subgroup C1      NOp   1
                         Standard orientation:                         
 ---------------------------------------------------------------------
 Center     Atomic      Atomic             Coordinates (Angstroms)
 Number     Number       Type             X           Y           Z
 ---------------------------------------------------------------------
      1         17           0       -4.526936    2.653318   -0.148618
      2         17           0        8.006292   -1.353447   -0.051474
      3         17           0        4.441503    2.493629    0.898861
      4         17           0       -7.979737   -1.372420    0.418463
      5          8           0       -0.032723    1.739907   -1.020123
      6          6           0       -3.773803    0.056445   -0.366986
      7          6           0       -2.405583    0.525237   -0.557000
      8          1           0       -2.305215    1.353511   -1.010213
      9          6           0        1.297662   -0.047279   -0.249638
     10          6           0        0.000342    0.634199   -0.507809
     11          6           0       -1.271189   -0.076207   -0.167186
     12          6           0        3.775125    0.159003   -0.299191
     13          6           0       -4.823544    0.946885   -0.144456
     14          6           0        2.405929    0.664119   -0.426575
     15          1           0        2.301452    1.579710   -0.655280
     16          6           0        4.790833    0.929124    0.261996
     17          6           0        6.093483    0.481567    0.354704
     18          1           0        6.800895    1.034643    0.729947
     19          6           0       -6.115546    0.533055    0.097943
     20          1           0       -6.805355    1.163113    0.270633
     21          6           0        1.239433   -1.444956    0.286458
     22          1           0        2.100089   -1.668231    0.722514
     23          1           0        1.099573   -2.080503   -0.459624
     24          6           0       -5.400583   -1.736572   -0.205854
     25          1           0       -5.607036   -2.661698   -0.264406
     26          6           0        5.423401   -1.551506   -0.718578
     27          1           0        5.645769   -2.408724   -1.062295
     28          6           0        4.134582   -1.081900   -0.794749
     29          1           0        3.475370   -1.592128   -1.235940
     30          6           0        6.385802   -0.759486   -0.137121
     31          6           0       -4.121422   -1.292035   -0.408281
     32          1           0       -3.441296   -1.930794   -0.584352
     33          6           0       -1.211523   -1.367434    0.590253
     34          1           0       -1.375064   -2.115961   -0.036260
     35          1           0       -1.933440   -1.376850    1.267703
     36          6           0       -6.379810   -0.816736    0.083120
     37          6           0        0.119165   -1.586792    1.284911
     38          1           0        0.229151   -0.944059    1.995525
     39          1           0        0.101306   -2.442044    1.634321
 ---------------------------------------------------------------------
 Rotational constants (GHZ):           0.4840588           0.0490829           0.0455534
 Standard basis: 6-311++G(d,p) (5D, 7F)
 There are   705 symmetry adapted cartesian basis functions of A   symmetry.
 There are   680 symmetry adapted basis functions of A   symmetry.
   680 basis functions,  1094 primitive gaussians,   705 cartesian basis functions
   105 alpha electrons      105 beta electrons
       nuclear repulsion energy      2477.4479340820 Hartrees.
 NAtoms=   39 NActive=   39 NUniq=   39 SFac= 1.00D+00 NAtFMM=   60 NAOKFM=F Big=F
 Integral buffers will be    131072 words long.
 Raffenetti 2 integral format.
 Two-electron integral symmetry is turned on.
 R6APFD:  NTU= -4 IXU= 1 FactS= 1.050
 Nuclear repulsion after empirical dispersion term =     2477.4131038791 Hartrees.
 One-electron integrals computed using PRISM.
 NBasis=   680 RedAO= T EigKep=  1.09D-06  NBF=   680
 NBsUse=   673 1.00D-06 EigRej=  9.38D-07 NBFU=   673
 ExpMin= 3.60D-02 ExpMax= 1.06D+05 ExpMxC= 3.62D+03 IAcc=3 IRadAn=         5 AccDes= 0.00D+00
 Harris functional with IExCor= 1009 and IRadAn=       5 diagonalized for initial guess.
 HarFok:  IExCor= 1009 AccDes= 0.00D+00 IRadAn=         5 IDoV= 1 UseB2=F ITyADJ=14
 ICtDFT=  3500011 ScaDFX=  1.000000  1.000000  1.000000  1.000000
 FoFCou: FMM=F IPFlag=           0 FMFlag=      100000 FMFlg1=           0
         NFxFlg=           0 DoJE=T BraDBF=F KetDBF=T FulRan=T
         wScrn=  0.000000 ICntrl=       500 IOpCl=  0 I1Cent=   200000004 NGrid=           0
         NMat0=    1 NMatS0=      1 NMatT0=    0 NMatD0=    1 NMtDS0=    0 NMtDT0=    0
 Petite list used in FoFCou.
 Requested convergence on RMS density matrix=1.00D-08 within  32 cycles.
 Requested convergence on MAX density matrix=1.00D-06.
 Requested convergence on             energy=1.00D-06.
 No special actions if energy rises.
 SCF Done:  E(RM08HX) =  -2686.35008581     A.U. after   18 cycles
            NFock= 18  Conv=0.46D-08     -V/T= 2.0016
 QCSCF skips out because SCF is already converged.

 **********************************************************************

            Population analysis using the SCF Density.

 **********************************************************************

 Orbital symmetries:
       Occupied  (A) (A) (A) (A) (A) (A) (A) (A) (A) (A) (A) (A)
                 (A) (A) (A) (A) (A) (A) (A) (A) (A) (A) (A) (A)
                 (A) (A) (A) (A) (A) (A) (A) (A) (A) (A) (A) (A)
                 (A) (A) (A) (A) (A) (A) (A) (A) (A) (A) (A) (A)
                 (A) (A) (A) (A) (A) (A) (A) (A) (A) (A) (A) (A)
                 (A) (A) (A) (A) (A) (A) (A) (A) (A) (A) (A) (A)
                 (A) (A) (A) (A) (A) (A) (A) (A) (A) (A) (A) (A)
                 (A) (A) (A) (A) (A) (A) (A) (A) (A) (A) (A) (A)
                 (A) (A) (A) (A) (A) (A) (A) (A) (A)
       Virtual   (A) (A) (A) (A) (A) (A) (A) (A) (A) (A) (A) (A)
                 (A) (A) (A) (A) (A) (A) (A) (A) (A) (A) (A) (A)
                 (A) (A) (A) (A) (A) (A) (A) (A) (A) (A) (A) (A)
                 (A) (A) (A) (A) (A) (A) (A) (A) (A) (A) (A) (A)
                 (A) (A) (A) (A) (A) (A) (A) (A) (A) (A) (A) (A)
                 (A) (A) (A) (A) (A) (A) (A) (A) (A) (A) (A) (A)
                 (A) (A) (A) (A) (A) (A) (A) (A) (A) (A) (A) (A)
                 (A) (A) (A) (A) (A) (A) (A) (A) (A) (A) (A) (A)
                 (A) (A) (A) (A) (A) (A) (A) (A) (A) (A) (A) (A)
                 (A) (A) (A) (A) (A) (A) (A) (A) (A) (A) (A) (A)
                 (A) (A) (A) (A) (A) (A) (A) (A) (A) (A) (A) (A)
                 (A) (A) (A) (A) (A) (A) (A) (A) (A) (A) (A) (A)
                 (A) (A) (A) (A) (A) (A) (A) (A) (A) (A) (A) (A)
                 (A) (A) (A) (A) (A) (A) (A) (A) (A) (A) (A) (A)
                 (A) (A) (A) (A) (A) (A) (A) (A) (A) (A) (A) (A)
                 (A) (A) (A) (A) (A) (A) (A) (A) (A) (A) (A) (A)
                 (A) (A) (A) (A) (A) (A) (A) (A) (A) (A) (A) (A)
                 (A) (A) (A) (A) (A) (A) (A) (A) (A) (A) (A) (A)
                 (A) (A) (A) (A) (A) (A) (A) (A) (A) (A) (A) (A)
                 (A) (A) (A) (A) (A) (A) (A) (A) (A) (A) (A) (A)
                 (A) (A) (A) (A) (A) (A) (A) (A) (A) (A) (A) (A)
                 (A) (A) (A) (A) (A) (A) (A) (A) (A) (A) (A) (A)
                 (A) (A) (A) (A) (A) (A) (A) (A) (A) (A) (A) (A)
                 (A) (A) (A) (A) (A) (A) (A) (A) (A) (A) (A) (A)
                 (A) (A) (A) (A) (A) (A) (A) (A) (A) (A) (A) (A)
                 (A) (A) (A) (A) (A) (A) (A) (A) (A) (A) (A) (A)
                 (A) (A) (A) (A) (A) (A) (A) (A) (A) (A) (A) (A)
                 (A) (A) (A) (A) (A) (A) (A) (A) (A) (A) (A) (A)
                 (A) (A) (A) (A) (A) (A) (A) (A) (A) (A) (A) (A)
                 (A) (A) (A) (A) (A) (A) (A) (A) (A) (A) (A) (A)
                 (A) (A) (A) (A) (A) (A) (A) (A) (A) (A) (A) (A)
                 (A) (A) (A) (A) (A) (A) (A) (A) (A) (A) (A) (A)
                 (A) (A) (A) (A) (A) (A) (A) (A) (A) (A) (A) (A)
                 (A) (A) (A) (A) (A) (A) (A) (A) (A) (A) (A) (A)
                 (A) (A) (A) (A) (A) (A) (A) (A) (A) (A) (A) (A)
                 (A) (A) (A) (A) (A) (A) (A) (A) (A) (A) (A) (A)
                 (A) (A) (A) (A) (A) (A) (A) (A) (A) (A) (A) (A)
                 (A) (A) (A) (A) (A) (A) (A) (A) (A) (A) (A) (A)
                 (A) (A) (A) (A) (A) (A) (A) (A) (A) (A) (A) (A)
                 (A) (A) (A) (A) (A) (A) (A) (A) (A) (A) (A) (A)
                 (A) (A) (A) (A) (A) (A) (A) (A) (A) (A) (A) (A)
                 (A) (A) (A) (A) (A) (A) (A) (A) (A) (A) (A) (A)
                 (A) (A) (A) (A) (A) (A) (A) (A) (A) (A) (A) (A)
                 (A) (A) (A) (A) (A) (A) (A) (A) (A) (A) (A) (A)
                 (A) (A) (A) (A) (A) (A) (A) (A) (A) (A) (A) (A)
                 (A) (A) (A) (A) (A) (A) (A) (A) (A) (A) (A) (A)
                 (A) (A) (A) (A) (A) (A) (A) (A) (A) (A) (A) (A)
                 (A) (A) (A) (A)
 The electronic state is 1-A.
 Alpha  occ. eigenvalues -- -102.66919-102.66870-102.66868-102.66674 -19.59938
 Alpha  occ. eigenvalues --  -10.62618 -10.61848 -10.61832 -10.61538 -10.61414
 Alpha  occ. eigenvalues --  -10.57336 -10.57212 -10.55802 -10.55626 -10.55460
 Alpha  occ. eigenvalues --  -10.55259 -10.55062 -10.54948 -10.54624 -10.54597
 Alpha  occ. eigenvalues --  -10.54353 -10.54323 -10.52407 -10.52321 -10.50901
 Alpha  occ. eigenvalues --   -9.79710  -9.79677  -9.79660  -9.79471  -7.55020
 Alpha  occ. eigenvalues --   -7.54986  -7.54971  -7.54780  -7.54348  -7.54328
 Alpha  occ. eigenvalues --   -7.54316  -7.54297  -7.54290  -7.54279  -7.54109
 Alpha  occ. eigenvalues --   -7.54083  -1.17063  -1.04731  -1.04613  -1.00019
 Alpha  occ. eigenvalues --   -0.99888  -0.98546  -0.96170  -0.95315  -0.93195
 Alpha  occ. eigenvalues --   -0.90915  -0.88110  -0.87971  -0.86254  -0.85389
 Alpha  occ. eigenvalues --   -0.81870  -0.78038  -0.75220  -0.75189  -0.73334
 Alpha  occ. eigenvalues --   -0.71735  -0.70242  -0.67924  -0.63632  -0.62148
 Alpha  occ. eigenvalues --   -0.61750  -0.59602  -0.59575  -0.58217  -0.58125
 Alpha  occ. eigenvalues --   -0.57313  -0.56516  -0.55568  -0.53860  -0.53807
 Alpha  occ. eigenvalues --   -0.53344  -0.52597  -0.51302  -0.51040  -0.50779
 Alpha  occ. eigenvalues --   -0.50339  -0.49037  -0.48556  -0.47053  -0.46975
 Alpha  occ. eigenvalues --   -0.46257  -0.45187  -0.44977  -0.44753  -0.44365
 Alpha  occ. eigenvalues --   -0.42781  -0.42117  -0.40746  -0.40674  -0.39878
 Alpha  occ. eigenvalues --   -0.39826  -0.39190  -0.39040  -0.36307  -0.35492
 Alpha  occ. eigenvalues --   -0.33479  -0.33191  -0.33101  -0.30192  -0.29805
 Alpha virt. eigenvalues --   -0.07674  -0.03930  -0.03130  -0.02671  -0.02165
 Alpha virt. eigenvalues --   -0.01890  -0.01759  -0.01457  -0.01001  -0.00896
 Alpha virt. eigenvalues --    0.00020   0.00253   0.00486   0.00550   0.01118
 Alpha virt. eigenvalues --    0.01386   0.01671   0.01799   0.02298   0.02808
 Alpha virt. eigenvalues --    0.02987   0.03315   0.03590   0.04079   0.04633
 Alpha virt. eigenvalues --    0.05110   0.05243   0.05411   0.05751   0.05981
 Alpha virt. eigenvalues --    0.06591   0.06907   0.07027   0.07430   0.07558
 Alpha virt. eigenvalues --    0.07659   0.08039   0.08538   0.08783   0.09056
 Alpha virt. eigenvalues --    0.09182   0.09390   0.09662   0.09906   0.10263
 Alpha virt. eigenvalues --    0.10304   0.10862   0.11004   0.11266   0.11590
 Alpha virt. eigenvalues --    0.11837   0.11959   0.12057   0.12288   0.12637
 Alpha virt. eigenvalues --    0.12693   0.12890   0.13008   0.13242   0.13486
 Alpha virt. eigenvalues --    0.13780   0.14220   0.14322   0.14421   0.14501
 Alpha virt. eigenvalues --    0.14506   0.14814   0.15023   0.15307   0.15688
 Alpha virt. eigenvalues --    0.15824   0.15979   0.16282   0.16385   0.16719
 Alpha virt. eigenvalues --    0.17110   0.17396   0.17713   0.17793   0.17977
 Alpha virt. eigenvalues --    0.18852   0.18892   0.19108   0.19443   0.19830
 Alpha virt. eigenvalues --    0.20101   0.20353   0.20706   0.21040   0.21585
 Alpha virt. eigenvalues --    0.21751   0.22054   0.22444   0.22631   0.23115
 Alpha virt. eigenvalues --    0.23489   0.23643   0.24255   0.24474   0.24593
 Alpha virt. eigenvalues --    0.24754   0.25253   0.25587   0.25779   0.26250
 Alpha virt. eigenvalues --    0.26539   0.26743   0.27086   0.27337   0.27485
 Alpha virt. eigenvalues --    0.27804   0.28001   0.28495   0.29011   0.29196
 Alpha virt. eigenvalues --    0.29750   0.30007   0.30299   0.30754   0.30855
 Alpha virt. eigenvalues --    0.31283   0.31625   0.31977   0.32285   0.32472
 Alpha virt. eigenvalues --    0.32640   0.32818   0.33166   0.33676   0.34396
 Alpha virt. eigenvalues --    0.34592   0.34822   0.35257   0.35708   0.36327
 Alpha virt. eigenvalues --    0.36664   0.36784   0.37348   0.37374   0.38077
 Alpha virt. eigenvalues --    0.38774   0.39252   0.39458   0.39869   0.41245
 Alpha virt. eigenvalues --    0.42061   0.42303   0.43548   0.44116   0.45313
 Alpha virt. eigenvalues --    0.45861   0.46049   0.46551   0.47213   0.48049
 Alpha virt. eigenvalues --    0.48292   0.48582   0.48917   0.49537   0.49787
 Alpha virt. eigenvalues --    0.50683   0.51179   0.51754   0.51951   0.53370
 Alpha virt. eigenvalues --    0.54295   0.54649   0.55022   0.55530   0.56089
 Alpha virt. eigenvalues --    0.56500   0.57440   0.58077   0.58739   0.59092
 Alpha virt. eigenvalues --    0.59139   0.60085   0.60355   0.60785   0.61760
 Alpha virt. eigenvalues --    0.62092   0.62355   0.62401   0.62780   0.63751
 Alpha virt. eigenvalues --    0.64033   0.64442   0.65176   0.65931   0.66265
 Alpha virt. eigenvalues --    0.66704   0.67404   0.67655   0.68054   0.68510
 Alpha virt. eigenvalues --    0.68905   0.69900   0.70923   0.71308   0.71690
 Alpha virt. eigenvalues --    0.72156   0.72318   0.72433   0.73071   0.73805
 Alpha virt. eigenvalues --    0.73938   0.74963   0.75769   0.77071   0.77159
 Alpha virt. eigenvalues --    0.77543   0.77776   0.78739   0.79197   0.79469
 Alpha virt. eigenvalues --    0.79890   0.80080   0.81180   0.81635   0.82434
 Alpha virt. eigenvalues --    0.82561   0.83403   0.83921   0.85146   0.85441
 Alpha virt. eigenvalues --    0.85830   0.85993   0.86768   0.87229   0.87832
 Alpha virt. eigenvalues --    0.88123   0.88732   0.88970   0.89410   0.89434
 Alpha virt. eigenvalues --    0.89857   0.90213   0.90742   0.91103   0.91486
 Alpha virt. eigenvalues --    0.91876   0.92373   0.92645   0.92916   0.93433
 Alpha virt. eigenvalues --    0.93952   0.94348   0.94743   0.95217   0.95324
 Alpha virt. eigenvalues --    0.95589   0.96352   0.96633   0.97296   0.97418
 Alpha virt. eigenvalues --    0.98234   0.98540   0.99428   1.00127   1.00378
 Alpha virt. eigenvalues --    1.01205   1.01723   1.02348   1.02640   1.02938
 Alpha virt. eigenvalues --    1.03204   1.03896   1.04690   1.05504   1.06388
 Alpha virt. eigenvalues --    1.07497   1.07755   1.09078   1.09292   1.10428
 Alpha virt. eigenvalues --    1.11273   1.11807   1.13140   1.14074   1.16027
 Alpha virt. eigenvalues --    1.16673   1.17500   1.18630   1.18988   1.20544
 Alpha virt. eigenvalues --    1.22583   1.23725   1.23873   1.24742   1.25328
 Alpha virt. eigenvalues --    1.26484   1.28556   1.29174   1.29241   1.29735
 Alpha virt. eigenvalues --    1.30030   1.31343   1.31422   1.33709   1.34133
 Alpha virt. eigenvalues --    1.35107   1.36288   1.37545   1.38579   1.38906
 Alpha virt. eigenvalues --    1.39141   1.39919   1.44386   1.45775   1.47715
 Alpha virt. eigenvalues --    1.49412   1.50998   1.51810   1.52925   1.53835
 Alpha virt. eigenvalues --    1.54579   1.55732   1.56559   1.57362   1.57994
 Alpha virt. eigenvalues --    1.59028   1.59916   1.60748   1.61516   1.61899
 Alpha virt. eigenvalues --    1.62703   1.63169   1.64866   1.65707   1.66930
 Alpha virt. eigenvalues --    1.67712   1.68155   1.68566   1.68750   1.69964
 Alpha virt. eigenvalues --    1.70497   1.71344   1.72569   1.74445   1.74839
 Alpha virt. eigenvalues --    1.75434   1.76759   1.77830   1.78278   1.80395
 Alpha virt. eigenvalues --    1.80828   1.81124   1.83403   1.84065   1.85551
 Alpha virt. eigenvalues --    1.86376   1.87070   1.88109   1.89385   1.90668
 Alpha virt. eigenvalues --    1.91585   1.91750   1.92767   1.93592   1.94645
 Alpha virt. eigenvalues --    1.95038   1.96737   1.97129   1.97563   1.97689
 Alpha virt. eigenvalues --    1.99233   1.99453   2.00296   2.00379   2.02468
 Alpha virt. eigenvalues --    2.04034   2.04389   2.05361   2.06353   2.07263
 Alpha virt. eigenvalues --    2.09779   2.10086   2.10790   2.11281   2.11639
 Alpha virt. eigenvalues --    2.11934   2.13220   2.13620   2.14823   2.17025
 Alpha virt. eigenvalues --    2.19002   2.21662   2.22434   2.23225   2.24951
 Alpha virt. eigenvalues --    2.25843   2.27577   2.28344   2.29732   2.30986
 Alpha virt. eigenvalues --    2.31050   2.31717   2.32552   2.33180   2.33711
 Alpha virt. eigenvalues --    2.35843   2.36640   2.38249   2.38783   2.40006
 Alpha virt. eigenvalues --    2.40759   2.41751   2.42849   2.43290   2.44101
 Alpha virt. eigenvalues --    2.45844   2.46604   2.48416   2.49876   2.50459
 Alpha virt. eigenvalues --    2.54359   2.55450   2.57375   2.57926   2.58882
 Alpha virt. eigenvalues --    2.59639   2.59932   2.60738   2.62698   2.62838
 Alpha virt. eigenvalues --    2.67212   2.67967   2.68136   2.69160   2.70869
 Alpha virt. eigenvalues --    2.71860   2.72313   2.72873   2.73693   2.74035
 Alpha virt. eigenvalues --    2.75093   2.77085   2.79280   2.80430   2.81377
 Alpha virt. eigenvalues --    2.81987   2.84332   2.86006   2.87220   2.87477
 Alpha virt. eigenvalues --    2.88637   2.89430   2.91083   2.91617   2.92980
 Alpha virt. eigenvalues --    2.93409   2.94292   2.95194   2.95595   2.96256
 Alpha virt. eigenvalues --    2.97499   2.97852   2.99123   2.99632   3.01219
 Alpha virt. eigenvalues --    3.01813   3.02703   3.02854   3.03844   3.05337
 Alpha virt. eigenvalues --    3.08488   3.10061   3.10559   3.11737   3.13620
 Alpha virt. eigenvalues --    3.13634   3.16804   3.17293   3.17665   3.18291
 Alpha virt. eigenvalues --    3.19145   3.20076   3.24264   3.25846   3.28667
 Alpha virt. eigenvalues --    3.29563   3.30568   3.31625   3.35726   3.37175
 Alpha virt. eigenvalues --    3.38677   3.40755   3.44520   3.46770   3.47064
 Alpha virt. eigenvalues --    3.47246   3.48024   3.56591   3.59158   3.60056
 Alpha virt. eigenvalues --    3.69415   3.70699   3.72541   3.73974   3.78122
 Alpha virt. eigenvalues --    3.80950   3.86784   3.89707   3.90571   3.92399
 Alpha virt. eigenvalues --    3.97661   3.98391   4.05170   4.11808   4.19802
 Alpha virt. eigenvalues --    4.26245   4.26766   4.28996   4.31224   4.35511
 Alpha virt. eigenvalues --    4.36791   4.37385   4.42221   4.43294   4.62478
 Alpha virt. eigenvalues --    4.65779   4.68691   4.90716   4.91572   5.19016
 Alpha virt. eigenvalues --    5.43224   5.89550   9.97996   9.98236  10.01115
 Alpha virt. eigenvalues --   10.01306  23.63772  23.66359  23.86389  23.90654
 Alpha virt. eigenvalues --   23.94368  23.97229  23.97856  24.06602  24.07060
 Alpha virt. eigenvalues --   24.12876  24.17106  24.18305  24.23140  24.24704
 Alpha virt. eigenvalues --   24.25365  24.32332  24.34841  24.35160  24.36389
 Alpha virt. eigenvalues --   24.39474  26.03535  26.03860  26.07589  26.09398
 Alpha virt. eigenvalues --   26.34168  26.34537  26.46247  26.47005  26.85134
 Alpha virt. eigenvalues --   26.85896  26.92520  26.93625  50.06696 215.57356
 Alpha virt. eigenvalues --  215.57622 215.61184 215.61435
          Condensed to atoms (all electrons):
               1          2          3          4          5          6
     1  Cl  17.847077  -0.000000  -0.000183  -0.005980  -0.002479  -0.115869
     2  Cl  -0.000000  17.670582  -0.002585  -0.000000  -0.000028  -0.000036
     3  Cl  -0.000183  -0.002585  17.934416  -0.000000   0.000359  -0.003285
     4  Cl  -0.005980  -0.000000  -0.000000  17.620716  -0.000015  -0.371030
     5  O   -0.002479  -0.000028   0.000359  -0.000015   7.877729   0.069594
     6  C   -0.115869  -0.000036  -0.003285  -0.371030   0.069594  28.931478
     7  C   -0.167386   0.000370   0.036731  -0.061162   0.188086   4.673919
     8  H    0.247381  -0.000010  -0.003350  -0.001346  -0.017523   0.190477
     9  C   -0.015598  -0.078820  -0.175074  -0.001092  -0.406877  -0.166224
    10  C    0.189107   0.020421   0.215328   0.010631   0.653187   0.842499
    11  C   -0.029212   0.001063  -0.050404  -0.126200  -0.380812 -16.044029
    12  C   -0.003950  -0.398194  -0.161080  -0.000043   0.096231  -0.462636
    13  C   -1.300035  -0.000001   0.001108  -0.167297  -0.019848   1.428905
    14  C    0.032169  -0.076317  -0.314656  -0.000018   0.384119  -1.326776
    15  H   -0.002845  -0.001300   0.231972  -0.000014  -0.012025  -0.010372
    16  C    0.000781   0.033148  -0.918538   0.000003  -0.037525   0.106722
    17  C    0.000106   0.181187  -0.519727   0.000000  -0.014063   0.006347
    18  H   -0.000000   0.054713   0.051045  -0.000000  -0.000044  -0.000204
    19  C   -0.360105  -0.000000   0.000109   0.385434  -0.017451  -9.706918
    20  H    0.051662  -0.000000  -0.000002   0.055767  -0.000057  -0.276192
    21  C    0.013308   0.007617   0.025308   0.000557  -0.099405   0.603839
    22  H    0.000308   0.000621   0.000826   0.000017  -0.003988   0.003860
    23  H    0.000248   0.000640   0.004045   0.000018   0.000703   0.030137
    24  C    0.604079   0.000000  -0.000102   0.245344   0.005560  -3.083871
    25  H    0.010734  -0.000000  -0.000004   0.061756   0.000012  -0.057731
    26  C   -0.000124   0.764886   0.830931   0.000000   0.001433  -0.000068
    27  H   -0.000004   0.077943   0.013222  -0.000000  -0.000076   0.000188
    28  C   -0.000090  -0.098671  -0.102091  -0.000003   0.026452  -0.196071
    29  H    0.000082  -0.030714  -0.032910   0.000000  -0.000994  -0.010677
    30  C    0.000005  -1.721114  -0.778995  -0.000000  -0.000897  -0.006679
    31  C    0.102907   0.000010  -0.000054   0.144656   0.011125  -1.639302
    32  H   -0.035261   0.000001   0.000110  -0.029661   0.001624  -0.026196
    33  C   -0.019111   0.000266   0.009307   0.014339  -0.063780  -2.327484
    34  H    0.003125   0.000030   0.000190   0.001359  -0.001081   0.070538
    35  H    0.001099   0.000012  -0.000729  -0.000599  -0.003666   0.084354
    36  C   -0.740595   0.000000   0.000004  -1.359576  -0.001742   2.798973
    37  C    0.009448   0.000399  -0.010346   0.004189  -0.082657   1.179044
    38  H    0.001147   0.000077   0.010401   0.000113  -0.001835   0.069660
    39  H   -0.000475  -0.000166  -0.001216  -0.000188  -0.001222  -0.063489
               7          8          9         10         11         12
     1  Cl  -0.167386   0.247381  -0.015598   0.189107  -0.029212  -0.003950
     2  Cl   0.000370  -0.000010  -0.078820   0.020421   0.001063  -0.398194
     3  Cl   0.036731  -0.003350  -0.175074   0.215328  -0.050404  -0.161080
     4  Cl  -0.061162  -0.001346  -0.001092   0.010631  -0.126200  -0.000043
     5  O    0.188086  -0.017523  -0.406877   0.653187  -0.380812   0.096231
     6  C    4.673919   0.190477  -0.166224   0.842499 -16.044029  -0.462636
     7  C   20.736657   0.361666  -1.984384  -4.748581  -1.828666   0.167838
     8  H    0.361666   0.649421  -0.377783   0.181007   0.206896  -0.008801
     9  C   -1.984384  -0.377783  38.303958  -4.019439  -9.566749 -11.470279
    10  C   -4.748581   0.181007  -4.019439  21.831240   1.102778   2.734814
    11  C   -1.828666   0.206896  -9.566749   1.102778  43.239919   2.168833
    12  C    0.167838  -0.008801 -11.470279   2.734814   2.168833  29.719578
    13  C   -1.537957  -0.483223   1.056113   0.308377  -3.865624  -0.064821
    14  C   -3.998654   0.034829   1.294457  -9.370490  -1.617199   0.172458
    15  H    0.095308  -0.022077   0.143306   0.019271  -0.381516   0.124152
    16  C    0.524001   0.025872   1.073814   2.355176   1.700243  -2.642790
    17  C    0.029230   0.004253  -0.062083   0.154036   0.212752 -10.212257
    18  H   -0.000323  -0.000044  -0.064515   0.007390  -0.002780  -0.248354
    19  C   -4.996255  -0.539650   0.155807  -0.256250  -1.929246  -0.007560
    20  H   -0.105455  -0.001673  -0.004066   0.000432  -0.092326  -0.000204
    21  C    0.432201  -0.000133  -1.997616  -0.978576  -0.801033  -1.507704
    22  H   -0.016043   0.000885  -0.443437  -0.066407   0.142681   0.150760
    23  H    0.067264  -0.008499  -0.148433  -0.233509  -0.199700   0.053933
    24  C    1.415749   0.254465  -0.087569   0.335775   1.929935   0.001195
    25  H    0.044649   0.007842  -0.000485   0.019055  -0.054961  -0.000710
    26  C    0.023324  -0.004114   1.065780   0.507630  -0.141324  -4.229520
    27  H    0.006247  -0.000084  -0.040478   0.039138   0.009129  -0.077316
    28  C   -0.967284  -0.017130  -3.962616  -3.028253  -2.079934   0.196819
    29  H   -0.056422   0.002620   0.336023   0.065413   0.069446  -0.118745
    30  C   -0.042271  -0.000072  -1.316244  -0.229988  -0.119392   1.013644
    31  C   -0.601889  -0.018308  -1.059956  -1.293554  -0.914791   0.085866
    32  H   -0.212505  -0.048172   0.109836  -0.068651   0.176756  -0.001524
    33  C   -0.899438   0.189302   1.502535  -0.676698  -0.911152   0.174766
    34  H    0.217755   0.020713  -0.323909   0.012920  -0.019160   0.032932
    35  H    0.029400  -0.010872   0.192790  -0.087518  -0.133196   0.003799
    36  C   -0.606331  -0.158627  -0.080519  -0.064136  -1.401489   0.002348
    37  C    0.120836   0.013685  -2.162534  -0.622736  -2.661665   0.089863
    38  H    0.152953  -0.000986  -0.086104  -0.053930  -0.028273   0.008961
    39  H   -0.099275   0.004457  -0.012327   0.085869  -0.040549  -0.023267
              13         14         15         16         17         18
     1  Cl  -1.300035   0.032169  -0.002845   0.000781   0.000106  -0.000000
     2  Cl  -0.000001  -0.076317  -0.001300   0.033148   0.181187   0.054713
     3  Cl   0.001108  -0.314656   0.231972  -0.918538  -0.519727   0.051045
     4  Cl  -0.167297  -0.000018  -0.000014   0.000003   0.000000  -0.000000
     5  O   -0.019848   0.384119  -0.012025  -0.037525  -0.014063  -0.000044
     6  C    1.428905  -1.326776  -0.010372   0.106722   0.006347  -0.000204
     7  C   -1.537957  -3.998654   0.095308   0.524001   0.029230  -0.000323
     8  H   -0.483223   0.034829  -0.022077   0.025872   0.004253  -0.000044
     9  C    1.056113   1.294457   0.143306   1.073814  -0.062083  -0.064515
    10  C    0.308377  -9.370490   0.019271   2.355176   0.154036   0.007390
    11  C   -3.865624  -1.617199  -0.381516   1.700243   0.212752  -0.002780
    12  C   -0.064821   0.172458   0.124152  -2.642790 -10.212257  -0.248354
    13  C   20.645108  -0.146471   0.018665  -0.018008  -0.001518  -0.000000
    14  C   -0.146471  26.907078   0.444574  -7.752117  -4.963185  -0.095210
    15  H    0.018665   0.444574   0.628767  -0.436161  -0.505626  -0.000175
    16  C   -0.018008  -7.752117  -0.436161  27.227671   1.061205  -0.037855
    17  C   -0.001518  -4.963185  -0.505626   1.061205  33.498298   0.828036
    18  H   -0.000000  -0.095210  -0.000175  -0.037855   0.828036   0.437294
    19  C   -0.797258  -0.048126   0.002148  -0.001878  -0.000116   0.000000
    20  H   -0.123259  -0.000979  -0.000069   0.000016   0.000000  -0.000000
    21  C   -0.124638  -0.127465   0.212034   0.021896  -0.086931  -0.002292
    22  H   -0.010202   0.037665  -0.005839   0.055229   0.018602  -0.002025
    23  H    0.018468   0.231004   0.009330  -0.065002  -0.033693  -0.000306
    24  C   -1.122257   0.065548  -0.001578  -0.001234   0.000010   0.000001
    25  H    0.039828   0.002091  -0.000111  -0.000027   0.000002  -0.000000
    26  C    0.001261  -0.094585   0.284318   1.788753 -14.866526  -0.148008
    27  H   -0.000026  -0.044402   0.006808   0.115518  -0.367473  -0.001128
    28  C    0.015396   6.829255   0.053842 -10.457029   0.935819   0.081779
    29  H   -0.002489  -0.198979  -0.035965   0.029509   0.379965   0.005850
    30  C    0.000182   0.801148  -0.152263  -7.444481   1.167288  -0.190233
    31  C   -2.993485  -0.136283  -0.006406   0.013722   0.001467   0.000033
    32  H    0.098597  -0.031443   0.001623  -0.002182  -0.000241   0.000005
    33  C   -0.189203   0.475612  -0.039405  -0.399065  -0.049989   0.002111
    34  H   -0.063143  -0.110808  -0.007148   0.031148   0.002531  -0.000035
    35  H    0.048559   0.026744   0.002517  -0.005480   0.000469   0.000040
    36  C   -4.747709  -0.020540   0.000433   0.001001   0.000031  -0.000000
    37  C    0.083393  -0.218828   0.027440   0.241282   0.105092   0.000273
    38  H   -0.000493  -0.100423  -0.010061   0.060414   0.005190  -0.000328
    39  H   -0.004352   0.011821   0.004489  -0.024359  -0.000889   0.000090
              19         20         21         22         23         24
     1  Cl  -0.360105   0.051662   0.013308   0.000308   0.000248   0.604079
     2  Cl  -0.000000  -0.000000   0.007617   0.000621   0.000640   0.000000
     3  Cl   0.000109  -0.000002   0.025308   0.000826   0.004045  -0.000102
     4  Cl   0.385434   0.055767   0.000557   0.000017   0.000018   0.245344
     5  O   -0.017451  -0.000057  -0.099405  -0.003988   0.000703   0.005560
     6  C   -9.706918  -0.276192   0.603839   0.003860   0.030137  -3.083871
     7  C   -4.996255  -0.105455   0.432201  -0.016043   0.067264   1.415749
     8  H   -0.539650  -0.001673  -0.000133   0.000885  -0.008499   0.254465
     9  C    0.155807  -0.004066  -1.997616  -0.443437  -0.148433  -0.087569
    10  C   -0.256250   0.000432  -0.978576  -0.066407  -0.233509   0.335775
    11  C   -1.929246  -0.092326  -0.801033   0.142681  -0.199700   1.929935
    12  C   -0.007560  -0.000204  -1.507704   0.150760   0.053933   0.001195
    13  C   -0.797258  -0.123259  -0.124638  -0.010202   0.018468  -1.122257
    14  C   -0.048126  -0.000979  -0.127465   0.037665   0.231004   0.065548
    15  H    0.002148  -0.000069   0.212034  -0.005839   0.009330  -0.001578
    16  C   -0.001878   0.000016   0.021896   0.055229  -0.065002  -0.001234
    17  C   -0.000116   0.000000  -0.086931   0.018602  -0.033693   0.000010
    18  H    0.000000  -0.000000  -0.002292  -0.002025  -0.000306   0.000001
    19  C   35.639510   0.966999  -0.066439  -0.001765   0.002722 -13.917944
    20  H    0.966999   0.441646   0.000361   0.000014  -0.000061  -0.178174
    21  C   -0.066439   0.000361  14.267754   0.778184   0.704736   0.125738
    22  H   -0.001765   0.000014   0.778184   0.629290  -0.019547   0.006510
    23  H    0.002722  -0.000061   0.704736  -0.019547   0.523201  -0.024876
    24  C  -13.917944  -0.178174   0.125738   0.006510  -0.024876  24.646509
    25  H   -0.339020  -0.002511   0.003281   0.000124  -0.000395   0.896446
    26  C    0.000186   0.000001   0.474237  -0.042758   0.012792   0.000102
    27  H   -0.000002  -0.000000   0.020180  -0.005636   0.002855  -0.000028
    28  C    0.001994  -0.000013  -0.535040  -0.085779   0.055819   0.003949
    29  H   -0.000334   0.000002  -0.235019  -0.024590  -0.051584   0.001723
    30  C    0.000016  -0.000000  -0.074857  -0.005085   0.031273   0.000125
    31  C    2.044292   0.093774   0.101441   0.004320  -0.038622  -1.407643
    32  H    0.388093   0.005693  -0.019072  -0.007455   0.018486  -0.554320
    33  C    0.411205   0.010623  -4.412841  -0.594112  -0.198442  -0.061812
    34  H   -0.033656   0.000444  -0.099870   0.009523  -0.059417   0.070464
    35  H    0.019017  -0.001288  -0.201783  -0.007838   0.006890  -0.069096
    36  C   -0.226072  -0.152623   0.039312   0.002289  -0.002616  -3.449959
    37  C    0.168378   0.003427   0.653844   0.382806   0.036236  -0.232048
    38  H    0.000953   0.000052  -0.013404  -0.007396   0.014749  -0.016361
    39  H    0.002286  -0.000002  -0.034775  -0.033538  -0.002062   0.004308
              25         26         27         28         29         30
     1  Cl   0.010734  -0.000124  -0.000004  -0.000090   0.000082   0.000005
     2  Cl  -0.000000   0.764886   0.077943  -0.098671  -0.030714  -1.721114
     3  Cl  -0.000004   0.830931   0.013222  -0.102091  -0.032910  -0.778995
     4  Cl   0.061756   0.000000  -0.000000  -0.000003   0.000000  -0.000000
     5  O    0.000012   0.001433  -0.000076   0.026452  -0.000994  -0.000897
     6  C   -0.057731  -0.000068   0.000188  -0.196071  -0.010677  -0.006679
     7  C    0.044649   0.023324   0.006247  -0.967284  -0.056422  -0.042271
     8  H    0.007842  -0.004114  -0.000084  -0.017130   0.002620  -0.000072
     9  C   -0.000485   1.065780  -0.040478  -3.962616   0.336023  -1.316244
    10  C    0.019055   0.507630   0.039138  -3.028253   0.065413  -0.229988
    11  C   -0.054961  -0.141324   0.009129  -2.079934   0.069446  -0.119392
    12  C   -0.000710  -4.229520  -0.077316   0.196819  -0.118745   1.013644
    13  C    0.039828   0.001261  -0.000026   0.015396  -0.002489   0.000182
    14  C    0.002091  -0.094585  -0.044402   6.829255  -0.198979   0.801148
    15  H   -0.000111   0.284318   0.006808   0.053842  -0.035965  -0.152263
    16  C   -0.000027   1.788753   0.115518 -10.457029   0.029509  -7.444481
    17  C    0.000002 -14.866526  -0.367473   0.935819   0.379965   1.167288
    18  H   -0.000000  -0.148008  -0.001128   0.081779   0.005850  -0.190233
    19  C   -0.339020   0.000186  -0.000002   0.001994  -0.000334   0.000016
    20  H   -0.002511   0.000001  -0.000000  -0.000013   0.000002  -0.000000
    21  C    0.003281   0.474237   0.020180  -0.535040  -0.235019  -0.074857
    22  H    0.000124  -0.042758  -0.005636  -0.085779  -0.024590  -0.005085
    23  H   -0.000395   0.012792   0.002855   0.055819  -0.051584   0.031273
    24  C    0.896446   0.000102  -0.000028   0.003949   0.001723   0.000125
    25  H    0.472639  -0.000013  -0.000004   0.000112   0.000047   0.000004
    26  C   -0.000013  31.784006   1.087352  -5.256502  -0.588092  -6.696487
    27  H   -0.000004   1.087352   0.470199  -0.174490  -0.042169  -0.396233
    28  C    0.000112  -5.256502  -0.174490  23.665255   0.699291   1.069867
    29  H    0.000047  -0.588092  -0.042169   0.699291   0.588893  -0.013576
    30  C    0.000004  -6.696487  -0.396233   1.069867  -0.013576  20.921496
    31  C   -0.076429  -0.001368   0.000092  -0.017220   0.004422   0.000007
    32  H   -0.054732   0.001103   0.000046   0.003231  -0.001199   0.000114
    33  C    0.008233   0.089094  -0.001178   0.793469   0.079937   0.069609
    34  H    0.005554  -0.004820   0.000026  -0.058029   0.009130  -0.005450
    35  H   -0.003039   0.000444  -0.000034   0.005501  -0.002102   0.001866
    36  C   -0.284025  -0.000013   0.000010  -0.002252  -0.000161  -0.000036
    37  C    0.000683  -0.030386  -0.002307  -0.815642  -0.074790  -0.023296
    38  H    0.000173   0.006819   0.000548  -0.079551  -0.001612  -0.009228
    39  H   -0.000369  -0.003221  -0.000491   0.036573   0.004401   0.004859
              31         32         33         34         35         36
     1  Cl   0.102907  -0.035261  -0.019111   0.003125   0.001099  -0.740595
     2  Cl   0.000010   0.000001   0.000266   0.000030   0.000012   0.000000
     3  Cl  -0.000054   0.000110   0.009307   0.000190  -0.000729   0.000004
     4  Cl   0.144656  -0.029661   0.014339   0.001359  -0.000599  -1.359576
     5  O    0.011125   0.001624  -0.063780  -0.001081  -0.003666  -0.001742
     6  C   -1.639302  -0.026196  -2.327484   0.070538   0.084354   2.798973
     7  C   -0.601889  -0.212505  -0.899438   0.217755   0.029400  -0.606331
     8  H   -0.018308  -0.048172   0.189302   0.020713  -0.010872  -0.158627
     9  C   -1.059956   0.109836   1.502535  -0.323909   0.192790  -0.080519
    10  C   -1.293554  -0.068651  -0.676698   0.012920  -0.087518  -0.064136
    11  C   -0.914791   0.176756  -0.911152  -0.019160  -0.133196  -1.401489
    12  C    0.085866  -0.001524   0.174766   0.032932   0.003799   0.002348
    13  C   -2.993485   0.098597  -0.189203  -0.063143   0.048559  -4.747709
    14  C   -0.136283  -0.031443   0.475612  -0.110808   0.026744  -0.020540
    15  H   -0.006406   0.001623  -0.039405  -0.007148   0.002517   0.000433
    16  C    0.013722  -0.002182  -0.399065   0.031148  -0.005480   0.001001
    17  C    0.001467  -0.000241  -0.049989   0.002531   0.000469   0.000031
    18  H    0.000033   0.000005   0.002111  -0.000035   0.000040  -0.000000
    19  C    2.044292   0.388093   0.411205  -0.033656   0.019017  -0.226072
    20  H    0.093774   0.005693   0.010623   0.000444  -0.001288  -0.152623
    21  C    0.101441  -0.019072  -4.412841  -0.099870  -0.201783   0.039312
    22  H    0.004320  -0.007455  -0.594112   0.009523  -0.007838   0.002289
    23  H   -0.038622   0.018486  -0.198442  -0.059417   0.006890  -0.002616
    24  C   -1.407643  -0.554320  -0.061812   0.070464  -0.069096  -3.449959
    25  H   -0.076429  -0.054732   0.008233   0.005554  -0.003039  -0.284025
    26  C   -0.001368   0.001103   0.089094  -0.004820   0.000444  -0.000013
    27  H    0.000092   0.000046  -0.001178   0.000026  -0.000034   0.000010
    28  C   -0.017220   0.003231   0.793469  -0.058029   0.005501  -0.002252
    29  H    0.004422  -0.001199   0.079937   0.009130  -0.002102  -0.000161
    30  C    0.000007   0.000114   0.069609  -0.005450   0.001866  -0.000036
    31  C   15.200015   0.746363   0.338912   0.058150   0.008896  -1.511132
    32  H    0.746363   0.754592  -0.066533  -0.095344  -0.018992  -0.147335
    33  C    0.338912  -0.066533  17.939728   0.677765   0.401241   0.013541
    34  H    0.058150  -0.095344   0.677765   0.586941  -0.023775   0.058016
    35  H    0.008896  -0.018992   0.401241  -0.023775   0.532816  -0.012318
    36  C   -1.511132  -0.147335   0.013541   0.058016  -0.012318  17.766591
    37  C   -0.612157  -0.061362  -5.804058  -0.152821   0.005895   0.110228
    38  H    0.002033   0.002772  -0.034860   0.006737  -0.013791   0.002624
    39  H   -0.003644   0.007071   0.122558  -0.017553  -0.023540  -0.005382
              37         38         39
     1  Cl   0.009448   0.001147  -0.000475
     2  Cl   0.000399   0.000077  -0.000166
     3  Cl  -0.010346   0.010401  -0.001216
     4  Cl   0.004189   0.000113  -0.000188
     5  O   -0.082657  -0.001835  -0.001222
     6  C    1.179044   0.069660  -0.063489
     7  C    0.120836   0.152953  -0.099275
     8  H    0.013685  -0.000986   0.004457
     9  C   -2.162534  -0.086104  -0.012327
    10  C   -0.622736  -0.053930   0.085869
    11  C   -2.661665  -0.028273  -0.040549
    12  C    0.089863   0.008961  -0.023267
    13  C    0.083393  -0.000493  -0.004352
    14  C   -0.218828  -0.100423   0.011821
    15  H    0.027440  -0.010061   0.004489
    16  C    0.241282   0.060414  -0.024359
    17  C    0.105092   0.005190  -0.000889
    18  H    0.000273  -0.000328   0.000090
    19  C    0.168378   0.000953   0.002286
    20  H    0.003427   0.000052  -0.000002
    21  C    0.653844  -0.013404  -0.034775
    22  H    0.382806  -0.007396  -0.033538
    23  H    0.036236   0.014749  -0.002062
    24  C   -0.232048  -0.016361   0.004308
    25  H    0.000683   0.000173  -0.000369
    26  C   -0.030386   0.006819  -0.003221
    27  H   -0.002307   0.000548  -0.000491
    28  C   -0.815642  -0.079551   0.036573
    29  H   -0.074790  -0.001612   0.004401
    30  C   -0.023296  -0.009228   0.004859
    31  C   -0.612157   0.002033  -0.003644
    32  H   -0.061362   0.002772   0.007071
    33  C   -5.804058  -0.034860   0.122558
    34  H   -0.152821   0.006737  -0.017553
    35  H    0.005895  -0.013791  -0.023540
    36  C    0.110228   0.002624  -0.005382
    37  C   17.634204   0.391594   0.407784
    38  H    0.391594   0.443555  -0.018677
    39  H    0.407784  -0.018677   0.478964
 Mulliken charges:
               1
     1  Cl   0.684530
     2  Cl   0.593969
     3  Cl   0.709917
     4  Cl   0.579322
     5  O   -0.146123
     6  C    0.804605
     7  C   -0.393905
     8  H    0.326705
     9  C    0.880791
    10  C    0.107222
    11  C    0.460950
    12  C    0.640964
    13  C    0.019357
    14  C   -0.956618
    15  H    0.319959
    16  C   -0.223390
    17  C   -0.907601
    18  H    0.325201
    19  C   -0.943103
    20  H    0.308042
    21  C   -1.066934
    22  H    0.158927
    23  H    0.261217
    24  C   -0.404667
    25  H    0.301301
    26  C   -0.616521
    27  H    0.304056
    28  C   -0.540731
[...]
 35,-0.00048142,-0.00022312,0.00011961,-0.00043655,0.00049341,-0.000645
 51,0.00002170,-0.00003189,0.00011603,0.00003937,-0.00026609,-0.0000875
 1,-0.00013328,0.00050590,0.00089169,-0.00011008,-0.00067540,-0.0002114
 3,0.00000373,-0.00000365,0.00001745,0.00019886,0.00036426,0.00021774,-
 0.00004296,-0.00000165,0.00005233,0.00000238,-0.00001595,0.00001493,-0
 .00001117,0.00000842,-0.00001846,0.00001206,0.00000374,0.00000675,-0.0
 0000086,0.00000065,-0.00000070,-0.00003393,-0.00025274,-0.00033397,0.0
 0000307,0.00001228,0.00000746,0.00120050,-0.00045638,0.00149263,0.0002
 1442,0.00067509,0.00034072,0.00024306,0.00037516,0.00008016,-0.0002057
 9,0.00032781,0.00031771,0.00001345,-0.00000380,0.00005748,-0.00002247,
 0.00001310,-0.00002550,-0.00000160,0.00000043,0.00000069,0.00001357,0.
 00003260,0.00002335,0.00000892,-0.00001359,0.00001967,0.00000328,-0.00
 001652,0.00002265,0.00024044,0.00062146,-0.00035989,0.00046734,-0.0011
 3277,0.00029413,0.00136786,-0.15868574,-0.12999662,0.00039431,-0.01786
 357,-0.02110398,-0.00089092,0.16732607,0.00002768,0.00008038,-0.000109
 25,-0.00004906,-0.00000833,-0.00005314,0.00003169,0.00003664,-0.000019
 62,0.00000257,0.00002307,0.00004961,0.00095912,-0.00023185,-0.00128822
 ,-0.00117986,0.00056128,0.00172336,-0.00218143,-0.00004705,-0.00148980
 ,-0.00001920,0.00007038,-0.00013490,-0.00012091,0.00043607,0.00056800,
 0.00113213,-0.00063860,0.00208566,0.00391823,-0.00713477,-0.01106222,0
 .00005327,-0.00000011,0.00000660,-0.00015977,-0.00002585,0.00002513,0.
 00002012,0.00000379,-0.00001855,0.00001220,-0.00000769,-0.00000163,-0.
 00007304,-0.00008009,0.00007363,-0.00002939,-0.00000169,-0.00003711,-0
 .00000236,-0.00000311,-0.00000349,-0.00004661,-0.00011079,0.00021289,0
 .00002845,-0.00001496,0.00001126,-0.00357173,0.00286779,-0.00225608,0.
 00003250,-0.00108399,-0.00081150,-0.00004549,-0.00003845,0.00020438,-0
 .00012177,-0.00009748,-0.00049536,0.00002158,-0.00002320,0.00001703,0.
 00002597,0.00000724,-0.00001151,-0.00000419,-0.00000058,-0.00000253,0.
 00000549,-0.00004361,-0.00005028,0.00000346,0.00005201,-0.00000969,0.0
 0005839,0.00002952,0.00005124,-0.00093977,0.00054045,-0.00106145,-0.00
 068083,0.00049856,-0.00022089,0.00023176,-0.12891847,-0.19627813,-0.00
 040854,0.00772887,0.00843023,0.00220166,0.13962702,0.21696983,0.004320
 60,-0.00177041,-0.00315222,0.00001672,-0.00000249,0.00001200,-0.000015
 61,-0.00001226,0.00001279,-0.02845946,-0.00955402,-0.00490084,-0.00008
 549,0.00002848,0.00017722,-0.03568614,-0.03706491,0.01342035,-0.001010
 46,-0.00024405,0.00017409,0.00005007,0.00003800,0.00017745,0.00000568,
 -0.00000588,0.00006036,0.00000200,-0.00009466,-0.00032667,-0.00032172,
 0.00053815,0.00040994,-0.00001272,-0.00001600,-0.00000627,0.02320472,0
 .03560202,0.05120425,0.00003508,-0.00000496,-0.00000706,0.00000018,0.0
 0001049,-0.00001254,0.00002773,0.00002746,-0.00000206,-0.00000109,-0.0
 0000433,0.00000523,0.00000021,-0.00000066,-0.00000115,-0.14908508,-0.0
 9652576,0.06218991,-0.00488413,-0.00658312,0.01245395,-0.00006310,0.00
 003467,-0.00004325,0.00001557,-0.00001195,-0.00000693,-0.00000549,-0.0
 0000319,-0.00000094,-0.15692561,-0.11956797,0.00881187,-0.00541982,-0.
 01111224,-0.00532930,0.00000961,-0.00000644,0.00001368,0.00000278,-0.0
 0000156,-0.00000114,-0.00000849,-0.00000246,0.00000139,-0.00000430,-0.
 00000069,0.00000183,-0.00001932,0.00001724,-0.00001638,0.01623146,-0.0
 0300924,-0.06270813,0.00531927,-0.00239839,0.00061530,-0.00019666,-0.0
 0021783,-0.00067697,-0.00001800,0.00008633,0.00000431,0.00021665,-0.00
 015609,0.00018717,0.33275505,-0.00115892,0.00213090,-0.00531994,0.0000
 4374,0.00001316,0.00005315,-0.00000748,-0.00001023,0.00001068,-0.00944
 366,-0.04583818,-0.04281335,-0.00019995,0.00008093,0.00046162,-0.03758
 538,-0.04792704,0.01815675,-0.00019895,-0.00167201,-0.00021301,0.00005
 012,-0.00008906,0.00009190,0.00002271,-0.00004601,0.00026030,0.0000732
 0,0.00004125,-0.00105641,-0.00037925,0.00102902,0.00112506,-0.00003318
 ,0.00000017,-0.00002689,0.02484106,0.05017420,0.05086826,0.00002149,-0
 .00000208,-0.00005492,-0.00000457,0.00001145,-0.00002426,0.00005328,0.
 00001870,-0.00001852,0.00000631,0.00000676,0.00001445,0.00000246,0.000
 00122,0.00000317,-0.08438644,-0.15924378,0.04089517,-0.01145178,-0.007
 18154,0.01746604,-0.00010782,0.00005753,-0.00005470,0.00002908,-0.0000
 2492,-0.00000673,-0.00001397,-0.00000127,-0.00001135,-0.13033123,-0.23
 315249,-0.00206363,-0.00710663,-0.00741825,-0.00580449,0.00000996,-0.0
 0001207,0.00003931,0.00000321,0.00000159,0.00000044,0.00000401,-0.0000
 0405,0.00001110,-0.00001007,-0.00000965,-0.00000128,-0.00003511,-0.000
 01638,-0.00006596,0.00751556,-0.00452473,-0.08159643,-0.00244419,0.003
 42179,-0.00182720,-0.00036327,-0.00014556,-0.00108631,0.00006751,0.000
 14047,0.00012319,0.00025618,-0.00022526,0.00017040,0.25217553,0.450703
 26,-0.00053476,-0.00203944,-0.00016390,0.00014068,0.00002774,0.0001454
 4,-0.00001107,-0.00001897,0.00003126,-0.00466965,-0.04241267,-0.168766
 84,-0.00030641,0.00031535,0.00077233,0.01285246,0.01718056,-0.00146155
 ,-0.00079606,-0.00045536,-0.00291791,-0.00000342,-0.00035223,0.0003023
 7,0.00019326,0.00010638,0.00051370,0.00003669,-0.00066873,-0.00188012,
 0.00109363,0.00090599,0.00164287,-0.00007031,-0.00001497,-0.00001588,0
 .00622957,-0.00651992,-0.05589353,0.00004243,-0.00000152,-0.00019273,-
 0.00000725,0.00002111,-0.00004336,0.00009757,0.00006338,-0.00007373,0.
 00006490,0.00003146,0.00005293,0.00000406,0.00000119,0.00000441,0.1101
 3414,0.10319714,-0.20942459,-0.00554257,-0.00585865,0.00850556,0.00006
 919,-0.00012272,0.00013183,0.00003406,0.00003464,0.00007774,-0.0000460
 1,0.00002390,-0.00003954,-0.03914995,-0.06435303,-0.12018801,0.0136287
 8,0.01888501,0.00727166,0.00002931,-0.00003851,0.00007870,0.00001283,0
 .00000125,0.00000146,-0.00002854,0.00000611,0.00006992,-0.00002535,-0.
 00003754,-0.00000879,-0.00015611,-0.00003265,-0.00016388,-0.02132070,-
 0.02872057,0.00595205,0.00070378,-0.00179712,-0.00417773,0.00018807,-0
 .00026739,0.00036934,0.00009893,-0.00002862,-0.00010256,-0.00024679,0.
 00019404,-0.00002419,-0.07269096,0.01246986,0.53964295,0.00002875,-0.0
 0002552,-0.00011746,0.00004265,0.00002128,0.00003479,0.00010468,-0.000
 02031,0.00014212,0.00000752,0.00005153,0.00008404,0.00113319,-0.000203
 80,-0.00108165,0.00018424,0.00108328,0.00001904,-0.00198352,0.00143914
 ,0.00356109,-0.00047988,-0.00197022,0.00001629,0.00097966,0.02586038,0
 .02739678,0.00077552,-0.00026266,0.00058201,-0.03153600,0.01165460,-0.
 02445481,-0.00038247,0.00069957,-0.00116770,-0.00006751,-0.00019418,0.
 00009023,-0.00615486,-0.00023560,0.00027651,0.00018452,-0.00190352,0.0
 0151556,0.00010134,-0.00017261,0.00031790,-0.00015330,-0.00007139,-0.0
 0012244,0.00001464,0.00000219,0.00002315,0.00005413,0.00002494,0.00013
 605,-0.00000698,-0.00000205,-0.00000452,-0.08053701,-0.00146246,-0.003
 52297,0.00095484,-0.01640794,-0.01370547,0.00019734,-0.00739886,-0.008
 37023,0.00022946,0.00001871,-0.00022962,0.00000658,-0.00002887,-0.0000
 3027,0.00045537,-0.00001982,0.00013139,0.00005307,-0.00000385,0.000038
 70,0.00001713,-0.00082675,-0.00006574,-0.00011163,0.00035192,-0.000196
 21,0.00006489,0.00024533,-0.00011515,0.00007898,-0.00060465,0.00029101
 ,-0.00004533,0.00034791,-0.00008307,-0.12280974,0.02604015,-0.05240375
 ,0.00606290,-0.00251258,0.00552184,-0.00002706,-0.00071841,0.00023115,
 0.00001280,0.00009188,-0.00012390,0.57276398,-0.00008591,-0.00014020,0
 .00018343,0.00012720,0.00003044,0.00012252,-0.00016339,-0.00020945,0.0
 0006560,-0.00000158,-0.00001562,-0.00008774,-0.00118053,-0.00006203,0.
 00017820,-0.00055663,-0.00020366,-0.00029322,-0.00032179,-0.00006236,-
 0.00024404,-0.00021409,0.00030614,-0.00005053,0.00553945,-0.00355965,-
 0.00534879,0.00008136,0.00173002,0.00001076,0.00353212,-0.00174990,0.0
 0219543,-0.00030506,-0.00008162,0.00030662,0.00049007,0.00067644,0.000
 09521,-0.00122521,-0.00012630,0.00128238,-0.00007849,0.00019178,0.0002
 6354,0.00024230,0.00048175,-0.00054225,0.00027585,0.00008298,0.0002177
 5,0.00001501,0.00001726,0.00001729,0.00005292,-0.00006505,-0.00039665,
 -0.00000541,0.00001027,-0.00001590,-0.00032218,-0.13545760,-0.05762958
 ,-0.00130278,0.00726846,0.00716011,-0.00037650,-0.02413704,-0.02369022
 ,0.00006017,0.00039064,0.00037624,-0.00000380,-0.00000633,0.,-0.000215
 46,0.00012476,-0.00031905,0.00001149,0.00000123,0.00001368,0.00003128,
 0.00007456,0.00063121,0.00002661,-0.00003901,0.00007874,-0.00027296,-0
 .00028719,0.00003572,-0.00051984,-0.00014245,-0.00046067,-0.00005457,-
 0.00011293,-0.00012195,0.02424173,-0.08976304,0.02344745,0.02024316,-0
 .01108564,0.02256400,-0.01531097,0.00861030,-0.01435877,-0.00019611,-0
 .00031478,0.00026911,0.00785017,0.54248270,0.00008663,0.00015077,0.000
 04478,0.00009776,-0.00000050,0.00010660,-0.00000774,0.00000636,0.00003
 853,0.00000711,0.00005917,0.00018772,-0.00082076,-0.00026249,-0.000946
 90,-0.00028590,-0.00057699,-0.00081070,0.00431330,0.00021965,-0.002577
 06,0.00042197,0.00135997,0.00030291,0.00847313,-0.01169471,-0.01648431
 ,0.00048962,0.00016626,0.00164282,0.00206469,-0.00427599,0.01421049,-0
 .00015625,-0.00060228,-0.00036445,-0.00002227,0.00006491,0.00031629,0.
 00025893,-0.00041979,0.00165677,0.00015113,0.00046776,-0.00024735,0.00
 013667,-0.00001587,0.00034058,-0.00013074,-0.00002689,0.00000244,0.000
 01175,-0.00000449,0.00000586,0.00004425,0.00001751,-0.00005713,0.00000
 436,0.00001018,0.00003449,-0.00465630,-0.06176266,-0.13752350,0.001332
 47,-0.01671200,-0.01537824,-0.00069423,0.00737463,0.00728983,-0.000107
 51,0.00013826,0.00022799,-0.00000604,0.00001582,0.00005285,0.00005043,
 -0.00015074,0.00026784,0.00000374,0.00001607,-0.00000124,0.00006240,0.
 00013684,-0.00027733,-0.00006156,-0.00014913,-0.00011572,0.00002365,0.
 00012771,-0.00015282,-0.00008923,0.00045877,-0.00012187,-0.00002298,-0
 .00022237,-0.00010840,-0.05109283,0.02728310,-0.14094863,-0.01010230,0
 .00492110,-0.01162560,-0.01494820,0.00974069,-0.01573654,-0.00004717,-
 0.00018654,-0.00007350,-0.05792281,-0.02854229,0.48264575,0.00000679,-
 0.00001235,0.00003196,-0.00003558,-0.00000154,-0.00003466,0.00001502,0
 .00002122,-0.00000991,-0.00000353,0.00000878,0.00004177,-0.00004349,-0
 .00002662,0.00010547,-0.00000648,0.00000307,-0.00011343,-0.00000601,-0
 .00041655,-0.00022389,0.00000200,0.00000869,0.00004825,0.00015747,0.00
 086786,-0.00036784,0.00015020,-0.00001390,-0.00013679,0.00173587,0.000
 51269,0.00030666,0.00005820,0.00010386,0.00006318,-0.00002313,0.000002
 38,0.00001192,0.00025583,-0.00008515,0.00000588,-0.00000449,-0.0000957
 4,-0.00004085,-0.00006284,-0.00003711,-0.00000900,-0.00001093,0.000009
 04,-0.00002146,0.00000022,-0.00000582,-0.00000891,-0.00001836,-0.00001
 048,0.00002673,0.00000549,-0.00000212,0.00000478,-0.00076848,-0.000742
 96,0.00038306,-0.00021229,-0.00041436,-0.00012229,0.00076632,0.0003097
 5,-0.00052843,-0.00004939,-0.00002790,0.00004187,0.00000051,0.00000565
 ,0.00001201,-0.00001283,0.00000016,-0.00003267,-0.00000395,-0.00000206
 ,-0.00000045,-0.00000243,-0.00001162,-0.00000077,-0.00000323,0.0000286
 1,0.00000517,0.00002085,-0.00000691,0.00002898,0.00008412,0.00015606,-
 0.00002332,0.00002304,-0.00006500,0.00005807,0.00520082,0.02008657,-0.
 00884418,-0.00224576,0.00190421,-0.00325488,0.00063496,-0.00057463,0.0
 0062150,0.00001353,-0.00001343,-0.00003678,-0.07274401,-0.06772671,0.0
 3006419,0.07495822,0.00002824,0.00002661,-0.00003141,0.00000244,0.0000
 1247,-0.00000417,0.00005460,0.00005921,-0.00000863,-0.00000020,0.00000
 575,-0.00000686,0.00024950,-0.00002944,-0.00005773,0.00001525,0.000047
 07,-0.00002477,0.00045824,0.00016460,-0.00000248,0.00005391,-0.0000605
 2,0.00003576,-0.00094640,0.00080101,0.00126435,0.00039673,-0.00055847,
 -0.00007324,-0.00078248,0.00013267,-0.00004582,0.00000906,0.00008022,-
 0.00001902,-0.00002875,-0.00004676,0.00003911,0.00029630,0.00017257,-0
 .00056975,0.00004055,-0.00012793,-0.00003805,-0.00006107,-0.00007523,0
 .00000725,0.00001758,0.00003149,-0.00003872,-0.00000114,-0.00000163,-0
 .00000281,0.00001893,0.00002334,0.00000269,0.00000029,-0.00000044,0.00
 000156,-0.00636120,-0.02073345,0.00667297,-0.00023107,0.00047297,-0.00
 018964,0.00005926,-0.00190866,-0.00354069,0.00003830,-0.00001443,-0.00
 003694,-0.00000114,-0.00000409,-0.00000668,0.00008169,0.00001507,-0.00
 003294,0.00000784,-0.00000178,0.00001172,-0.00004305,-0.00015765,0.000
 12959,-0.00000602,0.00013516,0.00003498,-0.00000876,0.00000488,0.00000
 073,-0.00004176,-0.00008810,0.00000470,-0.00003418,0.00005377,-0.00003
 032,-0.00166278,-0.00770448,0.00377586,0.00107904,0.00069808,0.0010645
 8,0.00025182,0.00036620,0.00020836,0.00000358,0.00001092,-0.00000124,-
 0.06635302,-0.24338307,0.08259442,0.07200201,0.26742244,-0.00001971,-0
 .00004751,0.00005876,0.00001260,0.00000798,0.00000300,0.00002199,0.000
 04072,0.00001781,-0.00000415,-0.00002119,-0.00002227,0.00003189,0.0000
 6656,0.00014262,0.00002460,-0.00008688,0.00006804,-0.00039167,-0.00026
 659,-0.00000480,-0.00007471,0.00011927,-0.00005724,-0.00082312,0.00062
 619,0.00159441,-0.00024670,0.00011213,-0.00008058,0.00159394,-0.000808
 30,0.00068436,-0.00005257,0.00000577,-0.00002974,0.00002704,0.00003924
 ,-0.00009100,-0.00016205,0.00026050,-0.00027557,0.00003349,-0.00003972
 ,0.00001671,-0.00000925,-0.00001759,-0.00002266,0.00002633,0.00002411,
 -0.00001348,-0.00000056,0.00000180,0.00000024,-0.00003127,-0.00004327,
 0.00000211,-0.00000547,0.00000016,-0.00000622,-0.00752799,-0.02424157,
 0.00857680,-0.00028613,0.00073391,0.00072772,0.00013765,-0.00411106,-0
 .00329817,-0.00007799,-0.00004596,0.00001122,0.00000360,0.00000780,0.0
 0000782,0.00004780,0.00004281,-0.00005488,0.00000713,-0.00000136,0.000
 00995,-0.00005371,-0.00015622,0.00012251,0.00001719,0.00011367,0.00002
 685,-0.00003096,-0.00000928,0.00000365,0.00009060,0.00018720,-0.000033
 68,0.00004723,-0.00011063,0.00008188,0.00637661,0.02235163,-0.01042366
 ,-0.00363334,0.00114925,-0.00289319,0.00051574,-0.00026006,-0.00001337
 ,0.00001910,0.00001554,0.00000495,0.02969724,0.08321390,-0.08181315,-0
 .02808976,-0.08912696,0.09179157,-0.00002986,-0.00005402,-0.00001516,0
 .00003787,0.00000691,0.00003672,-0.00000251,-0.00000190,0.00000125,-0.
 00000313,-0.00004152,-0.00013293,-0.00002809,0.00012339,0.00027501,0.0
 0000771,0.00016389,0.00013105,-0.00067023,0.00051903,0.00102069,-0.000
 09736,-0.00046863,-0.00008778,0.00092565,-0.00040041,-0.00011974,0.000
 44073,-0.00055226,-0.00070337,-0.00109962,0.00146290,-0.00461643,-0.00
 001124,-0.00003799,0.00002908,0.00011359,0.00007370,-0.00003136,0.0001
 4993,0.00015714,-0.00035580,0.00003185,0.00005235,-0.00006452,0.000034
 49,0.00001180,-0.00003814,0.00002486,0.00001589,0.00001803,0.00000025,
 0.00000346,0.00000451,0.00001062,-0.00000890,-0.00009109,-0.00000814,0
 .00000144,-0.00001458,0.00311525,-0.00100262,-0.00147105,0.00037270,0.
 00031548,0.00043145,0.00009116,0.00053621,0.00026646,0.00002694,-0.000
 04036,-0.00003221,-0.00001206,0.00000555,-0.00003261,0.00000922,-0.000
 01045,0.00002442,0.00000285,0.00000627,0.00000737,-0.00001529,0.000007
 87,0.00003366,-0.00001459,-0.00000930,0.00000830,-0.00003163,-0.000014
 95,-0.00003069,-0.00005296,-0.00008974,-0.00004740,-0.00001790,0.00001
 366,0.00005587,-0.01819942,0.00164276,0.00768323,0.00051315,0.00038711
 ,0.00012040,0.00007491,-0.00052208,-0.00017214,-0.00001703,0.00000797,
 0.00011224,-0.26746888,0.02761907,0.09307666,-0.00783225,0.00139783,0.
 00278938,0.28962845,-0.00000484,0.00000030,0.00000080,-0.00002936,-0.0
 0000656,-0.00002464,-0.00000577,0.00002099,-0.00002744,-0.00000230,-0.
 00000482,-0.00001124,0.00024807,0.00001018,0.00006041,-0.00000390,-0.0
 0002902,-0.00000750,0.00057643,0.00013807,-0.00030485,0.00012815,0.000
 06049,0.00006614,-0.00162768,-0.00285122,-0.00308375,-0.00049006,-0.00
 030090,-0.00008519,0.00049174,0.00021930,0.00161427,0.00007161,-0.0000
 9708,0.00012456,-0.00000644,-0.00000569,0.00001027,0.00142780,0.000139
 67,-0.00031092,-0.00000201,0.00024622,-0.00037890,-0.00004087,-0.00003
 490,0.00003383,-0.00002634,-0.00001067,-0.00002059,-0.00000491,-0.0000
 0281,-0.00000542,0.00000426,-0.00000221,0.00000130,-0.00000162,0.00000
 088,0.00000159,0.02179297,-0.00344829,-0.00937762,-0.00033502,0.000823
 71,0.00042522,0.00035505,0.00031849,0.00078020,0.00000506,-0.00003303,
 -0.00001501,0.00000256,0.00000298,0.00000507,-0.00000312,-0.00001394,0
 .00002369,-0.00000891,-0.00000863,-0.00001626,-0.00002534,0.00007742,-
 0.00004548,0.00003693,-0.00000064,0.00003491,0.00003155,0.00002289,-0.
 00000062,-0.00001001,0.00004193,-0.00000981,-0.00000171,-0.00000876,-0
 .00001824,0.00935671,-0.00176400,-0.00352085,0.00006854,-0.00008771,-0
 .00049617,-0.00057485,0.00029047,-0.00007239,0.00000570,0.00001606,0.0
 0000761,0.02561612,-0.05147484,-0.00972422,-0.02573765,0.00415962,0.01
 027402,-0.03127653,0.05359605,-0.00002427,-0.00004961,-0.00001744,-0.0
 0009667,-0.00001910,-0.00009270,-0.00000169,0.00004332,-0.00006555,-0.
 00000030,-0.00001548,-0.00005346,0.00024175,0.00011673,0.00051468,0.00
 003818,0.00022753,0.00011777,-0.00125753,0.00009427,0.00102092,-0.0002
 0909,-0.00056288,-0.00009116,-0.00184195,-0.00448820,-0.00323639,-0.00
 072014,-0.00005733,-0.00110656,-0.00230723,0.00202885,-0.00428356,0.00
 013727,-0.00013643,0.00020478,0.00004286,0.00004422,-0.00002212,0.0015
 6797,-0.00011168,0.00019865,-0.00008792,0.00049424,-0.00040696,-0.0000
 7695,-0.00005993,0.00008628,-0.00007269,-0.00002183,-0.00004499,-0.000
 00481,-0.00000852,-0.00001320,0.00000747,-0.00001058,-0.00003924,-0.00
 000220,-0.00000046,-0.00000853,0.02282181,-0.00241623,-0.00995525,0.00
 006502,0.00065680,-0.00007151,-0.00027755,0.00015344,0.00088777,0.0000
 3733,0.,-0.00000433,-0.00000600,0.00000182,-0.00002027,-0.00005914,0.0
 0003246,-0.00000578,-0.00001440,-0.00002118,-0.00002355,-0.00002820,0.
 00005724,-0.00009964,0.00005284,0.00000236,0.00003382,0.00009189,0.000
 03142,0.00004856,0.00000216,-0.00009156,-0.00002657,0.00000305,0.00002
 820,0.00004524,-0.02476000,0.00327178,0.00967576,0.00079823,-0.0000945
 6,0.00087134,0.00038219,-0.00062091,0.00076059,-0.00002218,-0.00000449
 ,0.00004084,0.09361088,-0.01062722,-0.08401010,0.01003879,-0.00195976,
 -0.00481931,-0.09806878,0.01409326,0.09401118\\0.00000466,-0.00000063,
 -0.00000147,-0.00000259,0.00000115,-0.00000296,0.00000302,-0.00000172,
 0.00000254,-0.00000075,0.00000296,0.00000401,0.00000466,-0.00000296,-0
 .00000181,-0.00000182,0.00000054,0.00001257,-0.00000534,-0.00000429,-0
 .00000543,0.00000404,-0.00000339,-0.00000160,0.00000292,0.00000151,-0.
 00000675,-0.00000716,0.00000169,0.00000531,0.00000642,0.00000362,-0.00
 000013,-0.00001136,0.00000097,-0.00001338,-0.00000282,-0.00000152,-0.0
 0000038,0.00000700,-0.00000029,0.00001192,0.00000195,-0.00000386,-0.00
 000147,-0.00000414,0.00000028,0.00000336,-0.00000081,-0.00000404,0.000
 00669,0.00000128,0.00000046,-0.00000587,-0.00000355,-0.00000704,-0.000
 00328,0.00000427,0.00000496,0.00000158,-0.00000595,-0.00000321,-0.0000
 0046,-0.00000056,0.00000047,-0.00000284,0.00000001,0.00000231,0.000000
 95,0.00000280,0.00001008,-0.00000441,-0.00000216,-0.00000417,0.0000060
 8,0.00000600,0.00000598,-0.00000321,-0.00000680,-0.00000287,0.00000098
 ,0.00000544,0.00000376,-0.00000516,-0.00000087,-0.00000234,0.00000886,
 0.00000357,-0.00000025,0.00000488,0.00000668,0.00000654,-0.00000371,-0
 .00000643,-0.00000538,-0.00000148,0.00000038,-0.00000416,0.00001244,0.
 00000022,0.00000229,-0.00000271,0.00000068,0.00000213,-0.00000288,-0.0
 0000141,-0.00000519,-0.00000515,-0.00001031,0.00000296,-0.00000149,0.0
 0000337,0.00000312,-0.00000143,0.00000546,-0.00000047,-0.00000275\\\@


 IT IS A CAPITAL MISTAKE TO THEORIZE BEFORE ONE HAS
 DATA.  INSENSIBLY ONE BEGINS TO TWIST FACTS TO SUIT
 THEORIES RATHER THAN THEORIES TO SUIT FACTS.

                                         -- SHERLOCK HOLMES
 Job cpu time:       0 days 18 hours 53 minutes 58.4 seconds.
 Elapsed time:       0 days  1 hours 11 minutes  7.6 seconds.
 File lengths (MBytes):  RWF=   1698 Int=      0 D2E=      0 Chk=     43 Scr=      1
 Normal termination of Gaussian 16 at Mon Oct  6 21:43:36 2025.
