 Entering Gaussian System, Link 0=g16
 Input=EEBE0007.gjf
 Output=EEBE0007.log
 Initial command:
 /usr/local/g16/l1.exe "/dados_01/scratch/Gau-2080045.inp" -scrdir="/dados_01/scratch/"
 Entering Link 1 = /usr/local/g16/l1.exe PID=   2080046.
  
 Copyright (c) 1988-2017, Gaussian, Inc.  All Rights Reserved.
  
 This is part of the Gaussian(R) 16 program.  It is based on
 the Gaussian(R) 09 system (copyright 2009, Gaussian, Inc.),
 the Gaussian(R) 03 system (copyright 2003, Gaussian, Inc.),
 the Gaussian(R) 98 system (copyright 1998, Gaussian, Inc.),
 the Gaussian(R) 94 system (copyright 1995, Gaussian, Inc.),
 the Gaussian 92(TM) system (copyright 1992, Gaussian, Inc.),
 the Gaussian 90(TM) system (copyright 1990, Gaussian, Inc.),
 the Gaussian 88(TM) system (copyright 1988, Gaussian, Inc.),
 the Gaussian 86(TM) system (copyright 1986, Carnegie Mellon
 University), and the Gaussian 82(TM) system (copyright 1983,
 Carnegie Mellon University). Gaussian is a federally registered
 trademark of Gaussian, Inc.
  
 This software contains proprietary and confidential information,
 including trade secrets, belonging to Gaussian, Inc.
  
 This software is provided under written license and may be
 used, copied, transmitted, or stored only in accord with that
 written license.
  
 The following legend is applicable only to US Government
 contracts under FAR:
  
                    RESTRICTED RIGHTS LEGEND
  
 Use, reproduction and disclosure by the US Government is
 subject to restrictions as set forth in subparagraphs (a)
 and (c) of the Commercial Computer Software - Restricted
 Rights clause in FAR 52.227-19.
  
 Gaussian, Inc.
 340 Quinnipiac St., Bldg. 40, Wallingford CT 06492
  
  
 ---------------------------------------------------------------
 Warning -- This program may not be used in any manner that
 competes with the business of Gaussian, Inc. or will provide
 assistance to any competitor of Gaussian, Inc.  The licensee
 of this program is prohibited from giving any competitor of
 Gaussian, Inc. access to this program.  By using this program,
 the user acknowledges that Gaussian, Inc. is engaged in the
 business of creating and licensing software in the field of
 computational chemistry and represents and warrants to the
 licensee that it is not a competitor of Gaussian, Inc. and that
 it will not use this program in any manner prohibited above.
 ---------------------------------------------------------------
  

 Cite this work as:
 Gaussian 16, Revision B.01,
 M. J. Frisch, G. W. Trucks, H. B. Schlegel, G. E. Scuseria, 
 M. A. Robb, J. R. Cheeseman, G. Scalmani, V. Barone, 
 G. A. Petersson, H. Nakatsuji, X. Li, M. Caricato, A. V. Marenich, 
 J. Bloino, B. G. Janesko, R. Gomperts, B. Mennucci, H. P. Hratchian, 
 J. V. Ortiz, A. F. Izmaylov, J. L. Sonnenberg, D. Williams-Young, 
 F. Ding, F. Lipparini, F. Egidi, J. Goings, B. Peng, A. Petrone, 
 T. Henderson, D. Ranasinghe, V. G. Zakrzewski, J. Gao, N. Rega, 
 G. Zheng, W. Liang, M. Hada, M. Ehara, K. Toyota, R. Fukuda, 
 J. Hasegawa, M. Ishida, T. Nakajima, Y. Honda, O. Kitao, H. Nakai, 
 T. Vreven, K. Throssell, J. A. Montgomery, Jr., J. E. Peralta, 
 F. Ogliaro, M. J. Bearpark, J. J. Heyd, E. N. Brothers, K. N. Kudin, 
 V. N. Staroverov, T. A. Keith, R. Kobayashi, J. Normand, 
 K. Raghavachari, A. P. Rendell, J. C. Burant, S. S. Iyengar, 
 J. Tomasi, M. Cossi, J. M. Millam, M. Klene, C. Adamo, R. Cammi, 
 J. W. Ochterski, R. L. Martin, K. Morokuma, O. Farkas, 
 J. B. Foresman, and D. J. Fox, Gaussian, Inc., Wallingford CT, 2016.
 
 ******************************************
 Gaussian 16:  ES64L-G16RevB.01 20-Dec-2017
                19-Sep-2025 
 ******************************************
 %nprocs=16
 Will use up to   16 processors via shared memory.
 %mem=40GB
 %chk=EEBE0007.chk
 ----------------------------------------------------------------------
 # opt freq=noraman M08HX/6-311++G** scf=xqc Empiricaldispersion=pfd In
 t(Grid=ultraFine)
 ----------------------------------------------------------------------
 1/18=20,19=15,26=4,38=1/1,3;
 2/9=110,12=2,17=6,18=5,40=1/2;
 3/5=4,6=6,7=1111,11=2,25=1,30=1,71=1,74=-74,75=-5,124=11/1,2,3;
 4//1;
 5/5=2,8=3,13=1,38=5/2,8;
 6/7=2,8=2,9=2,10=2,28=1/1;
 7//1,2,3,16;
 1/18=20,19=15,26=4/3(2);
 2/9=110/2;
 99//99;
 2/9=110/2;
 3/5=4,6=6,7=1111,11=2,25=1,30=1,71=1,74=-74,75=-5,124=11/1,2,3;
 4/5=5,16=3,69=1/1;
 5/5=2,8=3,13=1,38=5/2,8;
 7//1,2,3,16;
 1/18=20,19=15,26=4/3(-5);
 2/9=110/2;
 6/7=2,8=2,9=2,10=2,19=2,28=1/1;
 99/9=1/99;
 --------
 EEBE0007
 --------
 Symbolic Z-matrix:
 Charge =  0 Multiplicity = 1
 O                     0.        6.4772    6.3925 
 C                     0.        5.9856    5.2726 
 C                     1.2945    5.6893    4.576 
 C                     1.2501    5.2572    3.1283 
 H                     2.0311    4.7225    2.952 
 H                     1.2352    6.0548    2.5536 
 C                     0.        4.436     2.8373 
 H                     0.        4.1567    1.8873 
 H                     0.        3.6204    3.3981 
 C                     2.4172    5.7992    5.307 
 H                     2.2892    6.0031    6.2259 
 C                     3.8103    5.6482    4.882 
 C                     4.7522    5.1251    5.784 
 H                     4.4696    4.8469    6.6474 
 C                     6.0818    5.0097    5.4338 
 H                     6.6959    4.636     6.0549 
 C                     6.5412    5.4291    4.1908 
 C                     5.6214    5.9832    3.3046 
 H                     5.9175    6.301     2.46 
 C                     4.2758    6.0779    3.6396 
 H                     3.6626    6.4415    3.0118 
 C                     8.0017    5.2726    3.8268 
 H                     8.2693    4.382     3.2901 
 H                     8.4558    5.3294    4.4673 
 C                     8.5801    6.0963    2.5313 
 H                     8.1242    5.818     1.6119 
 H                     9.5335    5.8624    2.1491 
 H                     8.4765    7.2095    2.8373 
 C                    -1.2945    5.6893    4.576 
 C                    -1.2501    5.2572    3.1283 
 H                    -2.031     4.7225    2.952 
 H                    -1.2352    6.0548    2.5536 
 C                    -2.4172    5.7992    5.307 
 H                    -2.2892    6.0031    6.2259 
 C                    -3.8103    5.6482    4.882 
 C                    -4.7522    5.1251    5.784 
 H                    -4.4696    4.8469    6.6474 
 C                    -6.0818    5.0097    5.4338 
 H                    -6.6959    4.636     6.0549 
 C                    -6.5412    5.4291    4.1908 
 C                    -5.6214    5.9832    3.3046 
 H                    -5.9175    6.301     2.46 
 C                    -4.2758    6.0779    3.6396 
 H                    -3.6626    6.4415    3.0118 
 C                    -8.0017    5.2726    3.8268 
 H                    -8.2693    4.382     3.2901 
 H                    -8.4558    5.3294    4.4673 
 C                    -8.5801    6.0963    2.5313 
 H                    -8.1242    5.818     1.6119 
 H                    -9.5335    5.8624    2.1491 
 H                    -8.4765    7.2095    2.8373 
 

 GradGradGradGradGradGradGradGradGradGradGradGradGradGradGradGradGradGrad
 Berny optimization.
 Initialization pass.
                           ----------------------------
                           !    Initial Parameters    !
                           ! (Angstroms and Degrees)  !
 --------------------------                            --------------------------
 ! Name  Definition              Value          Derivative Info.                !
 --------------------------------------------------------------------------------
 ! R1    R(1,2)                  1.223          estimate D2E/DX2                !
 ! R2    R(2,3)                  1.4996         estimate D2E/DX2                !
 ! R3    R(2,29)                 1.4996         estimate D2E/DX2                !
 ! R4    R(3,4)                  1.5115         estimate D2E/DX2                !
 ! R5    R(3,10)                 1.3442         estimate D2E/DX2                !
 ! R6    R(4,5)                  0.9628         estimate D2E/DX2                !
 ! R7    R(4,6)                  0.9832         estimate D2E/DX2                !
 ! R8    R(4,7)                  1.5237         estimate D2E/DX2                !
 ! R9    R(7,8)                  0.9902         estimate D2E/DX2                !
 ! R10   R(7,9)                  0.9898         estimate D2E/DX2                !
 ! R11   R(7,30)                 1.5237         estimate D2E/DX2                !
 ! R12   R(10,11)                0.9499         estimate D2E/DX2                !
 ! R13   R(10,12)                1.4643         estimate D2E/DX2                !
 ! R14   R(12,13)                1.4051         estimate D2E/DX2                !
 ! R15   R(12,20)                1.3946         estimate D2E/DX2                !
 ! R16   R(13,14)                0.9501         estimate D2E/DX2                !
 ! R17   R(13,15)                1.3798         estimate D2E/DX2                !
 ! R18   R(15,16)                0.95           estimate D2E/DX2                !
 ! R19   R(15,17)                1.39           estimate D2E/DX2                !
 ! R20   R(17,18)                1.3923         estimate D2E/DX2                !
 ! R21   R(17,22)                1.5133         estimate D2E/DX2                !
 ! R22   R(18,19)                0.9497         estimate D2E/DX2                !
 ! R23   R(18,20)                1.3899         estimate D2E/DX2                !
 ! R24   R(20,21)                0.9499         estimate D2E/DX2                !
 ! R25   R(22,23)                1.0737         estimate D2E/DX2                !
 ! R26   R(22,24)                0.7872         estimate D2E/DX2                !
 ! R27   R(22,25)                1.6405         estimate D2E/DX2                !
 ! R28   R(25,26)                1.0633         estimate D2E/DX2                !
 ! R29   R(25,27)                1.0535         estimate D2E/DX2                !
 ! R30   R(25,28)                1.1591         estimate D2E/DX2                !
 ! R31   R(29,30)                1.5115         estimate D2E/DX2                !
 ! R32   R(29,33)                1.3442         estimate D2E/DX2                !
 ! R33   R(30,31)                0.9627         estimate D2E/DX2                !
 ! R34   R(30,32)                0.9832         estimate D2E/DX2                !
 ! R35   R(33,34)                0.9499         estimate D2E/DX2                !
 ! R36   R(33,35)                1.4643         estimate D2E/DX2                !
 ! R37   R(35,36)                1.4051         estimate D2E/DX2                !
 ! R38   R(35,43)                1.3946         estimate D2E/DX2                !
 ! R39   R(36,37)                0.9501         estimate D2E/DX2                !
 ! R40   R(36,38)                1.3798         estimate D2E/DX2                !
 ! R41   R(38,39)                0.95           estimate D2E/DX2                !
 ! R42   R(38,40)                1.39           estimate D2E/DX2                !
 ! R43   R(40,41)                1.3923         estimate D2E/DX2                !
 ! R44   R(40,45)                1.5133         estimate D2E/DX2                !
 ! R45   R(41,42)                0.9497         estimate D2E/DX2                !
 ! R46   R(41,43)                1.3899         estimate D2E/DX2                !
 ! R47   R(43,44)                0.9499         estimate D2E/DX2                !
 ! R48   R(45,46)                1.0737         estimate D2E/DX2                !
 ! R49   R(45,47)                0.7872         estimate D2E/DX2                !
 ! R50   R(45,48)                1.6405         estimate D2E/DX2                !
 ! R51   R(48,49)                1.0633         estimate D2E/DX2                !
 ! R52   R(48,50)                1.0535         estimate D2E/DX2                !
 ! R53   R(48,51)                1.1591         estimate D2E/DX2                !
 ! A1    A(1,2,3)              120.316          estimate D2E/DX2                !
 ! A2    A(1,2,29)             120.316          estimate D2E/DX2                !
 ! A3    A(3,2,29)             119.3635         estimate D2E/DX2                !
 ! A4    A(2,3,4)              118.4283         estimate D2E/DX2                !
 ! A5    A(2,3,10)             116.8859         estimate D2E/DX2                !
 ! A6    A(4,3,10)             124.6653         estimate D2E/DX2                !
 ! A7    A(3,4,5)              108.0792         estimate D2E/DX2                !
 ! A8    A(3,4,6)              109.1713         estimate D2E/DX2                !
 ! A9    A(3,4,7)              111.1673         estimate D2E/DX2                !
 ! A10   A(5,4,6)              110.8421         estimate D2E/DX2                !
 ! A11   A(5,4,7)              109.3436         estimate D2E/DX2                !
 ! A12   A(6,4,7)              108.2485         estimate D2E/DX2                !
 ! A13   A(4,7,8)              109.5869         estimate D2E/DX2                !
 ! A14   A(4,7,9)              109.6262         estimate D2E/DX2                !
 ! A15   A(4,7,30)             110.2522         estimate D2E/DX2                !
 ! A16   A(8,7,9)              108.1288         estimate D2E/DX2                !
 ! A17   A(8,7,30)             109.5869         estimate D2E/DX2                !
 ! A18   A(9,7,30)             109.6262         estimate D2E/DX2                !
 ! A19   A(3,10,11)            115.5352         estimate D2E/DX2                !
 ! A20   A(3,10,12)            128.9275         estimate D2E/DX2                !
 ! A21   A(11,10,12)           115.5373         estimate D2E/DX2                !
 ! A22   A(10,12,13)           119.328          estimate D2E/DX2                !
 ! A23   A(10,12,20)           122.9806         estimate D2E/DX2                !
 ! A24   A(13,12,20)           117.5701         estimate D2E/DX2                !
 ! A25   A(12,13,14)           119.5358         estimate D2E/DX2                !
 ! A26   A(12,13,15)           120.941          estimate D2E/DX2                !
 ! A27   A(14,13,15)           119.5232         estimate D2E/DX2                !
 ! A28   A(13,15,16)           119.3317         estimate D2E/DX2                !
 ! A29   A(13,15,17)           121.3477         estimate D2E/DX2                !
 ! A30   A(16,15,17)           119.3207         estimate D2E/DX2                !
 ! A31   A(15,17,18)           118.0959         estimate D2E/DX2                !
 ! A32   A(15,17,22)           120.1908         estimate D2E/DX2                !
 ! A33   A(18,17,22)           121.7124         estimate D2E/DX2                !
 ! A34   A(17,18,19)           119.5543         estimate D2E/DX2                !
 ! A35   A(17,18,20)           120.8833         estimate D2E/DX2                !
 ! A36   A(19,18,20)           119.5623         estimate D2E/DX2                !
 ! A37   A(12,20,18)           121.123          estimate D2E/DX2                !
 ! A38   A(12,20,21)           119.4221         estimate D2E/DX2                !
 ! A39   A(18,20,21)           119.4549         estimate D2E/DX2                !
 ! A40   A(17,22,23)           116.5228         estimate D2E/DX2                !
 ! A41   A(17,22,24)           110.7054         estimate D2E/DX2                !
 ! A42   A(17,22,25)           118.5738         estimate D2E/DX2                !
 ! A43   A(23,22,24)           108.8318         estimate D2E/DX2                !
 ! A44   A(23,22,25)            86.2081         estimate D2E/DX2                !
 ! A45   A(24,22,25)           113.7605         estimate D2E/DX2                !
 ! A46   A(22,25,26)           113.5928         estimate D2E/DX2                !
 ! A47   A(22,25,27)           119.6108         estimate D2E/DX2                !
 ! A48   A(22,25,28)           104.0174         estimate D2E/DX2                !
 ! A49   A(26,25,27)            90.9293         estimate D2E/DX2                !
 ! A50   A(26,25,28)           116.1873         estimate D2E/DX2                !
 ! A51   A(27,25,28)           112.9483         estimate D2E/DX2                !
 ! A52   A(2,29,30)            118.4283         estimate D2E/DX2                !
 ! A53   A(2,29,33)            116.8859         estimate D2E/DX2                !
 ! A54   A(30,29,33)           124.6653         estimate D2E/DX2                !
 ! A55   A(7,30,29)            111.1673         estimate D2E/DX2                !
 ! A56   A(7,30,31)            109.3401         estimate D2E/DX2                !
 ! A57   A(7,30,32)            108.2485         estimate D2E/DX2                !
 ! A58   A(29,30,31)           108.081          estimate D2E/DX2                !
 ! A59   A(29,30,32)           109.1713         estimate D2E/DX2                !
 ! A60   A(31,30,32)           110.8438         estimate D2E/DX2                !
 ! A61   A(29,33,34)           115.5352         estimate D2E/DX2                !
 ! A62   A(29,33,35)           128.9275         estimate D2E/DX2                !
 ! A63   A(34,33,35)           115.5373         estimate D2E/DX2                !
 ! A64   A(33,35,36)           119.328          estimate D2E/DX2                !
 ! A65   A(33,35,43)           122.9806         estimate D2E/DX2                !
 ! A66   A(36,35,43)           117.5701         estimate D2E/DX2                !
 ! A67   A(35,36,37)           119.5358         estimate D2E/DX2                !
 ! A68   A(35,36,38)           120.941          estimate D2E/DX2                !
 ! A69   A(37,36,38)           119.5232         estimate D2E/DX2                !
 ! A70   A(36,38,39)           119.3317         estimate D2E/DX2                !
 ! A71   A(36,38,40)           121.3477         estimate D2E/DX2                !
 ! A72   A(39,38,40)           119.3207         estimate D2E/DX2                !
 ! A73   A(38,40,41)           118.0959         estimate D2E/DX2                !
 ! A74   A(38,40,45)           120.1908         estimate D2E/DX2                !
 ! A75   A(41,40,45)           121.7124         estimate D2E/DX2                !
 ! A76   A(40,41,42)           119.5543         estimate D2E/DX2                !
 ! A77   A(40,41,43)           120.8833         estimate D2E/DX2                !
 ! A78   A(42,41,43)           119.5623         estimate D2E/DX2                !
 ! A79   A(35,43,41)           121.123          estimate D2E/DX2                !
 ! A80   A(35,43,44)           119.4221         estimate D2E/DX2                !
 ! A81   A(41,43,44)           119.4549         estimate D2E/DX2                !
 ! A82   A(40,45,46)           116.5228         estimate D2E/DX2                !
 ! A83   A(40,45,47)           110.7054         estimate D2E/DX2                !
 ! A84   A(40,45,48)           118.5738         estimate D2E/DX2                !
 ! A85   A(46,45,47)           108.8318         estimate D2E/DX2                !
 ! A86   A(46,45,48)            86.2081         estimate D2E/DX2                !
 ! A87   A(47,45,48)           113.7605         estimate D2E/DX2                !
 ! A88   A(45,48,49)           113.5928         estimate D2E/DX2                !
 ! A89   A(45,48,50)           119.6108         estimate D2E/DX2                !
 ! A90   A(45,48,51)           104.0174         estimate D2E/DX2                !
 ! A91   A(49,48,50)            90.9293         estimate D2E/DX2                !
 ! A92   A(49,48,51)           116.1873         estimate D2E/DX2                !
 ! A93   A(50,48,51)           112.9483         estimate D2E/DX2                !
 ! D1    D(1,2,3,4)           -171.9327         estimate D2E/DX2                !
 ! D2    D(1,2,3,10)             9.6377         estimate D2E/DX2                !
 ! D3    D(29,2,3,4)             7.3057         estimate D2E/DX2                !
 ! D4    D(29,2,3,10)         -171.1238         estimate D2E/DX2                !
 ! D5    D(1,2,29,30)          171.9327         estimate D2E/DX2                !
 ! D6    D(1,2,29,33)           -9.6377         estimate D2E/DX2                !
 ! D7    D(3,2,29,30)           -7.3057         estimate D2E/DX2                !
 ! D8    D(3,2,29,33)          171.1238         estimate D2E/DX2                !
 ! D9    D(2,3,4,5)           -153.3694         estimate D2E/DX2                !
 ! D10   D(2,3,4,6)             85.9836         estimate D2E/DX2                !
 ! D11   D(2,3,4,7)            -33.366          estimate D2E/DX2                !
 ! D12   D(10,3,4,5)            24.9275         estimate D2E/DX2                !
 ! D13   D(10,3,4,6)           -95.7194         estimate D2E/DX2                !
 ! D14   D(10,3,4,7)           144.9309         estimate D2E/DX2                !
 ! D15   D(2,3,10,11)            3.7922         estimate D2E/DX2                !
 ! D16   D(2,3,10,12)         -176.1939         estimate D2E/DX2                !
 ! D17   D(4,3,10,11)         -174.5286         estimate D2E/DX2                !
 ! D18   D(4,3,10,12)            5.4853         estimate D2E/DX2                !
 ! D19   D(3,4,7,8)           -179.3326         estimate D2E/DX2                !
 ! D20   D(3,4,7,9)            -60.8089         estimate D2E/DX2                !
 ! D21   D(3,4,7,30)            59.9663         estimate D2E/DX2                !
 ! D22   D(5,4,7,8)            -60.0822         estimate D2E/DX2                !
 ! D23   D(5,4,7,9)             58.4415         estimate D2E/DX2                !
 ! D24   D(5,4,7,30)           179.2167         estimate D2E/DX2                !
 ! D25   D(6,4,7,8)             60.7682         estimate D2E/DX2                !
 ! D26   D(6,4,7,9)            179.2919         estimate D2E/DX2                !
 ! D27   D(6,4,7,30)           -59.933          estimate D2E/DX2                !
 ! D28   D(4,7,30,29)          -59.9663         estimate D2E/DX2                !
 ! D29   D(4,7,30,31)         -179.2166         estimate D2E/DX2                !
 ! D30   D(4,7,30,32)           59.933          estimate D2E/DX2                !
 ! D31   D(8,7,30,29)          179.3326         estimate D2E/DX2                !
 ! D32   D(8,7,30,31)           60.0822         estimate D2E/DX2                !
 ! D33   D(8,7,30,32)          -60.7682         estimate D2E/DX2                !
 ! D34   D(9,7,30,29)           60.8089         estimate D2E/DX2                !
 ! D35   D(9,7,30,31)          -58.4415         estimate D2E/DX2                !
 ! D36   D(9,7,30,32)         -179.2919         estimate D2E/DX2                !
 ! D37   D(3,10,12,13)        -147.3022         estimate D2E/DX2                !
 ! D38   D(3,10,12,20)          36.8017         estimate D2E/DX2                !
 ! D39   D(11,10,12,13)         32.7117         estimate D2E/DX2                !
 ! D40   D(11,10,12,20)       -143.1843         estimate D2E/DX2                !
 ! D41   D(10,12,13,14)          2.1595         estimate D2E/DX2                !
 ! D42   D(10,12,13,15)       -177.8379         estimate D2E/DX2                !
 ! D43   D(20,12,13,14)        178.2762         estimate D2E/DX2                !
 ! D44   D(20,12,13,15)         -1.7211         estimate D2E/DX2                !
 ! D45   D(10,12,20,18)        176.3735         estimate D2E/DX2                !
 ! D46   D(10,12,20,21)         -3.6236         estimate D2E/DX2                !
 ! D47   D(13,12,20,18)          0.4097         estimate D2E/DX2                !
 ! D48   D(13,12,20,21)       -179.5875         estimate D2E/DX2                !
 ! D49   D(12,13,15,16)       -178.7289         estimate D2E/DX2                !
 ! D50   D(12,13,15,17)          1.274          estimate D2E/DX2                !
 ! D51   D(14,13,15,16)          1.2738         estimate D2E/DX2                !
 ! D52   D(14,13,15,17)       -178.7234         estimate D2E/DX2                !
 ! D53   D(13,15,17,18)          0.5247         estimate D2E/DX2                !
 ! D54   D(13,15,17,22)       -179.1512         estimate D2E/DX2                !
 ! D55   D(16,15,17,18)       -179.4724         estimate D2E/DX2                !
 ! D56   D(16,15,17,22)          0.8517         estimate D2E/DX2                !
 ! D57   D(15,17,18,19)        178.1391         estimate D2E/DX2                !
 ! D58   D(15,17,18,20)         -1.8383         estimate D2E/DX2                !
 ! D59   D(22,17,18,19)         -2.1902         estimate D2E/DX2                !
 ! D60   D(22,17,18,20)        177.8324         estimate D2E/DX2                !
 ! D61   D(15,17,22,23)         94.044          estimate D2E/DX2                !
 ! D62   D(15,17,22,24)        -31.0072         estimate D2E/DX2                !
 ! D63   D(15,17,22,25)       -165.1404         estimate D2E/DX2                !
 ! D64   D(18,17,22,23)        -85.6199         estimate D2E/DX2                !
 ! D65   D(18,17,22,24)        149.3289         estimate D2E/DX2                !
 ! D66   D(18,17,22,25)         15.1957         estimate D2E/DX2                !
 ! D67   D(17,18,20,12)          1.3822         estimate D2E/DX2                !
 ! D68   D(17,18,20,21)       -178.6206         estimate D2E/DX2                !
 ! D69   D(19,18,20,12)       -178.5951         estimate D2E/DX2                !
 ! D70   D(19,18,20,21)          1.402          estimate D2E/DX2                !
 ! D71   D(17,22,25,26)        -62.6149         estimate D2E/DX2                !
 ! D72   D(17,22,25,27)       -168.1939         estimate D2E/DX2                !
 ! D73   D(17,22,25,28)         64.6407         estimate D2E/DX2                !
 ! D74   D(23,22,25,26)         55.6472         estimate D2E/DX2                !
 ! D75   D(23,22,25,27)        -49.9318         estimate D2E/DX2                !
 ! D76   D(23,22,25,28)       -177.0972         estimate D2E/DX2                !
 ! D77   D(24,22,25,26)        164.5693         estimate D2E/DX2                !
 ! D78   D(24,22,25,27)         58.9903         estimate D2E/DX2                !
 ! D79   D(24,22,25,28)        -68.1751         estimate D2E/DX2                !
 ! D80   D(2,29,30,7)           33.366          estimate D2E/DX2                !
 ! D81   D(2,29,30,31)         153.3663         estimate D2E/DX2                !
 ! D82   D(2,29,30,32)         -85.9836         estimate D2E/DX2                !
 ! D83   D(33,29,30,7)        -144.9309         estimate D2E/DX2                !
 ! D84   D(33,29,30,31)        -24.9306         estimate D2E/DX2                !
 ! D85   D(33,29,30,32)         95.7194         estimate D2E/DX2                !
 ! D86   D(2,29,33,34)          -3.7922         estimate D2E/DX2                !
 ! D87   D(2,29,33,35)         176.1939         estimate D2E/DX2                !
 ! D88   D(30,29,33,34)        174.5286         estimate D2E/DX2                !
 ! D89   D(30,29,33,35)         -5.4853         estimate D2E/DX2                !
 ! D90   D(29,33,35,36)        147.3022         estimate D2E/DX2                !
 ! D91   D(29,33,35,43)        -36.8017         estimate D2E/DX2                !
 ! D92   D(34,33,35,36)        -32.7117         estimate D2E/DX2                !
 ! D93   D(34,33,35,43)        143.1843         estimate D2E/DX2                !
 ! D94   D(33,35,36,37)         -2.1595         estimate D2E/DX2                !
 ! D95   D(33,35,36,38)        177.8379         estimate D2E/DX2                !
 ! D96   D(43,35,36,37)       -178.2762         estimate D2E/DX2                !
 ! D97   D(43,35,36,38)          1.7211         estimate D2E/DX2                !
 ! D98   D(33,35,43,41)       -176.3735         estimate D2E/DX2                !
 ! D99   D(33,35,43,44)          3.6236         estimate D2E/DX2                !
 ! D100  D(36,35,43,41)         -0.4097         estimate D2E/DX2                !
 ! D101  D(36,35,43,44)        179.5875         estimate D2E/DX2                !
 ! D102  D(35,36,38,39)        178.7289         estimate D2E/DX2                !
 ! D103  D(35,36,38,40)         -1.274          estimate D2E/DX2                !
 ! D104  D(37,36,38,39)         -1.2738         estimate D2E/DX2                !
 ! D105  D(37,36,38,40)        178.7234         estimate D2E/DX2                !
 ! D106  D(36,38,40,41)         -0.5247         estimate D2E/DX2                !
 ! D107  D(36,38,40,45)        179.1512         estimate D2E/DX2                !
 ! D108  D(39,38,40,41)        179.4724         estimate D2E/DX2                !
 ! D109  D(39,38,40,45)         -0.8517         estimate D2E/DX2                !
 ! D110  D(38,40,41,42)       -178.1391         estimate D2E/DX2                !
 ! D111  D(38,40,41,43)          1.8383         estimate D2E/DX2                !
 ! D112  D(45,40,41,42)          2.1902         estimate D2E/DX2                !
 ! D113  D(45,40,41,43)       -177.8324         estimate D2E/DX2                !
 ! D114  D(38,40,45,46)        -94.044          estimate D2E/DX2                !
 ! D115  D(38,40,45,47)         31.0072         estimate D2E/DX2                !
 ! D116  D(38,40,45,48)        165.1404         estimate D2E/DX2                !
 ! D117  D(41,40,45,46)         85.6199         estimate D2E/DX2                !
 ! D118  D(41,40,45,47)       -149.3289         estimate D2E/DX2                !
 ! D119  D(41,40,45,48)        -15.1957         estimate D2E/DX2                !
 ! D120  D(40,41,43,35)         -1.3822         estimate D2E/DX2                !
 ! D121  D(40,41,43,44)        178.6206         estimate D2E/DX2                !
 ! D122  D(42,41,43,35)        178.5951         estimate D2E/DX2                !
 ! D123  D(42,41,43,44)         -1.402          estimate D2E/DX2                !
 ! D124  D(40,45,48,49)         62.6149         estimate D2E/DX2                !
 ! D125  D(40,45,48,50)        168.1939         estimate D2E/DX2                !
 ! D126  D(40,45,48,51)        -64.6407         estimate D2E/DX2                !
 ! D127  D(46,45,48,49)        -55.6472         estimate D2E/DX2                !
 ! D128  D(46,45,48,50)         49.9318         estimate D2E/DX2                !
 ! D129  D(46,45,48,51)        177.0972         estimate D2E/DX2                !
 ! D130  D(47,45,48,49)       -164.5693         estimate D2E/DX2                !
 ! D131  D(47,45,48,50)        -58.9903         estimate D2E/DX2                !
 ! D132  D(47,45,48,51)         68.1751         estimate D2E/DX2                !
 --------------------------------------------------------------------------------
 Trust Radius=3.00D-01 FncErr=1.00D-07 GrdErr=1.00D-06 EigMax=2.50D+02 EigMin=1.00D-04
 Number of steps in this run=    288 maximum allowed number of steps=    306.
 GradGradGradGradGradGradGradGradGradGradGradGradGradGradGradGradGradGrad

 Stoichiometry    C24H26O
 Framework group  C1[X(C24H26O)]
 Deg. of freedom   147
 Full point group                 C1      NOp   1
 Largest Abelian subgroup         C1      NOp   1
 Largest concise Abelian subgroup C1      NOp   1
                         Standard orientation:                         
 ---------------------------------------------------------------------
 Center     Atomic      Atomic             Coordinates (Angstroms)
 Number     Number       Type             X           Y           Z
 ---------------------------------------------------------------------
      1          8           0       -0.000001    2.131352   -0.965995
      2          6           0       -0.000001    1.028813   -0.436605
      3          6           0        1.294499    0.342689   -0.116793
      4          6           0        1.250099   -1.089483    0.364276
      5          1           0        2.031099   -1.247503    0.904661
      6          1           0        1.235199   -1.690968   -0.413324
      7          6           0       -0.000001   -1.352396    1.194895
      8          1           0       -0.000000   -2.292351    1.506331
      9          1           0       -0.000001   -0.764191    1.990957
     10          6           0        2.417199    1.069530   -0.251482
     11          1           0        2.289199    1.980967   -0.486505
     12          6           0        3.810299    0.649910   -0.086120
     13          6           0        4.752199    1.569173    0.406011
     14          1           0        4.469599    2.441532    0.654697
     15          6           0        6.081799    1.223098    0.533251
     16          1           0        6.695899    1.856544    0.885618
     17          6           0        6.541199   -0.033442    0.156352
     18          6           0        5.621399   -0.937968   -0.367298
     19          1           0        5.917499   -1.792884   -0.656200
     20          6           0        4.275799   -0.606381   -0.473333
     21          1           0        3.662599   -1.246180   -0.815379
     22          6           0        8.001699   -0.391911    0.325137
     23          1           0        8.269299   -0.898022    1.233469
     24          1           0        8.455799    0.246288    0.246594
     25          6           0        8.580099   -1.714666   -0.454042
     26          1           0        8.124200   -2.624073   -0.144645
     27          1           0        9.533499   -2.088693   -0.207283
     28          1           0        8.476499   -1.446689   -1.577002
     29          6           0       -1.294501    0.342689   -0.116793
     30          6           0       -1.250101   -1.089483    0.364276
     31          1           0       -2.031001   -1.247503    0.904661
     32          1           0       -1.235201   -1.690968   -0.413324
     33          6           0       -2.417201    1.069530   -0.251482
     34          1           0       -2.289201    1.980967   -0.486505
     35          6           0       -3.810301    0.649909   -0.086120
     36          6           0       -4.752201    1.569172    0.406011
     37          1           0       -4.469601    2.441531    0.654697
     38          6           0       -6.081801    1.223098    0.533251
     39          1           0       -6.695901    1.856544    0.885619
     40          6           0       -6.541201   -0.033442    0.156353
     41          6           0       -5.621401   -0.937968   -0.367298
     42          1           0       -5.917501   -1.792884   -0.656200
     43          6           0       -4.275801   -0.606381   -0.473333
     44          1           0       -3.662601   -1.246180   -0.815378
     45          6           0       -8.001701   -0.391911    0.325138
     46          1           0       -8.269301   -0.898022    1.233469
     47          1           0       -8.455801    0.246288    0.246595
     48          6           0       -8.580101   -1.714666   -0.454042
     49          1           0       -8.124200   -2.624073   -0.144645
     50          1           0       -9.533501   -2.088693   -0.207283
     51          1           0       -8.476501   -1.446690   -1.577002
 ---------------------------------------------------------------------
 Rotational constants (GHZ):           0.9302184           0.0587274           0.0563310
 Standard basis: 6-311++G(d,p) (5D, 7F)
 There are   757 symmetry adapted cartesian basis functions of A   symmetry.
 There are   732 symmetry adapted basis functions of A   symmetry.
   732 basis functions,  1134 primitive gaussians,   757 cartesian basis functions
    89 alpha electrons       89 beta electrons
       nuclear repulsion energy      1914.6421225771 Hartrees.
 NAtoms=   51 NActive=   51 NUniq=   51 SFac= 1.00D+00 NAtFMM=   60 NAOKFM=F Big=F
 Integral buffers will be    131072 words long.
 Raffenetti 2 integral format.
 Two-electron integral symmetry is turned on.
 R6APFD:  NTU= -4 IXU= 1 FactS= 1.050
 Nuclear repulsion after empirical dispersion term =     1914.6030600830 Hartrees.
 One-electron integrals computed using PRISM.
 NBasis=   732 RedAO= T EigKep=  2.35D-06  NBF=   732
 NBsUse=   724 1.00D-06 EigRej=  8.03D-07 NBFU=   724
 ExpMin= 3.60D-02 ExpMax= 8.59D+03 ExpMxC= 1.30D+03 IAcc=3 IRadAn=         5 AccDes= 0.00D+00
 Harris functional with IExCor= 1009 and IRadAn=       5 diagonalized for initial guess.
 HarFok:  IExCor= 1009 AccDes= 0.00D+00 IRadAn=         5 IDoV= 1 UseB2=F ITyADJ=14
 ICtDFT=  3500011 ScaDFX=  1.000000  1.000000  1.000000  1.000000
 FoFCou: FMM=F IPFlag=           0 FMFlag=      100000 FMFlg1=           0
         NFxFlg=           0 DoJE=T BraDBF=F KetDBF=T FulRan=T
         wScrn=  0.000000 ICntrl=       500 IOpCl=  0 I1Cent=   200000004 NGrid=           0
         NMat0=    1 NMatS0=      1 NMatT0=    0 NMatD0=    1 NMtDS0=    0 NMtDT0=    0
 Petite list used in FoFCou.
 Requested convergence on RMS density matrix=1.00D-08 within  32 cycles.
 Requested convergence on MAX density matrix=1.00D-06.
 Requested convergence on             energy=1.00D-06.
 No special actions if energy rises.
 SCF Done:  E(RM08HX) =  -1004.93197010     A.U. after   15 cycles
            NFock= 15  Conv=0.63D-08     -V/T= 2.0000
 QCSCF skips out because SCF is already converged.

 **********************************************************************

            Population analysis using the SCF Density.

 **********************************************************************

 Orbital symmetries:
       Occupied  (A) (A) (A) (A) (A) (A) (A) (A) (A) (A) (A) (A)
                 (A) (A) (A) (A) (A) (A) (A) (A) (A) (A) (A) (A)
                 (A) (A) (A) (A) (A) (A) (A) (A) (A) (A) (A) (A)
                 (A) (A) (A) (A) (A) (A) (A) (A) (A) (A) (A) (A)
                 (A) (A) (A) (A) (A) (A) (A) (A) (A) (A) (A) (A)
                 (A) (A) (A) (A) (A) (A) (A) (A) (A) (A) (A) (A)
                 (A) (A) (A) (A) (A) (A) (A) (A) (A) (A) (A) (A)
                 (A) (A) (A) (A) (A)
       Virtual   (A) (A) (A) (A) (A) (A) (A) (A) (A) (A) (A) (A)
                 (A) (A) (A) (A) (A) (A) (A) (A) (A) (A) (A) (A)
                 (A) (A) (A) (A) (A) (A) (A) (A) (A) (A) (A) (A)
                 (A) (A) (A) (A) (A) (A) (A) (A) (A) (A) (A) (A)
                 (A) (A) (A) (A) (A) (A) (A) (A) (A) (A) (A) (A)
                 (A) (A) (A) (A) (A) (A) (A) (A) (A) (A) (A) (A)
                 (A) (A) (A) (A) (A) (A) (A) (A) (A) (A) (A) (A)
                 (A) (A) (A) (A) (A) (A) (A) (A) (A) (A) (A) (A)
                 (A) (A) (A) (A) (A) (A) (A) (A) (A) (A) (A) (A)
                 (A) (A) (A) (A) (A) (A) (A) (A) (A) (A) (A) (A)
                 (A) (A) (A) (A) (A) (A) (A) (A) (A) (A) (A) (A)
                 (A) (A) (A) (A) (A) (A) (A) (A) (A) (A) (A) (A)
                 (A) (A) (A) (A) (A) (A) (A) (A) (A) (A) (A) (A)
                 (A) (A) (A) (A) (A) (A) (A) (A) (A) (A) (A) (A)
                 (A) (A) (A) (A) (A) (A) (A) (A) (A) (A) (A) (A)
                 (A) (A) (A) (A) (A) (A) (A) (A) (A) (A) (A) (A)
                 (A) (A) (A) (A) (A) (A) (A) (A) (A) (A) (A) (A)
                 (A) (A) (A) (A) (A) (A) (A) (A) (A) (A) (A) (A)
                 (A) (A) (A) (A) (A) (A) (A) (A) (A) (A) (A) (A)
                 (A) (A) (A) (A) (A) (A) (A) (A) (A) (A) (A) (A)
                 (A) (A) (A) (A) (A) (A) (A) (A) (A) (A) (A) (A)
                 (A) (A) (A) (A) (A) (A) (A) (A) (A) (A) (A) (A)
                 (A) (A) (A) (A) (A) (A) (A) (A) (A) (A) (A) (A)
                 (A) (A) (A) (A) (A) (A) (A) (A) (A) (A) (A) (A)
                 (A) (A) (A) (A) (A) (A) (A) (A) (A) (A) (A) (A)
                 (A) (A) (A) (A) (A) (A) (A) (A) (A) (A) (A) (A)
                 (A) (A) (A) (A) (A) (A) (A) (A) (A) (A) (A) (A)
                 (A) (A) (A) (A) (A) (A) (A) (A) (A) (A) (A) (A)
                 (A) (A) (A) (A) (A) (A) (A) (A) (A) (A) (A) (A)
                 (A) (A) (A) (A) (A) (A) (A) (A) (A) (A) (A) (A)
                 (A) (A) (A) (A) (A) (A) (A) (A) (A) (A) (A) (A)
                 (A) (A) (A) (A) (A) (A) (A) (A) (A) (A) (A) (A)
                 (A) (A) (A) (A) (A) (A) (A) (A) (A) (A) (A) (A)
                 (A) (A) (A) (A) (A) (A) (A) (A) (A) (A) (A) (A)
                 (A) (A) (A) (A) (A) (A) (A) (A) (A) (A) (A) (A)
                 (A) (A) (A) (A) (A) (A) (A) (A) (A) (A) (A) (A)
                 (A) (A) (A) (A) (A) (A) (A) (A) (A) (A) (A) (A)
                 (A) (A) (A) (A) (A) (A) (A) (A) (A) (A) (A) (A)
                 (A) (A) (A) (A) (A) (A) (A) (A) (A) (A) (A) (A)
                 (A) (A) (A) (A) (A) (A) (A) (A) (A) (A) (A) (A)
                 (A) (A) (A) (A) (A) (A) (A) (A) (A) (A) (A) (A)
                 (A) (A) (A) (A) (A) (A) (A) (A) (A) (A) (A) (A)
                 (A) (A) (A) (A) (A) (A) (A) (A) (A) (A) (A) (A)
                 (A) (A) (A) (A) (A) (A) (A) (A) (A) (A) (A) (A)
                 (A) (A) (A) (A) (A) (A) (A) (A) (A) (A) (A) (A)
                 (A) (A) (A) (A) (A) (A) (A) (A) (A) (A) (A) (A)
                 (A) (A) (A) (A) (A) (A) (A) (A) (A) (A) (A) (A)
                 (A) (A) (A) (A) (A) (A) (A) (A) (A) (A) (A) (A)
                 (A) (A) (A) (A) (A) (A) (A) (A) (A) (A) (A) (A)
                 (A) (A) (A) (A) (A) (A) (A) (A) (A) (A) (A) (A)
                 (A) (A) (A) (A) (A) (A) (A) (A) (A) (A) (A) (A)
                 (A) (A) (A) (A) (A) (A) (A) (A) (A) (A) (A) (A)
                 (A) (A) (A) (A) (A) (A) (A) (A) (A) (A) (A)
 The electronic state is 1-A.
 Alpha  occ. eigenvalues --  -19.58323 -10.61158 -10.54644 -10.54644 -10.54397
 Alpha  occ. eigenvalues --  -10.54397 -10.54042 -10.54040 -10.53044 -10.53044
 Alpha  occ. eigenvalues --  -10.52577 -10.52577 -10.52232 -10.52232 -10.52218
 Alpha  occ. eigenvalues --  -10.52217 -10.51859 -10.51859 -10.51801 -10.51801
 Alpha  occ. eigenvalues --  -10.50871 -10.50871 -10.50600 -10.50581 -10.50539
 Alpha  occ. eigenvalues --   -1.15192  -0.98772  -0.98683  -0.96166  -0.93113
 Alpha  occ. eigenvalues --   -0.91599  -0.89420  -0.87549  -0.86976  -0.86975
 Alpha  occ. eigenvalues --   -0.84246  -0.83281  -0.80305  -0.77202  -0.76037
 Alpha  occ. eigenvalues --   -0.74743  -0.72443  -0.72422  -0.71135  -0.69886
 Alpha  occ. eigenvalues --   -0.68541  -0.65609  -0.61040  -0.60056  -0.59683
 Alpha  occ. eigenvalues --   -0.57481  -0.57373  -0.56075  -0.55411  -0.55367
 Alpha  occ. eigenvalues --   -0.54828  -0.54328  -0.53057  -0.52113  -0.52061
 Alpha  occ. eigenvalues --   -0.51291  -0.51290  -0.50608  -0.48920  -0.48905
 Alpha  occ. eigenvalues --   -0.47920  -0.47913  -0.47408  -0.46193  -0.44706
 Alpha  occ. eigenvalues --   -0.44242  -0.43847  -0.43318  -0.42996  -0.42440
 Alpha  occ. eigenvalues --   -0.42417  -0.41442  -0.41393  -0.40649  -0.39714
 Alpha  occ. eigenvalues --   -0.38092  -0.37919  -0.34349  -0.33670  -0.31846
 Alpha  occ. eigenvalues --   -0.31624  -0.31512  -0.28128  -0.27639
 Alpha virt. eigenvalues --   -0.05816  -0.03133  -0.02927  -0.02144  -0.01526
 Alpha virt. eigenvalues --   -0.01276  -0.01119  -0.00963  -0.00784  -0.00209
 Alpha virt. eigenvalues --   -0.00017   0.00238   0.00452   0.00502   0.00719
 Alpha virt. eigenvalues --    0.01005   0.01399   0.01795   0.02097   0.02160
 Alpha virt. eigenvalues --    0.02225   0.02503   0.03254   0.03591   0.04002
 Alpha virt. eigenvalues --    0.04112   0.04276   0.04395   0.05058   0.05296
 Alpha virt. eigenvalues --    0.06021   0.06149   0.06456   0.07000   0.07056
 Alpha virt. eigenvalues --    0.07412   0.07608   0.08076   0.08363   0.08469
 Alpha virt. eigenvalues --    0.09090   0.09144   0.09202   0.09539   0.09947
 Alpha virt. eigenvalues --    0.10448   0.10633   0.11116   0.11118   0.11351
 Alpha virt. eigenvalues --    0.11486   0.11661   0.11720   0.11877   0.12083
 Alpha virt. eigenvalues --    0.12156   0.12364   0.12520   0.12640   0.12908
 Alpha virt. eigenvalues --    0.13187   0.13211   0.13489   0.13612   0.13791
 Alpha virt. eigenvalues --    0.14091   0.14291   0.14373   0.14897   0.15036
 Alpha virt. eigenvalues --    0.15308   0.15387   0.15600   0.15799   0.16149
 Alpha virt. eigenvalues --    0.16469   0.16474   0.16493   0.16968   0.17121
 Alpha virt. eigenvalues --    0.17223   0.17538   0.17553   0.17868   0.18006
 Alpha virt. eigenvalues --    0.18512   0.18533   0.18637   0.19034   0.19286
 Alpha virt. eigenvalues --    0.19830   0.19924   0.20286   0.20442   0.20668
 Alpha virt. eigenvalues --    0.20724   0.20911   0.21212   0.21305   0.21743
 Alpha virt. eigenvalues --    0.22471   0.22523   0.22736   0.22983   0.23212
 Alpha virt. eigenvalues --    0.23228   0.23857   0.24074   0.24531   0.24682
 Alpha virt. eigenvalues --    0.25085   0.25193   0.25446   0.25588   0.25728
 Alpha virt. eigenvalues --    0.26331   0.26828   0.27152   0.27459   0.27616
 Alpha virt. eigenvalues --    0.27800   0.28318   0.28365   0.28514   0.28694
 Alpha virt. eigenvalues --    0.29060   0.30032   0.30085   0.30750   0.30831
 Alpha virt. eigenvalues --    0.31053   0.31175   0.31951   0.32249   0.32382
 Alpha virt. eigenvalues --    0.32632   0.33013   0.33201   0.33261   0.33793
 Alpha virt. eigenvalues --    0.33911   0.33968   0.34330   0.34477   0.34606
 Alpha virt. eigenvalues --    0.35063   0.35424   0.35821   0.35906   0.36413
 Alpha virt. eigenvalues --    0.36446   0.37041   0.37293   0.37376   0.38197
 Alpha virt. eigenvalues --    0.38293   0.38721   0.39206   0.39698   0.40208
 Alpha virt. eigenvalues --    0.40890   0.41564   0.42111   0.42220   0.42819
 Alpha virt. eigenvalues --    0.43101   0.43263   0.44261   0.44790   0.45256
 Alpha virt. eigenvalues --    0.46653   0.47159   0.47761   0.48454   0.48748
 Alpha virt. eigenvalues --    0.50395   0.50632   0.51807   0.51833   0.51947
 Alpha virt. eigenvalues --    0.52597   0.53762   0.54351   0.55350   0.55393
 Alpha virt. eigenvalues --    0.55491   0.56443   0.56599   0.57347   0.58712
 Alpha virt. eigenvalues --    0.58958   0.59459   0.59668   0.60506   0.61758
 Alpha virt. eigenvalues --    0.61905   0.62145   0.62370   0.62691   0.62932
 Alpha virt. eigenvalues --    0.63395   0.64159   0.64277   0.64619   0.65860
 Alpha virt. eigenvalues --    0.66596   0.66947   0.67339   0.67685   0.67778
 Alpha virt. eigenvalues --    0.67899   0.68219   0.68420   0.68734   0.68847
 Alpha virt. eigenvalues --    0.69330   0.70032   0.70150   0.70217   0.70685
 Alpha virt. eigenvalues --    0.70809   0.71201   0.72179   0.72479   0.72953
 Alpha virt. eigenvalues --    0.73395   0.73462   0.74181   0.74346   0.74889
 Alpha virt. eigenvalues --    0.75288   0.75487   0.75715   0.76169   0.76997
 Alpha virt. eigenvalues --    0.77435   0.77882   0.78556   0.79030   0.79459
 Alpha virt. eigenvalues --    0.79515   0.79748   0.80372   0.81428   0.81574
 Alpha virt. eigenvalues --    0.82272   0.82690   0.82932   0.83925   0.84105
 Alpha virt. eigenvalues --    0.84746   0.84836   0.85369   0.85819   0.86169
 Alpha virt. eigenvalues --    0.86896   0.87198   0.87386   0.88038   0.88524
 Alpha virt. eigenvalues --    0.89631   0.89801   0.90013   0.90246   0.91172
 Alpha virt. eigenvalues --    0.91369   0.91901   0.92361   0.93114   0.94088
 Alpha virt. eigenvalues --    0.94401   0.94984   0.95090   0.96145   0.96650
 Alpha virt. eigenvalues --    0.98086   0.98358   0.98653   0.98895   0.99312
 Alpha virt. eigenvalues --    0.99478   1.00410   1.01396   1.01731   1.01879
 Alpha virt. eigenvalues --    1.02768   1.03069   1.03729   1.04103   1.05125
 Alpha virt. eigenvalues --    1.05635   1.06311   1.07716   1.08800   1.09781
 Alpha virt. eigenvalues --    1.11221   1.11234   1.12498   1.13456   1.14088
 Alpha virt. eigenvalues --    1.14241   1.15132   1.15407   1.16201   1.16695
 Alpha virt. eigenvalues --    1.17550   1.19131   1.20653   1.21693   1.21789
 Alpha virt. eigenvalues --    1.23503   1.23525   1.25731   1.27663   1.27684
 Alpha virt. eigenvalues --    1.30295   1.31440   1.32041   1.33226   1.33280
 Alpha virt. eigenvalues --    1.35263   1.35323   1.37057   1.38119   1.38197
 Alpha virt. eigenvalues --    1.39474   1.39906   1.40257   1.43918   1.46185
 Alpha virt. eigenvalues --    1.46975   1.48453   1.48515   1.48678   1.51431
 Alpha virt. eigenvalues --    1.52156   1.52347   1.52692   1.52968   1.53249
 Alpha virt. eigenvalues --    1.54475   1.54613   1.55282   1.56282   1.56496
 Alpha virt. eigenvalues --    1.57274   1.57937   1.57979   1.58483   1.59973
 Alpha virt. eigenvalues --    1.60308   1.60436   1.60609   1.60654   1.61659
 Alpha virt. eigenvalues --    1.61963   1.63058   1.63249   1.65607   1.66591
 Alpha virt. eigenvalues --    1.67019   1.67689   1.68237   1.68611   1.69131
 Alpha virt. eigenvalues --    1.69229   1.70389   1.70716   1.71311   1.71641
 Alpha virt. eigenvalues --    1.73337   1.73620   1.73913   1.73917   1.74869
 Alpha virt. eigenvalues --    1.75493   1.76410   1.77981   1.78321   1.80600
 Alpha virt. eigenvalues --    1.80942   1.81395   1.81847   1.82239   1.82730
 Alpha virt. eigenvalues --    1.83114   1.83754   1.84090   1.84726   1.85830
 Alpha virt. eigenvalues --    1.87067   1.87436   1.87814   1.88778   1.88779
 Alpha virt. eigenvalues --    1.89938   1.90250   1.90999   1.92133   1.92671
 Alpha virt. eigenvalues --    1.93082   1.94284   1.94541   1.95637   1.96680
 Alpha virt. eigenvalues --    1.97485   1.97972   1.98138   1.98815   2.00232
 Alpha virt. eigenvalues --    2.00295   2.00449   2.00759   2.01895   2.03045
 Alpha virt. eigenvalues --    2.03976   2.04507   2.05274   2.07060   2.07067
 Alpha virt. eigenvalues --    2.07546   2.08583   2.08820   2.10858   2.11862
 Alpha virt. eigenvalues --    2.12031   2.12836   2.13640   2.13830   2.14780
 Alpha virt. eigenvalues --    2.14954   2.17191   2.17243   2.18867   2.19115
 Alpha virt. eigenvalues --    2.20559   2.21045   2.21785   2.23781   2.23944
 Alpha virt. eigenvalues --    2.24948   2.26520   2.27885   2.28470   2.30803
 Alpha virt. eigenvalues --    2.31086   2.31833   2.32279   2.34745   2.36517
 Alpha virt. eigenvalues --    2.37006   2.37819   2.38648   2.39110   2.40017
 Alpha virt. eigenvalues --    2.40683   2.41927   2.42003   2.43646   2.44686
 Alpha virt. eigenvalues --    2.45145   2.45332   2.47120   2.47354   2.47517
 Alpha virt. eigenvalues --    2.48358   2.49617   2.49812   2.53355   2.53696
 Alpha virt. eigenvalues --    2.55441   2.55550   2.56084   2.57005   2.57625
 Alpha virt. eigenvalues --    2.58560   2.61075   2.61693   2.62289   2.62513
 Alpha virt. eigenvalues --    2.64524   2.65060   2.67903   2.68008   2.68323
 Alpha virt. eigenvalues --    2.69552   2.70101   2.72499   2.72529   2.74783
 Alpha virt. eigenvalues --    2.75220   2.77114   2.77617   2.77669   2.79040
 Alpha virt. eigenvalues --    2.79506   2.82000   2.82068   2.82949   2.82961
 Alpha virt. eigenvalues --    2.83402   2.84971   2.85659   2.86226   2.87043
 Alpha virt. eigenvalues --    2.88022   2.88103   2.88361   2.88499   2.89697
 Alpha virt. eigenvalues --    2.90442   2.91256   2.92472   2.94191   2.94512
 Alpha virt. eigenvalues --    2.95517   2.96242   2.97056   2.97064   2.97973
 Alpha virt. eigenvalues --    2.98133   2.98250   2.98329   3.00230   3.00270
 Alpha virt. eigenvalues --    3.02899   3.03691   3.05065   3.05804   3.06387
 Alpha virt. eigenvalues --    3.06594   3.07707   3.07871   3.08613   3.09378
 Alpha virt. eigenvalues --    3.10805   3.12075   3.14226   3.15262   3.15535
 Alpha virt. eigenvalues --    3.17750   3.17796   3.20681   3.20832   3.21853
 Alpha virt. eigenvalues --    3.22936   3.24821   3.25092   3.27977   3.28436
 Alpha virt. eigenvalues --    3.31870   3.32335   3.33647   3.33783   3.37974
 Alpha virt. eigenvalues --    3.40568   3.44970   3.46291   3.46680   3.48502
 Alpha virt. eigenvalues --    3.48762   3.51625   3.52011   3.54368   3.60274
 Alpha virt. eigenvalues --    3.60275   3.63369   3.63381   3.67202   3.67435
 Alpha virt. eigenvalues --    3.69159   3.69537   3.70294   3.73279   3.78803
 Alpha virt. eigenvalues --    3.81868   3.83602   3.83685   3.86505   3.87623
 Alpha virt. eigenvalues --    3.88392   3.92898   4.06603   4.06637   4.08296
 Alpha virt. eigenvalues --    4.12160   4.16976   4.27219   4.27323   4.29581
 Alpha virt. eigenvalues --    4.32131   4.35106   4.35408   4.37566   4.39927
 Alpha virt. eigenvalues --    4.43267   4.44241   4.44288   4.54889   4.55056
 Alpha virt. eigenvalues --    4.62234   4.64690   4.65977   4.67546   4.72192
 Alpha virt. eigenvalues --    4.94443   4.94542   5.20295   5.43361   5.90068
 Alpha virt. eigenvalues --   23.78807  23.83467  23.89543  23.91546  23.94202
 Alpha virt. eigenvalues --   24.00192  24.00251  24.05274  24.05608  24.12005
 Alpha virt. eigenvalues --   24.15184  24.15277  24.18270  24.18288  24.23656
 Alpha virt. eigenvalues --   24.23695  24.26315  24.28922  24.29509  24.29545
 Alpha virt. eigenvalues --   24.36103  24.36889  24.37361  24.37368  50.07613
          Condensed to atoms (all electrons):
 Mulliken charges:
               1
     1  O   -0.159378
     2  C   -0.876113
     3  C    1.305647
     4  C   -0.655207
     5  H    0.162064
     6  H    0.247309
     7  C   -2.228803
     8  H    0.263570
     9  H    0.286256
    10  C    0.167636
    11  H    0.338091
    12  C    0.739492
    13  C   -0.352705
    14  H    0.247364
    15  C   -0.492622
    16  H    0.235933
    17  C    0.954335
    18  C   -0.877938
    19  H    0.223470
    20  C   -0.832662
    21  H    0.193130
    22  C   -0.511519
    23  H    0.203707
    24  H    0.171624
    25  C   -0.741280
    26  H    0.216615
    27  H    0.263603
    28  H    0.151179
    29  C    1.305648
    30  C   -0.655275
    31  H    0.162055
    32  H    0.247306
    33  C    0.167635
    34  H    0.338091
    35  C    0.739511
    36  C   -0.352712
    37  H    0.247364
    38  C   -0.492622
    39  H    0.235933
    40  C    0.954339
    41  C   -0.877945
    42  H    0.223469
    43  C   -0.832656
    44  H    0.193125
    45  C   -0.511517
    46  H    0.203707
    47  H    0.171624
    48  C   -0.741280
    49  H    0.216616
    50  H    0.263603
    51  H    0.151179
 Sum of Mulliken charges =  -0.00000
 Mulliken charges with hydrogens summed into heavy atoms:
               1
     1  O   -0.159378
     2  C   -0.876113
     3  C    1.305647
     4  C   -0.245833
     7  C   -1.678976
    10  C    0.505727
    12  C    0.739492
    13  C   -0.105341
    15  C   -0.256689
    17  C    0.954335
    18  C   -0.654468
    20  C   -0.639532
    22  C   -0.136188
    25  C   -0.109882
    29  C    1.305648
    30  C   -0.245914
    33  C    0.505726
    35  C    0.739511
    36  C   -0.105348
    38  C   -0.256689
    40  C    0.954339
    41  C   -0.654477
    43  C   -0.639530
    45  C   -0.136186
    48  C   -0.109882
 Electronic spatial extent (au):  <R**2>=          18409.0817
 Charge=             -0.0000 electrons
 Dipole moment (field-independent basis, Debye):
    X=             -0.0000    Y=             -3.5990    Z=              2.0836  Tot=              4.1587
 Quadrupole moment (field-independent basis, Debye-Ang):
   XX=           -110.3852   YY=           -144.6109   ZZ=           -156.2742
   XY=              0.0000   XZ=             -0.0000   YZ=              5.3647
 Traceless Quadrupole moment (field-independent basis, Debye-Ang):
   XX=             26.7049   YY=             -7.5208   ZZ=            -19.1841
   XY=              0.0000   XZ=             -0.0000   YZ=              5.3647
 Octapole moment (field-independent basis, Debye-Ang**2):
  XXX=             -0.0002  YYY=            -12.7302  ZZZ=              2.0965  XYY=             -0.0003
  XXY=            -48.6250  XXZ=             62.1457  XZZ=             -0.0003  YZZ=             -5.3032
  YYZ=             16.1968  XYZ=              0.0001
 Hexadecapole moment (field-independent basis, Debye-Ang**3):
 XXXX=         -20765.5354 YYYY=          -1413.1844 ZZZZ=           -446.1250 XXXY=              0.0003
 XXXZ=             -0.0001 YYYX=              0.0008 YYYZ=             22.7377 ZZZX=             -0.0005
 ZZZY=             -8.2864 XXYY=          -3822.4716 XXZZ=          -4253.5877 YYZZ=           -326.1081
 XXYZ=             -8.5141 YYXZ=             -0.0003 ZZXY=              0.0003
 N-N= 1.914603060083D+03 E-N=-6.163969068419D+03  KE= 1.004959474404D+03
 R6APFD:  NTU= -4 IXU= 1 FactS= 1.050
 Calling FoFJK, ICntrl=      2127 FMM=F ISym2X=0 I1Cent= 0 IOpClX= 0 NMat=1 NMatS=1 NMatT=0.
 ***** Axes restored to original set *****
 -------------------------------------------------------------------
 Center     Atomic                   Forces (Hartrees/Bohr)
 Number     Number              X              Y              Z
 -------------------------------------------------------------------
      1        8          -0.000000055   -0.005366978   -0.008806458
      2        6          -0.000000052    0.006461559    0.017323697
      3        6          -0.000689894   -0.001075307   -0.004615007
      4        6          -0.094067886   -0.011380704    0.084622563
      5        1           0.104934836   -0.066394344   -0.026297565
      6        1           0.001572081    0.082793410   -0.062140013
      7        6           0.000004335    0.094235512    0.035390108
      8        1          -0.000000154   -0.026067793   -0.089797658
      9        1          -0.000000170   -0.078009954    0.054239282
     10        6           0.012582890   -0.029031717   -0.129768038
     11        1          -0.018974589    0.030875647    0.138883609
     12        6           0.006107940   -0.003017315   -0.000313589
     13        6           0.031027176    0.043681420   -0.124157769
     14        1          -0.042678895   -0.041395908    0.127997195
     15        6          -0.079773563    0.050419711   -0.085173217
     16        1           0.091273534   -0.055597474    0.092790800
     17        6           0.006947424    0.002399403   -0.018592573
     18        6          -0.042049335   -0.046438376    0.119935667
     19        1           0.043765088    0.046856957   -0.125626614
     20        6           0.084754857   -0.054014988    0.086562906
     21        1          -0.090552690    0.056225716   -0.092242590
     22        6          -0.271096805   -0.027609122   -0.458913007
     23        1          -0.014154055   -0.036779017    0.014307214
     24        1           0.303442064    0.044362835    0.416525598
     25        6          -0.037806903    0.049871956    0.062453001
     26        1          -0.038235409    0.003719269   -0.013139169
     27        1           0.043263179   -0.005917190    0.018668341
     28        1           0.005874191   -0.028180271   -0.025942144
     29        6           0.000689142   -0.001075578   -0.004614755
     30        6           0.094152233   -0.011320715    0.084641875
     31        1          -0.105022184   -0.066454119   -0.026316980
     32        1          -0.001572660    0.082792491   -0.062139887
     33        6          -0.012582663   -0.029031910   -0.129768324
     34        1           0.018974605    0.030875655    0.138883636
     35        6          -0.006108243   -0.003017390   -0.000313718
     36        6          -0.031027052    0.043681455   -0.124157795
     37        1           0.042678889   -0.041395907    0.127997199
     38        6           0.079773486    0.050419724   -0.085173294
     39        1          -0.091273536   -0.055597471    0.092790799
     40        6          -0.006947455    0.002399368   -0.018592477
     41        6           0.042049459   -0.046438358    0.119935662
     42        1          -0.043765090    0.046856964   -0.125626614
     43        6          -0.084754657   -0.054015136    0.086562955
     44        1           0.090552851    0.056225531   -0.092242682
     45        6           0.271096802   -0.027609126   -0.458913011
     46        1           0.014154053   -0.036779018    0.014307214
     47        1          -0.303442064    0.044362836    0.416525597
     48        6           0.037806903    0.049871957    0.062453003
     49        1           0.038235409    0.003719269   -0.013139170
     50        1          -0.043263178   -0.005917190    0.018668341
     51        1          -0.005874191   -0.028180271   -0.025942144
 -------------------------------------------------------------------
 Cartesian Forces:  Max     0.458913011 RMS     0.103122359

 GradGradGradGradGradGradGradGradGradGradGradGradGradGradGradGradGradGrad
 Berny optimization.
 FormGI is forming the generalized inverse of G from B-inverse, IUseBI=4.
 Internal  Forces:  Max     0.517150130 RMS     0.054704835
 Search for a local minimum.
 Step number   1 out of a maximum of  288
 All quantities printed in internal units (Hartrees-Bohrs-Radians)
 Mixed Optimization -- RFO/linear search
 Second derivative matrix not updated -- first step.
 ITU=  0
     Eigenvalues ---    0.00230   0.00230   0.00590   0.00590   0.00697
     Eigenvalues ---    0.00718   0.00772   0.00777   0.01208   0.01238
     Eigenvalues ---    0.01238   0.01276   0.01537   0.01537   0.01845
     Eigenvalues ---    0.01845   0.02033   0.02033   0.02108   0.02108
     Eigenvalues ---    0.02184   0.02184   0.02193   0.02193   0.02204
     Eigenvalues ---    0.02204   0.02208   0.02208   0.02257   0.02257
     Eigenvalues ---    0.02295   0.02295   0.02827   0.02827   0.03149
     Eigenvalues ---    0.03149   0.03512   0.03580   0.04778   0.04822
     Eigenvalues ---    0.04822   0.05218   0.05366   0.05366   0.05570
     Eigenvalues ---    0.05570   0.05852   0.06301   0.07681   0.07940
     Eigenvalues ---    0.09050   0.09054   0.09458   0.09458   0.10327
     Eigenvalues ---    0.12045   0.13554   0.13554   0.16000   0.16000
     Eigenvalues ---    0.16000   0.16000   0.16000   0.16000   0.16000
     Eigenvalues ---    0.16000   0.16000   0.16000   0.16000   0.16000
     Eigenvalues ---    0.16000   0.16000   0.16000   0.16000   0.18299
     Eigenvalues ---    0.19372   0.21190   0.21190   0.21823   0.21823
     Eigenvalues ---    0.21999   0.21999   0.22000   0.22000   0.22947
     Eigenvalues ---    0.22947   0.23987   0.23987   0.24718   0.24933
     Eigenvalues ---    0.24933   0.24984   0.24991   0.24998   0.25000
     Eigenvalues ---    0.25000   0.27906   0.27906   0.28820   0.29163
     Eigenvalues ---    0.30130   0.31022   0.31022   0.31203   0.31748
     Eigenvalues ---    0.32276   0.36432   0.36432   0.36767   0.36767
     Eigenvalues ---    0.38091   0.38091   0.39403   0.39403   0.42059
     Eigenvalues ---    0.42059   0.42907   0.42907   0.45851   0.45851
     Eigenvalues ---    0.46834   0.46834   0.47223   0.47223   0.48602
     Eigenvalues ---    0.48602   0.49452   0.49528   0.50770   0.50770
     Eigenvalues ---    0.54880   0.54897   0.56272   0.56272   0.57655
     Eigenvalues ---    0.57655   0.57677   0.57677   0.57699   0.57699
     Eigenvalues ---    0.57701   0.57701   0.57738   0.57738   0.94045
     Eigenvalues ---    1.18412   1.18412
 RFO step:  Lambda=-5.75162993D-01 EMin= 2.30000000D-03
 Linear search not attempted -- first point.
 Maximum step size (   0.300) exceeded in Quadratic search.
    -- Step size scaled by   0.463
 Iteration  1 RMS(Cart)=  0.02582748 RMS(Int)=  0.00022947
 Iteration  2 RMS(Cart)=  0.00022892 RMS(Int)=  0.00001673
 Iteration  3 RMS(Cart)=  0.00000012 RMS(Int)=  0.00001673
 Variable       Old X    -DE/DX   Delta X   Delta X   Delta X     New X
                                 (Linear)    (Quad)   (Total)
    R1        2.31123  -0.01022   0.00000  -0.00312  -0.00312   2.30810
    R2        2.83382  -0.00019   0.00000  -0.00013  -0.00013   2.83369
    R3        2.83382  -0.00019   0.00000  -0.00013  -0.00013   2.83369
    R4        2.85625   0.00358   0.00000   0.00187   0.00187   2.85812
    R5        2.54018  -0.00290   0.00000  -0.00118  -0.00118   2.53901
    R6        1.81939   0.12681   0.00000   0.05222   0.05222   1.87161
    R7        1.85796   0.10347   0.00000   0.04422   0.04422   1.90219
    R8        2.87946   0.00932   0.00000   0.00496   0.00496   2.88442
    R9        1.87122   0.09351   0.00000   0.04046   0.04046   1.91168
   R10        1.87045   0.09501   0.00000   0.04108   0.04108   1.91153
   R11        2.87946   0.00932   0.00000   0.00496   0.00496   2.88442
   R12        1.79508   0.14353   0.00000   0.05766   0.05766   1.85273
   R13        2.76711   0.00166   0.00000   0.00082   0.00082   2.76793
   R14        2.65533  -0.00085   0.00000  -0.00040  -0.00040   2.65492
   R15        2.63540   0.00541   0.00000   0.00235   0.00235   2.63775
   R16        1.79546   0.14113   0.00000   0.05671   0.05671   1.85217
   R17        2.60741   0.00878   0.00000   0.00384   0.00384   2.61125
   R18        1.79528   0.14153   0.00000   0.05687   0.05687   1.85214
   R19        2.62665   0.00830   0.00000   0.00372   0.00372   2.63036
   R20        2.63100   0.00433   0.00000   0.00194   0.00194   2.63294
   R21        2.85970  -0.01171   0.00000  -0.00612  -0.00612   2.85358
   R22        1.79476   0.14104   0.00000   0.05664   0.05664   1.85140
   R23        2.62654   0.00317   0.00000   0.00136   0.00136   2.62790
   R24        1.79509   0.14094   0.00000   0.05662   0.05662   1.85171
   R25        2.02899   0.01983   0.00000   0.00973   0.00973   2.03873
   R26        1.48758   0.51715   0.00000   0.13605   0.13605   1.62363
   R27        3.10016  -0.03289   0.00000  -0.01934  -0.01934   3.08081
   R28        2.00933   0.02678   0.00000   0.01296   0.01296   2.02230
   R29        1.99073   0.03369   0.00000   0.01609   0.01609   2.00682
   R30        2.19044  -0.03443   0.00000  -0.01866  -0.01866   2.17178
   R31        2.85625   0.00358   0.00000   0.00187   0.00187   2.85812
   R32        2.54018  -0.00290   0.00000  -0.00118  -0.00118   2.53901
   R33        1.81924   0.12692   0.00000   0.05225   0.05225   1.87149
   R34        1.85796   0.10346   0.00000   0.04422   0.04422   1.90219
   R35        1.79508   0.14353   0.00000   0.05766   0.05766   1.85273
   R36        2.76711   0.00166   0.00000   0.00082   0.00082   2.76793
   R37        2.65533  -0.00085   0.00000  -0.00040  -0.00040   2.65492
   R38        2.63540   0.00541   0.00000   0.00235   0.00235   2.63775
   R39        1.79546   0.14113   0.00000   0.05671   0.05671   1.85217
   R40        2.60741   0.00878   0.00000   0.00384   0.00384   2.61125
   R41        1.79528   0.14153   0.00000   0.05687   0.05687   1.85214
   R42        2.62665   0.00830   0.00000   0.00372   0.00372   2.63036
   R43        2.63100   0.00433   0.00000   0.00194   0.00194   2.63294
   R44        2.85970  -0.01171   0.00000  -0.00612  -0.00612   2.85358
   R45        1.79476   0.14104   0.00000   0.05664   0.05664   1.85140
   R46        2.62654   0.00317   0.00000   0.00136   0.00136   2.62790
   R47        1.79509   0.14094   0.00000   0.05662   0.05662   1.85171
   R48        2.02899   0.01983   0.00000   0.00973   0.00973   2.03873
   R49        1.48758   0.51715   0.00000   0.13605   0.13605   1.62363
   R50        3.10016  -0.03289   0.00000  -0.01934  -0.01934   3.08081
   R51        2.00933   0.02678   0.00000   0.01296   0.01296   2.02230
   R52        1.99073   0.03369   0.00000   0.01609   0.01609   2.00682
   R53        2.19044  -0.03443   0.00000  -0.01866  -0.01866   2.17178
    A1        2.09991   0.00199   0.00000   0.00115   0.00115   2.10106
    A2        2.09991   0.00199   0.00000   0.00115   0.00115   2.10106
    A3        2.08329  -0.00397   0.00000  -0.00230  -0.00230   2.08099
    A4        2.06696   0.00569   0.00000   0.00317   0.00317   2.07013
    A5        2.04004  -0.00273   0.00000  -0.00152  -0.00152   2.03852
    A6        2.17582  -0.00296   0.00000  -0.00165  -0.00165   2.17417
    A7        1.88634   0.00132   0.00000   0.00075   0.00075   1.88709
    A8        1.90540   0.00154   0.00000   0.00091   0.00091   1.90631
    A9        1.94024  -0.00415   0.00000  -0.00227  -0.00227   1.93796
   A10        1.93456  -0.00309   0.00000  -0.00208  -0.00208   1.93248
   A11        1.90841   0.00251   0.00000   0.00160   0.00160   1.91001
   A12        1.88929   0.00176   0.00000   0.00103   0.00103   1.89033
   A13        1.91265   0.00003   0.00000  -0.00001  -0.00001   1.91264
   A14        1.91334   0.00004   0.00000   0.00003   0.00003   1.91337
   A15        1.92426  -0.00027   0.00000  -0.00016  -0.00016   1.92411
   A16        1.88720   0.00016   0.00000   0.00013   0.00013   1.88733
   A17        1.91265   0.00003   0.00000  -0.00001  -0.00001   1.91264
   A18        1.91334   0.00004   0.00000   0.00003   0.00003   1.91337
   A19        2.01647   0.00619   0.00000   0.00362   0.00362   2.02009
   A20        2.25021  -0.01173   0.00000  -0.00682  -0.00682   2.24338
   A21        2.01651   0.00553   0.00000   0.00321   0.00321   2.01971
   A22        2.08267  -0.00216   0.00000  -0.00118  -0.00118   2.08149
   A23        2.14642  -0.00343   0.00000  -0.00189  -0.00189   2.14453
   A24        2.05199   0.00563   0.00000   0.00310   0.00310   2.05508
   A25        2.08629   0.00027   0.00000   0.00010   0.00010   2.08639
   A26        2.11082  -0.00179   0.00000  -0.00099  -0.00099   2.10983
   A27        2.08607   0.00152   0.00000   0.00089   0.00089   2.08696
   A28        2.08273   0.00176   0.00000   0.00094   0.00094   2.08367
   A29        2.11792  -0.00409   0.00000  -0.00223  -0.00223   2.11568
   A30        2.08254   0.00233   0.00000   0.00130   0.00130   2.08384
   A31        2.06116   0.00418   0.00000   0.00247   0.00247   2.06364
   A32        2.09773  -0.00511   0.00000  -0.00293  -0.00293   2.09479
   A33        2.12428   0.00094   0.00000   0.00046   0.00046   2.12474
   A34        2.08662   0.00111   0.00000   0.00064   0.00064   2.08726
   A35        2.10981  -0.00195   0.00000  -0.00112  -0.00112   2.10870
   A36        2.08676   0.00084   0.00000   0.00047   0.00047   2.08723
   A37        2.11399  -0.00197   0.00000  -0.00123  -0.00123   2.11276
   A38        2.08431   0.00103   0.00000   0.00064   0.00064   2.08495
   A39        2.08488   0.00095   0.00000   0.00059   0.00059   2.08547
   A40        2.03371  -0.01931   0.00000  -0.01281  -0.01271   2.02100
   A41        1.93217   0.01581   0.00000   0.00886   0.00883   1.94100
   A42        2.06950  -0.02643   0.00000  -0.01507  -0.01509   2.05441
   A43        1.89947  -0.00597   0.00000  -0.00339  -0.00341   1.89606
   A44        1.50462   0.04022   0.00000   0.02646   0.02646   1.53108
   A45        1.98550  -0.00198   0.00000  -0.00219  -0.00220   1.98330
   A46        1.98257  -0.01553   0.00000  -0.00958  -0.00958   1.97299
   A47        2.08760  -0.03135   0.00000  -0.01954  -0.01952   2.06808
   A48        1.81545   0.02737   0.00000   0.01684   0.01689   1.83234
   A49        1.58701   0.03156   0.00000   0.02058   0.02055   1.60757
   A50        2.02785  -0.01288   0.00000  -0.00849  -0.00846   2.01939
   A51        1.97132  -0.00445   0.00000  -0.00306  -0.00300   1.96832
   A52        2.06696   0.00569   0.00000   0.00317   0.00317   2.07013
   A53        2.04004  -0.00273   0.00000  -0.00152  -0.00152   2.03852
   A54        2.17582  -0.00296   0.00000  -0.00165  -0.00165   2.17417
   A55        1.94024  -0.00415   0.00000  -0.00227  -0.00227   1.93796
   A56        1.90835   0.00252   0.00000   0.00160   0.00160   1.90995
   A57        1.88929   0.00176   0.00000   0.00103   0.00103   1.89033
   A58        1.88637   0.00131   0.00000   0.00074   0.00074   1.88711
   A59        1.90540   0.00154   0.00000   0.00091   0.00091   1.90631
   A60        1.93459  -0.00309   0.00000  -0.00208  -0.00208   1.93251
   A61        2.01647   0.00619   0.00000   0.00362   0.00362   2.02009
   A62        2.25021  -0.01173   0.00000  -0.00683  -0.00683   2.24338
   A63        2.01651   0.00553   0.00000   0.00321   0.00321   2.01971
   A64        2.08267  -0.00216   0.00000  -0.00117  -0.00117   2.08149
   A65        2.14642  -0.00343   0.00000  -0.00189  -0.00189   2.14453
   A66        2.05199   0.00563   0.00000   0.00310   0.00310   2.05508
   A67        2.08629   0.00027   0.00000   0.00010   0.00010   2.08639
   A68        2.11082  -0.00179   0.00000  -0.00099  -0.00099   2.10983
   A69        2.08607   0.00152   0.00000   0.00089   0.00089   2.08696
   A70        2.08273   0.00176   0.00000   0.00094   0.00094   2.08367
   A71        2.11792  -0.00409   0.00000  -0.00223  -0.00223   2.11568
   A72        2.08254   0.00233   0.00000   0.00130   0.00130   2.08384
   A73        2.06116   0.00418   0.00000   0.00247   0.00247   2.06364
   A74        2.09773  -0.00511   0.00000  -0.00293  -0.00293   2.09479
   A75        2.12428   0.00094   0.00000   0.00046   0.00046   2.12474
   A76        2.08662   0.00111   0.00000   0.00064   0.00064   2.08726
   A77        2.10981  -0.00195   0.00000  -0.00112  -0.00112   2.10870
   A78        2.08676   0.00084   0.00000   0.00047   0.00047   2.08723
   A79        2.11399  -0.00197   0.00000  -0.00123  -0.00123   2.11276
   A80        2.08431   0.00103   0.00000   0.00064   0.00064   2.08495
   A81        2.08488   0.00095   0.00000   0.00059   0.00059   2.08547
   A82        2.03371  -0.01931   0.00000  -0.01281  -0.01271   2.02100
   A83        1.93217   0.01581   0.00000   0.00886   0.00883   1.94100
   A84        2.06950  -0.02643   0.00000  -0.01507  -0.01509   2.05441
   A85        1.89947  -0.00597   0.00000  -0.00339  -0.00341   1.89606
   A86        1.50462   0.04022   0.00000   0.02646   0.02646   1.53108
   A87        1.98550  -0.00198   0.00000  -0.00219  -0.00220   1.98330
   A88        1.98257  -0.01553   0.00000  -0.00958  -0.00958   1.97299
   A89        2.08760  -0.03135   0.00000  -0.01954  -0.01952   2.06808
   A90        1.81545   0.02737   0.00000   0.01684   0.01689   1.83234
   A91        1.58701   0.03156   0.00000   0.02058   0.02055   1.60757
   A92        2.02785  -0.01288   0.00000  -0.00849  -0.00846   2.01939
   A93        1.97132  -0.00445   0.00000  -0.00306  -0.00300   1.96832
    D1       -3.00079  -0.00078   0.00000  -0.00062  -0.00062  -3.00141
    D2        0.16821  -0.00059   0.00000  -0.00047  -0.00047   0.16774
    D3        0.12751  -0.00026   0.00000  -0.00016  -0.00016   0.12735
    D4       -2.98667  -0.00007   0.00000  -0.00001  -0.00001  -2.98668
    D5        3.00079   0.00078   0.00000   0.00062   0.00062   3.00141
    D6       -0.16821   0.00059   0.00000   0.00047   0.00047  -0.16774
    D7       -0.12751   0.00026   0.00000   0.00016   0.00016  -0.12735
    D8        2.98667   0.00007   0.00000   0.00001   0.00001   2.98668
    D9       -2.67680  -0.00156   0.00000  -0.00116  -0.00116  -2.67796
   D10        1.50070   0.00049   0.00000   0.00038   0.00038   1.50107
   D11       -0.58235  -0.00013   0.00000  -0.00008  -0.00008  -0.58243
   D12        0.43507  -0.00175   0.00000  -0.00131  -0.00131   0.43376
   D13       -1.67062   0.00030   0.00000   0.00022   0.00022  -1.67040
   D14        2.52952  -0.00031   0.00000  -0.00023  -0.00023   2.52929
   D15        0.06619  -0.00142   0.00000  -0.00110  -0.00110   0.06508
   D16       -3.07516  -0.00180   0.00000  -0.00140  -0.00140  -3.07657
   D17       -3.04610  -0.00137   0.00000  -0.00103  -0.00103  -3.04712
   D18        0.09574  -0.00175   0.00000  -0.00133  -0.00133   0.09441
   D19       -3.12994  -0.00014   0.00000  -0.00010  -0.00010  -3.13005
   D20       -1.06132   0.00009   0.00000   0.00006   0.00006  -1.06125
   D21        1.04661  -0.00001   0.00000   0.00002   0.00002   1.04663
   D22       -1.04863   0.00054   0.00000   0.00044   0.00044  -1.04819
   D23        1.02000   0.00077   0.00000   0.00061   0.00061   1.02060
   D24        3.12792   0.00066   0.00000   0.00056   0.00056   3.12848
   D25        1.06060  -0.00066   0.00000  -0.00051  -0.00051   1.06010
   D26        3.12923  -0.00043   0.00000  -0.00034  -0.00034   3.12889
   D27       -1.04603  -0.00053   0.00000  -0.00039  -0.00039  -1.04642
   D28       -1.04661   0.00001   0.00000  -0.00002  -0.00002  -1.04663
   D29       -3.12792  -0.00066   0.00000  -0.00056  -0.00056  -3.12848
   D30        1.04603   0.00053   0.00000   0.00039   0.00039   1.04642
   D31        3.12994   0.00014   0.00000   0.00010   0.00010   3.13005
   D32        1.04863  -0.00054   0.00000  -0.00044  -0.00044   1.04819
   D33       -1.06060   0.00066   0.00000   0.00051   0.00051  -1.06010
   D34        1.06132  -0.00009   0.00000  -0.00006  -0.00006   1.06125
   D35       -1.02000  -0.00076   0.00000  -0.00061  -0.00060  -1.02060
   D36       -3.12923   0.00043   0.00000   0.00034   0.00034  -3.12889
   D37       -2.57091  -0.00047   0.00000  -0.00040  -0.00040  -2.57131
   D38        0.64231  -0.00143   0.00000  -0.00110  -0.00110   0.64121
   D39        0.57093  -0.00086   0.00000  -0.00070  -0.00070   0.57023
   D40       -2.49904  -0.00182   0.00000  -0.00140  -0.00140  -2.50044
   D41        0.03769  -0.00039   0.00000  -0.00032  -0.00033   0.03736
   D42       -3.10386  -0.00056   0.00000  -0.00046  -0.00046  -3.10431
   D43        3.11151   0.00017   0.00000   0.00014   0.00014   3.11165
   D44       -0.03004  -0.00000   0.00000   0.00001   0.00001  -0.03003
   D45        3.07830   0.00087   0.00000   0.00068   0.00068   3.07898
   D46       -0.06324   0.00149   0.00000   0.00117   0.00117  -0.06208
   D47        0.00715   0.00021   0.00000   0.00015   0.00015   0.00730
   D48       -3.13439   0.00084   0.00000   0.00064   0.00064  -3.13375
   D49       -3.11941  -0.00024   0.00000  -0.00018  -0.00018  -3.11959
   D50        0.02224  -0.00010   0.00000  -0.00008  -0.00008   0.02216
   D51        0.02223  -0.00040   0.00000  -0.00031  -0.00031   0.02192
   D52       -3.11931  -0.00026   0.00000  -0.00021  -0.00021  -3.11952
   D53        0.00916  -0.00011   0.00000  -0.00008  -0.00008   0.00908
   D54       -3.12678  -0.00062   0.00000  -0.00048  -0.00048  -3.12726
   D55       -3.13238   0.00003   0.00000   0.00003   0.00003  -3.13236
   D56        0.01486  -0.00048   0.00000  -0.00038  -0.00037   0.01449
   D57        3.10911  -0.00015   0.00000  -0.00012  -0.00012   3.10899
   D58       -0.03208   0.00033   0.00000   0.00026   0.00026  -0.03183
   D59       -0.03823   0.00035   0.00000   0.00027   0.00027  -0.03795
   D60        3.10376   0.00083   0.00000   0.00065   0.00065   3.10441
   D61        1.64138  -0.01060   0.00000  -0.00758  -0.00760   1.63378
   D62       -0.54118  -0.00050   0.00000  -0.00025  -0.00027  -0.54144
   D63       -2.88224   0.01266   0.00000   0.00907   0.00910  -2.87314
   D64       -1.49435  -0.01114   0.00000  -0.00800  -0.00802  -1.50237
   D65        2.60628  -0.00104   0.00000  -0.00067  -0.00069   2.60560
   D66        0.26522   0.01212   0.00000   0.00865   0.00868   0.27389
   D67        0.02412  -0.00040   0.00000  -0.00031  -0.00031   0.02382
   D68       -3.11752  -0.00103   0.00000  -0.00079  -0.00079  -3.11831
   D69       -3.11707   0.00009   0.00000   0.00007   0.00007  -3.11700
   D70        0.02447  -0.00054   0.00000  -0.00042  -0.00042   0.02405
   D71       -1.09284   0.00491   0.00000   0.00323   0.00330  -1.08954
   D72       -2.93554  -0.00597   0.00000  -0.00481  -0.00479  -2.94032
   D73        1.12819  -0.00124   0.00000  -0.00129  -0.00123   1.12696
   D74        0.97123   0.00021   0.00000   0.00051   0.00049   0.97171
   D75       -0.87147  -0.01067   0.00000  -0.00753  -0.00760  -0.87907
   D76       -3.09093  -0.00594   0.00000  -0.00401  -0.00404  -3.09497
   D77        2.87228   0.01130   0.00000   0.00833   0.00834   2.88062
   D78        1.02958   0.00043   0.00000   0.00029   0.00026   1.02984
   D79       -1.18988   0.00516   0.00000   0.00382   0.00382  -1.18606
   D80        0.58235   0.00013   0.00000   0.00008   0.00008   0.58243
   D81        2.67675   0.00157   0.00000   0.00116   0.00116   2.67790
   D82       -1.50070  -0.00049   0.00000  -0.00038  -0.00038  -1.50107
   D83       -2.52952   0.00031   0.00000   0.00023   0.00023  -2.52929
   D84       -0.43512   0.00175   0.00000   0.00131   0.00131  -0.43381
   D85        1.67062  -0.00030   0.00000  -0.00022  -0.00022   1.67040
[...]
 -0.00104186,-0.00062885,-0.00080345,-0.00094123,0.00039961,-0.00018471
 ,0.00018403,-0.00005799,0.00009807,-0.00002072,-0.00009260,-0.00003220
 ,0.01178207,-0.09977527,0.04620931,0.00930262,-0.01187732,0.03144400,-
 0.00411392,0.00558314,-0.01149812,0.01173343,0.55207556,0.00005228,0.0
 0001069,0.00005906,-0.00018095,-0.00000113,-0.00009363,0.00004417,-0.0
 0001084,0.00001744,0.00000328,-0.00000223,0.00000431,0.00000240,-0.000
 00075,-0.00000197,-0.00000185,0.00000253,0.00000022,-0.00001391,0.0000
 0372,-0.00000388,0.00001266,-0.00000305,-0.00001281,-0.00000201,0.0000
 0315,0.00000493,-0.00001367,-0.00000009,-0.00001454,-0.00000535,0.0000
 0302,-0.00000155,0.00000037,-0.00000331,-0.00000208,0.00000120,0.00000
 087,-0.00000474,-0.00000120,0.00000045,-0.00000042,0.00000215,0.000001
 03,-0.00000317,0.00000122,-0.00000026,0.00000046,-0.00000110,0.0000025
 3,-0.00000002,0.00000386,-0.00000340,0.00000094,0.00000085,0.00000053,
 -0.00000094,0.00000202,-0.00000066,0.00000513,-0.00000089,0.00000046,0
 .00000147,-0.00000029,-0.00000102,0.00000124,0.00000130,-0.00000036,-0
 .00000076,0.00000123,0.00000033,-0.00000087,0.00000142,-0.00000037,0.0
 0000073,-0.00000070,0.00000012,-0.00000010,0.00000102,0.00000003,-0.00
 000041,-0.00000054,-0.00000007,0.00000003,0.00020202,0.00003940,0.0000
 3873,0.00002409,0.00002140,0.00001682,-0.00001269,-0.00001522,0.000013
 66,0.00000177,-0.00000167,-0.00002313,-0.00015230,-0.00006240,-0.00006
 066,0.00001103,-0.00002157,-0.00000195,0.00013719,-0.00000526,0.000347
 98,0.00034709,0.00033767,-0.00005105,0.00005009,-0.00006066,0.00001606
 ,0.00005004,0.00030822,0.00087932,0.00014978,-0.00014531,0.00002249,-0
 .00707383,0.00158889,-0.00721645,0.00124912,-0.00027359,0.00037017,0.0
 0025534,0.00027759,0.00019280,0.00006414,0.00026868,-0.00061189,0.0001
 1759,-0.00002494,-0.00001111,-0.02612419,0.04558347,-0.17869324,-0.000
 05825,0.00045000,-0.00084639,-0.00766886,0.01127152,-0.02274676,-0.018
 54608,0.02978117,0.49846693,0.00005483,0.00000932,0.00004471,-0.000157
 53,-0.00000678,-0.00005774,0.00005129,-0.00000613,0.00000805,0.0000039
 5,-0.00000776,0.00000256,0.00000581,0.00000028,-0.00000075,-0.00000344
 ,0.00000248,0.00000119,-0.00001139,0.00000940,0.00000332,0.00000559,-0
 .00000127,-0.00000722,0.00000119,-0.00000043,0.00000331,-0.00001946,0.
 00000156,-0.00001031,-0.00000369,0.00000270,-0.00000079,0.00000095,-0.
 00000131,-0.00000095,0.00000145,0.00000042,-0.00000647,-0.00000181,0.0
 0000054,-0.00000063,0.00000352,0.00000196,-0.00000427,0.00000183,-0.00
 000061,0.00000083,-0.00000317,0.00000184,-0.00000089,0.00000532,-0.000
 00478,0.00000265,0.00000049,0.00000054,-0.00000142,0.00000189,0.000001
 29,0.00000518,-0.00000172,-0.00000135,0.00000203,-0.00000039,-0.000001
 10,0.00000239,0.00000182,-0.00000061,-0.00000135,0.00000204,0.00000065
 ,-0.00000094,0.00000202,-0.00000076,0.00000070,-0.00000119,0.00000040,
 0.00000019,0.00000200,-0.00000009,-0.00000064,-0.00000108,-0.00000008,
 0.00000006,0.00013566,0.00001592,0.00001897,0.00000188,0.00000160,0.00
 000406,-0.00000295,0.00000479,0.00000437,-0.00000494,-0.00000372,-0.00
 001023,-0.00009328,-0.00003239,-0.00001236,0.00000734,-0.00000881,-0.0
 0000016,0.00002449,-0.00001715,0.00023024,0.00016042,0.00004442,0.0000
 4064,0.00002888,-0.00000742,0.00001170,-0.00003952,0.00023546,-0.00006
 703,0.00000956,-0.00003448,0.00004609,0.00065946,-0.00046928,0.0001738
 0,-0.00013956,-0.00024931,-0.00006496,-0.00117478,-0.00104445,-0.00087
 526,-0.00017169,0.00008235,-0.00011469,0.00003461,-0.00003563,-0.00002
 702,0.00506476,-0.00470451,-0.00682000,0.00014035,-0.00030691,0.000755
 23,0.00016179,0.00041868,-0.00211926,-0.12227099,0.05816629,0.10491902
 ,0.13075036,0.00002147,0.00000564,0.00002322,-0.00005122,-0.00000336,-
 0.00002166,0.00001950,-0.00000231,-0.00000058,0.00000173,-0.00000263,-
 0.00000071,0.00000308,0.00000045,0.00000013,-0.00000273,-0.00000101,0.
 00000154,-0.00000422,0.00000464,0.00000239,0.00000067,0.00000229,-0.00
 000100,0.00000328,-0.00000301,0.00000307,-0.00000835,0.00000089,-0.000
 00192,-0.00000049,0.00000110,0.00000005,0.00000041,-0.00000086,0.00000
 010,0.00000058,0.00000012,-0.00000331,-0.00000088,0.00000006,0.0000000
 2,0.00000183,0.00000107,-0.00000146,0.00000110,-0.00000047,0.00000041,
 -0.00000181,0.00000076,-0.00000022,0.00000273,-0.00000174,0.00000168,-
 0.00000042,0.00000004,-0.00000061,-0.00000002,0.00000153,0.00000144,-0
 .00000057,-0.00000129,0.00000063,-0.00000016,-0.00000046,0.00000087,0.
 00000078,-0.00000049,-0.00000071,0.00000106,0.00000040,-0.00000012,0.0
 0000066,-0.00000043,0.00000011,-0.00000040,0.00000052,0.00000031,0.000
 00100,-0.00000009,-0.00000033,-0.00000060,-0.00000023,-0.00000011,0.00
 003304,-0.00000366,0.00000015,0.00000397,0.00000058,-0.00000378,-0.000
 00051,0.00001437,-0.00000145,-0.00000913,-0.00000948,0.00000150,-0.000
 02580,-0.00001199,0.00003057,0.00000889,0.00000066,0.00000458,0.000114
 07,0.00003436,-0.00008951,-0.00006707,-0.00002323,-0.00000468,-0.00001
 532,0.00000473,0.00001075,-0.00009533,-0.00026791,0.00006602,-0.000018
 53,0.00002462,0.00001867,0.00007701,0.00018018,-0.00065094,0.00020783,
 0.00047121,-0.00075687,-0.00064546,-0.00053294,-0.00021523,0.00005596,
 -0.00014265,0.00036144,-0.00001420,0.00001862,-0.00000920,-0.00882026,
 0.00598661,0.01131707,-0.00069679,0.00056595,-0.00037110,0.00087459,-0
 .00039493,0.00311546,0.05762638,-0.09060426,-0.07963302,-0.06284502,0.
 09436840,0.00001121,0.00000496,0.00001906,-0.00002020,-0.00000055,-0.0
 0000876,0.00000994,0.00000129,-0.00000464,-0.00000064,-0.00000355,-0.0
 0000094,0.00000213,0.00000048,0.00000049,-0.00000094,0.00000048,0.0000
 0125,-0.00000103,0.00000389,0.00000478,-0.00000364,0.00000071,0.000003
 78,0.00000063,-0.00000165,-0.00000169,-0.00000592,0.00000157,0.0000014
 5,0.00000076,-0.00000033,0.00000041,-0.00000004,-0.00000028,0.00000051
 ,0.00000061,0.00000101,-0.00000197,-0.00000068,-0.00000040,-0.00000026
 ,0.00000118,0.00000075,-0.00000097,0.00000069,-0.00000057,0.00000015,-
 0.00000133,0.00000075,0.00000005,0.00000164,-0.00000105,0.00000163,-0.
 00000039,-0.00000030,-0.00000052,0.00000021,0.00000164,0.00000080,-0.0
 0000067,-0.00000168,0.00000043,-0.00000027,-0.00000057,0.00000061,0.00
 000038,-0.00000021,-0.00000064,0.00000086,0.00000031,0.00000002,0.0000
 0040,-0.00000046,-0.00000010,-0.00000019,0.00000031,0.00000040,0.00000
 074,-0.00000015,-0.00000026,-0.00000049,0.00000003,-0.00000004,-0.0000
 0474,0.00000378,-0.00000431,-0.00002153,-0.00001367,-0.00001081,0.0000
 0710,0.00000756,-0.00000549,-0.00000133,-0.00000234,0.00000481,0.00001
 271,-0.00003524,0.00004796,0.00000822,0.00000377,0.00000011,-0.0000605
 8,-0.00017697,0.00020322,0.00031389,0.00006695,0.00011852,-0.00000091,
 -0.00003301,-0.00002595,-0.00047220,0.00035128,-0.00025249,0.00005390,
 -0.00014376,0.00015301,0.00137802,-0.00026484,0.00117729,-0.00003314,0
 .00047115,-0.00013511,-0.00069383,-0.00077361,0.00000339,-0.00037066,-
 0.00012731,0.00019563,-0.00004034,-0.00000372,-0.00002021,0.01615194,-
 0.01217078,-0.02247084,0.00021150,0.00020805,0.00087755,-0.00225434,0.
 00315166,-0.00445103,0.10425773,-0.07887614,-0.18896737,-0.11388147,0.
 08447061,0.20852350,-0.00009846,-0.00001926,-0.00008083,0.00026838,0.0
 0001789,0.00009728,-0.00009326,0.00000622,-0.00000997,-0.00000682,0.00
 001511,-0.00000320,-0.00001047,-0.00000049,0.00000096,0.00000634,-0.00
 000431,-0.00000307,0.00001859,-0.00001783,-0.00000398,-0.00000919,0.00
 000207,0.00000982,-0.00000199,0.00000132,-0.00000477,0.00003666,-0.000
 00312,0.00001608,0.00000584,-0.00000452,0.00000119,-0.00000193,0.00000
 189,0.00000079,-0.00000281,-0.00000041,0.00001290,0.00000365,-0.000000
 38,0.00000128,-0.00000689,-0.00000501,0.00000724,-0.00000362,0.0000015
 9,-0.00000144,0.00000656,-0.00000312,0.00000162,-0.00001049,0.00000762
 ,-0.00000588,-0.00000032,-0.00000045,0.00000286,-0.00000342,-0.0000028
 8,-0.00000883,0.00000332,0.00000362,-0.00000346,0.00000092,0.00000245,
 -0.00000426,-0.00000326,0.00000123,0.00000283,-0.00000408,-0.00000136,
 0.00000135,-0.00000349,0.00000163,-0.00000102,0.00000200,-0.00000100,-
 0.00000074,-0.00000393,0.00000032,0.00000130,0.00000222,0.00000009,-0.
 00000002,-0.00020998,-0.00002317,-0.00002955,-0.00000473,0.00000835,0.
 00000094,0.00000423,-0.00001462,-0.00000992,0.00000970,0.00000830,0.00
 001256,0.00014754,0.00003723,-0.00000001,-0.00001285,0.00001384,-0.000
 00318,-0.00008195,0.00003169,-0.00011498,-0.00010391,0.00005117,-0.000
 17355,-0.00004969,0.00000787,-0.00001505,-0.00040673,-0.00021263,0.000
 06860,0.00000793,0.00000211,-0.00002720,0.00129864,0.00074282,-0.00104
 918,0.00003414,-0.00024467,0.00028454,0.00014625,0.00030856,-0.0002745
 1,0.00013805,0.00008847,-0.00013907,-0.00001064,-0.00001844,0.00000934
 ,-0.00595860,-0.00134994,0.00010451,-0.00000175,0.00050889,-0.00014256
 ,0.00040299,-0.00008723,-0.00041295,-0.29779610,-0.04525455,-0.0479104
 7,-0.01513585,-0.00358086,-0.00362840,0.32070509,-0.00000350,-0.000000
 14,0.00000017,0.00000089,-0.00000030,-0.00000418,-0.00000285,-0.000000
 49,0.00000188,-0.00000019,0.00000025,0.00000093,-0.00000050,0.00000011
 ,-0.00000036,0.00000046,-0.00000006,-0.00000065,0.00000013,0.00000097,
 -0.00000309,0.00000042,-0.00000024,-0.00000064,-0.00000053,0.00000079,
 0.00000049,0.00000197,-0.00000098,-0.00000046,-0.00000027,0.00000003,0
 .,0.00000020,0.00000061,-0.00000053,-0.00000022,0.00000019,0.00000083,
 0.00000028,0.00000021,0.00000021,-0.00000057,-0.00000061,0.00000018,-0
 .00000016,0.00000024,-0.00000002,0.00000048,-0.00000061,-0.00000037,-0
 .00000058,0.00000018,-0.00000054,0.00000011,0.00000010,0.00000018,-0.0
 0000009,-0.00000012,-0.00000014,0.00000030,0.00000049,-0.00000013,0.00
 000026,0.00000040,-0.00000007,-0.00000016,0.00000003,0.00000024,-0.000
 00032,-0.00000011,0.,-0.00000012,0.00000020,0.00000003,0.00000009,-0.0
 0000009,-0.00000015,-0.00000032,0.00000009,0.00000011,0.00000021,-0.00
 000007,0.,0.00001336,0.00000498,0.00000555,-0.00000146,-0.00000071,0.0
 0000515,-0.00000193,-0.00000363,-0.00000107,0.00000276,0.00000178,-0.0
 0000147,-0.00000006,-0.00001012,-0.00004441,-0.00001044,-0.00000197,0.
 00000012,-0.00003674,-0.00000165,-0.00004266,-0.00002918,-0.00016926,0
 .00017965,0.00008050,-0.00003549,0.00000415,0.00077508,0.00044406,0.00
 019172,-0.00002305,0.00003001,0.00002057,-0.00017390,-0.00087030,0.002
 74713,-0.00043529,-0.00002009,0.00054006,0.00009486,-0.00018467,-0.000
 49896,0.00005588,0.00021850,-0.00014162,0.00001330,0.00002048,0.000020
 08,0.01454046,0.00151733,0.00223292,0.00035579,0.00010633,-0.00051989,
 -0.00046612,0.00033929,-0.00051513,-0.04601645,-0.05445953,-0.00911841
 ,0.01336767,0.00173649,0.00327475,0.04894709,0.05540354,-0.00004382,-0
 .00001008,-0.00003990,0.00012792,0.00000869,0.00005550,-0.00003999,0.0
 0000448,-0.00000784,-0.00000241,0.00000527,-0.00000262,-0.00000335,-0.
 00000010,0.00000108,0.00000188,-0.00000224,-0.00000058,0.00000850,-0.0
 0000694,0.00000199,-0.00000656,0.00000218,0.00000617,0.00000136,-0.000
 00151,-0.00000273,0.00001390,-0.00000151,0.00000911,0.00000324,-0.0000
 0198,0.00000073,-0.00000066,0.00000224,0.00000051,-0.00000115,-0.00000
 039,0.00000502,0.00000140,-0.00000010,0.00000052,-0.00000249,-0.000001
 81,0.00000294,-0.00000137,0.00000062,-0.00000050,0.00000197,-0.0000018
 0,0.00000018,-0.00000407,0.00000292,-0.00000201,-0.00000033,-0.0000001
 3,0.00000111,-0.00000168,-0.00000059,-0.00000420,0.00000123,0.00000117
 ,-0.00000119,0.00000029,0.00000101,-0.00000129,-0.00000121,0.00000039,
 0.00000105,-0.00000152,-0.00000046,0.00000053,-0.00000129,0.00000070,-
 0.00000041,0.00000064,-0.00000033,-0.00000026,-0.00000130,0.00000011,0
 .00000054,0.00000077,-0.00000002,-0.00000002,-0.00011741,-0.00001455,-
 0.00001807,-0.00001200,-0.00000235,-0.00000631,0.00000598,0.00000087,-
 0.00000977,0.00000040,0.00000022,0.00001295,0.00008153,-0.00001511,0.0
 0004167,0.00000168,0.00001255,0.00000479,0.00005192,-0.00001382,-0.000
 00779,0.00003628,0.00017808,-0.00049042,-0.00014614,-0.00004272,-0.000
 06643,-0.00184144,-0.00030798,0.00001729,0.00002038,0.00004035,-0.0000
 0871,0.00069623,0.00323442,-0.00516530,0.00066018,0.00063888,-0.000511
 47,0.00014403,-0.00039114,0.00033418,-0.00011376,-0.00010846,0.0003265
 4,-0.00004667,0.00000438,-0.00000340,-0.02997838,-0.00615837,-0.005595
 63,0.00027238,0.00013745,0.00106046,0.00019496,-0.00091075,0.00051166,
 -0.04651347,-0.00870387,-0.05448494,0.02287267,0.00555964,0.00485619,0
 .05356952,0.00712618,0.06044812,0.00005791,0.00001219,0.00005139,-0.00
 015857,-0.00001019,-0.00006160,0.00005361,-0.00000501,0.00000652,0.000
 00351,-0.00000793,0.00000192,0.00000566,0.00000024,-0.00000061,-0.0000
 0417,0.00000212,0.00000249,-0.00001121,0.00000736,0.00000433,0.0000060
 3,-0.00000061,-0.00000611,0.00000278,-0.00000161,0.00000261,-0.0000211
 1,0.00000206,-0.00000989,-0.00000324,0.00000266,-0.00000067,0.00000124
 ,-0.00000091,-0.00000012,0.00000152,0.00000046,-0.00000738,-0.00000211
 ,0.00000007,-0.00000069,0.00000402,0.00000280,-0.00000426,0.00000208,-
 0.00000100,0.00000078,-0.00000386,0.00000178,-0.00000082,0.00000625,-0
 .00000412,0.00000369,0.00000010,0.00000013,-0.00000167,0.00000158,0.00
 000163,0.00000478,-0.00000204,-0.00000238,0.00000173,-0.00000055,-0.00
 000130,0.00000237,0.00000183,-0.00000071,-0.00000165,0.00000238,0.0000
 0073,-0.00000071,0.00000201,-0.00000099,0.00000054,-0.00000108,0.00000
 060,0.00000049,0.00000222,-0.00000021,-0.00000077,-0.00000133,-0.00000
 002,0.,0.00012380,0.00001434,0.00001744,0.00000353,0.00000339,-0.00000
 624,-0.00000058,0.00000821,0.00000592,-0.00000820,-0.00000704,-0.00000
 691,-0.00009596,-0.00002197,0.00002474,0.00001238,-0.00001003,0.000003
 87,0.00007518,-0.00009841,0.00018658,0.00020777,0.00003062,0.00004954,
 0.00001403,0.00000939,0.00002020,-0.00010162,-0.00010891,-0.00023811,0
 .00000712,-0.00002172,0.00009207,0.00068142,0.00049606,0.00057872,-0.0
 0004019,0.00025823,-0.00030061,-0.00195517,0.00069326,0.00023170,-0.00
 018349,-0.00018838,0.00000387,-0.00000819,0.00004566,0.00000755,0.0006
 6167,0.00875624,0.00060185,0.00004284,0.00080202,-0.00161884,0.0000467
 6,-0.00059846,0.00038099,-0.05183668,-0.03838660,0.00005938,0.00191288
 ,0.01784456,-0.00092652,-0.00321183,-0.03104758,0.00011120,0.05370707,
 0.00000157,0.00000721,0.00001000,-0.00001864,-0.00000675,-0.00001642,0
 .00000302,-0.00000012,0.00000221,-0.00000148,-0.00000135,0.00000225,-0
 .00000094,-0.00000022,-0.00000045,0.00000141,0.00000223,-0.00000123,0.
 00000075,-0.00000076,-0.00000366,-0.00000002,-0.00000207,0.00000079,-0
 .00000388,0.00000355,-0.00000246,-0.00000049,0.00000148,-0.00000110,-0
 .00000049,-0.00000107,0.,0.00000025,0.00000063,0.00000005,0.00000013,0
 .00000037,0.00000035,-0.00000012,-0.00000046,-0.00000052,-0.00000002,0
 .00000051,-0.00000012,-0.00000035,-0.00000021,-0.00000023,0.00000041,0
 .00000001,-0.00000014,-0.00000031,0.00000038,-0.00000012,0.00000039,-0
 .00000038,-0.00000031,0.00000131,-0.00000027,0.00000115,-0.00000042,-0
 .00000040,-0.00000029,0.,-0.00000033,0.00000003,-0.00000016,0.00000038
 ,-0.00000005,0.00000002,-0.00000012,0.,0.00000003,-0.00000024,-0.00000
 007,0.00000008,-0.00000023,0.00000003,-0.00000009,-0.00000007,-0.00000
 002,0.00000002,0.00000044,0.00000011,0.00004045,0.00001059,0.00000505,
 -0.00000402,-0.00000124,0.00000887,-0.00000150,-0.00001117,0.00000211,
 0.00000679,0.00000573,-0.00000862,-0.00002562,0.00001361,-0.00005983,-
 0.00000858,-0.00001080,0.00000159,0.00004317,-0.00000972,-0.00010041,-
 0.00016226,0.00000778,-0.00004281,0.00002952,-0.00001390,0.00000450,0.
 00038189,0.00007972,0.00022679,-0.00001354,0.00001886,-0.00013299,-0.0
 0088336,0.00013106,-0.00046984,-0.00029554,-0.00002664,0.00072790,0.00
 045990,0.00011926,-0.00039428,0.00015434,0.00025276,-0.00032277,0.0000
 4335,0.00001833,0.00003093,-0.00159735,-0.01203347,0.00039711,0.000604
 52,0.00069292,0.00258929,-0.00007849,0.00048882,0.00035935,-0.03765726
 ,-0.30414852,-0.00056788,-0.00257843,-0.01141684,0.00060539,0.00003080
 ,-0.00406646,-0.00026369,0.04152924,0.32989721,0.00000272,-0.00000212,
 -0.00000229,-0.00000780,-0.00000137,0.00000164,0.00000254,0.00000017,0
 .00000085,-0.00000042,-0.00000023,0.00000137,-0.00000012,-0.00000010,-
 0.00000045,0.00000018,0.00000066,-0.00000029,-0.00000085,-0.00000050,-
 0.00000197,-0.00000025,-0.00000112,0.00000022,-0.00000078,0.00000078,-
 0.00000059,-0.00000085,0.00000051,-0.00000064,-0.00000030,0.00000025,-
 0.00000007,-0.00000015,0.00000014,-0.00000005,-0.00000006,-0.00000007,
 -0.00000024,-0.00000003,0.00000015,-0.00000010,0.00000005,-0.00000007,
 -0.00000032,-0.00000003,0.00000004,-0.00000002,-0.00000007,0.00000011,
 -0.00000011,0.,-0.00000020,0.00000003,0.00000024,-0.00000001,-0.000000
 07,0.00000041,-0.00000010,0.00000044,-0.00000026,-0.00000010,0.0000001
 0,-0.00000005,0.00000006,0.00000020,0.,0.00000003,-0.00000004,0.000000
 02,-0.00000001,-0.00000007,0.00000011,-0.00000010,0.00000003,-0.000000
 06,-0.00000011,-0.00000004,0.00000002,0.,-0.00000002,0.,0.00000011,0.0
 0000010,0.00000084,0.00000262,0.00000474,-0.00000799,0.00000015,-0.000
 00192,0.00000247,-0.00000446,-0.00000070,0.00000251,0.00000292,-0.0000
 0225,0.00000006,0.00000480,0.00001256,-0.00000122,0.,-0.00000354,-0.00
 011477,-0.00015352,0.00024668,0.00030840,0.00003103,0.00004794,0.00000
 014,0.00003900,0.00000835,-0.00006336,-0.00020242,-0.00054725,0.000018
 15,0.00002558,0.00013608,0.00091857,-0.00034680,0.00124111,-0.00008968
 ,-0.00039370,0.00036920,-0.00025167,0.00008154,0.00014902,-0.00029137,
 -0.00000706,-0.00023081,-0.00001818,0.00001695,0.00001296,0.00489823,0
 .03156011,-0.00001341,-0.00198843,0.00242088,-0.00537459,0.00067601,-0
 .00028327,0.00101289,0.00048473,-0.00152340,-0.04660410,-0.00506713,-0
 .02322392,0.00016738,-0.00014546,-0.00545832,-0.00126908,0.00073493,-0
 .00258554,0.05064112\\-0.00000010,-0.00000362,-0.00000046,-0.00000004,
 -0.00000089,0.00000365,0.00000010,-0.00000224,0.00000066,-0.00000011,0
 .00000236,-0.00000124,-0.00000016,0.00000104,-0.00000044,0.00000004,0.
 00000117,0.00000127,0.00000002,0.00000174,-0.00000024,0.00000002,0.000
 00314,-0.00000215,-0.00000001,0.00000057,-0.00000262,-0.00000071,-0.00
 000333,-0.00000214,0.00000031,-0.00000245,0.00000133,0.00000252,-0.000
 00389,0.00000676,-0.00000671,0.00000079,-0.00000331,0.00000084,-0.0000
 0435,0.00000016,0.00000484,0.00000008,-0.00000666,0.00000006,-0.000003
 46,-0.00000038,0.00000147,-0.00000391,0.00000571,-0.00000552,0.0000025
 7,-0.00000022,0.00000068,0.00000252,0.00000122,0.00000435,0.00000190,-
 0.00000318,-0.00000047,0.00000074,0.00000154,-0.00000042,0.00000246,-0
 .00000060,0.00000012,0.00000035,-0.00000172,-0.00000072,-0.00000196,0.
 00000026,-0.00000043,0.00000113,0.00000152,0.00000030,0.00000309,-0.00
 000109,0.00000003,0.00000206,0.00000012,-0.00000047,0.00000286,0.00000
 127,0.00000006,-0.00000210,0.00000060,0.00000040,0.00000204,-0.0000012
 0,0.00000041,0.00000089,-0.00000049,0.,0.00000119,0.00000127,0.0000005
 8,-0.00000316,-0.00000201,-0.00000028,-0.00000262,0.00000133,-0.000002
 46,-0.00000395,0.00000686,0.00000669,0.00000085,-0.00000332,-0.0000008
 2,-0.00000436,0.00000015,-0.00000487,0.00000025,-0.00000660,-0.0000000
 6,-0.00000346,-0.00000038,-0.00000146,-0.00000393,0.00000577,0.0000055
 7,0.00000257,-0.00000023,-0.00000072,0.00000270,0.00000133,-0.00000460
 ,0.00000199,-0.00000332,0.00000014,0.00000091,0.00000167,0.00000047,0.
 00000232,-0.00000062,-0.00000013,0.00000031,-0.00000177,0.00000075,-0.
 00000201,0.00000025,0.00000036,0.00000117,0.00000149,-0.00000057,0.000
 00296,-0.00000112,-0.00000004,0.00000207,0.00000011,0.00000076,0.00000
 291,0.00000123\\\@


 TOM, TOM, THE BURGLAR'S SON
 STOLE A MACHINE AND AWAY HE RUN
 THE JOB WAS NEAT, BUT TOM GOT BEAT
 BY THE TIME HE GOT HOME IT WAS OBSOLETE.
 Job cpu time:       1 days 20 hours 40 minutes 28.1 seconds.
 Elapsed time:       0 days  2 hours 48 minutes 16.4 seconds.
 File lengths (MBytes):  RWF=   2204 Int=      0 D2E=      0 Chk=     44 Scr=      1
 Normal termination of Gaussian 16 at Sat Sep 20 00:16:51 2025.
