 Entering Gaussian System, Link 0=g16
 Input=EGEL0041.gjf
 Output=EGEL0041.log
 Initial command:
 /usr/local/g16/l1.exe "/dados_01/scratch/Gau-2470552.inp" -scrdir="/dados_01/scratch/"
 Entering Link 1 = /usr/local/g16/l1.exe PID=   2470553.
  
 Copyright (c) 1988-2017, Gaussian, Inc.  All Rights Reserved.
  
 This is part of the Gaussian(R) 16 program.  It is based on
 the Gaussian(R) 09 system (copyright 2009, Gaussian, Inc.),
 the Gaussian(R) 03 system (copyright 2003, Gaussian, Inc.),
 the Gaussian(R) 98 system (copyright 1998, Gaussian, Inc.),
 the Gaussian(R) 94 system (copyright 1995, Gaussian, Inc.),
 the Gaussian 92(TM) system (copyright 1992, Gaussian, Inc.),
 the Gaussian 90(TM) system (copyright 1990, Gaussian, Inc.),
 the Gaussian 88(TM) system (copyright 1988, Gaussian, Inc.),
 the Gaussian 86(TM) system (copyright 1986, Carnegie Mellon
 University), and the Gaussian 82(TM) system (copyright 1983,
 Carnegie Mellon University). Gaussian is a federally registered
 trademark of Gaussian, Inc.
  
 This software contains proprietary and confidential information,
 including trade secrets, belonging to Gaussian, Inc.
  
 This software is provided under written license and may be
 used, copied, transmitted, or stored only in accord with that
 written license.
  
 The following legend is applicable only to US Government
 contracts under FAR:
  
                    RESTRICTED RIGHTS LEGEND
  
 Use, reproduction and disclosure by the US Government is
 subject to restrictions as set forth in subparagraphs (a)
 and (c) of the Commercial Computer Software - Restricted
 Rights clause in FAR 52.227-19.
  
 Gaussian, Inc.
 340 Quinnipiac St., Bldg. 40, Wallingford CT 06492
  
  
 ---------------------------------------------------------------
 Warning -- This program may not be used in any manner that
 competes with the business of Gaussian, Inc. or will provide
 assistance to any competitor of Gaussian, Inc.  The licensee
 of this program is prohibited from giving any competitor of
 Gaussian, Inc. access to this program.  By using this program,
 the user acknowledges that Gaussian, Inc. is engaged in the
 business of creating and licensing software in the field of
 computational chemistry and represents and warrants to the
 licensee that it is not a competitor of Gaussian, Inc. and that
 it will not use this program in any manner prohibited above.
 ---------------------------------------------------------------
  

 Cite this work as:
 Gaussian 16, Revision B.01,
 M. J. Frisch, G. W. Trucks, H. B. Schlegel, G. E. Scuseria, 
 M. A. Robb, J. R. Cheeseman, G. Scalmani, V. Barone, 
 G. A. Petersson, H. Nakatsuji, X. Li, M. Caricato, A. V. Marenich, 
 J. Bloino, B. G. Janesko, R. Gomperts, B. Mennucci, H. P. Hratchian, 
 J. V. Ortiz, A. F. Izmaylov, J. L. Sonnenberg, D. Williams-Young, 
 F. Ding, F. Lipparini, F. Egidi, J. Goings, B. Peng, A. Petrone, 
 T. Henderson, D. Ranasinghe, V. G. Zakrzewski, J. Gao, N. Rega, 
 G. Zheng, W. Liang, M. Hada, M. Ehara, K. Toyota, R. Fukuda, 
 J. Hasegawa, M. Ishida, T. Nakajima, Y. Honda, O. Kitao, H. Nakai, 
 T. Vreven, K. Throssell, J. A. Montgomery, Jr., J. E. Peralta, 
 F. Ogliaro, M. J. Bearpark, J. J. Heyd, E. N. Brothers, K. N. Kudin, 
 V. N. Staroverov, T. A. Keith, R. Kobayashi, J. Normand, 
 K. Raghavachari, A. P. Rendell, J. C. Burant, S. S. Iyengar, 
 J. Tomasi, M. Cossi, J. M. Millam, M. Klene, C. Adamo, R. Cammi, 
 J. W. Ochterski, R. L. Martin, K. Morokuma, O. Farkas, 
 J. B. Foresman, and D. J. Fox, Gaussian, Inc., Wallingford CT, 2016.
 
 ******************************************
 Gaussian 16:  ES64L-G16RevB.01 20-Dec-2017
                 6-Oct-2025 
 ******************************************
 %nprocs=16
 Will use up to   16 processors via shared memory.
 %mem=40GB
 %chk=EGEL0041.chk
 ----------------------------------------------------------------------
 # opt freq=noraman M08HX/6-311++G** scf=xqc Empiricaldispersion=pfd In
 t(Grid=ultraFine)
 ----------------------------------------------------------------------
 1/18=20,19=15,26=4,38=1/1,3;
 2/9=110,12=2,17=6,18=5,40=1/2;
 3/5=4,6=6,7=1111,11=2,25=1,30=1,71=1,74=-74,75=-5,124=11/1,2,3;
 4//1;
 5/5=2,8=3,13=1,38=5/2,8;
 6/7=2,8=2,9=2,10=2,28=1/1;
 7//1,2,3,16;
 1/18=20,19=15,26=4/3(2);
 2/9=110/2;
 99//99;
 2/9=110/2;
 3/5=4,6=6,7=1111,11=2,25=1,30=1,71=1,74=-74,75=-5,124=11/1,2,3;
 4/5=5,16=3,69=1/1;
 5/5=2,8=3,13=1,38=5/2,8;
 7//1,2,3,16;
 1/18=20,19=15,26=4/3(-5);
 2/9=110/2;
 6/7=2,8=2,9=2,10=2,19=2,28=1/1;
 99/9=1/99;
 --------
 EGEL0041
 --------
 Symbolic Z-matrix:
 Charge =  0 Multiplicity = 1
 O                     2.0666    1.4819    0.5333 
 O                     3.0579   -0.9369   -0.4101 
 C                    -0.9919   -0.5156    0.4023 
 C                    -2.4471   -0.3684    0.6927 
 C                    -0.1282    0.5611    0.6039 
 C                     1.233     0.4237    0.3316 
 C                    -0.4943   -1.7296   -0.0715 
 C                     1.7303   -0.7904   -0.1421 
 C                     0.8666   -1.867    -0.3438 
 C                    -3.2408    0.1086   -0.496 
 C                     2.2644    2.37     -0.5652 
 C                    -3.9163    1.2627   -0.5351 
 H                    -2.86     -1.3313    1.0209 
 H                    -2.5849    0.3063    1.5481 
 H                    -0.5103    1.5101    0.9727 
 H                    -1.1567   -2.5758   -0.2342 
 H                     1.2408   -2.8182   -0.7126 
 H                    -3.2737   -0.5407   -1.3677 
 H                     1.3175    2.8354   -0.8569 
 H                     2.7003    1.8386   -1.4172 
 H                     2.9576    3.1548   -0.2508 
 H                     3.2185   -1.8416   -0.729 
 H                    -4.4748    1.5427   -1.4215 
 H                    -3.9234    1.9441    0.3084 
 

 GradGradGradGradGradGradGradGradGradGradGradGradGradGradGradGradGradGrad
 Berny optimization.
 Initialization pass.
                           ----------------------------
                           !    Initial Parameters    !
                           ! (Angstroms and Degrees)  !
 --------------------------                            --------------------------
 ! Name  Definition              Value          Derivative Info.                !
 --------------------------------------------------------------------------------
 ! R1    R(1,6)                  1.3621         estimate D2E/DX2                !
 ! R2    R(1,11)                 1.4264         estimate D2E/DX2                !
 ! R3    R(2,8)                  1.3623         estimate D2E/DX2                !
 ! R4    R(2,22)                 0.9726         estimate D2E/DX2                !
 ! R5    R(3,4)                  1.4912         estimate D2E/DX2                !
 ! R6    R(3,5)                  1.395          estimate D2E/DX2                !
 ! R7    R(3,7)                  1.395          estimate D2E/DX2                !
 ! R8    R(4,10)                 1.5068         estimate D2E/DX2                !
 ! R9    R(4,13)                 1.0979         estimate D2E/DX2                !
 ! R10   R(4,14)                 1.0981         estimate D2E/DX2                !
 ! R11   R(5,6)                  1.395          estimate D2E/DX2                !
 ! R12   R(5,15)                 1.0875         estimate D2E/DX2                !
 ! R13   R(6,8)                  1.3949         estimate D2E/DX2                !
 ! R14   R(7,9)                  1.3947         estimate D2E/DX2                !
 ! R15   R(7,16)                 1.0869         estimate D2E/DX2                !
 ! R16   R(8,9)                  1.3949         estimate D2E/DX2                !
 ! R17   R(9,17)                 1.0867         estimate D2E/DX2                !
 ! R18   R(10,12)                1.3378         estimate D2E/DX2                !
 ! R19   R(10,18)                1.0874         estimate D2E/DX2                !
 ! R20   R(11,19)                1.0947         estimate D2E/DX2                !
 ! R21   R(11,20)                1.0947         estimate D2E/DX2                !
 ! R22   R(11,21)                1.0933         estimate D2E/DX2                !
 ! R23   R(12,23)                1.0844         estimate D2E/DX2                !
 ! R24   R(12,24)                1.0844         estimate D2E/DX2                !
 ! A1    A(6,1,11)             117.0349         estimate D2E/DX2                !
 ! A2    A(8,2,22)             108.9931         estimate D2E/DX2                !
 ! A3    A(4,3,5)              119.9923         estimate D2E/DX2                !
 ! A4    A(4,3,7)              120.0108         estimate D2E/DX2                !
 ! A5    A(5,3,7)              119.9968         estimate D2E/DX2                !
 ! A6    A(3,4,10)             113.0572         estimate D2E/DX2                !
 ! A7    A(3,4,13)             109.7946         estimate D2E/DX2                !
 ! A8    A(3,4,14)             109.5606         estimate D2E/DX2                !
 ! A9    A(10,4,13)            108.3828         estimate D2E/DX2                !
 ! A10   A(10,4,14)            110.7265         estimate D2E/DX2                !
 ! A11   A(13,4,14)            104.9992         estimate D2E/DX2                !
 ! A12   A(3,5,6)              119.9961         estimate D2E/DX2                !
 ! A13   A(3,5,15)             120.3331         estimate D2E/DX2                !
 ! A14   A(6,5,15)             119.6708         estimate D2E/DX2                !
 ! A15   A(1,6,5)              119.456          estimate D2E/DX2                !
 ! A16   A(1,6,8)              120.55           estimate D2E/DX2                !
 ! A17   A(5,6,8)              119.994          estimate D2E/DX2                !
 ! A18   A(3,7,9)              120.0089         estimate D2E/DX2                !
 ! A19   A(3,7,16)             120.7312         estimate D2E/DX2                !
 ! A20   A(9,7,16)             119.2598         estimate D2E/DX2                !
 ! A21   A(2,8,6)              120.5206         estimate D2E/DX2                !
 ! A22   A(2,8,9)              119.4705         estimate D2E/DX2                !
 ! A23   A(6,8,9)              120.0089         estimate D2E/DX2                !
 ! A24   A(7,9,8)              119.9953         estimate D2E/DX2                !
 ! A25   A(7,9,17)             119.2437         estimate D2E/DX2                !
 ! A26   A(8,9,17)             120.761          estimate D2E/DX2                !
 ! A27   A(4,10,12)            124.2017         estimate D2E/DX2                !
 ! A28   A(4,10,18)            117.3415         estimate D2E/DX2                !
 ! A29   A(12,10,18)           118.4496         estimate D2E/DX2                !
 ! A30   A(1,11,19)            110.4859         estimate D2E/DX2                !
 ! A31   A(1,11,20)            110.6329         estimate D2E/DX2                !
 ! A32   A(1,11,21)            108.2642         estimate D2E/DX2                !
 ! A33   A(19,11,20)           110.0863         estimate D2E/DX2                !
 ! A34   A(19,11,21)           108.6569         estimate D2E/DX2                !
 ! A35   A(20,11,21)           108.6514         estimate D2E/DX2                !
 ! A36   A(10,12,23)           120.4421         estimate D2E/DX2                !
 ! A37   A(10,12,24)           121.5109         estimate D2E/DX2                !
 ! A38   A(23,12,24)           118.047          estimate D2E/DX2                !
 ! D1    D(11,1,6,5)           -90.0595         estimate D2E/DX2                !
 ! D2    D(11,1,6,8)            89.994          estimate D2E/DX2                !
 ! D3    D(6,1,11,19)           61.5407         estimate D2E/DX2                !
 ! D4    D(6,1,11,20)          -60.6284         estimate D2E/DX2                !
 ! D5    D(6,1,11,21)         -179.5834         estimate D2E/DX2                !
 ! D6    D(22,2,8,6)          -179.9507         estimate D2E/DX2                !
 ! D7    D(22,2,8,9)             0.1089         estimate D2E/DX2                !
 ! D8    D(5,3,4,10)            90.002          estimate D2E/DX2                !
 ! D9    D(5,3,4,13)          -148.8355         estimate D2E/DX2                !
 ! D10   D(5,3,4,14)           -34.0144         estimate D2E/DX2                !
 ! D11   D(7,3,4,10)           -89.9682         estimate D2E/DX2                !
 ! D12   D(7,3,4,13)            31.1943         estimate D2E/DX2                !
 ! D13   D(7,3,4,14)           146.0154         estimate D2E/DX2                !
 ! D14   D(4,3,5,6)           -179.9665         estimate D2E/DX2                !
 ! D15   D(4,3,5,15)             0.0055         estimate D2E/DX2                !
 ! D16   D(7,3,5,6)              0.0038         estimate D2E/DX2                !
 ! D17   D(7,3,5,15)           179.9757         estimate D2E/DX2                !
 ! D18   D(4,3,7,9)            179.9642         estimate D2E/DX2                !
 ! D19   D(4,3,7,16)             0.0574         estimate D2E/DX2                !
 ! D20   D(5,3,7,9)             -0.006          estimate D2E/DX2                !
 ! D21   D(5,3,7,16)          -179.9129         estimate D2E/DX2                !
 ! D22   D(3,4,10,12)         -117.557          estimate D2E/DX2                !
 ! D23   D(3,4,10,18)           63.4437         estimate D2E/DX2                !
 ! D24   D(13,4,10,12)         120.4851         estimate D2E/DX2                !
 ! D25   D(13,4,10,18)         -58.5142         estimate D2E/DX2                !
 ! D26   D(14,4,10,12)           5.8181         estimate D2E/DX2                !
 ! D27   D(14,4,10,18)        -173.1812         estimate D2E/DX2                !
 ! D28   D(3,5,6,1)           -179.9543         estimate D2E/DX2                !
 ! D29   D(3,5,6,8)             -0.0074         estimate D2E/DX2                !
 ! D30   D(15,5,6,1)             0.0736         estimate D2E/DX2                !
 ! D31   D(15,5,6,8)          -179.9796         estimate D2E/DX2                !
 ! D32   D(1,6,8,2)              0.0195         estimate D2E/DX2                !
 ! D33   D(1,6,8,9)            179.9596         estimate D2E/DX2                !
 ! D34   D(5,6,8,2)           -179.9268         estimate D2E/DX2                !
 ! D35   D(5,6,8,9)              0.0133         estimate D2E/DX2                !
 ! D36   D(3,7,9,8)              0.0119         estimate D2E/DX2                !
 ! D37   D(3,7,9,17)          -179.989          estimate D2E/DX2                !
 ! D38   D(16,7,9,8)           179.9201         estimate D2E/DX2                !
 ! D39   D(16,7,9,17)           -0.0807         estimate D2E/DX2                !
 ! D40   D(2,8,9,7)            179.9252         estimate D2E/DX2                !
 ! D41   D(2,8,9,17)            -0.0739         estimate D2E/DX2                !
 ! D42   D(6,8,9,7)             -0.0156         estimate D2E/DX2                !
 ! D43   D(6,8,9,17)           179.9853         estimate D2E/DX2                !
 ! D44   D(4,10,12,23)        -179.5113         estimate D2E/DX2                !
 ! D45   D(4,10,12,24)           0.577          estimate D2E/DX2                !
 ! D46   D(18,10,12,23)         -0.5222         estimate D2E/DX2                !
 ! D47   D(18,10,12,24)        179.566          estimate D2E/DX2                !
 --------------------------------------------------------------------------------
 Trust Radius=3.00D-01 FncErr=1.00D-07 GrdErr=1.00D-06 EigMax=2.50D+02 EigMin=1.00D-04
 Number of steps in this run=    119 maximum allowed number of steps=    144.
 GradGradGradGradGradGradGradGradGradGradGradGradGradGradGradGradGradGrad

                          Input orientation:                          
 ---------------------------------------------------------------------
 Center     Atomic      Atomic             Coordinates (Angstroms)
 Number     Number       Type             X           Y           Z
 ---------------------------------------------------------------------
      1          8           0        2.066600    1.481900    0.533300
      2          8           0        3.057900   -0.936900   -0.410100
      3          6           0       -0.991900   -0.515600    0.402300
      4          6           0       -2.447100   -0.368400    0.692700
      5          6           0       -0.128200    0.561100    0.603900
      6          6           0        1.233000    0.423700    0.331600
      7          6           0       -0.494300   -1.729600   -0.071500
      8          6           0        1.730300   -0.790400   -0.142100
      9          6           0        0.866600   -1.867000   -0.343800
     10          6           0       -3.240800    0.108600   -0.496000
     11          6           0        2.264400    2.370000   -0.565200
     12          6           0       -3.916300    1.262700   -0.535100
     13          1           0       -2.860000   -1.331300    1.020900
     14          1           0       -2.584900    0.306300    1.548100
     15          1           0       -0.510300    1.510100    0.972700
     16          1           0       -1.156700   -2.575800   -0.234200
     17          1           0        1.240800   -2.818200   -0.712600
     18          1           0       -3.273700   -0.540700   -1.367700
     19          1           0        1.317500    2.835400   -0.856900
     20          1           0        2.700300    1.838600   -1.417200
     21          1           0        2.957600    3.154800   -0.250800
     22          1           0        3.218500   -1.841600   -0.729000
     23          1           0       -4.474800    1.542700   -1.421500
     24          1           0       -3.923400    1.944100    0.308400
 ---------------------------------------------------------------------
                    Distance matrix (angstroms):
                    1          2          3          4          5
     1  O    0.000000
     2  O    2.779078   0.000000
     3  C    3.655351   4.151911   0.000000
     4  C    4.880830   5.643083   1.491176   0.000000
     5  C    2.381177   3.663800   1.394956   2.499831   0.000000
     6  C    1.362116   2.394078   2.416084   3.781660   1.394952
     7  C    4.151834   3.655290   1.394951   2.500059   2.416092
     8  C    2.394287   1.362280   2.789670   4.280846   2.416007
     9  C    3.663937   2.381444   2.415982   3.781632   2.789880
    10  C    5.577984   6.385458   2.500824   1.506817   3.332089
    11  C    1.426376   3.404304   4.457155   5.592797   3.219231
    12  C    6.081498   7.313914   3.548688   2.515259   4.017370
    13  H    5.694140   6.101217   2.130218   1.097897   3.349298
    14  H    4.903907   6.100925   2.127446   1.098143   2.644203
    15  H    2.614246   4.542246   2.158878   2.712629   1.087481
    16  H    5.238669   4.525460   2.162571   2.719723   3.405931
    17  H    4.552480   2.632992   3.395573   4.645104   3.876468
    18  H    6.018597   6.415850   2.887930   2.226702   3.872382
    19  H    2.079848   4.178381   4.260060   5.180522   3.065359
    20  H    2.081649   2.974143   4.741854   5.984835   3.703682
    21  H    2.051168   4.096028   5.431107   6.520269   4.120674
    22  H    3.737101   0.972611   4.556927   6.024166   4.330126
    23  H    6.827507   7.994555   4.437729   3.497672   4.894764
    24  H    6.012014   7.586498   3.827876   2.770344   4.050130
                    6          7          8          9         10
     6  C    0.000000
     7  C    2.789759   0.000000
     8  C    1.394897   2.415766   0.000000
     9  C    2.416138   1.394659   1.394894   0.000000
    10  C    4.560603   3.332033   5.064117   4.560361   0.000000
    11  C    2.378260   4.965973   3.233018   4.467106   5.951970
    12  C    5.288703   4.569340   6.021110   5.719069   1.337825
    13  H    4.506419   2.636004   4.766130   4.004613   2.125866
    14  H    4.008742   3.337454   4.762403   4.496151   2.155837
    15  H    2.151829   3.403860   3.399319   3.877348   3.402486
    16  H    3.876570   1.086876   3.395719   2.146661   3.408521
    17  H    3.405926   2.146306   2.162650   1.086656   5.357034
    18  H    4.912029   3.289176   5.157951   4.466489   1.087444
    19  H    2.689976   4.973801   3.718571   4.751752   5.323888
    20  H    2.685742   4.974779   3.078704   4.271547   6.256051
    21  H    3.282125   5.983738   4.133120   5.440534   6.910834
    22  H    3.193535   3.772232   1.914213   2.383371   6.751305
    23  H    6.074908   5.326803   6.751554   6.427911   2.106169
    24  H    5.375929   5.039754   6.296409   6.155806   2.117088
                   11         12         13         14         15
    11  C    0.000000
    12  C    6.279178   0.000000
    13  H    6.517270   3.204020   0.000000
    14  H    5.678081   2.650858   1.742227   0.000000
    15  H    3.286872   3.733029   3.687407   2.466614   0.000000
    16  H    6.022825   4.737089   2.454646   3.677343   4.309179
    17  H    5.290265   6.578824   4.693874   5.432241   4.963947
    18  H    6.307672   2.087680   2.549825   3.113478   4.161686
    19  H    1.094671   5.474450   6.191852   5.235370   2.905978
    20  H    1.094668   6.699937   6.849053   6.250943   4.015904
    21  H    1.093291   7.135220   7.455654   6.486085   4.028439
    22  H    4.321425   7.783293   6.345921   6.593793   5.294679
    23  H    6.843573   1.084448   4.102776   3.730808   4.631470
    24  H    6.263660   1.084366   3.516635   2.451699   3.504126
                   16         17         18         19         20
    16  H    0.000000
    17  H    2.456752   0.000000
    18  H    3.147720   5.098713   0.000000
    19  H    5.982517   5.655961   5.721720   0.000000
    20  H    5.980206   4.930759   6.430567   1.794347   0.000000
    21  H    7.054610   6.231965   7.330299   1.777442   1.777379
    22  H    4.463883   2.205746   6.651988   5.050197   3.779686
    23  H    5.420471   7.224131   2.405430   5.961593   7.181200
    24  H    5.327151   7.098655   3.066864   5.442368   6.845599
                   21         22         23         24
    21  H    0.000000
    22  H    5.026008   0.000000
    23  H    7.694802   8.433262   0.000000
    24  H    7.009041   8.149507   1.859494   0.000000
 Stoichiometry    C10H12O2
 Framework group  C1[X(C10H12O2)]
 Deg. of freedom    66
 Full point group                 C1      NOp   1
 Largest Abelian subgroup         C1      NOp   1
 Largest concise Abelian subgroup C1      NOp   1
                         Standard orientation:                         
 ---------------------------------------------------------------------
 Center     Atomic      Atomic             Coordinates (Angstroms)
 Number     Number       Type             X           Y           Z
 ---------------------------------------------------------------------
      1          8           0       -2.030887    1.416659   -0.593238
      2          8           0       -3.026003   -1.009158    0.327864
      3          6           0        1.033911   -0.568019   -0.421042
      4          6           0        2.492741   -0.413695   -0.688638
      5          6           0        0.168726    0.505538   -0.632779
      6          6           0       -1.195880    0.361472   -0.381809
      7          6           0        0.534391   -1.785542    0.041566
      8          6           0       -1.695098   -0.856150    0.080703
      9          6           0       -0.829915   -1.929607    0.292541
     10          6           0        3.266026    0.063219    0.513476
     11          6           0       -2.249382    2.300660    0.504648
     12          6           0        3.935815    1.220099    0.566266
     13          1           0        2.914816   -1.373836   -1.013230
     14          1           0        2.640709    0.264109   -1.539876
     15          1           0        0.552303    1.457258   -0.992936
     16          1           0        1.197896   -2.629355    0.211981
     17          1           0       -1.205584   -2.883493    0.652812
     18          1           0        3.288375   -0.588498    1.383706
     19          1           0       -1.309104    2.769275    0.812191
     20          1           0       -2.695984    1.764879    1.348321
     21          1           0       -2.941088    3.083387    0.181901
     22          1           0       -3.187536   -1.915477    0.641655
     23          1           0        4.479426    1.499891    1.461939
     24          1           0        3.952888    1.904004   -0.275061
 ---------------------------------------------------------------------
 Rotational constants (GHZ):           1.5466887           0.5767254           0.4539001
 Standard basis: 6-311++G(d,p) (5D, 7F)
 There are   360 symmetry adapted cartesian basis functions of A   symmetry.
 There are   348 symmetry adapted basis functions of A   symmetry.
   348 basis functions,   540 primitive gaussians,   360 cartesian basis functions
    44 alpha electrons       44 beta electrons
       nuclear repulsion energy       670.1525830619 Hartrees.
 NAtoms=   24 NActive=   24 NUniq=   24 SFac= 1.00D+00 NAtFMM=   60 NAOKFM=F Big=F
 Integral buffers will be    131072 words long.
 Raffenetti 2 integral format.
 Two-electron integral symmetry is turned on.
 R6APFD:  NTU= -4 IXU= 1 FactS= 1.050
 Nuclear repulsion after empirical dispersion term =      670.1374920002 Hartrees.
 One-electron integrals computed using PRISM.
 NBasis=   348 RedAO= T EigKep=  2.26D-06  NBF=   348
 NBsUse=   347 1.00D-06 EigRej=  6.84D-07 NBFU=   347
 ExpMin= 3.60D-02 ExpMax= 8.59D+03 ExpMxC= 1.30D+03 IAcc=3 IRadAn=         5 AccDes= 0.00D+00
 Harris functional with IExCor= 1009 and IRadAn=       5 diagonalized for initial guess.
 HarFok:  IExCor= 1009 AccDes= 0.00D+00 IRadAn=         5 IDoV= 1 UseB2=F ITyADJ=14
 ICtDFT=  3500011 ScaDFX=  1.000000  1.000000  1.000000  1.000000
 FoFCou: FMM=F IPFlag=           0 FMFlag=      100000 FMFlg1=           0
         NFxFlg=           0 DoJE=T BraDBF=F KetDBF=T FulRan=T
         wScrn=  0.000000 ICntrl=       500 IOpCl=  0 I1Cent=   200000004 NGrid=           0
         NMat0=    1 NMatS0=      1 NMatT0=    0 NMatD0=    1 NMtDS0=    0 NMtDT0=    0
 Petite list used in FoFCou.
 Requested convergence on RMS density matrix=1.00D-08 within  32 cycles.
 Requested convergence on MAX density matrix=1.00D-06.
 Requested convergence on             energy=1.00D-06.
 No special actions if energy rises.
 SCF Done:  E(RM08HX) =  -538.685097827     A.U. after   15 cycles
            NFock= 15  Conv=0.55D-08     -V/T= 2.0046
 QCSCF skips out because SCF is already converged.

 **********************************************************************

            Population analysis using the SCF Density.

 **********************************************************************

 Orbital symmetries:
       Occupied  (A) (A) (A) (A) (A) (A) (A) (A) (A) (A) (A) (A)
                 (A) (A) (A) (A) (A) (A) (A) (A) (A) (A) (A) (A)
                 (A) (A) (A) (A) (A) (A) (A) (A) (A) (A) (A) (A)
                 (A) (A) (A) (A) (A) (A) (A) (A)
       Virtual   (A) (A) (A) (A) (A) (A) (A) (A) (A) (A) (A) (A)
                 (A) (A) (A) (A) (A) (A) (A) (A) (A) (A) (A) (A)
                 (A) (A) (A) (A) (A) (A) (A) (A) (A) (A) (A) (A)
                 (A) (A) (A) (A) (A) (A) (A) (A) (A) (A) (A) (A)
                 (A) (A) (A) (A) (A) (A) (A) (A) (A) (A) (A) (A)
                 (A) (A) (A) (A) (A) (A) (A) (A) (A) (A) (A) (A)
                 (A) (A) (A) (A) (A) (A) (A) (A) (A) (A) (A) (A)
                 (A) (A) (A) (A) (A) (A) (A) (A) (A) (A) (A) (A)
                 (A) (A) (A) (A) (A) (A) (A) (A) (A) (A) (A) (A)
                 (A) (A) (A) (A) (A) (A) (A) (A) (A) (A) (A) (A)
                 (A) (A) (A) (A) (A) (A) (A) (A) (A) (A) (A) (A)
                 (A) (A) (A) (A) (A) (A) (A) (A) (A) (A) (A) (A)
                 (A) (A) (A) (A) (A) (A) (A) (A) (A) (A) (A) (A)
                 (A) (A) (A) (A) (A) (A) (A) (A) (A) (A) (A) (A)
                 (A) (A) (A) (A) (A) (A) (A) (A) (A) (A) (A) (A)
                 (A) (A) (A) (A) (A) (A) (A) (A) (A) (A) (A) (A)
                 (A) (A) (A) (A) (A) (A) (A) (A) (A) (A) (A) (A)
                 (A) (A) (A) (A) (A) (A) (A) (A) (A) (A) (A) (A)
                 (A) (A) (A) (A) (A) (A) (A) (A) (A) (A) (A) (A)
                 (A) (A) (A) (A) (A) (A) (A) (A) (A) (A) (A) (A)
                 (A) (A) (A) (A) (A) (A) (A) (A) (A) (A) (A) (A)
                 (A) (A) (A) (A) (A) (A) (A) (A) (A) (A) (A) (A)
                 (A) (A) (A) (A) (A) (A) (A) (A) (A) (A) (A) (A)
                 (A) (A) (A) (A) (A) (A) (A) (A) (A) (A) (A) (A)
                 (A) (A) (A) (A) (A) (A) (A) (A) (A) (A) (A) (A)
                 (A) (A) (A)
 The electronic state is 1-A.
 Alpha  occ. eigenvalues --  -19.64391 -19.62203 -10.59973 -10.59077 -10.57351
 Alpha  occ. eigenvalues --  -10.54247 -10.54186 -10.53974 -10.53861 -10.53709
 Alpha  occ. eigenvalues --  -10.53654 -10.52395  -1.19378  -1.16919  -0.97551
 Alpha  occ. eigenvalues --   -0.91062  -0.86166  -0.85373  -0.78875  -0.77823
 Alpha  occ. eigenvalues --   -0.72013  -0.67863  -0.64114  -0.63350  -0.59088
 Alpha  occ. eigenvalues --   -0.57987  -0.54594  -0.54253  -0.52825  -0.51511
 Alpha  occ. eigenvalues --   -0.51171  -0.50275  -0.48781  -0.47420  -0.45886
 Alpha  occ. eigenvalues --   -0.43808  -0.42559  -0.41790  -0.41271  -0.39451
 Alpha  occ. eigenvalues --   -0.35048  -0.32460  -0.30769  -0.27687
 Alpha virt. eigenvalues --   -0.03202  -0.02234  -0.01834  -0.01138  -0.00494
 Alpha virt. eigenvalues --    0.00145   0.00173   0.01304   0.01583   0.01772
 Alpha virt. eigenvalues --    0.02131   0.02748   0.03029   0.03715   0.04412
 Alpha virt. eigenvalues --    0.04699   0.05550   0.06057   0.06896   0.07582
 Alpha virt. eigenvalues --    0.08071   0.08812   0.08884   0.09145   0.09314
 Alpha virt. eigenvalues --    0.10416   0.10643   0.11231   0.11438   0.11750
 Alpha virt. eigenvalues --    0.12298   0.13072   0.13305   0.13416   0.14160
 Alpha virt. eigenvalues --    0.14334   0.14423   0.14952   0.15227   0.15869
 Alpha virt. eigenvalues --    0.16017   0.16383   0.16661   0.16934   0.17595
 Alpha virt. eigenvalues --    0.18216   0.19200   0.19590   0.20119   0.20951
 Alpha virt. eigenvalues --    0.21250   0.21411   0.22066   0.22927   0.23511
 Alpha virt. eigenvalues --    0.23820   0.24458   0.25071   0.25940   0.26981
 Alpha virt. eigenvalues --    0.27319   0.27930   0.28348   0.28710   0.30114
 Alpha virt. eigenvalues --    0.30454   0.30977   0.31448   0.32039   0.32853
 Alpha virt. eigenvalues --    0.33670   0.34089   0.34557   0.35447   0.35970
 Alpha virt. eigenvalues --    0.37511   0.37838   0.39068   0.40277   0.41266
 Alpha virt. eigenvalues --    0.41898   0.44107   0.44559   0.46072   0.47804
 Alpha virt. eigenvalues --    0.49546   0.49625   0.50905   0.53095   0.54757
 Alpha virt. eigenvalues --    0.55817   0.56588   0.57479   0.59149   0.59375
 Alpha virt. eigenvalues --    0.61303   0.62003   0.62817   0.63396   0.63839
 Alpha virt. eigenvalues --    0.65863   0.65959   0.66434   0.67068   0.67255
 Alpha virt. eigenvalues --    0.69579   0.70147   0.70974   0.71857   0.72474
 Alpha virt. eigenvalues --    0.72868   0.74107   0.74335   0.75321   0.76259
 Alpha virt. eigenvalues --    0.77217   0.77723   0.78408   0.79456   0.81429
 Alpha virt. eigenvalues --    0.81982   0.83755   0.86056   0.86461   0.88920
 Alpha virt. eigenvalues --    0.90673   0.90959   0.91476   0.93148   0.93737
 Alpha virt. eigenvalues --    0.96133   0.97347   1.00334   1.01902   1.02686
 Alpha virt. eigenvalues --    1.03650   1.05144   1.07107   1.08143   1.09002
 Alpha virt. eigenvalues --    1.09866   1.12312   1.12547   1.14997   1.16976
 Alpha virt. eigenvalues --    1.18021   1.20144   1.22803   1.24400   1.26248
 Alpha virt. eigenvalues --    1.29709   1.32234   1.36603   1.37830   1.40048
 Alpha virt. eigenvalues --    1.41853   1.45000   1.45778   1.47024   1.48773
 Alpha virt. eigenvalues --    1.49199   1.51135   1.53249   1.56414   1.57164
 Alpha virt. eigenvalues --    1.58342   1.59215   1.59985   1.61112   1.61408
 Alpha virt. eigenvalues --    1.62652   1.65489   1.66307   1.67635   1.69104
 Alpha virt. eigenvalues --    1.69210   1.69997   1.71823   1.72176   1.74313
 Alpha virt. eigenvalues --    1.75122   1.77412   1.78948   1.79839   1.81764
 Alpha virt. eigenvalues --    1.83425   1.84661   1.86387   1.86971   1.89591
 Alpha virt. eigenvalues --    1.90965   1.92412   1.95969   1.97370   1.97839
 Alpha virt. eigenvalues --    1.98818   2.00964   2.02310   2.04398   2.06646
 Alpha virt. eigenvalues --    2.07249   2.09370   2.10882   2.13087   2.16026
 Alpha virt. eigenvalues --    2.17239   2.19793   2.20778   2.22176   2.23654
 Alpha virt. eigenvalues --    2.25366   2.26313   2.29790   2.33810   2.35863
 Alpha virt. eigenvalues --    2.36677   2.37972   2.43174   2.45337   2.47439
 Alpha virt. eigenvalues --    2.50701   2.54620   2.55956   2.56863   2.58093
 Alpha virt. eigenvalues --    2.59365   2.59579   2.61245   2.62743   2.63292
 Alpha virt. eigenvalues --    2.65594   2.68734   2.69525   2.72096   2.73780
 Alpha virt. eigenvalues --    2.74588   2.75322   2.77808   2.80429   2.83081
 Alpha virt. eigenvalues --    2.85696   2.86491   2.88631   2.89016   2.90470
 Alpha virt. eigenvalues --    2.91238   2.94152   3.00204   3.01353   3.06442
 Alpha virt. eigenvalues --    3.07358   3.11976   3.14490   3.16754   3.17745
 Alpha virt. eigenvalues --    3.18660   3.19606   3.24246   3.26331   3.28298
 Alpha virt. eigenvalues --    3.37016   3.39255   3.42254   3.47892   3.51048
 Alpha virt. eigenvalues --    3.54810   3.59698   3.60068   3.66901   3.75944
 Alpha virt. eigenvalues --    3.76593   3.79743   3.84442   3.85823   3.88699
 Alpha virt. eigenvalues --    3.95155   4.03541   4.07751   4.11410   4.21893
 Alpha virt. eigenvalues --    4.23460   4.32647   4.38941   4.43113   4.93292
 Alpha virt. eigenvalues --    5.14400   5.30529   5.48397   5.59237   5.79589
 Alpha virt. eigenvalues --    5.94205  23.63935  23.83521  23.97483  23.98041
 Alpha virt. eigenvalues --   24.00684  24.01402  24.11947  24.14606  24.23468
 Alpha virt. eigenvalues --   24.30685  49.94398  50.01046
          Condensed to atoms (all electrons):
               1          2          3          4          5          6
     1  O    8.004251   0.035635   0.054375   0.018170  -0.501195   0.461462
     2  O    0.035635   7.909631  -0.013624  -0.009072  -0.031163  -0.891462
     3  C    0.054375  -0.013624  13.748556  -3.146829  -1.217953  -3.138369
     4  C    0.018170  -0.009072  -3.146829  11.573414  -1.359880  -0.229213
     5  C   -0.501195  -0.031163  -1.217953  -1.359880  19.981977   2.171851
     6  C    0.461462  -0.891462  -3.138369  -0.229213   2.171851  20.039529
     7  C   -0.051823   0.026699  -2.049526  -0.332114  -4.406940   2.121417
     8  C    0.026985   0.615769   1.200410   0.355341  -9.880269  -6.476525
     9  C    0.073420   0.330707   0.308525  -0.760281   0.622150  -7.612702
    10  C    0.000124  -0.000265  -0.592426  -0.556332   0.113967   0.169323
    11  C    0.132943   0.021187  -0.014133  -0.045560   0.091198  -0.186805
    12  C    0.000835  -0.000137   0.306199  -0.221250   0.155903   0.071289
    13  H    0.000190  -0.000103  -0.172033   0.640369   0.084837  -0.014337
    14  H    0.001304  -0.000302   0.017484   0.482652  -0.015550   0.015056
    15  H   -0.020360   0.000497  -0.057475  -0.036764   0.711335  -0.123455
    16  H   -0.001411  -0.001121  -0.037434  -0.041351  -0.036848   0.104636
    17  H    0.000786  -0.010795   0.030117   0.003243   0.059271  -0.086269
    18  H    0.000056  -0.000097  -0.058767   0.107435  -0.029351  -0.012426
    19  H   -0.049781   0.000637  -0.026761   0.014812   0.085843  -0.015772
    20  H   -0.040846  -0.010139   0.022257   0.002301  -0.006831   0.011257
    21  H   -0.062819  -0.000925   0.002663  -0.001893   0.005271   0.017078
    22  H   -0.004508   0.237843   0.003898  -0.001802   0.028568   0.340462
    23  H   -0.000045  -0.000016   0.014846  -0.009935  -0.008534   0.000305
    24  H    0.000091   0.000000  -0.030459   0.035118   0.003521   0.010121
               7          8          9         10         11         12
     1  O   -0.051823   0.026985   0.073420   0.000124   0.132943   0.000835
     2  O    0.026699   0.615769   0.330707  -0.000265   0.021187  -0.000137
     3  C   -2.049526   1.200410   0.308525  -0.592426  -0.014133   0.306199
     4  C   -0.332114   0.355341  -0.760281  -0.556332  -0.045560  -0.221250
     5  C   -4.406940  -9.880269   0.622150   0.113967   0.091198   0.155903
     6  C    2.121417  -6.476525  -7.612702   0.169323  -0.186805   0.071289
     7  C   13.982289  -1.132394  -2.313104   0.107145   0.011437  -0.179718
     8  C   -1.132394  21.413361   0.584874   0.051393  -0.066475   0.061211
     9  C   -2.313104   0.584874  14.650281   0.125337   0.017941  -0.033241
    10  C    0.107145   0.051393   0.125337   6.455442   0.002178  -0.074168
    11  C    0.011437  -0.066475   0.017941   0.002178   5.369492  -0.000661
    12  C   -0.179718   0.061211  -0.033241  -0.074168  -0.000661   5.968626
    13  H   -0.081989  -0.030627   0.015966  -0.079703  -0.000686  -0.034409
    14  H   -0.072061   0.041141  -0.039373  -0.150225   0.000564   0.041514
    15  H    0.029902  -0.258834   0.038118  -0.003288  -0.005739  -0.001203
    16  H    0.367507   0.081711  -0.143225   0.014631   0.000820   0.000299
    17  H   -0.026325  -0.243301   0.576443  -0.000608  -0.000237  -0.000697
    18  H    0.005409   0.000192  -0.004045   0.356862  -0.000533  -0.072432
    19  H   -0.023309  -0.047717   0.008250   0.001557   0.399971  -0.001846
    20  H    0.017140  -0.006074  -0.044664  -0.000991   0.403720   0.000163
    21  H    0.004148  -0.008662  -0.003198  -0.000022   0.397187  -0.000085
    22  H   -0.021558   0.108209  -0.446633   0.000075   0.003304   0.000147
    23  H    0.018421  -0.001316   0.002060  -0.021465  -0.000025   0.385722
    24  H   -0.008740   0.005225   0.000486  -0.025081   0.000277   0.376473
              13         14         15         16         17         18
     1  O    0.000190   0.001304  -0.020360  -0.001411   0.000786   0.000056
     2  O   -0.000103  -0.000302   0.000497  -0.001121  -0.010795  -0.000097
     3  C   -0.172033   0.017484  -0.057475  -0.037434   0.030117  -0.058767
     4  C    0.640369   0.482652  -0.036764  -0.041351   0.003243   0.107435
     5  C    0.084837  -0.015550   0.711335  -0.036848   0.059271  -0.029351
     6  C   -0.014337   0.015056  -0.123455   0.104636  -0.086269  -0.012426
     7  C   -0.081989  -0.072061   0.029902   0.367507  -0.026325   0.005409
     8  C   -0.030627   0.041141  -0.258834   0.081711  -0.243301   0.000192
     9  C    0.015966  -0.039373   0.038118  -0.143225   0.576443  -0.004045
    10  C   -0.079703  -0.150225  -0.003288   0.014631  -0.000608   0.356862
    11  C   -0.000686   0.000564  -0.005739   0.000820  -0.000237  -0.000533
    12  C   -0.034409   0.041514  -0.001203   0.000299  -0.000697  -0.072432
    13  H    0.463652  -0.016194   0.004652  -0.011698   0.002640   0.006461
    14  H   -0.016194   0.475557  -0.013611   0.001189  -0.000491  -0.001242
    15  H    0.004652  -0.013611   0.445869  -0.002126   0.002907  -0.000486
    16  H   -0.011698   0.001189  -0.002126   0.425317  -0.012066  -0.004845
    17  H    0.002640  -0.000491   0.002907  -0.012066   0.467192   0.000199
    18  H    0.006461  -0.001242  -0.000486  -0.004845   0.000199   0.432934
    19  H   -0.000025   0.000306  -0.001977  -0.000216   0.000119   0.000580
    20  H    0.000044   0.000012   0.000417   0.000044  -0.001332   0.000060
    21  H   -0.000017   0.000068  -0.000276   0.000064  -0.000016  -0.000019
    22  H   -0.000138   0.000080  -0.000287   0.001702  -0.007639  -0.000017
    23  H    0.000214  -0.004629   0.001533   0.000668   0.000023  -0.006631
    24  H    0.001942   0.001749  -0.001140  -0.000300  -0.000005  -0.005336
              19         20         21         22         23         24
     1  O   -0.049781  -0.040846  -0.062819  -0.004508  -0.000045   0.000091
     2  O    0.000637  -0.010139  -0.000925   0.237843  -0.000016   0.000000
     3  C   -0.026761   0.022257   0.002663   0.003898   0.014846  -0.030459
     4  C    0.014812   0.002301  -0.001893  -0.001802  -0.009935   0.035118
     5  C    0.085843  -0.006831   0.005271   0.028568  -0.008534   0.003521
     6  C   -0.015772   0.011257   0.017078   0.340462   0.000305   0.010121
     7  C   -0.023309   0.017140   0.004148  -0.021558   0.018421  -0.008740
     8  C   -0.047717  -0.006074  -0.008662   0.108209  -0.001316   0.005225
     9  C    0.008250  -0.044664  -0.003198  -0.446633   0.002060   0.000486
    10  C    0.001557  -0.000991  -0.000022   0.000075  -0.021465  -0.025081
    11  C    0.399971   0.403720   0.397187   0.003304  -0.000025   0.000277
    12  C   -0.001846   0.000163  -0.000085   0.000147   0.385722   0.376473
    13  H   -0.000025   0.000044  -0.000017  -0.000138   0.000214   0.001942
    14  H    0.000306   0.000012   0.000068   0.000080  -0.004629   0.001749
    15  H   -0.001977   0.000417  -0.000276  -0.000287   0.001533  -0.001140
    16  H   -0.000216   0.000044   0.000064   0.001702   0.000668  -0.000300
    17  H    0.000119  -0.001332  -0.000016  -0.007639   0.000023  -0.000005
    18  H    0.000580   0.000060  -0.000019  -0.000017  -0.006631  -0.005336
    19  H    0.583238  -0.071573  -0.033105  -0.000256  -0.000041  -0.000149
    20  H   -0.071573   0.545913  -0.024290   0.000918  -0.000001  -0.000025
    21  H   -0.033105  -0.024290   0.493362  -0.000039   0.000016   0.000003
    22  H   -0.000256   0.000918  -0.000039   0.470014  -0.000003   0.000005
    23  H   -0.000041  -0.000001   0.000016  -0.000003   0.464565  -0.008998
    24  H   -0.000149  -0.000025   0.000003   0.000005  -0.008998   0.474149
 Mulliken charges:
               1
     1  O   -0.077840
     2  O   -0.209384
     3  C    0.846462
     4  C   -0.480578
     5  C   -0.621179
     6  C   -0.746450
     7  C    0.008085
     8  C   -0.393630
     9  C    0.045912
    10  C    0.106542
    11  C   -0.531364
    12  C   -0.748533
    13  H    0.220992
    14  H    0.235003
    15  H    0.291790
    16  H    0.294053
    17  H    0.246840
    18  H    0.286039
    19  H    0.177217
    20  H    0.202521
    21  H    0.215509
    22  H    0.287654
    23  H    0.173266
    24  H    0.171074
 Sum of Mulliken charges =  -0.00000
 Mulliken charges with hydrogens summed into heavy atoms:
               1
     1  O   -0.077840
     2  O    0.078270
     3  C    0.846462
     4  C   -0.024584
     5  C   -0.329389
     6  C   -0.746450
     7  C    0.302139
     8  C   -0.393630
     9  C    0.292752
    10  C    0.392581
    11  C    0.063882
    12  C   -0.404193
 Electronic spatial extent (au):  <R**2>=           2498.2302
 Charge=             -0.0000 electrons
 Dipole moment (field-independent basis, Debye):
    X=              0.6981    Y=             -1.1810    Z=              1.6121  Tot=              2.1169
 Quadrupole moment (field-independent basis, Debye-Ang):
   XX=            -74.0833   YY=            -61.1262   ZZ=            -74.2665
   XY=              3.6423   XZ=             -5.4168   YZ=             -1.4996
 Traceless Quadrupole moment (field-independent basis, Debye-Ang):
   XX=             -4.2579   YY=              8.6991   ZZ=             -4.4412
   XY=              3.6423   XZ=             -5.4168   YZ=             -1.4996
 Octapole moment (field-independent basis, Debye-Ang**2):
  XXX=            -29.6879  YYY=             -5.5226  ZZZ=              2.3994  XYY=            -26.8109
  XXY=             -7.4255  XXZ=             17.3691  XZZ=             -1.7943  YZZ=              1.6497
  YYZ=             10.5469  XYZ=             -0.4782
 Hexadecapole moment (field-independent basis, Debye-Ang**3):
 XXXX=          -2439.2345 YYYY=           -786.5936 ZZZZ=           -220.2532 XXXY=             57.0153
 XXXZ=            -14.6802 YYYX=             10.9712 YYYZ=            -23.3703 ZZZX=             -0.5981
 ZZZY=             -4.8331 XXYY=           -427.6177 XXZZ=           -401.7488 YYZZ=           -184.7834
 XXYZ=             -6.4401 YYXZ=            -28.9489 ZZXY=              9.7111
 N-N= 6.701374920002D+02 E-N=-2.595177726039D+03  KE= 5.362210212384D+02
 R6APFD:  NTU= -4 IXU= 1 FactS= 1.050
 Calling FoFJK, ICntrl=      2127 FMM=F ISym2X=0 I1Cent= 0 IOpClX= 0 NMat=1 NMatS=1 NMatT=0.
 ***** Axes restored to original set *****
 -------------------------------------------------------------------
 Center     Atomic                   Forces (Hartrees/Bohr)
 Number     Number              X              Y              Z
 -------------------------------------------------------------------
      1        8           0.009999533    0.006608519    0.006679216
      2        8           0.004036428   -0.002017113   -0.002737620
      3        6           0.004271386   -0.003760537   -0.000122231
      4        6          -0.013466975    0.000324996    0.004944942
      5        6           0.004334202   -0.011423220   -0.005548605
      6        6          -0.005199217    0.012253365   -0.005031141
      7        6           0.009120422    0.004470911   -0.001123153
      8        6           0.004293505   -0.018134384   -0.006246493
      9        6          -0.012159199    0.006280288    0.003846278
     10        6          -0.006767483    0.013602486    0.004083985
     11        6          -0.002178685   -0.006967076    0.001694170
     12        6           0.007135114   -0.012334475   -0.001815468
     13        1           0.000553744   -0.002917242   -0.000364604
     14        1          -0.001670067    0.003287168   -0.001823382
     15        1           0.001411585    0.001757174    0.000392812
     16        1          -0.002466696   -0.000433543    0.000856041
     17        1           0.003300230   -0.001497981   -0.000783583
     18        1           0.002817452   -0.003524530   -0.002362417
     19        1          -0.003308950    0.000042959   -0.001859051
     20        1           0.000019155   -0.002246992   -0.002583593
     21        1           0.000050144   -0.002129657    0.003503083
     22        1          -0.002100644    0.013898526    0.004810091
     23        1          -0.001724016    0.002356249   -0.001379397
     24        1          -0.000300967    0.002504108    0.002970120
 -------------------------------------------------------------------
 Cartesian Forces:  Max     0.018134384 RMS     0.005781798

 GradGradGradGradGradGradGradGradGradGradGradGradGradGradGradGradGradGrad
 Berny optimization.
 FormGI is forming the generalized inverse of G from B-inverse, IUseBI=4.
 Internal  Forces:  Max     0.019032647 RMS     0.004226717
 Search for a local minimum.
 Step number   1 out of a maximum of  119
 All quantities printed in internal units (Hartrees-Bohrs-Radians)
 Mixed Optimization -- RFO/linear search
 Second derivative matrix not updated -- first step.
 ITU=  0
     Eigenvalues ---    0.00676   0.00883   0.01343   0.01581   0.01648
     Eigenvalues ---    0.02156   0.02156   0.02156   0.02157   0.02157
     Eigenvalues ---    0.02158   0.02162   0.02163   0.02191   0.02193
     Eigenvalues ---    0.02911   0.02911   0.04852   0.06469   0.10135
     Eigenvalues ---    0.10173   0.10460   0.13394   0.15999   0.16000
     Eigenvalues ---    0.16000   0.16000   0.16000   0.16000   0.16000
     Eigenvalues ---    0.16000   0.16000   0.16000   0.21919   0.22000
     Eigenvalues ---    0.22375   0.23492   0.24610   0.25000   0.25000
     Eigenvalues ---    0.25000   0.25000   0.31673   0.33321   0.33888
     Eigenvalues ---    0.33916   0.34278   0.34279   0.34435   0.35105
     Eigenvalues ---    0.35110   0.35176   0.35202   0.35462   0.35472
     Eigenvalues ---    0.41514   0.42263   0.42559   0.46467   0.46472
     Eigenvalues ---    0.46474   0.46502   0.52489   0.52522   0.52847
     Eigenvalues ---    0.57695
 RFO step:  Lambda=-7.85514012D-03 EMin= 6.75776476D-03
 Linear search not attempted -- first point.
 Iteration  1 RMS(Cart)=  0.07758803 RMS(Int)=  0.00211703
 Iteration  2 RMS(Cart)=  0.00315185 RMS(Int)=  0.00017418
 Iteration  3 RMS(Cart)=  0.00000467 RMS(Int)=  0.00017416
 Iteration  4 RMS(Cart)=  0.00000000 RMS(Int)=  0.00017416
 Variable       Old X    -DE/DX   Delta X   Delta X   Delta X     New X
                                 (Linear)    (Quad)   (Total)
    R1        2.57403   0.00026   0.00000   0.00049   0.00049   2.57451
    R2        2.69546  -0.00837   0.00000  -0.01978  -0.01978   2.67568
    R3        2.57434   0.00020   0.00000   0.00038   0.00038   2.57471
    R4        1.83797  -0.01485   0.00000  -0.02769  -0.02769   1.81027
    R5        2.81791   0.01425   0.00000   0.04179   0.04179   2.85970
    R6        2.63609  -0.00067   0.00000  -0.00172  -0.00168   2.63440
    R7        2.63608  -0.00079   0.00000  -0.00181  -0.00179   2.63429
    R8        2.84747  -0.00096   0.00000  -0.00297  -0.00297   2.84450
    R9        2.07472   0.00224   0.00000   0.00646   0.00646   2.08118
   R10        2.07519   0.00081   0.00000   0.00233   0.00233   2.07752
   R11        2.63608  -0.00318   0.00000  -0.00690  -0.00689   2.62919
   R12        2.05504   0.00117   0.00000   0.00326   0.00326   2.05830
   R13        2.63597   0.00046   0.00000   0.00111   0.00108   2.63706
   R14        2.63552  -0.00084   0.00000  -0.00161  -0.00162   2.63390
   R15        2.05390   0.00171   0.00000   0.00476   0.00476   2.05866
   R16        2.63597   0.00025   0.00000   0.00083   0.00080   2.63677
   R17        2.05348   0.00271   0.00000   0.00754   0.00754   2.06102
   R18        2.52812  -0.00902   0.00000  -0.01543  -0.01543   2.51269
   R19        2.05497   0.00391   0.00000   0.01090   0.01090   2.06587
   R20        2.06863   0.00338   0.00000   0.00963   0.00963   2.07826
   R21        2.06862   0.00311   0.00000   0.00887   0.00887   2.07749
   R22        2.06602  -0.00049   0.00000  -0.00139  -0.00139   2.06463
   R23        2.04931   0.00262   0.00000   0.00724   0.00724   2.05655
   R24        2.04915   0.00388   0.00000   0.01071   0.01071   2.05987
    A1        2.04264  -0.01903   0.00000  -0.07381  -0.07381   1.96883
    A2        1.90229   0.00067   0.00000   0.00401   0.00401   1.90629
    A3        2.09426   0.00149   0.00000   0.00658   0.00638   2.10064
    A4        2.09458   0.00487   0.00000   0.01972   0.01951   2.11410
    A5        2.09434  -0.00636   0.00000  -0.02631  -0.02637   2.06797
    A6        1.97322  -0.00384   0.00000  -0.02180  -0.02194   1.95128
    A7        1.91628  -0.00052   0.00000  -0.00347  -0.00346   1.91282
    A8        1.91219   0.00343   0.00000   0.01681   0.01635   1.92855
    A9        1.89164   0.00268   0.00000   0.01649   0.01655   1.90819
   A10        1.93254  -0.00248   0.00000  -0.02719  -0.02720   1.90534
   A11        1.83258   0.00108   0.00000   0.02247   0.02252   1.85510
   A12        2.09433   0.00569   0.00000   0.02305   0.02310   2.11742
   A13        2.10021  -0.00083   0.00000   0.00050   0.00045   2.10066
   A14        2.08865  -0.00486   0.00000  -0.02355  -0.02360   2.06505
   A15        2.08490   0.00616   0.00000   0.02434   0.02429   2.10919
   A16        2.10399  -0.00593   0.00000  -0.02258  -0.02262   2.08138
   A17        2.09429  -0.00023   0.00000  -0.00178  -0.00181   2.09248
   A18        2.09455   0.00275   0.00000   0.01121   0.01125   2.10580
   A19        2.10716  -0.00337   0.00000  -0.01748  -0.01750   2.08966
   A20        2.08148   0.00062   0.00000   0.00627   0.00625   2.08773
   A21        2.10348  -0.01416   0.00000  -0.05490  -0.05490   2.04858
   A22        2.08515   0.01777   0.00000   0.06892   0.06891   2.15406
   A23        2.09455  -0.00362   0.00000  -0.01400  -0.01406   2.08048
   A24        2.09431   0.00176   0.00000   0.00783   0.00780   2.10212
   A25        2.08120   0.00170   0.00000   0.01148   0.01149   2.09269
   A26        2.10768  -0.00347   0.00000  -0.01931  -0.01930   2.08838
   A27        2.16773   0.00011   0.00000   0.00063   0.00041   2.16813
   A28        2.04799  -0.00299   0.00000  -0.01755  -0.01777   2.03023
   A29        2.06734   0.00289   0.00000   0.01750   0.01728   2.08461
   A30        1.92834   0.00068   0.00000   0.00423   0.00422   1.93257
   A31        1.93091  -0.00012   0.00000  -0.00129  -0.00133   1.92958
   A32        1.88957  -0.00558   0.00000  -0.03286  -0.03290   1.85667
   A33        1.92137  -0.00059   0.00000  -0.00421  -0.00422   1.91715
   A34        1.89642   0.00292   0.00000   0.01853   0.01852   1.91494
   A35        1.89633   0.00271   0.00000   0.01578   0.01570   1.91203
   A36        2.10211   0.00240   0.00000   0.01429   0.01429   2.11640
   A37        2.12076  -0.00096   0.00000  -0.00575  -0.00575   2.11502
   A38        2.06031  -0.00143   0.00000  -0.00854  -0.00854   2.05177
    D1       -1.57183  -0.00294   0.00000  -0.09860  -0.09865  -1.67048
    D2        1.57069  -0.00242   0.00000  -0.08127  -0.08121   1.48948
    D3        1.07409  -0.00048   0.00000  -0.01070  -0.01069   1.06340
    D4       -1.05817  -0.00011   0.00000  -0.00737  -0.00732  -1.06548
    D5       -3.13432   0.00008   0.00000  -0.00570  -0.00575  -3.14007
    D6       -3.14073   0.00020   0.00000   0.00727   0.00736  -3.13337
    D7        0.00190  -0.00016   0.00000  -0.00585  -0.00594  -0.00404
    D8        1.57083  -0.00198   0.00000  -0.04811  -0.04840   1.52243
    D9       -2.59767  -0.00152   0.00000  -0.04425  -0.04446  -2.64213
   D10       -0.59366   0.00141   0.00000  -0.00978  -0.00984  -0.60350
   D11       -1.57024  -0.00117   0.00000  -0.01523  -0.01515  -1.58539
   D12        0.54444  -0.00072   0.00000  -0.01137  -0.01120   0.53324
   D13        2.54845   0.00221   0.00000   0.02310   0.02341   2.57186
   D14       -3.14101   0.00051   0.00000   0.02039   0.02004  -3.12097
   D15        0.00010   0.00083   0.00000   0.03162   0.03153   0.03163
   D16        0.00007  -0.00029   0.00000  -0.01248  -0.01233  -0.01227
   D17        3.14117   0.00003   0.00000  -0.00125  -0.00084   3.14033
   D18        3.14097  -0.00077   0.00000  -0.02942  -0.02942   3.11155
   D19        0.00100  -0.00080   0.00000  -0.03043  -0.03031  -0.02931
   D20       -0.00010   0.00002   0.00000   0.00346   0.00322   0.00311
   D21       -3.14007   0.00000   0.00000   0.00245   0.00232  -3.13775
   D22       -2.05176  -0.00015   0.00000   0.00409   0.00370  -2.04806
   D23        1.10730  -0.00111   0.00000  -0.03576  -0.03585   1.07145
   D24        2.10286   0.00113   0.00000   0.01114   0.01096   2.11382
   D25       -1.02127   0.00017   0.00000  -0.02872  -0.02859  -1.04985
   D26        0.10154  -0.00035   0.00000  -0.01049  -0.01038   0.09117
   D27       -3.02258  -0.00131   0.00000  -0.05034  -0.04992  -3.07251
   D28       -3.14079   0.00096   0.00000   0.03325   0.03367  -3.10712
   D29       -0.00013   0.00044   0.00000   0.01600   0.01612   0.01599
   D30        0.00128   0.00064   0.00000   0.02208   0.02240   0.02369
   D31       -3.14124   0.00012   0.00000   0.00484   0.00484  -3.13639
   D32        0.00034  -0.00122   0.00000  -0.04116  -0.04052  -0.04018
   D33        3.14089  -0.00084   0.00000  -0.02792  -0.02775   3.11314
   D34       -3.14032  -0.00070   0.00000  -0.02375  -0.02327   3.11960
   D35        0.00023  -0.00032   0.00000  -0.01051  -0.01050  -0.01027
   D36        0.00021   0.00009   0.00000   0.00204   0.00204   0.00225
   D37       -3.14140   0.00006   0.00000   0.00122   0.00141  -3.13999
   D38        3.14020   0.00011   0.00000   0.00301   0.00291  -3.14007
   D39       -0.00141   0.00007   0.00000   0.00219   0.00228   0.00087
   D40        3.14029   0.00042   0.00000   0.01452   0.01510  -3.12780
   D41       -0.00129   0.00045   0.00000   0.01535   0.01573   0.01444
   D42       -0.00027   0.00006   0.00000   0.00149   0.00159   0.00132
   D43        3.14134   0.00009   0.00000   0.00232   0.00222  -3.13963
   D44       -3.13306  -0.00063   0.00000  -0.02458  -0.02480   3.12532
   D45        0.01007  -0.00061   0.00000  -0.02412  -0.02434  -0.01427
   D46       -0.00911   0.00029   0.00000   0.01535   0.01557   0.00645
   D47        3.13402   0.00030   0.00000   0.01582   0.01603  -3.13313
         Item               Value     Threshold  Converged?
 Maximum Force            0.019033     0.000450     NO 
 RMS     Force            0.004227     0.000300     NO 
 Maximum Displacement     0.350734     0.001800     NO 
 RMS     Displacement     0.078347     0.001200     NO 
 Predicted change in Energy=-4.178057D-03
 GradGradGradGradGradGradGradGradGradGradGradGradGradGradGradGradGradGrad

                          Input orientation:                          
 ---------------------------------------------------------------------
 Center     Atomic      Atomic             Coordinates (Angstroms)
 Number     Number       Type             X           Y           Z
 ---------------------------------------------------------------------
      1          8           0        2.045014    1.492576    0.569578
      2          8           0        3.061183   -0.788694   -0.425319
      3          6           0       -1.015199   -0.534123    0.429077
      4          6           0       -2.495349   -0.390647    0.709456
      5          6           0       -0.154346    0.545964    0.618200
      6          6           0        1.205728    0.443495    0.343549
      7          6           0       -0.486684   -1.727953   -0.059482
      8          6           0        1.727422   -0.753275   -0.149314
      9          6           0        0.872484   -1.837946   -0.348003
     10          6           0       -3.243884    0.126538   -0.489701
     11          6           0        2.271757    2.273611   -0.589461
     12          6           0       -3.900939    1.282116   -0.519916
     13          1           0       -2.911391   -1.366285    1.005996
     14          1           0       -2.662337    0.286859    1.559004
     15          1           0       -0.534957    1.493464    0.997346
     16          1           0       -1.141773   -2.583763   -0.218322
     17          1           0        1.272685   -2.777382   -0.731156
     18          1           0       -3.212958   -0.497598   -1.386704
     19          1           0        1.329758    2.704451   -0.958923
     20          1           0        2.739449    1.667179   -1.378194
     21          1           0        2.952272    3.075137   -0.292590
     22          1           0        3.290867   -1.656000   -0.761036
     23          1           0       -4.414237    1.616561   -1.419375
     24          1           0       -3.943465    1.930213    0.355491
 ---------------------------------------------------------------------
                    Distance matrix (angstroms):
                    1          2          3          4          5
     1  O    0.000000
     2  O    2.688236   0.000000
     3  C    3.673166   4.172732   0.000000
     4  C    4.917417   5.685175   1.513289   0.000000
     5  C    2.394916   3.634539   1.394066   2.523066   0.000000
     6  C    1.362373   2.356303   2.428079   3.811516   1.391307
     7  C    4.144516   3.688279   1.394004   2.532664   2.395913
     8  C    2.379394   1.362480   2.811500   4.324440   2.412085
     9  C    3.648172   2.428438   2.422221   3.815127   2.769649
    10  C    5.564223   6.371473   2.499533   1.505245   3.308868
    11  C    1.415909   3.166677   4.441268   5.613445   3.213906
    12  C    6.048607   7.264183   3.539323   2.507026   3.984242
    13  H    5.738422   6.168786   2.149622   1.101315   3.377628
    14  H    4.959019   6.152483   2.159586   1.099377   2.691146
    15  H    2.615193   4.490484   2.159785   2.734208   1.089208
    16  H    5.233826   4.574928   2.153177   2.739105   3.386734
    17  H    4.530004   2.692051   3.407751   4.687211   3.860286
    18  H    5.952654   6.354042   2.851059   2.218173   3.803126
    19  H    2.077630   3.935051   4.232461   5.195630   3.057606
    20  H    2.075221   2.653827   4.712679   5.999671   3.690091
    21  H    2.017659   3.867643   5.411874   6.533937   4.108203
    22  H    3.638160   0.957956   4.606211   6.102767   4.315140
    23  H    6.759676   7.915510   4.426700   3.498991   4.841958
    24  H    6.008264   7.554285   3.827938   2.758392   4.042596
                    6          7          8          9         10
     6  C    0.000000
     7  C    2.782423   0.000000
     8  C    1.395471   2.420812   0.000000
     9  C    2.407129   1.393800   1.395316   0.000000
    10  C    4.538041   3.350579   5.060022   4.563306   0.000000
    11  C    2.314357   4.889006   3.106778   4.349846   5.919643
    12  C    5.246609   4.574894   5.996550   5.705253   1.329660
    13  H    4.545856   2.673061   4.819659   4.046416   2.139201
    14  H    4.057560   3.378229   4.823921   4.543834   2.135671
    15  H    2.135385   3.390685   3.388366   3.858646   3.379065
    16  H    3.871789   1.089396   3.404076   2.151811   3.440675
    17  H    3.396104   2.155882   2.154607   1.090645   5.374984
    18  H    4.837791   3.272287   5.099398   4.423377   1.093214
    19  H    2.612228   4.873875   3.573440   4.606049   5.271054
    20  H    2.610384   4.865579   2.897058   4.102774   6.242057
    21  H    3.221897   5.911888   4.022129   5.335444   6.864797
    22  H    3.158448   3.842817   1.906167   2.460138   6.778941
    23  H    6.005663   5.334862   6.704413   6.405534   2.110494
    24  H    5.359540   5.050121   6.294037   6.155265   2.111162
                   11         12         13         14         15
    11  C    0.000000
    12  C    6.252206   0.000000
    13  H    6.531412   3.212731   0.000000
    14  H    5.736582   2.616597   1.760888   0.000000
    15  H    3.317262   3.698187   3.718290   2.509403   0.000000
    16  H    5.948446   4.759094   2.472398   3.702900   4.297657
    17  H    5.150800   6.579554   4.745038   5.488060   4.949284
    18  H    6.196555   2.095715   2.563313   3.097701   4.101184
    19  H    1.099767   5.438378   6.198318   5.302974   2.961527
    20  H    1.099361   6.706689   6.842387   6.301723   4.049087
    21  H    1.092555   7.087531   7.469611   6.536569   4.040592
    22  H    4.063233   7.772563   6.455566   6.678168   5.258133
    23  H    6.769268   1.088280   4.127752   3.702431   4.572144
    24  H    6.296018   1.090034   3.515001   2.406314   3.495805
                   16         17         18         19         20
    16  H    0.000000
    17  H    2.475904   0.000000
    18  H    3.163385   5.074264   0.000000
    19  H    5.884060   5.486859   5.574260   0.000000
    20  H    5.871942   4.724847   6.333836   1.799708   0.000000
    21  H    6.984974   6.104533   7.209131   1.792752   1.790579
    22  H    4.561094   2.308993   6.635744   4.785252   3.424685
    23  H    5.458412   7.219519   2.431831   5.864213   7.153984
    24  H    5.343661   7.109886   3.076223   5.489446   6.909139
                   21         22         23         24
    21  H    0.000000
    22  H    4.766313   0.000000
    23  H    7.593585   8.397124   0.000000
    24  H    7.020117   8.151265   1.862834   0.000000
 Stoichiometry    C10H12O2
 Framework group  C1[X(C10H12O2)]
 Deg. of freedom    66
 Full point group                 C1      NOp   1
 Largest Abelian subgroup         C1      NOp   1
 Largest concise Abelian subgroup C1      NOp   1
                         Standard orientation:                         
 ---------------------------------------------------------------------
 Center     Atomic      Atomic             Coordinates (Angstroms)
 Number     Number       Type             X           Y           Z
 ---------------------------------------------------------------------
      1          8           0       -2.021187    1.401454   -0.639477
      2          8           0       -3.033251   -0.891466    0.332562
      3          6           0        1.057435   -0.591566   -0.434275
      4          6           0        2.541579   -0.431654   -0.682848
      5          6           0        0.188994    0.479108   -0.641369
      6          6           0       -1.175437    0.361523   -0.395936
      7          6           0        0.531754   -1.791437    0.042399
      8          6           0       -1.694359   -0.841215    0.085186
      9          6           0       -0.831984   -1.916544    0.301715
     10          6           0        3.258541    0.092986    0.532257
     11          6           0       -2.281265    2.179230    0.514742
     12          6           0        3.902043    1.255699    0.576976
     13          1           0        2.974583   -1.402474   -0.970788
     14          1           0        2.719245    0.248173   -1.528366
     15          1           0        0.567182    1.430970   -1.011915
     16          1           0        1.192673   -2.640092    0.214898
     17          1           0       -1.229932   -2.860560    0.675852
     18          1           0        3.215294   -0.532007    1.428153
     19          1           0       -1.352187    2.620171    0.904452
     20          1           0       -2.759029    1.567205    1.293049
     21          1           0       -2.964049    2.973410    0.203679
     22          1           0       -3.260509   -1.761452    0.662951
     23          1           0        4.392261    1.595209    1.487345
     24          1           0        3.956160    1.904767   -0.297071
 ---------------------------------------------------------------------
 Rotational constants (GHZ):           1.5987318           0.5742202           0.4583898
 Standard basis: 6-311++G(d,p) (5D, 7F)
 There are   360 symmetry adapted cartesian basis functions of A   symmetry.
 There are   348 symmetry adapted basis functions of A   symmetry.
   348 basis functions,   540 primitive gaussians,   360 cartesian basis functions
    44 alpha electrons       44 beta electrons
       nuclear repulsion energy       672.3690682354 Hartrees.
 NAtoms=   24 NActive=   24 NUniq=   24 SFac= 1.00D+00 NAtFMM=   60 NAOKFM=F Big=F
 Integral buffers will be    131072 words long.
 Raffenetti 2 integral format.
 Two-electron integral symmetry is turned on.
 R6APFD:  NTU= -4 IXU= 1 FactS= 1.050
 Nuclear repulsion after empirical dispersion term =      672.3534203084 Hartrees.
 One-electron integrals computed using PRISM.
 NBasis=   348 RedAO= T EigKep=  2.44D-06  NBF=   348
 NBsUse=   347 1.00D-06 EigRej=  6.44D-07 NBFU=   347
 Initial guess from the checkpoint file:  "EGEL0041.chk"
 B after Tr=     0.000000   -0.000000    0.000000
         Rot=    0.999992    0.002607    0.002667   -0.001239 Ang=   0.45 deg.
 ExpMin= 3.60D-02 ExpMax= 8.59D+03 ExpMxC= 1.30D+03 IAcc=3 IRadAn=         5 AccDes= 0.00D+00
 Harris functional with IExCor= 1009 and IRadAn=       5 diagonalized for initial guess.
 HarFok:  IExCor= 1009 AccDes= 0.00D+00 IRadAn=         5 IDoV= 1 UseB2=F ITyADJ=14
 ICtDFT=  3500011 ScaDFX=  1.000000  1.000000  1.000000  1.000000
 FoFCou: FMM=F IPFlag=           0 FMFlag=      100000 FMFlg1=           0
         NFxFlg=           0 DoJE=T BraDBF=F KetDBF=T FulRan=T
         wScrn=  0.000000 ICntrl=       500 IOpCl=  0 I1Cent=   200000004 NGrid=           0
         NMat0=    1 NMatS0=      1 NMatT0=    0 NMatD0=    1 NMtDS0=    0 NMtDT0=    0
 Petite list used in FoFCou.
 Requested convergence on RMS density matrix=1.00D-08 within  32 cycles.
 Requested convergence on MAX density matrix=1.00D-06.
 Requested convergence on             energy=1.00D-06.
 No special actions if energy rises.
 SCF Done:  E(RM08HX) =  -538.689636563     A.U. after   14 cycles
            NFock= 14  Conv=0.29D-08     -V/T= 2.0046
 QCSCF skips out because SCF is already converged.
 R6APFD:  NTU= -4 IXU= 1 FactS= 1.050
 Calling FoFJK, ICntrl=      2127 FMM=F ISym2X=0 I1Cent= 0 IOpClX= 0 NMat=1 NMatS=1 NMatT=0.
 ***** Axes restored to original set *****
 -------------------------------------------------------------------
 Center     Atomic                   Forces (Hartrees/Bohr)
 Number     Number              X              Y              Z
 -------------------------------------------------------------------
      1        8          -0.000752020    0.002065626    0.004071560
      2        8          -0.002091316    0.001322368    0.000766373
      3        6          -0.000569539   -0.001838042   -0.000373385
      4        6          -0.002169059   -0.000950903    0.002469151
      5        6           0.001603495   -0.000463946    0.000049422
      6        6          -0.004669689    0.000980233    0.001242670
      7        6           0.001086661    0.001820695    0.000313917
      8        6           0.000031855   -0.005942844   -0.003442879
      9        6          -0.000291215    0.000653483   -0.000178325
     10        6          -0.000283379    0.001781842   -0.001070857
     11        6           0.002657752    0.000552460   -0.001426857
     12        6           0.000913085   -0.001466426   -0.000709966
     13        1           0.001152332   -0.000118224   -0.000730586
     14        1           0.001199867    0.000308092   -0.000376857
     15        1           0.000383951    0.000922231    0.000300777
     16        1          -0.000012386   -0.000373174    0.000299053
     17        1           0.000487628   -0.000011623    0.000067905
     18        1           0.000875043   -0.000462145   -0.000013191
     19        1          -0.000055717   -0.000287826   -0.000264101
     20        1          -0.000266207    0.000082524   -0.000284169
     21        1           0.000286184    0.000748971   -0.001086484
     22        1           0.001062401   -0.000429503   -0.000275788
     23        1          -0.000263807    0.000721998    0.000510778
     24        1          -0.000315918    0.000384134    0.000141837
 -------------------------------------------------------------------
 Cartesian Forces:  Max     0.005942844 RMS     0.001448704

 GradGradGradGradGradGradGradGradGradGradGradGradGradGradGradGradGradGrad
 Berny optimization.
 Using GEDIIS/GDIIS optimizer.
 FormGI is forming the generalized inverse of G from B-inverse, IUseBI=4.
 Internal  Forces:  Max     0.003955330 RMS     0.001025217
 Search for a local minimum.
 Step number   2 out of a maximum of  119
 All quantities printed in internal units (Hartrees-Bohrs-Radians)
 Mixed Optimization -- RFO/linear search
 Update second derivatives using D2CorX and points    1    2
 DE= -4.54D-03 DEPred=-4.18D-03 R= 1.09D+00
 TightC=F SS=  1.41D+00  RLast= 2.53D-01 DXNew= 5.0454D-01 7.5782D-01
 Trust test= 1.09D+00 RLast= 2.53D-01 DXMaxT set to 5.05D-01
 ITU=  1  0
 Use linear search instead of GDIIS.
     Eigenvalues ---    0.00675   0.00876   0.01343   0.01603   0.01633
     Eigenvalues ---    0.01989   0.02156   0.02156   0.02157   0.02158
     Eigenvalues ---    0.02158   0.02162   0.02163   0.02190   0.02199
     Eigenvalues ---    0.02911   0.02912   0.05045   0.06420   0.09986
     Eigenvalues ---    0.10132   0.10629   0.13224   0.15539   0.15998
     Eigenvalues ---    0.15999   0.16000   0.16000   0.16000   0.16000
     Eigenvalues ---    0.16000   0.16000   0.16469   0.21277   0.22001
     Eigenvalues ---    0.22345   0.23639   0.24172   0.24819   0.24988
     Eigenvalues ---    0.24997   0.25457   0.31694   0.33732   0.33893
     Eigenvalues ---    0.34057   0.34278   0.34307   0.34478   0.35054
     Eigenvalues ---    0.35137   0.35172   0.35206   0.35456   0.35480
     Eigenvalues ---    0.42107   0.42483   0.42892   0.46418   0.46471
     Eigenvalues ---    0.46485   0.46897   0.52212   0.52492   0.54536
     Eigenvalues ---    0.57849
 RFO step:  Lambda=-1.04474590D-03 EMin= 6.75441823D-03
 Quartic linear search produced a step of  0.11210.
 Iteration  1 RMS(Cart)=  0.06610648 RMS(Int)=  0.00237147
 Iteration  2 RMS(Cart)=  0.00316592 RMS(Int)=  0.00003597
 Iteration  3 RMS(Cart)=  0.00000812 RMS(Int)=  0.00003575
 Iteration  4 RMS(Cart)=  0.00000000 RMS(Int)=  0.00003575
 Variable       Old X    -DE/DX   Delta X   Delta X   Delta X     New X
                                 (Linear)    (Quad)   (Total)
    R1        2.57451   0.00375   0.00005   0.00790   0.00795   2.58246
    R2        2.67568   0.00354  -0.00222   0.00942   0.00721   2.68289
    R3        2.57471  -0.00113   0.00004  -0.00238  -0.00233   2.57238
    R4        1.81027   0.00074  -0.00310   0.00151  -0.00159   1.80868
    R5        2.85970  -0.00103   0.00468  -0.00348   0.00121   2.86091
    R6        2.63440   0.00051  -0.00019   0.00118   0.00100   2.63540
    R7        2.63429  -0.00045  -0.00020  -0.00125  -0.00145   2.63284
    R8        2.84450   0.00078  -0.00033   0.00272   0.00239   2.84689
    R9        2.08118  -0.00053   0.00072  -0.00173  -0.00100   2.08018
   R10        2.07752  -0.00028   0.00026  -0.00093  -0.00067   2.07685
   R11        2.62919  -0.00253  -0.00077  -0.00588  -0.00665   2.62254
   R12        2.05830   0.00077   0.00037   0.00243   0.00279   2.06110
   R13        2.63706   0.00396   0.00012   0.00958   0.00970   2.64675
   R14        2.63390  -0.00080  -0.00018  -0.00204  -0.00222   2.63168
   R15        2.05866   0.00026   0.00053   0.00080   0.00133   2.05999
   R16        2.63677  -0.00202   0.00009  -0.00476  -0.00468   2.63209
   R17        2.06102   0.00016   0.00085   0.00050   0.00135   2.06237
   R18        2.51269  -0.00048  -0.00173  -0.00095  -0.00268   2.51002
   R19        2.06587   0.00030   0.00122   0.00093   0.00215   2.06803
   R20        2.07826   0.00003   0.00108   0.00007   0.00115   2.07940
   R21        2.07749   0.00005   0.00099   0.00013   0.00112   2.07862
   R22        2.06463   0.00043  -0.00016   0.00139   0.00123   2.06586
   R23        2.05655  -0.00008   0.00081  -0.00024   0.00057   2.05712
   R24        2.05987   0.00035   0.00120   0.00108   0.00228   2.06215
    A1        1.96883  -0.00114  -0.00827  -0.00470  -0.01297   1.95586
    A2        1.90629   0.00166   0.00045   0.01136   0.01181   1.91810
    A3        2.10064  -0.00079   0.00071  -0.00344  -0.00279   2.09785
    A4        2.11410   0.00024   0.00219   0.00103   0.00315   2.11725
    A5        2.06797   0.00054  -0.00296   0.00207  -0.00091   2.06706
    A6        1.95128  -0.00259  -0.00246  -0.01575  -0.01828   1.93300
    A7        1.91282  -0.00012  -0.00039  -0.00513  -0.00547   1.90735
    A8        1.92855   0.00012   0.00183  -0.00546  -0.00374   1.92481
    A9        1.90819   0.00146   0.00186   0.01088   0.01266   1.92085
   A10        1.90534   0.00090  -0.00305   0.00476   0.00157   1.90691
   A11        1.85510   0.00041   0.00252   0.01235   0.01481   1.86991
   A12        2.11742  -0.00064   0.00259  -0.00301  -0.00041   2.11702
   A13        2.10066   0.00104   0.00005   0.00633   0.00636   2.10702
   A14        2.06505  -0.00040  -0.00265  -0.00327  -0.00593   2.05912
   A15        2.10919   0.00043   0.00272   0.00148   0.00418   2.11337
   A16        2.08138  -0.00010  -0.00254  -0.00062  -0.00317   2.07820
   A17        2.09248  -0.00033  -0.00020  -0.00068  -0.00090   2.09158
   A18        2.10580   0.00075   0.00126   0.00315   0.00443   2.11023
   A19        2.08966  -0.00028  -0.00196  -0.00077  -0.00274   2.08692
   A20        2.08773  -0.00048   0.00070  -0.00238  -0.00169   2.08604
   A21        2.04858  -0.00230  -0.00615  -0.01012  -0.01627   2.03230
   A22        2.15406   0.00170   0.00772   0.00694   0.01466   2.16872
   A23        2.08048   0.00060  -0.00158   0.00323   0.00164   2.08213
   A24        2.10212  -0.00093   0.00087  -0.00477  -0.00390   2.09822
   A25        2.09269   0.00092   0.00129   0.00534   0.00662   2.09931
   A26        2.08838   0.00001  -0.00216  -0.00057  -0.00273   2.08565
   A27        2.16813  -0.00015   0.00005  -0.00081  -0.00081   2.16732
   A28        2.03023  -0.00075  -0.00199  -0.00516  -0.00720   2.02303
   A29        2.08461   0.00090   0.00194   0.00582   0.00771   2.09232
   A30        1.93257  -0.00043   0.00047  -0.00382  -0.00337   1.92920
   A31        1.92958  -0.00010  -0.00015  -0.00142  -0.00160   1.92798
   A32        1.85667   0.00218  -0.00369   0.01684   0.01313   1.86980
   A33        1.91715  -0.00064  -0.00047  -0.00707  -0.00757   1.90958
   A34        1.91494  -0.00041   0.00208  -0.00151   0.00055   1.91550
   A35        1.91203  -0.00054   0.00176  -0.00234  -0.00061   1.91142
   A36        2.11640   0.00101   0.00160   0.00680   0.00840   2.12480
   A37        2.11502  -0.00014  -0.00064  -0.00090  -0.00155   2.11347
   A38        2.05177  -0.00087  -0.00096  -0.00589  -0.00686   2.04491
    D1       -1.67048  -0.00242  -0.01106  -0.10494  -0.11600  -1.78649
    D2        1.48948  -0.00260  -0.00910  -0.11615  -0.12525   1.36422
    D3        1.06340  -0.00060  -0.00120  -0.00606  -0.00725   1.05615
    D4       -1.06548   0.00057  -0.00082   0.00646   0.00564  -1.05985
    D5       -3.14007  -0.00002  -0.00064   0.00009  -0.00056  -3.14064
    D6       -3.13337  -0.00010   0.00083  -0.00543  -0.00459  -3.13796
    D7       -0.00404  -0.00003  -0.00067  -0.00089  -0.00157  -0.00561
    D8        1.52243  -0.00067  -0.00543  -0.04234  -0.04780   1.47463
    D9       -2.64213  -0.00062  -0.00498  -0.04252  -0.04748  -2.68961
   D10       -0.60350  -0.00012  -0.00110  -0.03375  -0.03491  -0.63842
   D11       -1.58539  -0.00041  -0.00170  -0.03039  -0.03207  -1.61746
   D12        0.53324  -0.00036  -0.00126  -0.03057  -0.03175   0.50148
   D13        2.57186   0.00014   0.00262  -0.02180  -0.01919   2.55267
   D14       -3.12097   0.00029   0.00225   0.01392   0.01610  -3.10487
   D15        0.03163   0.00023   0.00353   0.00909   0.01257   0.04420
   D16       -0.01227   0.00003  -0.00138   0.00227   0.00090  -0.01137
   D17        3.14033  -0.00003  -0.00009  -0.00257  -0.00263   3.13770
   D18        3.11155  -0.00037  -0.00330  -0.01561  -0.01894   3.09261
   D19       -0.02931  -0.00043  -0.00340  -0.01884  -0.02225  -0.05156
   D20        0.00311  -0.00009   0.00036  -0.00377  -0.00345  -0.00033
   D21       -3.13775  -0.00015   0.00026  -0.00700  -0.00676   3.13868
   D22       -2.04806  -0.00002   0.00041  -0.00982  -0.00952  -2.05758
   D23        1.07145  -0.00023  -0.00402  -0.01783  -0.02189   1.04957
   D24        2.11382   0.00084   0.00123  -0.00045   0.00081   2.11463
   D25       -1.04985   0.00063  -0.00320  -0.00846  -0.01156  -1.06141
   D26        0.09117  -0.00097  -0.00116  -0.02395  -0.02515   0.06602
   D27       -3.07251  -0.00118  -0.00560  -0.03196  -0.03751  -3.11002
   D28       -3.10712  -0.00012   0.00377  -0.00971  -0.00591  -3.11303
   D29        0.01599   0.00006   0.00181   0.00158   0.00338   0.01937
   D30        0.02369  -0.00005   0.00251  -0.00491  -0.00240   0.02128
   D31       -3.13639   0.00013   0.00054   0.00637   0.00689  -3.12950
   D32       -0.04018   0.00015  -0.00454   0.01151   0.00699  -0.03320
   D33        3.11314   0.00007  -0.00311   0.00714   0.00402   3.11716
   D34        3.11960  -0.00004  -0.00261   0.00038  -0.00220   3.11740
   D35       -0.01027  -0.00012  -0.00118  -0.00399  -0.00517  -0.01543
   D36        0.00225   0.00004   0.00023   0.00143   0.00165   0.00390
   D37       -3.13999  -0.00005   0.00016  -0.00297  -0.00281   3.14039
   D38       -3.14007   0.00011   0.00033   0.00465   0.00496  -3.13511
   D39        0.00087   0.00001   0.00026   0.00026   0.00050   0.00137
   D40       -3.12780   0.00000   0.00169  -0.00204  -0.00031  -3.12811
   D41        0.01444   0.00010   0.00176   0.00234   0.00411   0.01855
   D42        0.00132   0.00006   0.00018   0.00248   0.00268   0.00400
   D43       -3.13963   0.00015   0.00025   0.00687   0.00710  -3.13253
   D44        3.12532  -0.00008  -0.00278  -0.00248  -0.00531   3.12000
[...]
 01208090,0.00112212,0.00134456,0.00142919,-0.00025305,-0.00032212,0.00
 316558,0.00105821,-0.00107328,0.00097007,0.00012863,-0.12884832,-0.121
 61683,-0.00840392,-0.00452886,0.00171559,0.00129933,-0.01085798,-0.027
 37979,-0.00248920,-0.00008407,-0.00003942,-0.00002445,-0.00002446,0.00
 005117,-0.00001793,0.00002257,-0.00005904,0.00004596,-0.00050610,-0.00
 013227,-0.00007946,0.00004082,-0.00003005,-0.00001076,0.00047878,0.000
 66332,0.00006354,0.13523296,-0.00014366,0.00002916,0.00019742,-0.00015
 635,0.00005972,-0.00002720,-0.01632390,-0.01818442,-0.00153923,-0.0019
 1997,0.00047775,0.00064585,0.00375724,-0.00358101,-0.00174911,0.001254
 00,0.00004856,-0.00003602,-0.12132804,-0.26032436,-0.02023082,0.001047
 84,0.00212825,-0.00064107,0.00254576,0.00350392,-0.00008266,0.00035902
 ,0.00019624,0.00014110,-0.00001691,0.00005040,-0.00008450,-0.00002250,
 0.00015954,-0.00003023,0.00154865,0.00032048,-0.00004400,0.00002919,0.
 00022170,0.00010456,-0.00093779,-0.00093239,-0.00007624,0.13072651,0.2
 7539652,-0.00019342,0.00009803,-0.00065930,0.00012988,0.00013421,0.000
 35292,-0.00308940,-0.00423172,0.00339262,-0.00047683,0.00089097,-0.004
 48022,0.00129365,-0.00142392,0.00612932,0.00014771,-0.00007802,-0.0007
 8111,-0.00832544,-0.02021778,-0.03671674,0.00099948,-0.00085337,0.0063
 3390,0.00165185,0.00263959,0.00259549,-0.00046589,0.00027923,0.0004258
 3,0.00011356,0.00008540,-0.00005292,-0.00005739,0.00009034,-0.00019603
 ,0.00015212,-0.00021512,0.00029083,0.00066110,-0.00046631,-0.00008795,
 -0.00013952,-0.00025169,0.00020566,0.00811514,0.02281471,0.02701914,0.
 00060242,-0.00101205,-0.00012596,0.00324976,-0.00034663,-0.00060097,-0
 .00567714,-0.00119745,0.00093539,-0.00009563,0.00129484,0.00013758,-0.
 00089828,-0.00107621,-0.00021716,-0.00120408,-0.00289097,0.00020821,-0
 .00844735,0.02885669,0.00488208,0.00828504,-0.01432213,-0.00217805,-0.
 11753422,0.11058312,0.02262513,-0.00027077,-0.00018237,0.00028683,0.00
 007125,0.00005292,-0.00018270,-0.00005841,0.00014328,-0.00010572,0.000
 05173,-0.00005686,-0.00004261,-0.00025449,0.00003183,0.00003446,0.0000
 2186,0.00012482,-0.00001296,0.00053148,-0.00034926,-0.00044822,0.12227
 034,0.00027471,-0.00206487,0.00000262,0.00045232,0.00242485,0.00088222
 ,-0.00033445,0.00256775,-0.00042827,-0.00021187,-0.00002043,-0.0000507
 5,-0.00135752,-0.00001161,0.00026520,-0.00389978,-0.00163593,-0.000698
 84,-0.00118225,0.00285726,0.00017857,0.01783551,-0.01836261,-0.0045353
 2,0.11045875,-0.26277207,-0.04136901,0.00001805,0.00000967,-0.00006996
 ,0.00033190,0.00013877,-0.00059033,0.00001513,-0.00001214,0.00004187,-
 0.00000874,-0.00000397,0.00000367,0.00006782,-0.00002632,-0.00000674,0
 .00004028,-0.00006558,0.00002014,0.00036765,0.00049790,0.00055148,-0.1
 2055772,0.27748508,0.00004419,0.00001057,-0.00041315,-0.00050041,0.000
 90711,-0.00416477,0.00091289,-0.00020109,0.00612018,0.00003168,-0.0001
 1554,0.00035756,-0.00034761,0.00017443,-0.00124058,0.00030749,-0.00113
 359,0.00587546,0.00116175,-0.00251039,0.00181010,0.00183014,-0.0015780
 8,0.00410741,0.02242208,-0.04156940,-0.03962265,0.00016878,0.00004410,
 -0.00000343,-0.00002935,0.00009742,0.00000213,0.00002797,-0.00004142,-
 0.00000867,-0.00000301,-0.00001852,-0.00002578,-0.00007024,-0.00007050
 ,0.00000421,-0.00002525,0.00001099,-0.00026136,-0.00036655,0.00062758,
 -0.00372993,-0.02533755,0.04563242,0.03062890,0.00006394,0.00005524,0.
 00000868,0.00019785,-0.00001399,-0.00000799,0.00197775,-0.00064644,-0.
 00010000,0.00310226,-0.00025946,-0.01232688,0.00008744,-0.00013614,0.0
 0030782,-0.00023795,-0.00013324,0.00006716,-0.00022559,0.00023579,0.00
 028985,-0.00016061,-0.00011670,-0.00006192,0.00015729,0.00009944,0.000
 00918,-0.05038572,0.01038918,0.03541303,-0.00005179,-0.00000404,-0.000
 00787,0.00389589,0.00348905,0.01667970,0.00027330,0.00029148,0.0001583
 4,-0.00001794,0.00220209,-0.00144117,0.00003397,-0.00005535,-0.0001151
 4,0.00002107,-0.00003013,-0.00004155,0.00000348,-0.00000145,-0.0000107
 0,0.03979590,0.00002384,-0.00002853,0.00002218,0.00001906,-0.00001352,
 -0.00001198,-0.00109469,0.00036125,-0.00021845,-0.00138603,0.00438856,
 0.02201713,0.00008770,0.00016548,-0.00008501,-0.00008092,0.00006320,0.
 00006208,0.00008613,-0.00008350,-0.00037457,-0.00001113,-0.00001599,0.
 00002093,0.00004993,-0.00006374,-0.00001568,0.01030233,-0.05458829,-0.
 02944697,-0.00002985,0.00001603,-0.00004637,0.00548018,0.00053201,-0.0
 2679133,-0.00072665,0.00060405,-0.00081281,0.00255869,-0.00236849,0.00
 276358,0.00005638,-0.00005930,-0.00006084,-0.00001770,-0.00004474,0.00
 005185,0.00002089,-0.00000679,0.00001485,-0.01893642,0.05316909,-0.000
 04493,-0.00006977,0.00005511,-0.00012097,-0.00000468,0.00003169,0.0012
 3224,-0.00020269,0.00041606,0.00316059,-0.00317744,-0.01522443,-0.0001
 6966,-0.00012255,0.00017569,-0.00015745,0.00008127,0.00000493,-0.00062
 890,0.00017870,0.00018908,0.00002657,-0.00012526,-0.00005165,0.0001119
 3,0.00007666,-0.00001112,0.03634276,-0.03346633,-0.31563924,-0.0000164
 1,0.00003934,-0.00009753,0.00023118,0.00117597,-0.00752829,0.00005846,
 0.00052507,0.00015726,-0.00140428,0.00257144,-0.00080007,0.00003350,0.
 00001814,-0.00015251,0.00001925,-0.00000972,-0.00004258,-0.00003728,0.
 00001225,-0.00000612,-0.03976876,0.03411397,0.33659374,0.01336697,-0.0
 0614599,0.01632402,0.00032030,0.00038754,-0.00017803,-0.00000842,-0.00
 032277,-0.00022739,0.00000835,0.00002721,0.00003273,0.00052376,0.00137
 061,-0.00047628,0.00297032,0.00081745,0.00164271,-0.00015714,0.0002376
 2,0.00009776,-0.00091579,-0.00024746,-0.00051796,0.00041798,0.00013218
 ,0.00000898,0.00001097,0.00003438,-0.00005680,-0.19417633,0.03104903,-
 0.12555816,0.00001428,-0.00001382,0.00001614,0.00002419,0.00000365,0.0
 0000555,0.00000905,-0.00000190,0.00000477,-0.00006968,0.00010206,0.000
 14992,0.00000506,0.00001582,0.00001065,-0.00001629,-0.00001935,0.00000
 233,0.00000923,0.00000613,0.00000857,0.19990272,0.00222212,-0.00294911
 ,0.01276794,-0.00044752,-0.00047201,0.00031841,-0.00005416,-0.00011399
 ,-0.00010719,0.00000119,0.00000841,-0.00000500,-0.00045761,0.00036403,
 -0.00027954,0.00331633,0.00208036,0.00162594,-0.00002386,0.00000514,0.
 00005028,0.00068588,-0.00037711,-0.00061123,-0.00000127,-0.00010868,-0
 .00011308,-0.00000338,0.00002429,0.00002883,0.03023626,-0.05819825,0.0
 2277542,-0.00000461,-0.00001601,-0.00001804,0.00000665,-0.00000277,0.0
 0000570,0.00000559,0.00000180,-0.00000591,0.00004814,0.00002581,0.0001
 0676,-0.00000852,-0.00000095,0.00000729,-0.00000666,-0.00002386,0.0000
 1886,-0.00001599,-0.00000554,-0.00001276,-0.03233251,0.05464003,-0.008
 63077,0.01268499,-0.02990952,-0.00020342,-0.00050712,0.00014998,0.0000
 8046,0.00017437,-0.00007379,-0.00001714,0.00004817,0.00001377,0.000682
 32,0.00044503,0.00022061,-0.00383291,-0.00577697,-0.00005943,0.0004133
 6,0.00006294,-0.00005364,0.00068041,0.00125570,0.00024293,-0.00050143,
 -0.00020972,0.00010907,-0.00004612,0.00005497,-0.00005686,-0.12018966,
 0.02536039,-0.14980426,0.00000452,-0.00006948,0.00000341,0.00001670,-0
 .00000344,0.00001518,0.00000604,-0.00001330,-0.00000029,0.00005663,-0.
 00001323,-0.00019433,0.00000964,-0.00000593,-0.00000930,0.00002122,0.0
 0008484,-0.00000243,0.00001059,0.00001614,0.00002093,0.12954311,-0.032
 84685,0.17288202,-0.00559114,0.00094588,0.00881013,0.00042815,0.001170
 64,-0.00117852,0.00002049,0.00023719,0.00006455,-0.00000407,-0.0000479
 6,0.00001512,-0.00062554,-0.00051169,-0.00028396,0.00113194,0.00353065
 ,0.00043037,0.00003453,-0.00013363,-0.00007849,-0.00106366,-0.00081707
 ,0.00047096,0.00001674,-0.00012690,0.00005574,-0.00001156,0.00001178,0
 .00001377,-0.16099667,0.11335819,0.05489211,-0.00001426,-0.00003042,-0
 .00001056,-0.00001892,-0.00000963,0.00000345,0.00001122,0.00000129,-0.
 00000365,0.00015085,0.00000508,-0.00003368,0.00001258,-0.00001361,-0.0
 0001509,-0.00001261,-0.00005965,0.00007779,0.00000309,0.00000942,0.000
 00059,-0.01325688,0.01656072,0.00700921,0.16752122,-0.01221145,0.01061
 107,0.01015719,0.00090417,-0.00366932,0.00198720,0.00002212,0.00020871
 ,0.00007943,-0.00003097,-0.00004229,-0.00000679,-0.00039423,-0.0005425
 5,-0.00012626,-0.00044182,0.00309653,-0.00008800,0.00011876,-0.0000861
 8,0.00004771,-0.00113749,0.00005428,0.00019664,0.00000478,0.00021497,-
 0.00010353,0.00002122,0.00003426,-0.00003047,0.11784944,-0.17422554,-0
 .06437987,0.00001535,-0.00000797,0.00001358,-0.00000366,0.00000463,0.0
 0000557,0.00003046,-0.00001000,-0.00000521,0.00005829,-0.00003912,-0.0
 0002612,0.00002978,0.00000852,0.00000332,0.00004812,0.00004295,-0.0000
 1374,-0.00000549,-0.00000135,0.00000338,0.00080948,-0.00160003,-0.0016
 1007,-0.12382075,0.18143954,0.02265845,-0.01138407,-0.01793419,-0.0014
 2740,0.00054604,-0.00034929,0.00000842,-0.00030842,-0.00002957,0.00000
 968,0.00008708,0.00000533,0.00074156,0.00108522,0.00022565,-0.00255247
 ,-0.00419284,0.00013985,-0.00004118,0.00016283,-0.00000635,0.00303622,
 0.00033846,-0.00018791,-0.00042587,0.00010674,-0.00006520,-0.00001729,
 0.00001544,-0.00002438,0.05151589,-0.05572532,-0.07502523,0.00000952,-
 0.00000795,0.00000102,0.00003292,0.00000588,0.00000352,-0.00001164,-0.
 00000614,0.00000554,-0.00016693,0.00001144,-0.00006166,-0.00003087,0.0
 0001089,0.00001934,0.00002070,0.00009992,0.00002524,-0.00000005,0.0000
 0489,0.00000772,-0.01348858,0.01395936,0.00931846,-0.06389336,0.060771
 66,0.08519080,-0.00901188,-0.01534436,0.00077230,0.00057619,0.00046679
 ,-0.00050560,0.00000563,0.00006281,-0.00015904,0.00000976,-0.00003905,
 -0.00002064,0.00015291,-0.00045728,0.00005212,-0.00004668,0.00016244,0
 .00302184,-0.00012753,-0.00010594,0.00000022,-0.00136386,-0.00010321,0
 .00035359,0.00010297,0.00005130,-0.00009093,0.00001253,-0.00003826,0.0
 0001960,-0.10602893,-0.10391205,-0.02983099,-0.00000942,0.00002539,-0.
 00000142,-0.00001823,-0.00000248,0.00000038,-0.00000831,0.00000692,0.0
 0000688,-0.00001021,-0.00000750,0.00001797,0.00000376,-0.00000441,0.00
 000719,-0.00000950,-0.00005220,-0.00000581,0.00000769,0.00000451,0.000
 00323,-0.00906445,-0.01967772,-0.00515622,0.01213085,0.01775406,0.0044
 1013,0.11266206,-0.00794159,-0.01143879,0.00195494,0.00026451,-0.00024
 313,0.00036729,-0.00005584,-0.00020279,-0.00018839,0.00002820,-0.00002
 297,-0.00003260,0.00015627,-0.00033343,0.00018481,0.00001774,0.0018881
 3,0.00231430,-0.00028841,-0.00000165,0.00004191,-0.00008226,-0.0000580
 2,-0.00016000,0.00017225,0.00016437,-0.00011117,-0.00000191,-0.0000542
 5,0.00005168,-0.10673527,-0.24697528,-0.05494273,-0.00002436,0.0000254
 2,-0.00001650,-0.00001845,-0.00000653,-0.00000499,-0.00002323,0.000015
 90,0.00000701,0.00000847,0.00000575,0.00006518,-0.00001248,-0.00001130
 ,0.00001545,0.00001158,-0.00003503,-0.00000591,0.00000730,0.00000073,-
 0.00000532,0.00404227,0.00680264,0.00091319,-0.01054039,-0.01512883,-0
 .00535799,0.12115869,0.26563481,0.02038075,0.03393881,0.00047805,-0.00
 050871,-0.00023318,0.00013052,0.00023637,-0.00009506,0.00030851,0.0000
 0637,0.00009047,0.00003575,0.00045961,0.00094867,0.00006087,0.00190737
 ,0.00080875,-0.00403859,0.00016850,0.00005833,-0.00006790,0.00110387,0
 .00060667,-0.00003380,-0.00026212,-0.00001561,0.00021888,-0.00001399,0
 .00001393,-0.00003898,-0.03711194,-0.06622018,-0.06455613,0.00000199,-
 0.00001489,0.00001607,0.00003012,0.00000350,-0.00000781,-0.00000571,-0
 .00000711,-0.00000029,0.00000448,-0.00001984,-0.00018979,-0.00000609,0
 .00000643,-0.00001861,0.00001072,0.00007218,-0.00001584,0.00000992,0.0
 0000468,0.00001075,-0.00730170,-0.01772805,-0.00286360,-0.00619779,-0.
 00709814,-0.00146428,0.02713644,0.05489542,0.07202596,0.00050520,-0.00
 123174,0.00013302,-0.10200778,0.13329491,0.02056089,0.00042268,-0.0007
 3221,-0.00008027,-0.00003279,-0.00017121,-0.00002965,0.00044996,0.0020
 7746,0.00042701,-0.00712103,-0.00290822,0.00035602,-0.00086288,0.00033
 434,0.00015318,-0.02490064,0.04661214,0.00632434,0.00345431,0.00133588
 ,-0.00011131,0.00002864,0.00012965,-0.00010687,0.00016513,0.00012552,-
 0.00027979,0.00005900,-0.00007290,0.00002432,-0.00002316,0.00000306,0.
 00002584,0.00010133,-0.00001668,-0.00002016,-0.00044933,-0.00008052,0.
 00004362,0.00030247,0.00005554,-0.00002436,-0.00061409,-0.00217492,-0.
 00028173,-0.00002405,-0.00000471,0.00000427,0.00007923,-0.00006401,0.0
 0001573,0.00011629,0.00038858,-0.00039090,0.00004444,-0.00014483,-0.00
 005280,0.13031799,0.00026912,0.00044557,0.00017951,0.18403667,-0.47467
 705,-0.05963590,-0.00028726,-0.00023414,-0.00011899,0.00007562,0.00000
 880,0.00005463,0.00050068,-0.00020430,-0.00016234,-0.00284119,0.001540
 49,0.00025925,-0.00010098,-0.00084973,-0.00005375,-0.00068744,0.001742
 43,0.00012821,-0.00488453,0.00382007,0.00098184,-0.00003832,-0.0000755
 8,0.00002658,-0.00016425,0.00013424,0.00019005,-0.00002546,0.00002417,
 -0.00001178,-0.00002548,-0.00000858,-0.00000967,-0.00009444,0.00001119
 ,0.00001093,-0.00001653,0.00007684,0.00005595,-0.00018581,-0.00000903,
 0.00003204,0.00078793,-0.00097314,-0.00027051,0.00001683,0.00000229,-0
 .00000534,0.00005425,-0.00008549,-0.00004268,0.00027676,-0.00035279,-0
 .00021777,0.00005215,-0.00003608,-0.00001498,-0.17672886,0.46968793,0.
 00042188,0.00032797,-0.00036654,0.02481461,-0.05586963,-0.01042390,-0.
 00009853,0.00000383,0.00019332,0.00000277,0.00000116,0.00006499,0.0002
 6341,-0.00038015,0.00110654,0.00037008,-0.00023027,0.00141146,0.000034
 51,0.00001410,-0.00087905,0.00202276,-0.00341149,-0.00232707,-0.000931
 15,0.00046199,-0.00042099,0.00003039,-0.00001423,0.00003308,-0.0001144
 5,0.00019192,-0.00021252,-0.00000068,0.00002309,-0.00000633,-0.0000052
 8,0.00000583,-0.00000994,-0.00002068,-0.00000872,-0.00001785,0.0000232
 4,0.00005325,-0.00019949,-0.00002869,0.00000069,-0.00002937,0.00013071
 ,-0.00009724,0.00056470,-0.00000173,0.00000458,-0.00001271,-0.00004750
 ,0.00006435,0.00003751,-0.00014709,0.00022254,0.00019704,-0.00002835,0
 .00001794,0.00000809,-0.02668969,0.05862077,0.01129644,-0.00003890,-0.
 00011988,0.00003598,0.00000084,-0.00001010,-0.00000002,0.00096522,-0.0
 0157227,0.00067667,0.00876089,0.00773221,0.00202610,-0.00004107,-0.000
 13424,0.00002523,-0.00008539,0.00011902,0.00000038,0.00012214,0.000205
 03,0.00012495,-0.00001345,-0.00013193,0.00000266,0.00012025,-0.0000751
 2,-0.00007281,-0.00185797,0.01017789,-0.01119295,-0.00001517,0.0000288
 5,-0.00007584,-0.08272735,0.08175721,-0.06700592,-0.00151264,0.0017158
 1,-0.00118168,-0.00005742,-0.00019590,0.00011471,-0.00005787,0.0001038
 6,-0.00009616,0.00002038,-0.00009630,0.00000697,0.00002535,0.00000417,
 -0.00002768,-0.00538371,-0.00367789,-0.00022429,0.00000584,0.00000904,
 0.00002694,0.00000863,-0.00000358,0.00001034,-0.00000902,-0.00000462,0
 .00000530,-0.00000396,0.00000580,-0.00000478,0.07801928,0.00011122,0.0
 0013383,-0.00004258,0.00026994,0.00000584,-0.00001317,0.00010220,-0.00
 177529,0.00080794,0.00671375,0.00262474,-0.00266775,0.00000395,-0.0000
 9906,-0.00006578,-0.00003094,-0.00013428,-0.00006277,0.00052774,0.0001
 6911,0.00000772,-0.00020076,-0.00002087,0.00002737,0.00008503,-0.00005
 308,-0.00012889,0.00957900,-0.01253388,0.01855404,-0.00002795,-0.00003
 358,0.00007859,0.08170752,-0.17707502,0.11904641,-0.00038190,0.0003292
 7,-0.00026626,-0.00017250,0.00020768,-0.00006904,-0.00001591,0.0000459
 2,0.00002387,-0.00000333,-0.00001714,0.00005736,0.00006675,-0.00001250
 ,-0.00001579,-0.00354972,-0.00177942,-0.00065205,-0.00000791,0.0000016
 2,-0.00000905,0.00000166,-0.00000980,-0.00000347,0.00000444,0.00001287
 ,-0.00000349,-0.00003277,0.00001453,0.00000229,-0.09331558,0.18494757,
 -0.00002265,-0.00004574,0.00001230,-0.00001341,0.00000158,0.00000724,0
 .00003961,-0.00008591,0.00039746,0.00138309,-0.00110404,-0.00047700,0.
 00000252,-0.00008062,-0.00000638,0.00002945,0.00006262,0.00001412,0.00
 002109,-0.00001169,-0.00002763,0.00001443,-0.00001892,-0.00000822,0.00
 000775,0.00001309,-0.00005378,0.00606865,-0.01023612,0.00967604,0.0000
 0926,0.00000999,-0.00002136,-0.06978537,0.12346062,-0.17021762,-0.0001
 0154,-0.00005117,0.00029869,0.00007285,-0.00026065,0.00051633,0.000017
 86,0.00007378,-0.00006655,0.00000587,-0.00000546,0.00003105,0.00000090
 ,-0.00000054,-0.00000364,-0.00037046,0.00001863,0.00100882,-0.00000076
 ,0.00000535,0.00000921,0.00000144,-0.00000117,0.00000358,-0.00000685,-
 0.00000341,-0.00000077,0.00000399,0.00000032,-0.00000231,0.07324356,-0
 .12995798,0.17080564,0.00006423,0.00000624,-0.00004227,0.00006054,-0.0
 0003891,-0.00001786,-0.00020699,0.00107717,-0.00022516,-0.00564204,-0.
 00499867,0.00080480,0.00007102,0.00031690,0.00007891,-0.00006038,-0.00
 014213,-0.00000419,-0.00027507,-0.00012895,-0.00006930,-0.00000968,0.0
 0005778,0.00001168,0.00001725,0.00004399,0.00005311,0.00315759,0.00388
 903,0.01634118,-0.00003856,-0.00002112,0.00004856,-0.04595685,0.013738
 28,0.03447900,0.00076938,-0.00095897,0.00005327,0.00003406,0.00036106,
 -0.00067105,-0.00007806,-0.00011618,0.00008669,0.00000056,0.00000326,-
 0.00001220,-0.00001985,-0.00000636,0.00001881,0.00685724,0.00726080,0.
 00133981,-0.00000324,0.00000591,0.00000079,0.00000874,-0.00000515,-0.0
 0000730,-0.00000077,0.00000635,-0.00000096,-0.00000694,0.00000475,0.00
 000423,0.00375511,-0.00143392,-0.01062129,0.03750272,-0.00001611,-0.00
 006383,-0.00000313,-0.00007127,-0.00001887,0.00000403,0.00001353,0.000
 71406,0.00006720,-0.00434950,-0.00137205,-0.00189912,-0.00007608,0.000
 05751,0.00011077,0.00000258,0.00001739,0.00002533,-0.00024995,-0.00002
 904,-0.00001790,0.00005202,0.00003841,-0.00001460,-0.00004176,0.000012
 03,0.00003921,0.00498015,0.00046665,-0.02596329,-0.00000511,0.00000991
 ,-0.00001244,0.01338189,-0.05494862,-0.03376739,0.00043501,-0.00044518
 ,0.00023604,0.00031745,-0.00048150,0.00093691,-0.00003255,-0.00000594,
 -0.00001446,0.00000269,0.00000668,-0.00001334,-0.00002444,0.00000263,0
 .00000613,0.00711816,-0.00024349,-0.00094227,0.00000202,-0.00000033,0.
 00000712,0.00000245,0.00000031,-0.00000189,-0.00000501,-0.00000254,0.0
 0000270,0.00000651,-0.00000265,-0.00000459,-0.00252149,0.00505091,0.01
 821741,-0.01892118,0.05123752,-0.00001335,0.00001308,0.00003710,0.0000
 3337,0.00000733,0.00001152,-0.00017086,0.00023040,0.00015747,-0.001240
 65,0.00101993,0.00133681,0.00000389,-0.00015839,-0.00000746,0.00002651
 ,0.00001060,-0.00001317,-0.00002198,-0.00002053,-0.00001295,-0.0000406
 4,0.00001062,-0.00000314,-0.00003115,0.00004044,-0.00002530,0.00072622
 ,0.00046224,-0.00931872,-0.00000031,0.00001402,-0.00004421,0.03685849,
 -0.03806578,-0.32192322,-0.00003344,0.00006612,0.00011746,0.00052021,-
 0.00073497,0.00059125,0.00015117,-0.00000808,-0.00007310,0.00000216,0.
 00001297,0.00000797,-0.00000474,-0.00000040,0.00000247,0.00129994,-0.0
 0125148,0.00089448,0.00000594,-0.00000685,0.00000438,-0.00000306,0.000
 00116,0.00000496,0.00000394,-0.00000011,0.00000294,-0.00000473,0.00000
 364,-0.00000510,0.00358234,-0.00464753,-0.01189523,-0.04164926,0.04300
 158,0.34015281\\0.00000131,-0.00001902,0.00000942,-0.00000525,0.000002
 20,-0.00000423,0.00000205,-0.00004483,-0.00000802,0.00000363,-0.000001
 77,0.00001292,0.00002712,0.00004149,0.00000479,-0.00003596,-0.00001597
 ,0.00000290,-0.00004041,0.00001749,0.00000085,0.00001487,0.00001002,0.
 00000013,0.00003581,0.00001590,-0.00000357,-0.00000387,0.00000268,-0.0
 0000616,0.00000656,0.00000590,-0.00002291,0.00000099,-0.00000050,0.000
 00301,-0.00000121,0.00000311,0.00000028,-0.00000127,-0.00000157,-0.000
 00438,-0.00000178,-0.00000721,0.00000075,0.00000817,-0.00000189,0.0000
 0002,-0.00000533,-0.00000325,-0.00000091,-0.00000004,0.00000185,0.0000
 0284,0.,0.00000076,0.00000568,-0.00000059,0.00000348,0.00000383,-0.000
 00358,0.00000231,0.00000088,0.00000012,-0.00000490,0.00000064,0.000000
 19,-0.00000128,0.00000180,-0.00000152,-0.00000501,-0.00000057\\\@


 TERRY FORSTER, PORTLY ATLANTA BRAVES RELIEVER,
 ANNOUNCING THAT HE WAS GOING TO A FAT FARM:
 "A WAIST IS A TERRIBLE THING TO MIND."
 Job cpu time:       0 days  2 hours 52 minutes  4.2 seconds.
 Elapsed time:       0 days  0 hours 10 minutes 47.7 seconds.
 File lengths (MBytes):  RWF=    259 Int=      0 D2E=      0 Chk=     11 Scr=      1
 Normal termination of Gaussian 16 at Mon Oct  6 22:12:03 2025.
