 Entering Gaussian System, Link 0=g16
 Input=EOXE0114.gjf
 Output=EOXE0114.log
 Initial command:
 /usr/local/g16/l1.exe "/dados_01/scratch/Gau-2087511.inp" -scrdir="/dados_01/scratch/"
 Entering Link 1 = /usr/local/g16/l1.exe PID=   2087512.
  
 Copyright (c) 1988-2017, Gaussian, Inc.  All Rights Reserved.
  
 This is part of the Gaussian(R) 16 program.  It is based on
 the Gaussian(R) 09 system (copyright 2009, Gaussian, Inc.),
 the Gaussian(R) 03 system (copyright 2003, Gaussian, Inc.),
 the Gaussian(R) 98 system (copyright 1998, Gaussian, Inc.),
 the Gaussian(R) 94 system (copyright 1995, Gaussian, Inc.),
 the Gaussian 92(TM) system (copyright 1992, Gaussian, Inc.),
 the Gaussian 90(TM) system (copyright 1990, Gaussian, Inc.),
 the Gaussian 88(TM) system (copyright 1988, Gaussian, Inc.),
 the Gaussian 86(TM) system (copyright 1986, Carnegie Mellon
 University), and the Gaussian 82(TM) system (copyright 1983,
 Carnegie Mellon University). Gaussian is a federally registered
 trademark of Gaussian, Inc.
  
 This software contains proprietary and confidential information,
 including trade secrets, belonging to Gaussian, Inc.
  
 This software is provided under written license and may be
 used, copied, transmitted, or stored only in accord with that
 written license.
  
 The following legend is applicable only to US Government
 contracts under FAR:
  
                    RESTRICTED RIGHTS LEGEND
  
 Use, reproduction and disclosure by the US Government is
 subject to restrictions as set forth in subparagraphs (a)
 and (c) of the Commercial Computer Software - Restricted
 Rights clause in FAR 52.227-19.
  
 Gaussian, Inc.
 340 Quinnipiac St., Bldg. 40, Wallingford CT 06492
  
  
 ---------------------------------------------------------------
 Warning -- This program may not be used in any manner that
 competes with the business of Gaussian, Inc. or will provide
 assistance to any competitor of Gaussian, Inc.  The licensee
 of this program is prohibited from giving any competitor of
 Gaussian, Inc. access to this program.  By using this program,
 the user acknowledges that Gaussian, Inc. is engaged in the
 business of creating and licensing software in the field of
 computational chemistry and represents and warrants to the
 licensee that it is not a competitor of Gaussian, Inc. and that
 it will not use this program in any manner prohibited above.
 ---------------------------------------------------------------
  

 Cite this work as:
 Gaussian 16, Revision B.01,
 M. J. Frisch, G. W. Trucks, H. B. Schlegel, G. E. Scuseria, 
 M. A. Robb, J. R. Cheeseman, G. Scalmani, V. Barone, 
 G. A. Petersson, H. Nakatsuji, X. Li, M. Caricato, A. V. Marenich, 
 J. Bloino, B. G. Janesko, R. Gomperts, B. Mennucci, H. P. Hratchian, 
 J. V. Ortiz, A. F. Izmaylov, J. L. Sonnenberg, D. Williams-Young, 
 F. Ding, F. Lipparini, F. Egidi, J. Goings, B. Peng, A. Petrone, 
 T. Henderson, D. Ranasinghe, V. G. Zakrzewski, J. Gao, N. Rega, 
 G. Zheng, W. Liang, M. Hada, M. Ehara, K. Toyota, R. Fukuda, 
 J. Hasegawa, M. Ishida, T. Nakajima, Y. Honda, O. Kitao, H. Nakai, 
 T. Vreven, K. Throssell, J. A. Montgomery, Jr., J. E. Peralta, 
 F. Ogliaro, M. J. Bearpark, J. J. Heyd, E. N. Brothers, K. N. Kudin, 
 V. N. Staroverov, T. A. Keith, R. Kobayashi, J. Normand, 
 K. Raghavachari, A. P. Rendell, J. C. Burant, S. S. Iyengar, 
 J. Tomasi, M. Cossi, J. M. Millam, M. Klene, C. Adamo, R. Cammi, 
 J. W. Ochterski, R. L. Martin, K. Morokuma, O. Farkas, 
 J. B. Foresman, and D. J. Fox, Gaussian, Inc., Wallingford CT, 2016.
 
 ******************************************
 Gaussian 16:  ES64L-G16RevB.01 20-Dec-2017
                20-Sep-2025 
 ******************************************
 %nprocs=16
 Will use up to   16 processors via shared memory.
 %mem=40GB
 %chk=EOXE0114.chk
 ----------------------------------------------------------------------
 # opt freq=noraman M08HX/6-311++G** scf=xqc Empiricaldispersion=pfd In
 t(Grid=ultraFine)
 ----------------------------------------------------------------------
 1/18=20,19=15,26=4,38=1/1,3;
 2/9=110,12=2,17=6,18=5,40=1/2;
 3/5=4,6=6,7=1111,11=2,25=1,30=1,71=1,74=-74,75=-5,124=11/1,2,3;
 4//1;
 5/5=2,8=3,13=1,38=5/2,8;
 6/7=2,8=2,9=2,10=2,28=1/1;
 7//1,2,3,16;
 1/18=20,19=15,26=4/3(2);
 2/9=110/2;
 99//99;
 2/9=110/2;
 3/5=4,6=6,7=1111,11=2,25=1,30=1,71=1,74=-74,75=-5,124=11/1,2,3;
 4/5=5,16=3,69=1/1;
 5/5=2,8=3,13=1,38=5/2,8;
 7//1,2,3,16;
 1/18=20,19=15,26=4/3(-5);
 2/9=110/2;
 6/7=2,8=2,9=2,10=2,19=2,28=1/1;
 99/9=1/99;
 --------
 EOXE0114
 --------
 Symbolic Z-matrix:
 Charge =  0 Multiplicity = 1
 O                     1.5133    0.5284   -0.1337 
 C                     0.3156    0.1166    0.5042 
 C                     1.2059   -0.8716   -0.1494 
 C                    -0.9385    0.5957   -0.2072 
 C                    -2.0962   -0.3691   -0.0138 
 H                     0.2592    0.1545    1.5823 
 H                     1.802    -1.5197    0.4799 
 H                     0.9072   -1.3077   -1.0937 
 H                    -0.7485    0.722    -1.2798 
 H                    -1.2104    1.5796    0.191 
 H                    -1.8572   -1.3557   -0.4237 
 H                    -2.3259   -0.4955    1.0492 
 H                    -2.9932    0.0041   -0.5174 
 

 GradGradGradGradGradGradGradGradGradGradGradGradGradGradGradGradGradGrad
 Berny optimization.
 Initialization pass.
                           ----------------------------
                           !    Initial Parameters    !
                           ! (Angstroms and Degrees)  !
 --------------------------                            --------------------------
 ! Name  Definition              Value          Derivative Info.                !
 --------------------------------------------------------------------------------
 ! R1    R(1,2)                  1.4181         estimate D2E/DX2                !
 ! R2    R(1,3)                  1.4334         estimate D2E/DX2                !
 ! R3    R(2,3)                  1.482          estimate D2E/DX2                !
 ! R4    R(2,4)                  1.5193         estimate D2E/DX2                !
 ! R5    R(2,6)                  1.0802         estimate D2E/DX2                !
 ! R6    R(3,7)                  1.0823         estimate D2E/DX2                !
 ! R7    R(3,8)                  1.0822         estimate D2E/DX2                !
 ! R8    R(4,5)                  1.5194         estimate D2E/DX2                !
 ! R9    R(4,9)                  1.0966         estimate D2E/DX2                !
 ! R10   R(4,10)                 1.0957         estimate D2E/DX2                !
 ! R11   R(5,11)                 1.0948         estimate D2E/DX2                !
 ! R12   R(5,12)                 1.0949         estimate D2E/DX2                !
 ! R13   R(5,13)                 1.0943         estimate D2E/DX2                !
 ! A1    A(1,2,4)              113.2627         estimate D2E/DX2                !
 ! A2    A(1,2,6)              118.8715         estimate D2E/DX2                !
 ! A3    A(3,2,4)              119.9753         estimate D2E/DX2                !
 ! A4    A(3,2,6)              119.6636         estimate D2E/DX2                !
 ! A5    A(4,2,6)              114.4024         estimate D2E/DX2                !
 ! A6    A(1,3,7)              117.4107         estimate D2E/DX2                !
 ! A7    A(1,3,8)              117.5377         estimate D2E/DX2                !
 ! A8    A(2,3,7)              118.2763         estimate D2E/DX2                !
 ! A9    A(2,3,8)              119.1912         estimate D2E/DX2                !
 ! A10   A(7,3,8)              114.713          estimate D2E/DX2                !
 ! A11   A(2,4,5)              111.6602         estimate D2E/DX2                !
 ! A12   A(2,4,9)              110.566          estimate D2E/DX2                !
 ! A13   A(2,4,10)             108.5315         estimate D2E/DX2                !
 ! A14   A(5,4,9)              109.248          estimate D2E/DX2                !
 ! A15   A(5,4,10)             109.5643         estimate D2E/DX2                !
 ! A16   A(9,4,10)             107.1601         estimate D2E/DX2                !
 ! A17   A(4,5,11)             110.9929         estimate D2E/DX2                !
 ! A18   A(4,5,12)             110.9009         estimate D2E/DX2                !
 ! A19   A(4,5,13)             110.453          estimate D2E/DX2                !
 ! A20   A(11,5,12)            107.7752         estimate D2E/DX2                !
 ! A21   A(11,5,13)            108.2995         estimate D2E/DX2                !
 ! A22   A(12,5,13)            108.3132         estimate D2E/DX2                !
 ! D1    D(4,2,3,7)           -152.8813         estimate D2E/DX2                !
 ! D2    D(4,2,3,8)             -5.2842         estimate D2E/DX2                !
 ! D3    D(6,2,3,7)             -1.5544         estimate D2E/DX2                !
 ! D4    D(6,2,3,8)            146.0427         estimate D2E/DX2                !
 ! D5    D(1,2,4,5)            149.9968         estimate D2E/DX2                !
 ! D6    D(1,2,4,9)             28.1361         estimate D2E/DX2                !
 ! D7    D(1,2,4,10)           -89.1303         estimate D2E/DX2                !
 ! D8    D(3,2,4,5)             83.2983         estimate D2E/DX2                !
 ! D9    D(3,2,4,9)            -38.5625         estimate D2E/DX2                !
 ! D10   D(3,2,4,10)          -155.8288         estimate D2E/DX2                !
 ! D11   D(6,2,4,5)            -69.4545         estimate D2E/DX2                !
 ! D12   D(6,2,4,9)            168.6847         estimate D2E/DX2                !
 ! D13   D(6,2,4,10)            51.4184         estimate D2E/DX2                !
 ! D14   D(2,4,5,11)           -60.9528         estimate D2E/DX2                !
 ! D15   D(2,4,5,12)            58.8195         estimate D2E/DX2                !
 ! D16   D(2,4,5,13)           178.9119         estimate D2E/DX2                !
 ! D17   D(9,4,5,11)            61.6647         estimate D2E/DX2                !
 ! D18   D(9,4,5,12)          -178.5629         estimate D2E/DX2                !
 ! D19   D(9,4,5,13)           -58.4705         estimate D2E/DX2                !
 ! D20   D(10,4,5,11)          178.778          estimate D2E/DX2                !
 ! D21   D(10,4,5,12)          -61.4497         estimate D2E/DX2                !
 ! D22   D(10,4,5,13)           58.6427         estimate D2E/DX2                !
 --------------------------------------------------------------------------------
 Trust Radius=3.00D-01 FncErr=1.00D-07 GrdErr=1.00D-06 EigMax=2.50D+02 EigMin=1.00D-04
 Number of steps in this run=     67 maximum allowed number of steps=    100.
 GradGradGradGradGradGradGradGradGradGradGradGradGradGradGradGradGradGrad

                          Input orientation:                          
 ---------------------------------------------------------------------
 Center     Atomic      Atomic             Coordinates (Angstroms)
 Number     Number       Type             X           Y           Z
 ---------------------------------------------------------------------
      1          8           0        1.513300    0.528400   -0.133700
      2          6           0        0.315600    0.116600    0.504200
      3          6           0        1.205900   -0.871600   -0.149400
      4          6           0       -0.938500    0.595700   -0.207200
      5          6           0       -2.096200   -0.369100   -0.013800
      6          1           0        0.259200    0.154500    1.582300
      7          1           0        1.802000   -1.519700    0.479900
      8          1           0        0.907200   -1.307700   -1.093700
      9          1           0       -0.748500    0.722000   -1.279800
     10          1           0       -1.210400    1.579600    0.191000
     11          1           0       -1.857200   -1.355700   -0.423700
     12          1           0       -2.325900   -0.495500    1.049200
     13          1           0       -2.993200    0.004100   -0.517400
 ---------------------------------------------------------------------
                    Distance matrix (angstroms):
                    1          2          3          4          5
     1  O    0.000000
     2  C    1.418091   0.000000
     3  C    1.433437   1.482014   0.000000
     4  C    2.453825   1.519340   2.598992   0.000000
     5  C    3.721340   2.514161   3.342867   1.519379   0.000000
     6  H    2.158060   1.080239   2.224389   2.198057   2.893026
     7  H    2.157444   2.210758   1.082306   3.529499   4.094336
     8  H    2.158754   2.220789   1.082177   2.795608   3.326795
     9  H    2.542984   2.163671   2.763520   1.096596   2.146986
    10  H    2.937515   2.137087   3.458722   1.095697   2.150353
    11  H    3.872235   2.783833   3.113226   2.167682   1.094769
    12  H    4.145730   2.765721   3.748560   2.166596   1.094855
    13  H    4.553093   3.464748   4.305196   2.160557   1.094304
                    6          7          8          9         10
     6  H    0.000000
     7  H    2.529518   0.000000
     8  H    3.117516   1.822588   0.000000
     9  H    3.086929   3.824502   2.625958   0.000000
    10  H    2.475146   4.331706   3.804101   1.764109   0.000000
    11  H    3.283883   3.772683   2.844839   2.505785   3.067930
    12  H    2.718352   4.290996   3.962906   3.065084   2.507367
    13  H    3.874205   5.129378   4.155245   2.476956   2.482420
                   11         12         13
    11  H    0.000000
    12  H    1.768914   0.000000
    13  H    1.774354   1.774577   0.000000
 Stoichiometry    C4H8O
 Framework group  C1[X(C4H8O)]
 Deg. of freedom    33
 Full point group                 C1      NOp   1
 Largest Abelian subgroup         C1      NOp   1
 Largest concise Abelian subgroup C1      NOp   1
                         Standard orientation:                         
 ---------------------------------------------------------------------
 Center     Atomic      Atomic             Coordinates (Angstroms)
 Number     Number       Type             X           Y           Z
 ---------------------------------------------------------------------
      1          8           0       -1.580513   -0.582892   -0.151024
      2          6           0       -0.394642   -0.165067    0.504805
      3          6           0       -1.298601    0.822405   -0.130902
      4          6           0        0.872528   -0.604064   -0.209307
      5          6           0        2.011175    0.376542    0.015203
      6          1           0       -0.344483   -0.228019    1.582042
      7          1           0       -1.910448    1.444206    0.509718
      8          1           0       -1.001847    1.286557   -1.062357
      9          1           0        0.691752   -0.707785   -1.285915
     10          1           0        1.159763   -1.592236    0.166943
     11          1           0        1.756859    1.368291   -0.372452
     12          1           0        2.231703    0.481313    1.082489
     13          1           0        2.918046    0.031913   -0.491073
 ---------------------------------------------------------------------
 Rotational constants (GHZ):          12.5787914           3.2802054           2.9451838
 Standard basis: 6-311++G(d,p) (5D, 7F)
 There are   171 symmetry adapted cartesian basis functions of A   symmetry.
 There are   166 symmetry adapted basis functions of A   symmetry.
   166 basis functions,   252 primitive gaussians,   171 cartesian basis functions
    20 alpha electrons       20 beta electrons
       nuclear repulsion energy       180.8189935985 Hartrees.
 NAtoms=   13 NActive=   13 NUniq=   13 SFac= 1.00D+00 NAtFMM=   60 NAOKFM=F Big=F
 Integral buffers will be    131072 words long.
 Raffenetti 2 integral format.
 Two-electron integral symmetry is turned on.
 R6APFD:  NTU= -4 IXU= 1 FactS= 1.050
 Nuclear repulsion after empirical dispersion term =      180.8132888256 Hartrees.
 One-electron integrals computed using PRISM.
 NBasis=   166 RedAO= T EigKep=  3.43D-05  NBF=   166
 NBsUse=   166 1.00D-06 EigRej= -1.00D+00 NBFU=   166
 ExpMin= 3.60D-02 ExpMax= 8.59D+03 ExpMxC= 1.30D+03 IAcc=3 IRadAn=         5 AccDes= 0.00D+00
 Harris functional with IExCor= 1009 and IRadAn=       5 diagonalized for initial guess.
 HarFok:  IExCor= 1009 AccDes= 0.00D+00 IRadAn=         5 IDoV= 1 UseB2=F ITyADJ=14
 ICtDFT=  3500011 ScaDFX=  1.000000  1.000000  1.000000  1.000000
 FoFCou: FMM=F IPFlag=           0 FMFlag=      100000 FMFlg1=           0
         NFxFlg=           0 DoJE=T BraDBF=F KetDBF=T FulRan=T
         wScrn=  0.000000 ICntrl=       500 IOpCl=  0 I1Cent=   200000004 NGrid=           0
         NMat0=    1 NMatS0=      1 NMatT0=    0 NMatD0=    1 NMtDS0=    0 NMtDT0=    0
 Petite list used in FoFCou.
 Requested convergence on RMS density matrix=1.00D-08 within  32 cycles.
 Requested convergence on MAX density matrix=1.00D-06.
 Requested convergence on             energy=1.00D-06.
 No special actions if energy rises.
 SCF Done:  E(RM08HX) =  -232.418605180     A.U. after   12 cycles
            NFock= 12  Conv=0.79D-08     -V/T= 2.0047
 QCSCF skips out because SCF is already converged.

 **********************************************************************

            Population analysis using the SCF Density.

 **********************************************************************

 Orbital symmetries:
       Occupied  (A) (A) (A) (A) (A) (A) (A) (A) (A) (A) (A) (A)
                 (A) (A) (A) (A) (A) (A) (A) (A)
       Virtual   (A) (A) (A) (A) (A) (A) (A) (A) (A) (A) (A) (A)
                 (A) (A) (A) (A) (A) (A) (A) (A) (A) (A) (A) (A)
                 (A) (A) (A) (A) (A) (A) (A) (A) (A) (A) (A) (A)
                 (A) (A) (A) (A) (A) (A) (A) (A) (A) (A) (A) (A)
                 (A) (A) (A) (A) (A) (A) (A) (A) (A) (A) (A) (A)
                 (A) (A) (A) (A) (A) (A) (A) (A) (A) (A) (A) (A)
                 (A) (A) (A) (A) (A) (A) (A) (A) (A) (A) (A) (A)
                 (A) (A) (A) (A) (A) (A) (A) (A) (A) (A) (A) (A)
                 (A) (A) (A) (A) (A) (A) (A) (A) (A) (A) (A) (A)
                 (A) (A) (A) (A) (A) (A) (A) (A) (A) (A) (A) (A)
                 (A) (A) (A) (A) (A) (A) (A) (A) (A) (A) (A) (A)
                 (A) (A) (A) (A) (A) (A) (A) (A) (A) (A) (A) (A)
                 (A) (A)
 The electronic state is 1-A.
 Alpha  occ. eigenvalues --  -19.62659 -10.58651 -10.57972 -10.53110 -10.52208
 Alpha  occ. eigenvalues --   -1.19795  -0.88867  -0.77000  -0.74884  -0.67439
 Alpha  occ. eigenvalues --   -0.59204  -0.55556  -0.51348  -0.50215  -0.46925
 Alpha  occ. eigenvalues --   -0.43747  -0.42099  -0.41270  -0.36408  -0.35159
 Alpha virt. eigenvalues --   -0.02761  -0.01104  -0.00994  -0.00303   0.01749
 Alpha virt. eigenvalues --    0.02465   0.02893   0.03373   0.04219   0.06381
 Alpha virt. eigenvalues --    0.07307   0.07736   0.08735   0.09750   0.10551
 Alpha virt. eigenvalues --    0.10665   0.11993   0.12354   0.12477   0.13350
 Alpha virt. eigenvalues --    0.14494   0.14996   0.15650   0.16829   0.18542
 Alpha virt. eigenvalues --    0.20698   0.20986   0.21871   0.22855   0.23410
 Alpha virt. eigenvalues --    0.23861   0.25883   0.26789   0.29025   0.29952
 Alpha virt. eigenvalues --    0.31511   0.33183   0.34783   0.36249   0.39021
 Alpha virt. eigenvalues --    0.40099   0.44398   0.46663   0.47693   0.48816
 Alpha virt. eigenvalues --    0.53415   0.58764   0.62148   0.62357   0.64107
 Alpha virt. eigenvalues --    0.65503   0.67635   0.68197   0.68470   0.70125
 Alpha virt. eigenvalues --    0.70422   0.70932   0.71994   0.72548   0.77308
 Alpha virt. eigenvalues --    0.77925   0.87904   0.90187   0.95984   1.02147
 Alpha virt. eigenvalues --    1.05650   1.12904   1.16534   1.21031   1.22843
 Alpha virt. eigenvalues --    1.24860   1.30765   1.37874   1.38778   1.44842
 Alpha virt. eigenvalues --    1.46598   1.51493   1.52819   1.56444   1.57487
 Alpha virt. eigenvalues --    1.59038   1.59728   1.63960   1.64462   1.66445
 Alpha virt. eigenvalues --    1.69204   1.71113   1.74445   1.78056   1.78731
 Alpha virt. eigenvalues --    1.81116   1.84590   1.90614   1.94557   1.97641
 Alpha virt. eigenvalues --    2.02484   2.10777   2.13587   2.16403   2.18204
 Alpha virt. eigenvalues --    2.24198   2.24783   2.31768   2.37797   2.41544
 Alpha virt. eigenvalues --    2.46166   2.50106   2.51369   2.53833   2.56438
 Alpha virt. eigenvalues --    2.59216   2.59959   2.61810   2.64737   2.69115
 Alpha virt. eigenvalues --    2.71839   2.74161   2.79849   2.82955   2.86259
 Alpha virt. eigenvalues --    2.86789   2.87132   2.94885   3.11936   3.19412
 Alpha virt. eigenvalues --    3.25616   3.29302   3.33538   3.43958   3.72101
 Alpha virt. eigenvalues --    3.75954   3.83381   3.84402   3.86663   3.95705
 Alpha virt. eigenvalues --    4.14589   4.30818   4.59099   5.21515   5.62292
 Alpha virt. eigenvalues --    5.69395  23.90149  23.93011  23.98651  24.03253
 Alpha virt. eigenvalues --   49.91291
          Condensed to atoms (all electrons):
               1          2          3          4          5          6
     1  O    7.953634   0.347970   0.094475  -0.260513   0.028493  -0.004574
     2  C    0.347970   8.170485  -1.866360  -0.884280  -0.224950   0.410404
     3  C    0.094475  -1.866360   7.312946   0.239075   0.241268  -0.063479
     4  C   -0.260513  -0.884280   0.239075   6.753806  -0.236449  -0.078513
     5  C    0.028493  -0.224950   0.241268  -0.236449   5.877511  -0.015411
     6  H   -0.004574   0.410404  -0.063479  -0.078513  -0.015411   0.493227
     7  H   -0.055744   0.051228   0.317615  -0.061521   0.017412   0.008462
     8  H   -0.042856  -0.010153   0.277220   0.131224  -0.034279  -0.006891
     9  H    0.027914  -0.052711  -0.031163   0.436995  -0.049071   0.010169
    10  H   -0.017150  -0.053414   0.006361   0.496753  -0.087902  -0.006513
    11  H   -0.002643   0.018276  -0.005636  -0.008175   0.361412   0.003879
    12  H    0.002438  -0.029313  -0.010899  -0.031387   0.433175  -0.004276
    13  H   -0.004335  -0.006160   0.010101  -0.022428   0.394931  -0.002720
               7          8          9         10         11         12
     1  O   -0.055744  -0.042856   0.027914  -0.017150  -0.002643   0.002438
     2  C    0.051228  -0.010153  -0.052711  -0.053414   0.018276  -0.029313
     3  C    0.317615   0.277220  -0.031163   0.006361  -0.005636  -0.010899
     4  C   -0.061521   0.131224   0.436995   0.496753  -0.008175  -0.031387
     5  C    0.017412  -0.034279  -0.049071  -0.087902   0.361412   0.433175
     6  H    0.008462  -0.006891   0.010169  -0.006513   0.003879  -0.004276
     7  H    0.617703  -0.083715   0.011735  -0.002709  -0.002639   0.002406
     8  H   -0.083715   0.596083  -0.024017   0.001544  -0.006566  -0.000135
     9  H    0.011735  -0.024017   0.507239  -0.041889  -0.016413   0.009203
    10  H   -0.002709   0.001544  -0.041889   0.486221   0.010203  -0.011617
    11  H   -0.002639  -0.006566  -0.016413   0.010203   0.574441  -0.062362
    12  H    0.002406  -0.000135   0.009203  -0.011617  -0.062362   0.537451
    13  H   -0.002990   0.005739  -0.009774  -0.005429  -0.038982  -0.028761
              13
     1  O   -0.004335
     2  C   -0.006160
     3  C    0.010101
     4  C   -0.022428
     5  C    0.394931
     6  H   -0.002720
     7  H   -0.002990
     8  H    0.005739
     9  H   -0.009774
    10  H   -0.005429
    11  H   -0.038982
    12  H   -0.028761
    13  H    0.522832
 Mulliken charges:
               1
     1  O   -0.067107
     2  C    0.128980
     3  C   -0.521523
     4  C   -0.474589
     5  C   -0.706140
     6  H    0.256235
     7  H    0.182756
     8  H    0.196801
     9  H    0.221783
    10  H    0.225542
    11  H    0.175206
    12  H    0.194077
    13  H    0.187978
 Sum of Mulliken charges =  -0.00000
 Mulliken charges with hydrogens summed into heavy atoms:
               1
     1  O   -0.067107
     2  C    0.385216
     3  C   -0.141966
     4  C   -0.027263
     5  C   -0.148879
 Electronic spatial extent (au):  <R**2>=            469.9309
 Charge=             -0.0000 electrons
 Dipole moment (field-independent basis, Debye):
    X=              1.5181    Y=              1.3986    Z=              0.5153  Tot=              2.1274
 Quadrupole moment (field-independent basis, Debye-Ang):
   XX=            -35.1340   YY=            -32.1850   ZZ=            -30.7913
   XY=             -3.9801   XZ=             -0.9492   YZ=             -0.9359
 Traceless Quadrupole moment (field-independent basis, Debye-Ang):
   XX=             -2.4306   YY=              0.5184   ZZ=              1.9122
   XY=             -3.9801   XZ=             -0.9492   YZ=             -0.9359
 Octapole moment (field-independent basis, Debye-Ang**2):
  XXX=             -0.0419  YYY=             -0.7621  ZZZ=              0.6652  XYY=             -2.1010
  XXY=              4.4882  XXZ=              0.5619  XZZ=             -2.0847  YZZ=             -0.2291
  YYZ=             -0.2752  XYZ=              0.3255
 Hexadecapole moment (field-independent basis, Debye-Ang**3):
 XXXX=           -445.3203 YYYY=           -121.5035 ZZZZ=            -71.8492 XXXY=            -12.7798
 XXXZ=             -4.5911 YYYX=             -2.4860 YYYZ=             -2.3437 ZZZX=              0.7257
 ZZZY=             -0.8493 XXYY=            -94.1837 XXZZ=            -84.0035 YYZZ=            -33.2709
 XXYZ=              1.4379 YYXZ=             -0.8528 ZZXY=             -0.7189
 N-N= 1.808132888256D+02 E-N=-9.029044867022D+02  KE= 2.313231789097D+02
 R6APFD:  NTU= -4 IXU= 1 FactS= 1.050
 Calling FoFJK, ICntrl=      2127 FMM=F ISym2X=0 I1Cent= 0 IOpClX= 0 NMat=1 NMatS=1 NMatT=0.
 ***** Axes restored to original set *****
 -------------------------------------------------------------------
 Center     Atomic                   Forces (Hartrees/Bohr)
 Number     Number              X              Y              Z
 -------------------------------------------------------------------
      1        8           0.007871505   -0.010228253    0.008142800
      2        6          -0.007382697   -0.000343232   -0.028698727
      3        6          -0.012126305    0.011988260    0.009341909
      4        6          -0.000485118   -0.003414893    0.004166480
      5        6          -0.002939259   -0.000821374    0.001549263
      6        1           0.006538188    0.001855863    0.009834317
      7        1           0.007350067   -0.000116429    0.002713015
      8        1          -0.000904176    0.001744903   -0.008002135
      9        1           0.005592804    0.000085825    0.000064008
     10        1           0.000330172    0.003226735   -0.000587183
     11        1           0.000144242   -0.001682012   -0.000688128
     12        1          -0.001850122   -0.001008120    0.001563335
     13        1          -0.002139301   -0.001287275    0.000601047
 -------------------------------------------------------------------
 Cartesian Forces:  Max     0.028698727 RMS     0.006908351

 GradGradGradGradGradGradGradGradGradGradGradGradGradGradGradGradGradGrad
 Berny optimization.
 FormGI is forming the generalized inverse of G from B-inverse, IUseBI=4.
 Internal  Forces:  Max     0.010951095 RMS     0.004164011
 Search for a local minimum.
 Step number   1 out of a maximum of   67
 All quantities printed in internal units (Hartrees-Bohrs-Radians)
 Mixed Optimization -- RFO/linear search
 Second derivative matrix not updated -- first step.
 ITU=  0
     Eigenvalues ---    0.00510   0.00510   0.02322   0.03223   0.03753
     Eigenvalues ---    0.04460   0.04979   0.05644   0.05674   0.08227
     Eigenvalues ---    0.12108   0.14192   0.16000   0.16000   0.16000
     Eigenvalues ---    0.16000   0.16000   0.16017   0.19883   0.21907
     Eigenvalues ---    0.30334   0.30426   0.30430   0.34061   0.34162
     Eigenvalues ---    0.34258   0.34267   0.34320   0.35717   0.35733
     Eigenvalues ---    0.35865   0.35965   0.41991
 RFO step:  Lambda=-5.69272779D-03 EMin= 5.09603362D-03
 Linear search not attempted -- first point.
 Iteration  1 RMS(Cart)=  0.05359373 RMS(Int)=  0.00246821
 Iteration  2 RMS(Cart)=  0.00223020 RMS(Int)=  0.00074140
 Iteration  3 RMS(Cart)=  0.00000229 RMS(Int)=  0.00074139
 Iteration  4 RMS(Cart)=  0.00000000 RMS(Int)=  0.00074139
 Variable       Old X    -DE/DX   Delta X   Delta X   Delta X     New X
                                 (Linear)    (Quad)   (Total)
    R1        2.67980   0.00401   0.00000   0.00628   0.00547   2.68528
    R2        2.70880  -0.01022   0.00000  -0.02236  -0.02108   2.68773
    R3        2.80060  -0.00821   0.00000  -0.02287  -0.02333   2.77727
    R4        2.87114  -0.00356   0.00000  -0.01147  -0.01147   2.85966
    R5        2.04136   0.00954   0.00000   0.02611   0.02611   2.06747
    R6        2.04526   0.00569   0.00000   0.01569   0.01569   2.06096
    R7        2.04502   0.00653   0.00000   0.01799   0.01799   2.06301
    R8        2.87121   0.00860   0.00000   0.02774   0.02774   2.89895
    R9        2.07227   0.00091   0.00000   0.00264   0.00264   2.07491
   R10        2.07057   0.00260   0.00000   0.00750   0.00750   2.07806
   R11        2.06881   0.00180   0.00000   0.00518   0.00518   2.07399
   R12        2.06898   0.00202   0.00000   0.00580   0.00580   2.07478
   R13        2.06793   0.00104   0.00000   0.00298   0.00298   2.07091
    A1        1.97681   0.01095   0.00000   0.06565   0.06637   2.04318
    A2        2.07470  -0.00969   0.00000  -0.06951  -0.06970   2.00500
    A3        2.09396  -0.00234   0.00000  -0.01833  -0.01769   2.07627
    A4        2.08852  -0.00038   0.00000  -0.00050  -0.00050   2.08803
    A5        1.99670   0.00230   0.00000   0.01624   0.01583   2.01253
    A6        2.04920  -0.01033   0.00000  -0.06203  -0.06293   1.98627
    A7        2.05142   0.00311   0.00000  -0.02751  -0.02836   2.02306
    A8        2.06431   0.00608   0.00000   0.04555   0.04307   2.10738
    A9        2.08028  -0.00381   0.00000   0.00398   0.00147   2.08175
   A10        2.00212   0.00069   0.00000   0.01467   0.01156   2.01368
   A11        1.94884  -0.00020   0.00000  -0.00015  -0.00010   1.94874
   A12        1.92974  -0.00441   0.00000  -0.04651  -0.04641   1.88333
   A13        1.89423   0.00096   0.00000   0.00682   0.00674   1.90097
   A14        1.90674   0.00388   0.00000   0.03114   0.03095   1.93769
   A15        1.91226   0.00002   0.00000   0.01213   0.01197   1.92423
   A16        1.87030  -0.00026   0.00000  -0.00342  -0.00391   1.86638
   A17        1.93719  -0.00056   0.00000  -0.00397  -0.00395   1.93324
   A18        1.93559   0.00176   0.00000   0.01049   0.01044   1.94602
   A19        1.92777   0.00292   0.00000   0.01834   0.01828   1.94605
   A20        1.88103  -0.00081   0.00000  -0.00627  -0.00625   1.87478
   A21        1.89018  -0.00121   0.00000  -0.00703  -0.00702   1.88316
   A22        1.89042  -0.00230   0.00000  -0.01278  -0.01290   1.87752
    D1       -2.66828  -0.00033   0.00000  -0.00550  -0.00593  -2.67421
    D2       -0.09223   0.00550   0.00000   0.12043   0.12039   0.02817
    D3       -0.02713  -0.00061   0.00000  -0.00676  -0.00672  -0.03385
    D4        2.54893   0.00522   0.00000   0.11916   0.11960   2.66853
    D5        2.61794   0.00088   0.00000   0.04736   0.04659   2.66453
    D6        0.49107  -0.00085   0.00000   0.04028   0.03947   0.53054
    D7       -1.55562   0.00141   0.00000   0.06690   0.06604  -1.48957
    D8        1.45383   0.00036   0.00000   0.02883   0.02950   1.48332
    D9       -0.67304  -0.00136   0.00000   0.02175   0.02238  -0.65066
   D10       -2.71973   0.00089   0.00000   0.04837   0.04895  -2.67078
   D11       -1.21221   0.00128   0.00000   0.03396   0.03419  -1.17802
   D12        2.94410  -0.00045   0.00000   0.02688   0.02707   2.97118
   D13        0.89742   0.00181   0.00000   0.05350   0.05364   0.95106
   D14       -1.06383   0.00142   0.00000   0.01551   0.01558  -1.04825
   D15        1.02659   0.00119   0.00000   0.01194   0.01197   1.03857
   D16        3.12260   0.00137   0.00000   0.01482   0.01492   3.13752
   D17        1.07625  -0.00161   0.00000  -0.02188  -0.02203   1.05422
   D18       -3.11651  -0.00183   0.00000  -0.02545  -0.02564   3.14104
   D19       -1.02050  -0.00165   0.00000  -0.02257  -0.02269  -1.04319
   D20        3.12026   0.00033   0.00000  -0.00105  -0.00096   3.11930
   D21       -1.07250   0.00011   0.00000  -0.00462  -0.00457  -1.07707
   D22        1.02351   0.00029   0.00000  -0.00174  -0.00162   1.02189
         Item               Value     Threshold  Converged?
 Maximum Force            0.010951     0.000450     NO 
 RMS     Force            0.004164     0.000300     NO 
 Maximum Displacement     0.181292     0.001800     NO 
 RMS     Displacement     0.053625     0.001200     NO 
 Predicted change in Energy=-3.059375D-03
 GradGradGradGradGradGradGradGradGradGradGradGradGradGradGradGradGradGrad

                          Input orientation:                          
 ---------------------------------------------------------------------
 Center     Atomic      Atomic             Coordinates (Angstroms)
 Number     Number       Type             X           Y           Z
 ---------------------------------------------------------------------
      1          8           0        1.557452    0.505758   -0.047892
      2          6           0        0.306179    0.117247    0.502180
      3          6           0        1.183041   -0.862181   -0.154904
      4          6           0       -0.938580    0.586380   -0.219257
      5          6           0       -2.116748   -0.370394    0.003981
      6          1           0        0.253762    0.149255    1.594512
      7          1           0        1.805821   -1.536405    0.434163
      8          1           0        0.934957   -1.211765   -1.158921
      9          1           0       -0.697769    0.672211   -1.287073
     10          1           0       -1.195892    1.595738    0.133233
     11          1           0       -1.877168   -1.375596   -0.365742
     12          1           0       -2.363931   -0.462492    1.069749
     13          1           0       -3.017824   -0.026156   -0.516128
 ---------------------------------------------------------------------
                    Distance matrix (angstroms):
                    1          2          3          4          5
     1  O    0.000000
     2  C    1.420987   0.000000
     3  C    1.422284   1.469669   0.000000
     4  C    2.503206   1.513269   2.569775   0.000000
     5  C    3.777575   2.521224   3.340015   1.534057   0.000000
     6  H    2.127015   1.094057   2.224189   2.214162   2.901575
     7  H    2.112935   2.233409   1.090611   3.530568   4.114752
     8  H    2.138169   2.218309   1.091698   2.761600   3.372410
     9  H    2.578623   2.125400   2.678360   1.097993   2.183425
    10  H    2.966777   2.139690   3.432741   1.099664   2.174938
    11  H    3.929012   2.783680   3.110132   2.179852   1.097509
    12  H    4.190928   2.790649   3.773663   2.189360   1.097927
    13  H    4.629830   3.479441   4.298451   2.187827   1.095880
                    6          7          8          9         10
     6  H    0.000000
     7  H    2.568413   0.000000
     8  H    3.146076   1.844373   0.000000
     9  H    3.079355   3.756142   2.496314   0.000000
    10  H    2.515779   4.348696   3.753965   1.765871   0.000000
    11  H    3.272404   3.772282   2.926435   2.536404   3.089003
    12  H    2.738964   4.352481   4.051055   3.101332   2.545130
    13  H    3.897286   5.143098   4.176521   2.542582   2.524211
                   11         12         13
    11  H    0.000000
    12  H    1.769557   0.000000
    13  H    1.773331   1.770020   0.000000
 Stoichiometry    C4H8O
 Framework group  C1[X(C4H8O)]
 Deg. of freedom    33
 Full point group                 C1      NOp   1
 Largest Abelian subgroup         C1      NOp   1
 Largest concise Abelian subgroup C1      NOp   1
                         Standard orientation:                         
 ---------------------------------------------------------------------
 Center     Atomic      Atomic             Coordinates (Angstroms)
 Number     Number       Type             X           Y           Z
 ---------------------------------------------------------------------
      1          8           0       -1.627430   -0.552669   -0.110151
      2          6           0       -0.388180   -0.183754    0.479225
      3          6           0       -1.267958    0.823288   -0.130516
      4          6           0        0.871415   -0.595222   -0.251594
      5          6           0        2.035087    0.359573    0.044318
      6          1           0       -0.349693   -0.280200    1.568343
      7          1           0       -1.906379    1.454262    0.488938
      8          1           0       -1.010927    1.234801   -1.108471
      9          1           0        0.645646   -0.619949   -1.325840
     10          1           0        1.136085   -1.620869    0.043805
     11          1           0        1.788421    1.382295   -0.268284
     12          1           0        2.267180    0.390749    1.116981
     13          1           0        2.946929    0.056959   -0.482862
 ---------------------------------------------------------------------
 Rotational constants (GHZ):          12.8862108           3.2223786           2.9111880
 Standard basis: 6-311++G(d,p) (5D, 7F)
 There are   171 symmetry adapted cartesian basis functions of A   symmetry.
 There are   166 symmetry adapted basis functions of A   symmetry.
   166 basis functions,   252 primitive gaussians,   171 cartesian basis functions
    20 alpha electrons       20 beta electrons
       nuclear repulsion energy       180.5228029237 Hartrees.
 NAtoms=   13 NActive=   13 NUniq=   13 SFac= 1.00D+00 NAtFMM=   60 NAOKFM=F Big=F
 Integral buffers will be    131072 words long.
 Raffenetti 2 integral format.
 Two-electron integral symmetry is turned on.
 R6APFD:  NTU= -4 IXU= 1 FactS= 1.050
 Nuclear repulsion after empirical dispersion term =      180.5170189941 Hartrees.
 One-electron integrals computed using PRISM.
 NBasis=   166 RedAO= T EigKep=  3.32D-05  NBF=   166
 NBsUse=   166 1.00D-06 EigRej= -1.00D+00 NBFU=   166
 Initial guess from the checkpoint file:  "EOXE0114.chk"
 B after Tr=     0.000000    0.000000   -0.000000
         Rot=    0.999903   -0.012853   -0.001357    0.005259 Ang=  -1.60 deg.
 ExpMin= 3.60D-02 ExpMax= 8.59D+03 ExpMxC= 1.30D+03 IAcc=3 IRadAn=         5 AccDes= 0.00D+00
 Harris functional with IExCor= 1009 and IRadAn=       5 diagonalized for initial guess.
 HarFok:  IExCor= 1009 AccDes= 0.00D+00 IRadAn=         5 IDoV= 1 UseB2=F ITyADJ=14
 ICtDFT=  3500011 ScaDFX=  1.000000  1.000000  1.000000  1.000000
 FoFCou: FMM=F IPFlag=           0 FMFlag=      100000 FMFlg1=           0
         NFxFlg=           0 DoJE=T BraDBF=F KetDBF=T FulRan=T
         wScrn=  0.000000 ICntrl=       500 IOpCl=  0 I1Cent=   200000004 NGrid=           0
         NMat0=    1 NMatS0=      1 NMatT0=    0 NMatD0=    1 NMtDS0=    0 NMtDT0=    0
 Petite list used in FoFCou.
 Requested convergence on RMS density matrix=1.00D-08 within  32 cycles.
 Requested convergence on MAX density matrix=1.00D-06.
 Requested convergence on             energy=1.00D-06.
 No special actions if energy rises.
 SCF Done:  E(RM08HX) =  -232.421174296     A.U. after   11 cycles
            NFock= 11  Conv=0.62D-08     -V/T= 2.0049
 QCSCF skips out because SCF is already converged.
 R6APFD:  NTU= -4 IXU= 1 FactS= 1.050
 Calling FoFJK, ICntrl=      2127 FMM=F ISym2X=0 I1Cent= 0 IOpClX= 0 NMat=1 NMatS=1 NMatT=0.
 ***** Axes restored to original set *****
 -------------------------------------------------------------------
 Center     Atomic                   Forces (Hartrees/Bohr)
 Number     Number              X              Y              Z
 -------------------------------------------------------------------
      1        8          -0.002458376    0.002393961   -0.001245937
      2        6          -0.004029913   -0.001327290   -0.003873686
      3        6           0.004878837   -0.000999787    0.004503029
      4        6          -0.000699901    0.001706631    0.002391505
      5        6           0.002060897    0.000251565    0.000139854
      6        1           0.002239089   -0.001871502    0.000284832
      7        1          -0.001823980   -0.001652316    0.000478937
      8        1          -0.000893073    0.001092970   -0.000811176
      9        1          -0.000130392   -0.000302125   -0.000700742
     10        1          -0.000256647    0.000112889   -0.001059571
     11        1           0.000251997   -0.000025055   -0.000118035
     12        1           0.000488370    0.000387506   -0.000070589
     13        1           0.000373094    0.000232552    0.000081580
 -------------------------------------------------------------------
 Cartesian Forces:  Max     0.004878837 RMS     0.001789372

 GradGradGradGradGradGradGradGradGradGradGradGradGradGradGradGradGradGrad
 Berny optimization.
 Using GEDIIS/GDIIS optimizer.
 FormGI is forming the generalized inverse of G from B-inverse, IUseBI=4.
 Internal  Forces:  Max     0.004473090 RMS     0.001314582
 Search for a local minimum.
 Step number   2 out of a maximum of   67
 All quantities printed in internal units (Hartrees-Bohrs-Radians)
 Mixed Optimization -- RFO/linear search
 Update second derivatives using D2CorX and points    1    2
 DE= -2.57D-03 DEPred=-3.06D-03 R= 8.40D-01
 TightC=F SS=  1.41D+00  RLast= 2.68D-01 DXNew= 5.0454D-01 8.0344D-01
 Trust test= 8.40D-01 RLast= 2.68D-01 DXMaxT set to 5.05D-01
 ITU=  1  0
 Use linear search instead of GDIIS.
     Eigenvalues ---    0.00510   0.00511   0.02238   0.03138   0.03725
     Eigenvalues ---    0.04674   0.04955   0.05534   0.05613   0.08293
     Eigenvalues ---    0.11918   0.13970   0.14779   0.15987   0.16000
     Eigenvalues ---    0.16000   0.16000   0.16102   0.21153   0.23250
     Eigenvalues ---    0.30244   0.30502   0.31579   0.34011   0.34178
     Eigenvalues ---    0.34259   0.34272   0.34332   0.35442   0.35721
     Eigenvalues ---    0.35898   0.36466   0.41889
 RFO step:  Lambda=-5.01310142D-04 EMin= 5.09578296D-03
 Quartic linear search produced a step of -0.08755.
 Iteration  1 RMS(Cart)=  0.01922912 RMS(Int)=  0.00029958
 Iteration  2 RMS(Cart)=  0.00030291 RMS(Int)=  0.00004567
 Iteration  3 RMS(Cart)=  0.00000011 RMS(Int)=  0.00004567
 Variable       Old X    -DE/DX   Delta X   Delta X   Delta X     New X
                                 (Linear)    (Quad)   (Total)
    R1        2.68528  -0.00144  -0.00048  -0.00194  -0.00235   2.68292
    R2        2.68773   0.00124   0.00185   0.00034   0.00209   2.68982
    R3        2.77727  -0.00034   0.00204  -0.00611  -0.00403   2.77325
    R4        2.85966  -0.00130   0.00100  -0.00577  -0.00477   2.85490
    R5        2.06747   0.00012  -0.00229   0.00457   0.00228   2.06975
    R6        2.06096   0.00024  -0.00137   0.00316   0.00179   2.06275
    R7        2.06301   0.00060  -0.00158   0.00447   0.00289   2.06590
    R8        2.89895  -0.00296  -0.00243  -0.00431  -0.00674   2.89221
    R9        2.07491   0.00063  -0.00023   0.00211   0.00187   2.07678
   R10        2.07806  -0.00017  -0.00066   0.00076   0.00010   2.07817
   R11        2.07399   0.00012  -0.00045   0.00115   0.00070   2.07469
   R12        2.07478  -0.00021  -0.00051   0.00039  -0.00012   2.07466
   R13        2.07091  -0.00027  -0.00026  -0.00024  -0.00050   2.07042
    A1        2.04318  -0.00222  -0.00581   0.00409  -0.00176   2.04142
    A2        2.00500   0.00039   0.00610  -0.01393  -0.00785   1.99715
    A3        2.07627   0.00333   0.00155   0.01216   0.01365   2.08992
    A4        2.08803  -0.00447   0.00004  -0.02325  -0.02321   2.06482
    A5        2.01253   0.00136  -0.00139   0.01187   0.01054   2.02307
    A6        1.98627   0.00346   0.00551   0.01813   0.02372   2.00999
    A7        2.02306  -0.00241   0.00248  -0.01268  -0.01018   2.01288
    A8        2.10738  -0.00107  -0.00377  -0.00419  -0.00788   2.09950
    A9        2.08175  -0.00083  -0.00013  -0.00832  -0.00835   2.07340
   A10        2.01368   0.00116  -0.00101   0.00659   0.00571   2.01939
   A11        1.94874  -0.00327   0.00001  -0.01419  -0.01420   1.93453
   A12        1.88333   0.00099   0.00406  -0.00642  -0.00242   1.88091
   A13        1.90097   0.00159  -0.00059   0.01261   0.01206   1.91303
   A14        1.93769   0.00071  -0.00271   0.00351   0.00075   1.93844
   A15        1.92423   0.00078  -0.00105   0.00635   0.00537   1.92959
   A16        1.86638  -0.00068   0.00034  -0.00135  -0.00097   1.86542
   A17        1.93324  -0.00012   0.00035  -0.00101  -0.00067   1.93257
   A18        1.94602  -0.00074  -0.00091  -0.00293  -0.00384   1.94218
   A19        1.94605  -0.00029  -0.00160   0.00144  -0.00015   1.94590
   A20        1.87478   0.00044   0.00055   0.00128   0.00182   1.87660
   A21        1.88316   0.00032   0.00061   0.00145   0.00206   1.88523
   A22        1.87752   0.00048   0.00113  -0.00008   0.00106   1.87858
    D1       -2.67421   0.00058   0.00052   0.02538   0.02595  -2.64826
    D2        0.02817  -0.00103  -0.01054   0.01168   0.00119   0.02936
    D3       -0.03385   0.00147   0.00059   0.03050   0.03101  -0.00283
    D4        2.66853  -0.00014  -0.01047   0.01680   0.00625   2.67478
    D5        2.66453   0.00060  -0.00408   0.03723   0.03323   2.69777
    D6        0.53054   0.00111  -0.00346   0.04615   0.04274   0.57328
    D7       -1.48957   0.00055  -0.00578   0.04457   0.03884  -1.45073
    D8        1.48332  -0.00066  -0.00258   0.02948   0.02690   1.51023
    D9       -0.65066  -0.00015  -0.00196   0.03840   0.03641  -0.61426
   D10       -2.67078  -0.00072  -0.00429   0.03682   0.03251  -2.63827
   D11       -1.17802   0.00015  -0.00299   0.03442   0.03141  -1.14661
   D12        2.97118   0.00066  -0.00237   0.04334   0.04091   3.01209
   D13        0.95106   0.00009  -0.00470   0.04177   0.03702   0.98808
   D14       -1.04825   0.00030  -0.00136   0.00505   0.00367  -1.04458
   D15        1.03857   0.00028  -0.00105   0.00405   0.00299   1.04156
   D16        3.13752   0.00018  -0.00131   0.00293   0.00161   3.13913
   D17        1.05422  -0.00016   0.00193  -0.01035  -0.00840   1.04582
   D18        3.14104  -0.00019   0.00224  -0.01135  -0.00908   3.13195
   D19       -1.04319  -0.00029   0.00199  -0.01247  -0.01046  -1.05366
   D20        3.11930  -0.00006   0.00008  -0.00579  -0.00571   3.11360
   D21       -1.07707  -0.00008   0.00040  -0.00678  -0.00639  -1.08345
   D22        1.02189  -0.00019   0.00014  -0.00790  -0.00777   1.01412
         Item               Value     Threshold  Converged?
 Maximum Force            0.004473     0.000450     NO 
 RMS     Force            0.001315     0.000300     NO 
 Maximum Displacement     0.073655     0.001800     NO 
 RMS     Displacement     0.019264     0.001200     NO 
 Predicted change in Energy=-2.794060D-04
 GradGradGradGradGradGradGradGradGradGradGradGradGradGradGradGradGradGrad

                          Input orientation:                          
 ---------------------------------------------------------------------
 Center     Atomic      Atomic             Coordinates (Angstroms)
 Number     Number       Type             X           Y           Z
 ---------------------------------------------------------------------
      1          8           0        1.549074    0.517304   -0.033666
      2          6           0        0.296578    0.108027    0.494924
      3          6           0        1.191821   -0.855007   -0.156822
      4          6           0       -0.941119    0.587780   -0.226395
      5          6           0       -2.114031   -0.366274    0.011216
      6          1           0        0.244113    0.110279    1.588929
      7          1           0        1.788065   -1.545440    0.442591
      8          1           0        0.958007   -1.188202   -1.171446
      9          1           0       -0.699704    0.658185   -1.296222
     10          1           0       -1.194772    1.603188    0.111227
     11          1           0       -1.874254   -1.374598   -0.350900
     12          1           0       -2.351918   -0.446782    1.079971
     13          1           0       -3.018560   -0.026859   -0.505506
 ---------------------------------------------------------------------
                    Distance matrix (angstroms):
                    1          2          3          4          5
     1  O    0.000000
     2  C    1.419741   0.000000
     3  C    1.423389   1.467538   0.000000
     4  C    2.498634   1.510747   2.576026   0.000000
     5  C    3.768430   2.503991   3.346006   1.530490   0.000000
     6  H    2.121653   1.095265   2.208524   2.219951   2.876999
     7  H    2.130458   2.227381   1.091559   3.527976   4.099130
     8  H    2.133696   2.212349   1.093229   2.766571   3.392886
     9  H    2.582808   2.122135   2.676911   1.098985   2.181566
    10  H    2.954459   2.146358   3.436626   1.099719   2.175734
    11  H    3.924170   2.761541   3.115840   2.176504   1.097879
    12  H    4.169819   2.768506   3.775499   2.183407   1.097865
    13  H    4.624070   3.465428   4.305196   2.184364   1.095617
                    6          7          8          9         10
     6  H    0.000000
     7  H    2.537575   0.000000
     8  H    3.132950   1.849792   0.000000
     9  H    3.084654   3.750790   2.484496   0.000000
    10  H    2.546129   4.349825   3.751209   1.766078   0.000000
    11  H    3.233462   3.751186   2.954614   2.530890   3.089088
    12  H    2.703466   4.330445   4.071140   3.097911   2.545551
    13  H    3.879497   5.129192   4.195864   2.543935   2.522621
                   11         12         13
    11  H    0.000000
    12  H    1.770987   0.000000
    13  H    1.774750   1.770447   0.000000
 Stoichiometry    C4H8O
 Framework group  C1[X(C4H8O)]
 Deg. of freedom    33
 Full point group                 C1      NOp   1
 Largest Abelian subgroup         C1      NOp   1
 Largest concise Abelian subgroup C1      NOp   1
                         Standard orientation:                         
 ---------------------------------------------------------------------
 Center     Atomic      Atomic             Coordinates (Angstroms)
 Number     Number       Type             X           Y           Z
 ---------------------------------------------------------------------
      1          8           0       -1.620392   -0.564612   -0.089281
      2          6           0       -0.380038   -0.164673    0.473954
      3          6           0       -1.278592    0.815955   -0.146237
      4          6           0        0.872778   -0.597017   -0.251227
      5          6           0        2.030595    0.359204    0.044574
      6          1           0       -0.341775   -0.215290    1.567380
      7          1           0       -1.891083    1.471776    0.475256
      8          1           0       -1.035753    1.196982   -1.141726
      9          1           0        0.646182   -0.622290   -1.326300
     10          1           0        1.134578   -1.623463    0.044158
     11          1           0        1.783077    1.379834   -0.275406
     12          1           0        2.253554    0.394576    1.118980
     13          1           0        2.945899    0.053958   -0.474482
 ---------------------------------------------------------------------
 Rotational constants (GHZ):          12.9104214           3.2309737           2.9190187
 Standard basis: 6-311++G(d,p) (5D, 7F)
 There are   171 symmetry adapted cartesian basis functions of A   symmetry.
 There are   166 symmetry adapted basis functions of A   symmetry.
   166 basis functions,   252 primitive gaussians,   171 cartesian basis functions
    20 alpha electrons       20 beta electrons
       nuclear repulsion energy       180.6919874393 Hartrees.
 NAtoms=   13 NActive=   13 NUniq=   13 SFac= 1.00D+00 NAtFMM=   60 NAOKFM=F Big=F
 Integral buffers will be    131072 words long.
 Raffenetti 2 integral format.
 Two-electron integral symmetry is turned on.
 R6APFD:  NTU= -4 IXU= 1 FactS= 1.050
 Nuclear repulsion after empirical dispersion term =      180.6862057572 Hartrees.
 One-electron integrals computed using PRISM.
 NBasis=   166 RedAO= T EigKep=  3.23D-05  NBF=   166
 NBsUse=   166 1.00D-06 EigRej= -1.00D+00 NBFU=   166
 Initial guess from the checkpoint file:  "EOXE0114.chk"
 B after Tr=    -0.000000    0.000000   -0.000000
         Rot=    0.999963    0.008513   -0.000607   -0.001237 Ang=   0.99 deg.
 ExpMin= 3.60D-02 ExpMax= 8.59D+03 ExpMxC= 1.30D+03 IAcc=3 IRadAn=         5 AccDes= 0.00D+00
 Harris functional with IExCor= 1009 and IRadAn=       5 diagonalized for initial guess.
 HarFok:  IExCor= 1009 AccDes= 0.00D+00 IRadAn=         5 IDoV= 1 UseB2=F ITyADJ=14
 ICtDFT=  3500011 ScaDFX=  1.000000  1.000000  1.000000  1.000000
 FoFCou: FMM=F IPFlag=           0 FMFlag=      100000 FMFlg1=           0
         NFxFlg=           0 DoJE=T BraDBF=F KetDBF=T FulRan=T
         wScrn=  0.000000 ICntrl=       500 IOpCl=  0 I1Cent=   200000004 NGrid=           0
         NMat0=    1 NMatS0=      1 NMatT0=    0 NMatD0=    1 NMtDS0=    0 NMtDT0=    0
 Petite list used in FoFCou.
 Requested convergence on RMS density matrix=1.00D-08 within  32 cycles.
 Requested convergence on MAX density matrix=1.00D-06.
 Requested convergence on             energy=1.00D-06.
 No special actions if energy rises.
 SCF Done:  E(RM08HX) =  -232.421508269     A.U. after   10 cycles
            NFock= 10  Conv=0.80D-08     -V/T= 2.0049
 QCSCF skips out because SCF is already converged.
 R6APFD:  NTU= -4 IXU= 1 FactS= 1.050
 Calling FoFJK, ICntrl=      2127 FMM=F ISym2X=0 I1Cent= 0 IOpClX= 0 NMat=1 NMatS=1 NMatT=0.
 ***** Axes restored to original set *****
 -------------------------------------------------------------------
 Center     Atomic                   Forces (Hartrees/Bohr)
 Number     Number              X              Y              Z
 -------------------------------------------------------------------
      1        8           0.000102883   -0.000019327    0.000171089
      2        6          -0.002793094    0.001014672   -0.001039690
      3        6           0.001992967   -0.001373505    0.000891101
      4        6           0.000081090    0.000424795    0.001033120
      5        6           0.000145724    0.000021212   -0.000113864
      6        1           0.000780934   -0.000538931   -0.000292978
      7        1          -0.000396377    0.000200344   -0.000492269
      8        1          -0.000023775    0.000476582    0.000358805
      9        1          -0.000359728   -0.000145797   -0.000215116
     10        1           0.000278754   -0.000293086   -0.000309957
     11        1           0.000004155    0.000201335    0.000014836
     12        1           0.000197035    0.000123461   -0.000080944
     13        1          -0.000010569   -0.000091757    0.000075867
 -------------------------------------------------------------------
 Cartesian Forces:  Max     0.002793094 RMS     0.000720542

 GradGradGradGradGradGradGradGradGradGradGradGradGradGradGradGradGradGrad
 Berny optimization.
 Using GEDIIS/GDIIS optimizer.
 FormGI is forming the generalized inverse of G from B-inverse, IUseBI=4.
 Internal  Forces:  Max     0.001446234 RMS     0.000393444
 Search for a local minimum.
 Step number   3 out of a maximum of   67
 All quantities printed in internal units (Hartrees-Bohrs-Radians)
 Mixed Optimization -- En-DIIS/RFO-DIIS
 Update second derivatives using D2CorX and points    1    2    3
 DE= -3.34D-04 DEPred=-2.79D-04 R= 1.20D+00
 TightC=F SS=  1.41D+00  RLast= 1.26D-01 DXNew= 8.4853D-01 3.7861D-01
 Trust test= 1.20D+00 RLast= 1.26D-01 DXMaxT set to 5.05D-01
 ITU=  1  1  0
 Use linear search instead of GDIIS.
     Eigenvalues ---    0.00432   0.00510   0.02209   0.03124   0.03842
     Eigenvalues ---    0.04778   0.04981   0.05551   0.05624   0.08192
     Eigenvalues ---    0.11932   0.12470   0.14362   0.15969   0.16000
     Eigenvalues ---    0.16000   0.16021   0.16149   0.20927   0.22171
     Eigenvalues ---    0.30043   0.30509   0.33310   0.34053   0.34212
     Eigenvalues ---    0.34264   0.34312   0.34385   0.35708   0.35895
     Eigenvalues ---    0.36077   0.36715   0.42050
 RFO step:  Lambda=-7.63673757D-05 EMin= 4.31915137D-03
 Quartic linear search produced a step of  0.27967.
 Iteration  1 RMS(Cart)=  0.02100185 RMS(Int)=  0.00022147
 Iteration  2 RMS(Cart)=  0.00024594 RMS(Int)=  0.00001721
 Iteration  3 RMS(Cart)=  0.00000003 RMS(Int)=  0.00001721
 Variable       Old X    -DE/DX   Delta X   Delta X   Delta X     New X
                                 (Linear)    (Quad)   (Total)
    R1        2.68292   0.00015  -0.00066   0.00087   0.00021   2.68313
    R2        2.68982  -0.00026   0.00058  -0.00150  -0.00093   2.68889
    R3        2.77325   0.00121  -0.00113   0.00450   0.00338   2.77663
    R4        2.85490  -0.00039  -0.00133  -0.00129  -0.00263   2.85227
    R5        2.06975  -0.00033   0.00064  -0.00088  -0.00024   2.06951
    R6        2.06275  -0.00061   0.00050  -0.00211  -0.00161   2.06113
    R7        2.06590  -0.00047   0.00081  -0.00169  -0.00088   2.06503
    R8        2.89221  -0.00044  -0.00189  -0.00019  -0.00208   2.89013
    R9        2.07678   0.00012   0.00052   0.00026   0.00078   2.07756
   R10        2.07817  -0.00043   0.00003  -0.00147  -0.00144   2.07673
   R11        2.07469  -0.00019   0.00020  -0.00070  -0.00051   2.07419
   R12        2.07466  -0.00013  -0.00003  -0.00033  -0.00036   2.07430
   R13        2.07042  -0.00006  -0.00014  -0.00006  -0.00020   2.07021
    A1        2.04142   0.00046  -0.00049   0.00453   0.00403   2.04545
    A2        1.99715  -0.00044  -0.00219  -0.00590  -0.00812   1.98903
    A3        2.08992   0.00145   0.00382   0.00636   0.01016   2.10008
    A4        2.06482  -0.00140  -0.00649  -0.00637  -0.01287   2.05195
    A5        2.02307   0.00008   0.00295   0.00124   0.00421   2.02728
    A6        2.00999   0.00032   0.00663  -0.00188   0.00477   2.01476
    A7        2.01288  -0.00027  -0.00285  -0.00230  -0.00517   2.00771
    A8        2.09950   0.00033  -0.00220   0.00466   0.00242   2.10192
    A9        2.07340  -0.00043  -0.00233  -0.00196  -0.00432   2.06908
   A10        2.01939   0.00009   0.00160   0.00013   0.00168   2.02107
   A11        1.93453  -0.00044  -0.00397  -0.00061  -0.00458   1.92995
   A12        1.88091   0.00042  -0.00068   0.00394   0.00325   1.88416
   A13        1.91303   0.00002   0.00337  -0.00224   0.00114   1.91417
   A14        1.93844  -0.00010   0.00021  -0.00102  -0.00082   1.93761
   A15        1.92959   0.00023   0.00150   0.00038   0.00189   1.93149
   A16        1.86542  -0.00011  -0.00027  -0.00039  -0.00067   1.86475
   A17        1.93257  -0.00007  -0.00019  -0.00058  -0.00077   1.93180
   A18        1.94218  -0.00032  -0.00107  -0.00214  -0.00322   1.93896
   A19        1.94590   0.00023  -0.00004   0.00267   0.00262   1.94852
   A20        1.87660   0.00015   0.00051   0.00017   0.00068   1.87728
   A21        1.88523  -0.00003   0.00058  -0.00015   0.00042   1.88565
   A22        1.87858   0.00006   0.00030   0.00002   0.00032   1.87890
    D1       -2.64826  -0.00010   0.00726  -0.00287   0.00441  -2.64385
    D2        0.02936  -0.00008   0.00033   0.00393   0.00430   0.03365
    D3       -0.00283   0.00020   0.00867   0.00013   0.00875   0.00592
    D4        2.67478   0.00021   0.00175   0.00693   0.00864   2.68341
    D5        2.69777   0.00016   0.00929   0.03047   0.03978   2.73754
    D6        0.57328   0.00028   0.01195   0.02955   0.04151   0.61479
    D7       -1.45073   0.00016   0.01086   0.02902   0.03989  -1.41084
    D8        1.51023  -0.00001   0.00752   0.02872   0.03626   1.54648
    D9       -0.61426   0.00011   0.01018   0.02780   0.03799  -0.57627
   D10       -2.63827  -0.00001   0.00909   0.02727   0.03637  -2.60190
   D11       -1.14661   0.00012   0.00878   0.02792   0.03669  -1.10992
   D12        3.01209   0.00024   0.01144   0.02700   0.03842   3.05051
   D13        0.98808   0.00012   0.01035   0.02648   0.03680   1.02488
   D14       -1.04458  -0.00007   0.00103  -0.00500  -0.00397  -1.04855
   D15        1.04156  -0.00014   0.00084  -0.00657  -0.00573   1.03582
   D16        3.13913  -0.00013   0.00045  -0.00619  -0.00574   3.13339
   D17        1.04582   0.00010  -0.00235  -0.00111  -0.00345   1.04236
   D18        3.13195   0.00003  -0.00254  -0.00268  -0.00521   3.12674
   D19       -1.05366   0.00004  -0.00293  -0.00230  -0.00522  -1.05888
   D20        3.11360   0.00005  -0.00160  -0.00200  -0.00360   3.11000
   D21       -1.08345  -0.00002  -0.00179  -0.00357  -0.00536  -1.08881
   D22        1.01412  -0.00001  -0.00217  -0.00319  -0.00536   1.00876
         Item               Value     Threshold  Converged?
 Maximum Force            0.001446     0.000450     NO 
 RMS     Force            0.000393     0.000300     NO 
 Maximum Displacement     0.066615     0.001800     NO 
 RMS     Displacement     0.021007     0.001200     NO 
 Predicted change in Energy=-5.382230D-05
 GradGradGradGradGradGradGradGradGradGradGradGradGradGradGradGradGradGrad

                          Input orientation:                          
 ---------------------------------------------------------------------
 Center     Atomic      Atomic             Coordinates (Angstroms)
 Number     Number       Type             X           Y           Z
 ---------------------------------------------------------------------
      1          8           0        1.546543    0.524381   -0.010729
      2          6           0        0.288545    0.096953    0.490000
      3          6           0        1.206565   -0.849372   -0.158565
      4          6           0       -0.943340    0.581968   -0.234831
      5          6           0       -2.121601   -0.359686    0.018199
      6          1           0        0.228659    0.076500    1.583309
      7          1           0        1.796385   -1.544967    0.439680
      8          1           0        0.993258   -1.165310   -1.182682
      9          1           0       -0.706001    0.637321   -1.306875
     10          1           0       -1.186130    1.603146    0.090678
     11          1           0       -1.891346   -1.372688   -0.336149
     12          1           0       -2.350024   -0.427581    1.089693
     13          1           0       -3.028214   -0.019064   -0.493828
 ---------------------------------------------------------------------
                    Distance matrix (angstroms):
                    1          2          3          4          5
     1  O    0.000000
     2  C    1.419854   0.000000
     3  C    1.422898   1.469329   0.000000
     4  C    2.500611   1.509358   2.583920   0.000000
     5  C    3.773287   2.497983   3.368638   1.529391   0.000000
     6  H    2.116216   1.095138   2.201740   2.221421   2.857193
     7  H    2.132485   2.229802   1.090705   3.533399   4.114991
     8  H    2.129473   2.210836   1.092764   2.775215   3.434165
     9  H    2.601289   2.123648   2.680817   1.099397   2.180314
    10  H    2.939646   2.145400   3.435396   1.098957   2.175562
    11  H    3.940032   2.755775   3.146816   2.174779   1.097612
    12  H    4.159375   2.756232   3.792806   2.179980   1.097674
    13  H    4.632183   3.461541   4.328413   2.185182   1.095510
                    6          7          8          9         10
     6  H    0.000000
     7  H    2.528795   0.000000
     8  H    3.126885   1.849652   0.000000
     9  H    3.088895   3.751636   2.480400   0.000000
    10  H    2.561293   4.350610   3.746401   1.765360   0.000000
    11  H    3.206070   3.772393   3.013398   2.527348   3.087895
    12  H    2.673455   4.343245   4.109193   3.095218   2.544903
    13  H    3.864046   5.145539   4.237999   2.546480   2.523190
                   11         12         13
    11  H    0.000000
    12  H    1.771056   0.000000
    13  H    1.774719   1.770414   0.000000
 Stoichiometry    C4H8O
 Framework group  C1[X(C4H8O)]
 Deg. of freedom    33
 Full point group                 C1      NOp   1
 Largest Abelian subgroup         C1      NOp   1
 Largest concise Abelian subgroup C1      NOp   1
                         Standard orientation:                         
 ---------------------------------------------------------------------
 Center     Atomic      Atomic             Coordinates (Angstroms)
 Number     Number       Type             X           Y           Z
 ---------------------------------------------------------------------
      1          8           0       -1.618132   -0.574104   -0.068600
      2          6           0       -0.373209   -0.150678    0.466993
      3          6           0       -1.294806    0.808765   -0.156750
      4          6           0        0.875204   -0.590284   -0.258523
      5          6           0        2.036896    0.355769    0.048869
      6          1           0       -0.328957   -0.173126    1.561006
      7          1           0       -1.902360    1.472178    0.460015
      8          1           0       -1.071458    1.168101   -1.164285
      9          1           0        0.653708   -0.605864   -1.335264
     10          1           0        1.127251   -1.620400    0.029643
     11          1           0        1.797897    1.379031   -0.268252
     12          1           0        2.249314    0.383786    1.125429
     13          1           0        2.955150    0.047696   -0.463032
 ---------------------------------------------------------------------
 Rotational constants (GHZ):          13.0019690           3.2129909           2.9089226
 Standard basis: 6-311++G(d,p) (5D, 7F)
 There are   171 symmetry adapted cartesian basis functions of A   symmetry.
 There are   166 symmetry adapted basis functions of A   symmetry.
   166 basis functions,   252 primitive gaussians,   171 cartesian basis functions
    20 alpha electrons       20 beta electrons
       nuclear repulsion energy       180.6291739045 Hartrees.
 NAtoms=   13 NActive=   13 NUniq=   13 SFac= 1.00D+00 NAtFMM=   60 NAOKFM=F Big=F
 Integral buffers will be    131072 words long.
 Raffenetti 2 integral format.
 Two-electron integral symmetry is turned on.
 R6APFD:  NTU= -4 IXU= 1 FactS= 1.050
 Nuclear repulsion after empirical dispersion term =      180.6234167259 Hartrees.
 One-electron integrals computed using PRISM.
 NBasis=   166 RedAO= T EigKep=  3.21D-05  NBF=   166
 NBsUse=   166 1.00D-06 EigRej= -1.00D+00 NBFU=   166
 Initial guess from the checkpoint file:  "EOXE0114.chk"
 B after Tr=    -0.000000   -0.000000   -0.000000
         Rot=    0.999991    0.003984   -0.000673   -0.001221 Ang=   0.48 deg.
 ExpMin= 3.60D-02 ExpMax= 8.59D+03 ExpMxC= 1.30D+03 IAcc=3 IRadAn=         5 AccDes= 0.00D+00
 Harris functional with IExCor= 1009 and IRadAn=       5 diagonalized for initial guess.
 HarFok:  IExCor= 1009 AccDes= 0.00D+00 IRadAn=         5 IDoV= 1 UseB2=F ITyADJ=14
 ICtDFT=  3500011 ScaDFX=  1.000000  1.000000  1.000000  1.000000
 FoFCou: FMM=F IPFlag=           0 FMFlag=      100000 FMFlg1=           0
         NFxFlg=           0 DoJE=T BraDBF=F KetDBF=T FulRan=T
         wScrn=  0.000000 ICntrl=       500 IOpCl=  0 I1Cent=   200000004 NGrid=           0
         NMat0=    1 NMatS0=      1 NMatT0=    0 NMatD0=    1 NMtDS0=    0 NMtDT0=    0
 Petite list used in FoFCou.
 Requested convergence on RMS density matrix=1.00D-08 within  32 cycles.
 Requested convergence on MAX density matrix=1.00D-06.
 Requested convergence on             energy=1.00D-06.
 No special actions if energy rises.
 SCF Done:  E(RM08HX) =  -232.421572929     A.U. after   10 cycles
            NFock= 10  Conv=0.62D-08     -V/T= 2.0049
 QCSCF skips out because SCF is already converged.
 R6APFD:  NTU= -4 IXU= 1 FactS= 1.050
 Calling FoFJK, ICntrl=      2127 FMM=F ISym2X=0 I1Cent= 0 IOpClX= 0 NMat=1 NMatS=1 NMatT=0.
 ***** Axes restored to original set *****
 -------------------------------------------------------------------
 Center     Atomic                   Forces (Hartrees/Bohr)
 Number     Number              X              Y              Z
 -------------------------------------------------------------------
      1        8           0.000305868    0.000067817    0.000103292
      2        6          -0.000312183    0.000286824   -0.000130534
      3        6           0.000172033   -0.000067167   -0.000288452
      4        6           0.000357175   -0.000180081    0.000051795
      5        6          -0.000273596   -0.000089490    0.000009136
      6        1          -0.000229767   -0.000010682   -0.000071917
      7        1          -0.000040586    0.000096116   -0.000043977
      8        1           0.000063180   -0.000067345    0.000182235
      9        1          -0.000195889   -0.000048122    0.000067466
     10        1           0.000238806    0.000050999    0.000081526
     11        1          -0.000071210    0.000029462    0.000021927
     12        1          -0.000030146   -0.000040819    0.000019270
     13        1           0.000016315   -0.000027514   -0.000001767
 -------------------------------------------------------------------
 Cartesian Forces:  Max     0.000357175 RMS     0.000152170

 GradGradGradGradGradGradGradGradGradGradGradGradGradGradGradGradGradGrad
 Berny optimization.
 Using GEDIIS/GDIIS optimizer.
 FormGI is forming the generalized inverse of G from B-inverse, IUseBI=4.
 Internal  Forces:  Max     0.000361005 RMS     0.000138088
 Search for a local minimum.
 Step number   4 out of a maximum of   67
 All quantities printed in internal units (Hartrees-Bohrs-Radians)
 Mixed Optimization -- En-DIIS/RFO-DIIS
 Swapping is turned off.
 Update second derivatives using D2CorX and points    1    2    3    4
 DE= -6.47D-05 DEPred=-5.38D-05 R= 1.20D+00
 TightC=F SS=  1.41D+00  RLast= 1.19D-01 DXNew= 8.4853D-01 3.5615D-01
 Trust test= 1.20D+00 RLast= 1.19D-01 DXMaxT set to 5.05D-01
 ITU=  1  1  1  0
     Eigenvalues ---    0.00308   0.00510   0.02201   0.03163   0.03927
     Eigenvalues ---    0.04776   0.04990   0.05545   0.05650   0.08161
     Eigenvalues ---    0.12011   0.13450   0.14495   0.15985   0.16000
     Eigenvalues ---    0.16004   0.16119   0.16210   0.20632   0.22926
     Eigenvalues ---    0.29850   0.30949   0.33447   0.34170   0.34216
     Eigenvalues ---    0.34304   0.34309   0.34398   0.35715   0.35895
     Eigenvalues ---    0.36265   0.36830   0.42261
 En-DIIS/RFO-DIIS/Sim-DIIS IScMMF=       -3 using points:     4    3
 RFO step:  Lambda=-1.73333522D-05.
 Use linear search instead of GDIIS.
 RFO step:  Lambda=-1.23767787D-05 EMin= 3.08059038D-03
 Quartic linear search produced a step of  0.24619.
 Iteration  1 RMS(Cart)=  0.01185764 RMS(Int)=  0.00006278
 Iteration  2 RMS(Cart)=  0.00006876 RMS(Int)=  0.00000309
 Iteration  3 RMS(Cart)=  0.00000000 RMS(Int)=  0.00000309
 Variable       Old X    -DE/DX   Delta X   Delta X   Delta X     New X
                                 (Linear)    (Quad)   (Total)
    R1        2.68313   0.00028   0.00005   0.00055   0.00061   2.68375
    R2        2.68889  -0.00006  -0.00023   0.00025   0.00001   2.68890
    R3        2.77663   0.00025   0.00083  -0.00003   0.00081   2.77744
    R4        2.85227  -0.00025  -0.00065  -0.00094  -0.00159   2.85068
    R5        2.06951  -0.00006  -0.00006   0.00001  -0.00005   2.06946
    R6        2.06113  -0.00011  -0.00040  -0.00000  -0.00040   2.06074
    R7        2.06503  -0.00016  -0.00022  -0.00021  -0.00043   2.06460
    R8        2.89013   0.00036  -0.00051   0.00131   0.00080   2.89093
    R9        2.07756  -0.00011   0.00019  -0.00038  -0.00019   2.07737
   R10        2.07673   0.00002  -0.00035   0.00029  -0.00006   2.07666
   R11        2.07419  -0.00005  -0.00012  -0.00006  -0.00018   2.07401
   R12        2.07430   0.00003  -0.00009   0.00015   0.00006   2.07436
   R13        2.07021  -0.00002  -0.00005  -0.00007  -0.00012   2.07009
    A1        2.04545   0.00027   0.00099   0.00083   0.00182   2.04728
    A2        1.98903   0.00002  -0.00200   0.00085  -0.00116   1.98787
    A3        2.10008   0.00030   0.00250   0.00116   0.00366   2.10374
    A4        2.05195   0.00005  -0.00317   0.00103  -0.00214   2.04981
    A5        2.02728  -0.00034   0.00104  -0.00236  -0.00132   2.02596
    A6        2.01476  -0.00011   0.00117   0.00014   0.00132   2.01608
    A7        2.00771   0.00010  -0.00127   0.00115  -0.00012   2.00758
    A8        2.10192  -0.00004   0.00060  -0.00116  -0.00056   2.10136
    A9        2.06908   0.00009  -0.00106   0.00064  -0.00042   2.06867
   A10        2.02107  -0.00006   0.00041  -0.00030   0.00011   2.02118
   A11        1.92995   0.00032  -0.00113   0.00158   0.00045   1.93040
   A12        1.88416   0.00008   0.00080   0.00152   0.00232   1.88648
   A13        1.91417  -0.00032   0.00028  -0.00313  -0.00285   1.91132
   A14        1.93761  -0.00018  -0.00020  -0.00006  -0.00026   1.93735
   A15        1.93149   0.00004   0.00047   0.00005   0.00052   1.93200
   A16        1.86475   0.00006  -0.00016  -0.00004  -0.00020   1.86455
   A17        1.93180   0.00007  -0.00019   0.00061   0.00042   1.93223
   A18        1.93896   0.00005  -0.00079   0.00068  -0.00011   1.93885
   A19        1.94852  -0.00001   0.00065  -0.00052   0.00013   1.94865
   A20        1.87728  -0.00006   0.00017  -0.00029  -0.00013   1.87715
   A21        1.88565  -0.00005   0.00010  -0.00042  -0.00031   1.88533
   A22        1.87890  -0.00002   0.00008  -0.00010  -0.00002   1.87888
    D1       -2.64385   0.00005   0.00109   0.00133   0.00242  -2.64142
    D2        0.03365   0.00002   0.00106  -0.00069   0.00037   0.03402
    D3        0.00592  -0.00003   0.00215   0.00030   0.00244   0.00836
    D4        2.68341  -0.00006   0.00213  -0.00173   0.00039   2.68381
    D5        2.73754   0.00010   0.00979   0.01310   0.02290   2.76045
    D6        0.61479   0.00007   0.01022   0.01123   0.02145   0.63624
    D7       -1.41084   0.00013   0.00982   0.01211   0.02194  -1.38890
    D8        1.54648   0.00005   0.00893   0.01238   0.02130   1.56779
    D9       -0.57627   0.00002   0.00935   0.01051   0.01986  -0.55641
   D10       -2.60190   0.00009   0.00895   0.01139   0.02034  -2.58156
   D11       -1.10992   0.00003   0.00903   0.01250   0.02153  -1.08839
   D12        3.05051   0.00000   0.00946   0.01063   0.02008   3.07059
   D13        1.02488   0.00007   0.00906   0.01151   0.02057   1.04545
   D14       -1.04855  -0.00013  -0.00098  -0.00247  -0.00344  -1.05200
   D15        1.03582  -0.00012  -0.00141  -0.00199  -0.00340   1.03242
   D16        3.13339  -0.00012  -0.00141  -0.00201  -0.00342   3.12997
   D17        1.04236   0.00006  -0.00085   0.00045  -0.00040   1.04196
   D18        3.12674   0.00007  -0.00128   0.00092  -0.00036   3.12638
   D19       -1.05888   0.00007  -0.00129   0.00091  -0.00038  -1.05926
   D20        3.11000   0.00004  -0.00089   0.00039  -0.00049   3.10951
   D21       -1.08881   0.00005  -0.00132   0.00087  -0.00045  -1.08926
   D22        1.00876   0.00005  -0.00132   0.00085  -0.00047   1.00829
         Item               Value     Threshold  Converged?
 Maximum Force            0.000361     0.000450     YES
 RMS     Force            0.000138     0.000300     YES
 Maximum Displacement     0.036953     0.001800     NO 
 RMS     Displacement     0.011856     0.001200     NO 
 Predicted change in Energy=-8.703050D-06
 GradGradGradGradGradGradGradGradGradGradGradGradGradGradGradGradGradGrad

                          Input orientation:                          
 ---------------------------------------------------------------------
 Center     Atomic      Atomic             Coordinates (Angstroms)
 Number     Number       Type             X           Y           Z
 ---------------------------------------------------------------------
      1          8           0        1.546114    0.529528    0.001107
      2          6           0        0.286035    0.090843    0.487582
      3          6           0        1.215649   -0.844979   -0.160681
      4          6           0       -0.943427    0.576638   -0.239087
      5          6           0       -2.127158   -0.356531    0.022261
      6          1           0        0.218682    0.059794    1.580178
      7          1           0        1.802702   -1.542748    0.437370
      8          1           0        1.012812   -1.153635   -1.188897
      9          1           0       -0.709036    0.624715   -1.312028
     10          1           0       -1.178405    1.601161    0.081489
     11          1           0       -1.904849   -1.372751   -0.327622
     12          1           0       -2.352631   -0.417603    1.094823
     13          1           0       -3.033189   -0.012832   -0.488596
 ---------------------------------------------------------------------
                    Distance matrix (angstroms):
                    1          2          3          4          5
     1  O    0.000000
     2  C    1.420177   0.000000
     3  C    1.422903   1.469758   0.000000
     4  C    2.501545   1.508517   2.586262   0.000000
     5  C    3.778687   2.498033   3.383254   1.529813   0.000000
     6  H    2.115701   1.095110   2.200715   2.219764   2.846647
     7  H    2.133188   2.229668   1.090494   3.534207   4.125921
     8  H    2.129215   2.210772   1.092538   2.779003   3.458567
     9  H    2.611338   2.124566   2.681420   1.099297   2.180423
    10  H    2.928799   2.142558   3.431288   1.098922   2.176281
    11  H    3.954223   2.758014   3.169215   2.175383   1.097516
    12  H    4.158543   2.754962   3.806778   2.180295   1.097705
    13  H    4.637239   3.461347   4.341961   2.185597   1.095444
                    6          7          8          9         10
     6  H    0.000000
     7  H    2.526513   0.000000
     8  H    3.125832   1.849345   0.000000
     9  H    3.089442   3.750615   2.478397   0.000000
    10  H    2.563930   4.347162   3.742220   1.765119   0.000000
    11  H    3.193943   3.789466   3.050009   2.527627   3.088567
    12  H    2.659911   4.354881   4.133198   3.095281   2.545793
    13  H    3.854837   5.155958   4.261688   2.546801   2.523925
                   11         12         13
    11  H    0.000000
    12  H    1.770923   0.000000
    13  H    1.774386   1.770371   0.000000
 Stoichiometry    C4H8O
 Framework group  C1[X(C4H8O)]
 Deg. of freedom    33
 Full point group                 C1      NOp   1
 Largest Abelian subgroup         C1      NOp   1
 Largest concise Abelian subgroup C1      NOp   1
                         Standard orientation:                         
 ---------------------------------------------------------------------
 Center     Atomic      Atomic             Coordinates (Angstroms)
 Number     Number       Type             X           Y           Z
 ---------------------------------------------------------------------
      1          8           0       -1.617940   -0.578715   -0.058185
      2          6           0       -0.370823   -0.143415    0.463462
      3          6           0       -1.303427    0.805135   -0.161591
      4          6           0        0.875171   -0.584868   -0.263341
      5          6           0        2.042611    0.352317    0.051451
      6          1           0       -0.319432   -0.154172    1.557313
      7          1           0       -1.908110    1.471542    0.454396
      8          1           0       -1.090091    1.156223   -1.173947
      9          1           0        0.656718   -0.594008   -1.340674
     10          1           0        1.119104   -1.618060    0.020634
     11          1           0        1.811871    1.378517   -0.261941
[...]
 ! R7    R(3,8)                  1.0924         -DE/DX =    0.0                 !
 ! R8    R(4,5)                  1.5299         -DE/DX =    0.0                 !
 ! R9    R(4,9)                  1.0992         -DE/DX =    0.0                 !
 ! R10   R(4,10)                 1.0991         -DE/DX =    0.0                 !
 ! R11   R(5,11)                 1.0975         -DE/DX =    0.0                 !
 ! R12   R(5,12)                 1.0977         -DE/DX =    0.0                 !
 ! R13   R(5,13)                 1.0954         -DE/DX =    0.0                 !
 ! A1    A(1,2,4)              117.2325         -DE/DX =    0.0                 !
 ! A2    A(1,2,6)              114.0            -DE/DX =    0.0                 !
 ! A3    A(3,2,4)              120.6607         -DE/DX =    0.0                 !
 ! A4    A(3,2,6)              117.5628         -DE/DX =    0.0                 !
 ! A5    A(4,2,6)              115.8925         -DE/DX =    0.0                 !
 ! A6    A(1,3,7)              115.3913         -DE/DX =    0.0                 !
 ! A7    A(1,3,8)              115.1038         -DE/DX =    0.0                 !
 ! A8    A(2,3,7)              120.3655         -DE/DX =    0.0                 !
 ! A9    A(2,3,8)              118.6396         -DE/DX =    0.0                 !
 ! A10   A(7,3,8)              115.7687         -DE/DX =    0.0                 !
 ! A11   A(2,4,5)              110.692          -DE/DX =    0.0                 !
 ! A12   A(2,4,9)              108.1872         -DE/DX =    0.0                 !
 ! A13   A(2,4,10)             109.3855         -DE/DX =    0.0                 !
 ! A14   A(5,4,9)              110.9689         -DE/DX =    0.0                 !
 ! A15   A(5,4,10)             110.6753         -DE/DX =    0.0                 !
 ! A16   A(9,4,10)             106.8181         -DE/DX =    0.0                 !
 ! A17   A(4,5,11)             110.7479         -DE/DX =    0.0                 !
 ! A18   A(4,5,12)             111.1123         -DE/DX =    0.0                 !
 ! A19   A(4,5,13)             111.5965         -DE/DX =    0.0                 !
 ! A20   A(11,5,12)            107.5547         -DE/DX =    0.0                 !
 ! A21   A(11,5,13)            108.0027         -DE/DX =    0.0                 !
 ! A22   A(12,5,13)            107.6576         -DE/DX =    0.0                 !
 ! D1    D(4,2,3,7)           -151.6212         -DE/DX =    0.0                 !
 ! D2    D(4,2,3,8)              1.7667         -DE/DX =    0.0                 !
 ! D3    D(6,2,3,7)              0.2729         -DE/DX =    0.0                 !
 ! D4    D(6,2,3,8)            153.6608         -DE/DX =    0.0                 !
 ! D5    D(1,2,4,5)            159.2353         -DE/DX =    0.0                 !
 ! D6    D(1,2,4,9)             37.4495         -DE/DX =    0.0                 !
 ! D7    D(1,2,4,10)           -78.5559         -DE/DX =    0.0                 !
 ! D8    D(3,2,4,5)             90.8891         -DE/DX =    0.0                 !
 ! D9    D(3,2,4,9)            -30.8967         -DE/DX =    0.0                 !
 ! D10   D(3,2,4,10)          -146.9021         -DE/DX =    0.0                 !
 ! D11   D(6,2,4,5)            -61.4501         -DE/DX =    0.0                 !
 ! D12   D(6,2,4,9)            176.7641         -DE/DX =    0.0                 !
 ! D13   D(6,2,4,10)            60.7588         -DE/DX =    0.0                 !
 ! D14   D(2,4,5,11)           -60.2124         -DE/DX =    0.0                 !
 ! D15   D(2,4,5,12)            59.2603         -DE/DX =    0.0                 !
 ! D16   D(2,4,5,13)           179.4291         -DE/DX =    0.0                 !
 ! D17   D(9,4,5,11)            59.9241         -DE/DX =    0.0                 !
 ! D18   D(9,4,5,12)           179.3968         -DE/DX =    0.0                 !
 ! D19   D(9,4,5,13)           -60.4344         -DE/DX =    0.0                 !
 ! D20   D(10,4,5,11)          178.3363         -DE/DX =    0.0                 !
 ! D21   D(10,4,5,12)          -62.191          -DE/DX =    0.0                 !
 ! D22   D(10,4,5,13)           57.9778         -DE/DX =    0.0                 !
 --------------------------------------------------------------------------------
 GradGradGradGradGradGradGradGradGradGradGradGradGradGradGradGradGradGrad


 ----------------------------------------------------------------------

 Electric dipole moment (input orientation):
 (Debye = 10**-18 statcoulomb cm , SI units = C m)
                  (au)            (Debye)         (10**-30 SI)
   Tot        0.845894D+00      0.215005D+01      0.717178D+01
   x         -0.639557D+00     -0.162559D+01     -0.542239D+01
   y         -0.549385D+00     -0.139640D+01     -0.465788D+01
   z          0.684017D-01      0.173860D+00      0.579934D+00

 Dipole polarizability, Alpha (input orientation).
 (esu units = cm**3 , SI units = C**2 m**2 J**-1)
 Alpha(0;0):
               (au)            (10**-24 esu)      (10**-40 SI)
   iso        0.504187D+02      0.747129D+01      0.831293D+01
   aniso      0.104927D+02      0.155486D+01      0.173002D+01
   xx         0.559558D+02      0.829179D+01      0.922586D+01
   yx        -0.313368D+01     -0.464364D+00     -0.516674D+00
   yy         0.488818D+02      0.724354D+01      0.805952D+01
   zx        -0.136691D+01     -0.202555D+00     -0.225373D+00
   zy         0.706980D+00      0.104764D+00      0.116565D+00
   zz         0.464186D+02      0.687853D+01      0.765340D+01

 ----------------------------------------------------------------------

 Dipole orientation:
     8          0.92999406         -0.69963015         -2.86014403
     6          0.87679578          0.44943806         -0.43562497
     6          1.57803339         -2.22052022         -0.73971651
     6         -1.67502647          1.17234359          0.60968313
     6         -1.55857041          1.45491116          3.48452795
     1          2.40313267          1.80994844         -0.11519777
     1          3.55402001         -2.79698865         -0.63650925
     1          0.19337526         -3.66969559         -0.24539090
     1         -3.03944666         -0.29482829          0.06163731
     1         -2.30684785          2.94160376         -0.27609933
     1         -0.98160408         -0.32704053          4.37517390
     1         -0.18239445          2.90513822          4.03762432
     1         -3.39435356          1.99859456          4.27168261

 Electric dipole moment (dipole orientation):
 (Debye = 10**-18 statcoulomb cm , SI units = C m)
                  (au)            (Debye)         (10**-30 SI)
   Tot        0.845894D+00      0.215005D+01      0.717178D+01
   x          0.000000D+00      0.000000D+00      0.000000D+00
   y          0.000000D+00      0.000000D+00      0.000000D+00
   z          0.845894D+00      0.215005D+01      0.717178D+01

 Dipole polarizability, Alpha (dipole orientation).
 (esu units = cm**3 , SI units = C**2 m**2 J**-1)
 Alpha(0;0):
               (au)            (10**-24 esu)      (10**-40 SI)
   iso        0.504187D+02      0.747129D+01      0.831293D+01
   aniso      0.104927D+02      0.155486D+01      0.173002D+01
   xx         0.489258D+02      0.725006D+01      0.806678D+01
   yx        -0.410201D+01     -0.607855D+00     -0.676330D+00
   yy         0.524056D+02      0.776571D+01      0.864052D+01
   zx        -0.243174D+01     -0.360346D+00     -0.400939D+00
   zy         0.327860D+01      0.485838D+00      0.540568D+00
   zz         0.499248D+02      0.739809D+01      0.823149D+01

 ----------------------------------------------------------------------
 1\1\GINC-PITOMBA\Freq\RM08HX\6-311++G(d,p)\C4H8O1\VALTER\20-Sep-2025\0
 \\#N Geom=AllCheck Guess=TCheck SCRF=Check GenChk RM08HX/6-311++G(d,p)
  Freq\\EOXE0114\\0,1\O,1.5443857403,0.5336682396,0.0092451769\C,0.2848
 329967,0.0839430481,0.486627675\C,1.2232106735,-0.8416228686,-0.163451
 0123\C,-0.9433721971,0.5714256707,-0.2411640509\C,-2.1324859335,-0.353
 4436174,0.0255617626\H,0.2100751749,0.0458518948,1.5786098578\H,1.8131
 343207,-1.5381477265,0.4334256476\H,1.0286265287,-1.1462212879,-1.1943
 569313\H,-0.7115354498,0.6144041054,-1.3147621268\H,-1.1718417162,1.59
 86263128,0.0762140541\H,-1.9165868235,-1.3732230608,-0.3179174299\H,-2
 .3593388639,-0.406451526,1.0982556906\H,-3.0358044508,-0.0072091844,-0
 .4883883134\\Version=ES64L-G16RevB.01\State=1-A\HF=-232.4215887\RMSD=1
 .914e-09\RMSF=4.626e-06\ZeroPoint=0.1140718\Thermal=0.1197564\Dipole=-
 0.6395566,-0.5493854,0.0684017\DipoleDeriv=-0.7465005,-0.258115,0.0102
 362,-0.297164,-0.6472905,0.065672,0.0162345,0.0617929,-0.3655616,0.488
 6515,0.011705,-0.0055052,0.030059,0.2340646,-0.0450672,0.0543273,-0.00
 80176,0.3192554,0.1883985,0.0803879,0.0734647,0.0554176,0.3186331,-0.0
 076219,0.0555166,-0.0509616,0.2613652,0.0342624,-0.0055822,-0.0278961,
 0.0454945,0.1295618,0.0323933,-0.0412428,0.0149151,0.0361807,0.0125417
 ,-0.0126826,-0.0054846,0.0004493,0.0399921,0.002651,-0.0323568,0.01722
 48,0.0867167,-0.0214564,0.0219576,0.0136221,0.039238,0.0620061,-0.0001
 478,0.0272607,0.0217567,-0.1372739,0.0081671,0.0910879,-0.0519949,0.06
 2453,-0.0393015,0.0207768,-0.0566527,0.0526486,0.0024392,0.0700541,0.0
 035561,-0.0584619,0.0148049,0.0033143,-0.015244,-0.0385363,-0.0676434,
 -0.0880653,0.0018531,-0.0174901,0.0649119,-0.0088711,0.0522947,-0.0108
 2,0.0236155,0.0273323,-0.1122244,-0.0139765,0.0265613,0.0066154,0.0428
 01,-0.1343318,-0.0374549,-0.0103953,-0.0632391,0.0564254,0.043576,0.05
 62299,0.0321069,-0.007042,-0.1185499,-0.0436236,0.0204378,-0.0621245,0
 .0445764,0.0512882,-0.0225712,0.008823,-0.0252765,0.0544707,-0.0058051
 ,0.0712416,0.0249802,-0.1346331,-0.1168592,0.0249556,-0.0604375,0.0476
 363,0.0451362,0.0442914,-0.0894502,0.0313356,0.0307993\Polar=55.955796
 5,-3.1336817,48.8818004,-1.3669075,0.7069801,46.4186381\Quadrupole=-1.
 751211,0.291403,1.459808,-2.9668191,0.1815575,0.441082\PG=C01 [X(C4H8O
 1)]\NImag=0\\0.27254307,0.12322167,0.31800189,-0.05139053,-0.00754290,
 0.12334571,-0.19358880,-0.08080373,0.04791475,0.56630770,-0.03911807,-
 0.05425554,0.02387431,-0.12948961,0.32694094,0.05176413,0.04236247,-0.
 08237224,-0.05368367,0.01119805,0.64575326,-0.04084662,-0.03025938,-0.
 01803851,-0.13113446,0.10410648,0.05985694,0.37346261,-0.07216539,-0.2
 2832249,-0.00499839,0.15570123,-0.11152303,-0.08819749,-0.18070115,0.5
 5513931,-0.02718333,-0.02354368,-0.05556463,0.07278637,-0.06636985,-0.
 10920669,0.09158230,0.05964828,0.61187618,-0.03387277,0.00866872,-0.00
 697077,-0.15579399,0.04319752,-0.05841190,-0.01184472,0.00063255,-0.00
 113932,0.48217592,-0.02595288,0.01026769,-0.01238244,0.04949780,-0.094
 90845,0.02777360,0.02415644,-0.01415932,0.01777672,-0.02650113,0.55032
 277,0.01065310,-0.00430382,0.00665104,-0.06351127,0.02986903,-0.127948
 65,0.00924994,-0.00307740,0.00626145,-0.02564038,0.01640086,0.57826268
 ,-0.00544512,0.00181128,-0.00304293,-0.03007095,-0.01815605,0.00523078
 ,0.00176969,-0.00208139,0.00097605,-0.15066783,-0.05811418,0.01707846,
 0.52158402,0.00646430,-0.00032841,0.00095711,0.00228395,0.00770122,-0.
 00459817,-0.00014942,0.00105295,0.00021830,-0.05858801,-0.12599418,0.0
 1470953,-0.04509562,0.52915871,-0.00480655,0.00026245,-0.00042652,-0.0
 1088455,-0.01121731,0.00496341,0.00110583,-0.00036904,-0.00022011,0.01
 681500,0.01373566,-0.08475341,0.01698444,0.00947914,0.55989299,-0.0130
 5131,-0.00016032,0.03410084,-0.04646045,0.00172737,0.00157688,-0.00536
 003,-0.00173011,0.00853744,0.00378802,0.00055257,-0.02502320,0.0021173
 0,0.00047614,-0.00018834,0.06283782,-0.00605148,-0.00044989,0.02377802
 ,0.00602548,-0.04444203,0.00420339,-0.00140874,0.00116328,-0.02878458,
 0.00026425,0.00158378,0.01104074,0.00012478,-0.00017877,-0.00000278,-0
 .00293430,0.04172185,0.01242555,0.00034146,-0.00576032,0.00540072,0.00
 681006,-0.31628979,0.00063631,0.00333405,-0.00672175,0.00272076,-0.001
 13551,-0.01191514,0.00010696,0.00018187,0.00001285,-0.01848786,-0.0107
 1748,0.33920747,0.01316191,-0.01192008,0.01341097,-0.01037128,0.009885
 12,-0.01911044,-0.13143985,0.10053641,-0.09127891,0.00033239,0.0039752
 7,0.00197848,0.00038359,0.00020747,-0.00008539,0.00060230,-0.00112286,
 0.00031051,0.12947232,0.01657981,-0.02907191,0.00957962,-0.00248957,-0
 .00703267,0.00046361,0.09380068,-0.14436035,0.09374490,-0.00030940,0.0
 0092159,-0.00017767,0.00013694,-0.00010940,0.00017847,0.00084545,0.000
 01702,-0.00006657,-0.10452309,0.17140449,0.00274625,-0.00019273,0.0039
 6404,0.00848058,-0.01006730,0.00977570,-0.09213118,0.09437548,-0.14427
 860,-0.00020865,-0.00221227,-0.00140508,-0.00010140,-0.00001196,0.0000
 7029,0.00039539,0.00118359,0.00026644,0.09448448,-0.09918732,0.1413615
 9,-0.00183413,-0.00788511,-0.01635337,0.00564801,0.00420431,0.02777179
 ,-0.05311189,-0.00372535,-0.04892814,0.00088637,-0.00175504,0.00039621
 ,0.00002127,0.00015017,0.00003651,-0.00053148,0.00389528,0.00029355,-0
 .00072037,-0.00392241,-0.01460331,0.04925833,-0.00242804,-0.01883884,-
 0.03161781,-0.00286440,-0.00703139,-0.00331323,-0.00732985,-0.05978222
 ,-0.05642585,0.00023675,0.00075370,-0.00157183,0.00034725,-0.00009296,
 0.00043045,-0.00034508,0.00031675,0.00023938,0.00281005,0.00795883,0.0
 1652686,0.00929714,0.07730467,0.00313279,-0.00540195,0.00743259,-0.005
 14820,-0.00237270,-0.01064845,-0.05102936,-0.06219879,-0.30121892,-0.0
 0089276,0.00107641,0.00057793,0.00023734,-0.00022923,0.00006261,-0.000
 13618,-0.00140368,0.00047881,0.00045171,-0.00482380,-0.01059895,0.0527
 2624,0.07522409,0.31329907,0.00236060,-0.00138620,0.00144760,0.0027006
 1,0.00171635,-0.02978966,0.00122666,0.00044799,-0.00137077,-0.05672592
 ,-0.00011242,0.05403304,-0.00608638,-0.00083445,0.02641567,-0.00418611
 ,0.00175726,-0.00210772,0.00012878,-0.00002060,0.00013233,-0.00013355,
 0.00029652,0.00058575,0.06516282,-0.00085631,0.00009935,-0.00139461,-0
 .00183564,-0.00180056,0.01213597,-0.00039573,0.00044901,0.00168279,0.0
 0068168,-0.04750950,0.00495513,-0.00449325,-0.00117138,0.02012460,0.00
 164457,-0.00005525,0.00103818,-0.00008209,-0.00007394,-0.00022632,0.00
 037725,-0.00056216,-0.00025219,0.00132957,0.05020219,0.00029505,-0.001
 16505,0.00201866,0.00341810,0.00055543,-0.01965152,0.00112148,0.000043
 17,0.00042964,0.05086122,0.00667481,-0.29356020,0.00095504,0.00031060,
 -0.00236522,-0.00262651,0.00114224,-0.00007634,0.00024056,0.00015260,0
 .00028702,-0.00081378,0.00032601,0.00040138,-0.05547260,-0.00949314,0.
 31913161,0.00196502,-0.00258654,0.00039690,-0.00854646,0.02776576,0.01
 035611,-0.00265775,0.00306488,-0.00425358,-0.05744019,0.05128885,0.015
 98898,0.00538562,-0.02679376,-0.00876696,0.00059403,-0.00072456,-0.000
 25023,-0.00143610,-0.00022272,0.00071669,0.00042210,-0.00008494,-0.000
 19040,-0.00194868,0.00567094,0.00124840,0.06610140,0.00154046,0.001376
 17,-0.00015007,0.00313021,-0.01049600,-0.00382459,-0.00046269,0.000048
 68,0.00225171,0.05120161,-0.26850834,-0.07138808,0.00305174,-0.0177426
 1,-0.00564773,0.00019367,0.00013754,0.00045994,0.00040030,0.00024351,-
 0.00032303,-0.00021358,0.00000410,0.00010862,-0.00045565,0.00136798,0.
 00054297,-0.05518396,0.29364728,0.00143792,-0.00137255,0.00019488,-0.0
 0494853,0.01764978,0.00584493,-0.00161699,0.00111259,-0.00168985,0.016
 18731,-0.07233901,-0.07317061,-0.00111732,0.00617826,0.00152896,0.0006
 9128,-0.00014461,0.00029619,-0.00044582,0.00017285,0.00061741,-0.00034
 321,0.00023005,0.00025309,0.00641963,-0.02907627,-0.00852220,-0.016191
 97,0.07672318,0.07359536,0.00070772,0.00091177,0.00019375,0.00181253,-
 0.00166619,-0.00078321,-0.00050130,0.00040818,0.00017173,0.00494081,-0
 .02580105,-0.00951411,-0.05774137,0.05196759,0.01766414,-0.00005057,0.
 00005637,-0.00001864,0.00003963,0.00003902,0.00008966,-0.00008841,0.00
 003456,0.00031773,0.00110305,0.00083160,0.00013001,-0.00427249,-0.0033
 1758,0.00081947,0.06133732,0.00033562,0.00064545,0.00030071,0.00152931
 ,-0.00018956,0.00012735,-0.00093429,0.00043979,-0.00025100,0.00335835,
 -0.01908738,-0.00639792,0.05120015,-0.27050735,-0.07774254,-0.00011960
 ,-0.00002934,-0.00000309,-0.00012786,0.00004731,0.00010842,-0.00028191
 ,-0.00001580,0.00010520,0.00019724,0.00038821,0.00041720,-0.00368582,-
 0.00092580,0.00116607,-0.05211799,0.29550980,-0.00006961,0.00031906,-0
 .00021484,0.00022962,-0.00079427,-0.00011472,-0.00030478,0.00012133,0.
 00041826,-0.00177912,0.00704810,0.00194420,0.01733989,-0.07797332,-0.0
 7373826,0.00002141,-0.00011027,-0.00004771,-0.00008357,-0.00002496,-0.
 00008050,-0.00002362,-0.00005642,-0.00012210,-0.00060465,0.00027844,0.
 00023777,0.00132527,0.00108594,0.00073629,-0.02009836,0.08448369,0.074
 97767,0.00012787,0.00033325,-0.00084953,0.00107959,0.00004869,0.002171
 00,-0.00023845,0.00001701,0.00008607,-0.00604955,-0.00048854,0.0265007
 7,-0.05615898,-0.00178430,0.05004998,-0.00043990,-0.00002918,-0.000778
 17,-0.00008474,-0.00001979,-0.00003454,0.00018080,-0.00008343,-0.00010
 912,-0.00384731,-0.00336543,0.00017081,0.00107633,0.00033318,-0.000559
 70,-0.00243131,-0.00051567,0.00652026,0.06065051,0.00008093,0.00000656
 ,-0.00013899,0.00073184,0.00030911,0.00014962,-0.00002989,-0.00011654,
 -0.00025548,-0.00420218,-0.00097397,0.02179469,-0.00145796,-0.04692192
 ,0.00909256,-0.00022644,0.00023968,-0.00032625,0.00001434,0.00000770,0
 .00000676,-0.00001849,-0.00006296,0.00006616,-0.00372583,-0.00194839,0
 .00032380,0.00086066,0.00030795,0.00024470,0.00523230,0.00232013,-0.02
 969618,0.00555500,0.04823724,0.00018284,0.00003109,0.00032947,-0.00079
 680,0.00009042,0.00012994,-0.00009930,0.00000623,-0.00007587,0.0014119
 7,0.00048554,-0.00407980,0.05030124,0.00945864,-0.29855637,0.00078776,
 -0.00012989,0.00021352,0.00009821,-0.00000703,0.00001904,-0.00008890,0
 .00003992,0.00006147,0.00034658,0.00078055,0.00137755,0.00023814,0.000
 46384,0.00033699,0.00097650,0.00102424,-0.00880131,-0.05701226,-0.0118
 4714,0.32275298,-0.00222745,0.00005467,-0.00081918,-0.00158207,-0.0042
 2169,0.00305126,0.00067609,-0.00040486,0.00001409,-0.01972856,0.009254
 30,-0.01219001,-0.22509087,0.07169595,-0.10433978,0.00014039,0.0001477
 2,-0.00025174,-0.00006860,0.00010567,0.00003371,0.00000295,0.00011346,
 0.00005448,0.00024544,0.00049285,0.00047222,0.00075717,-0.00021773,-0.
 00033209,-0.00485560,0.00116248,-0.00247275,0.00613514,-0.00281429,0.0
 0365404,0.24559597,-0.00165064,0.00086997,-0.00026454,-0.00141688,-0.0
 0327203,0.00151943,-0.00039245,-0.00002906,0.00030774,-0.01864074,0.00
 729162,-0.01185326,0.07272633,-0.07486589,0.04167606,0.00007608,-0.000
 02463,-0.00015603,-0.00005297,0.00004785,0.00001983,-0.00012226,0.0000
 4826,0.00010186,0.00079020,0.00061445,0.00016936,0.00063122,0.00053956
 ,-0.00054505,0.02342141,-0.00859545,0.01531885,-0.00000079,-0.00140458
 ,-0.00039641,-0.07536853,0.07877995,0.00081240,0.00020615,0.00040216,0
 .00074288,0.00077435,-0.00023517,-0.00033268,0.00019998,-0.00000910,0.
 00704663,-0.00290247,0.00313560,-0.10494856,0.04131922,-0.10647122,0.0
 0035110,-0.00005468,0.00033576,0.00002921,-0.00000469,0.00000160,-0.00
 006998,-0.00003160,0.00002146,-0.00003518,-0.00055313,0.00029184,-0.00
 061734,-0.00030269,-0.00002144,0.01005135,-0.00333833,0.00480526,-0.02
 615558,0.01058575,-0.01370762,0.11312575,-0.04589784,0.11145086\\-0.00
 000272,-0.00000806,-0.00000761,-0.00000218,-0.00000610,-0.00000077,-0.
 00000827,0.00000754,0.00000106,0.00000788,0.00000882,0.00000895,-0.000
 00034,-0.00000662,0.00000332,-0.00000480,0.00000057,0.00000162,-0.0000
 0171,-0.00000262,-0.00000338,0.00000726,0.00000286,-0.00000701,0.00000
 288,0.00000122,0.00000050,0.00000272,0.00000033,0.00000312,-0.00000406
 ,0.00000036,-0.00000303,0.00000081,-0.00000339,0.00000097,0.00000251,0
 .00000509,0.00000226\\\@


 Happiness is a conscious choice, not an automatic response.
 -- Mildred Barthel
 Job cpu time:       0 days  0 hours 33 minutes 28.4 seconds.
 Elapsed time:       0 days  0 hours  2 minutes  6.7 seconds.
 File lengths (MBytes):  RWF=     38 Int=      0 D2E=      0 Chk=      3 Scr=      1
 Normal termination of Gaussian 16 at Sat Sep 20 00:21:59 2025.
