 Entering Gaussian System, Link 0=g16
 Input=ETBE0038.gjf
 Output=ETBE0038.log
 Initial command:
 /usr/local/g16/l1.exe "/dados_01/scratch/Gau-2475793.inp" -scrdir="/dados_01/scratch/"
 Entering Link 1 = /usr/local/g16/l1.exe PID=   2475794.
  
 Copyright (c) 1988-2017, Gaussian, Inc.  All Rights Reserved.
  
 This is part of the Gaussian(R) 16 program.  It is based on
 the Gaussian(R) 09 system (copyright 2009, Gaussian, Inc.),
 the Gaussian(R) 03 system (copyright 2003, Gaussian, Inc.),
 the Gaussian(R) 98 system (copyright 1998, Gaussian, Inc.),
 the Gaussian(R) 94 system (copyright 1995, Gaussian, Inc.),
 the Gaussian 92(TM) system (copyright 1992, Gaussian, Inc.),
 the Gaussian 90(TM) system (copyright 1990, Gaussian, Inc.),
 the Gaussian 88(TM) system (copyright 1988, Gaussian, Inc.),
 the Gaussian 86(TM) system (copyright 1986, Carnegie Mellon
 University), and the Gaussian 82(TM) system (copyright 1983,
 Carnegie Mellon University). Gaussian is a federally registered
 trademark of Gaussian, Inc.
  
 This software contains proprietary and confidential information,
 including trade secrets, belonging to Gaussian, Inc.
  
 This software is provided under written license and may be
 used, copied, transmitted, or stored only in accord with that
 written license.
  
 The following legend is applicable only to US Government
 contracts under FAR:
  
                    RESTRICTED RIGHTS LEGEND
  
 Use, reproduction and disclosure by the US Government is
 subject to restrictions as set forth in subparagraphs (a)
 and (c) of the Commercial Computer Software - Restricted
 Rights clause in FAR 52.227-19.
  
 Gaussian, Inc.
 340 Quinnipiac St., Bldg. 40, Wallingford CT 06492
  
  
 ---------------------------------------------------------------
 Warning -- This program may not be used in any manner that
 competes with the business of Gaussian, Inc. or will provide
 assistance to any competitor of Gaussian, Inc.  The licensee
 of this program is prohibited from giving any competitor of
 Gaussian, Inc. access to this program.  By using this program,
 the user acknowledges that Gaussian, Inc. is engaged in the
 business of creating and licensing software in the field of
 computational chemistry and represents and warrants to the
 licensee that it is not a competitor of Gaussian, Inc. and that
 it will not use this program in any manner prohibited above.
 ---------------------------------------------------------------
  

 Cite this work as:
 Gaussian 16, Revision B.01,
 M. J. Frisch, G. W. Trucks, H. B. Schlegel, G. E. Scuseria, 
 M. A. Robb, J. R. Cheeseman, G. Scalmani, V. Barone, 
 G. A. Petersson, H. Nakatsuji, X. Li, M. Caricato, A. V. Marenich, 
 J. Bloino, B. G. Janesko, R. Gomperts, B. Mennucci, H. P. Hratchian, 
 J. V. Ortiz, A. F. Izmaylov, J. L. Sonnenberg, D. Williams-Young, 
 F. Ding, F. Lipparini, F. Egidi, J. Goings, B. Peng, A. Petrone, 
 T. Henderson, D. Ranasinghe, V. G. Zakrzewski, J. Gao, N. Rega, 
 G. Zheng, W. Liang, M. Hada, M. Ehara, K. Toyota, R. Fukuda, 
 J. Hasegawa, M. Ishida, T. Nakajima, Y. Honda, O. Kitao, H. Nakai, 
 T. Vreven, K. Throssell, J. A. Montgomery, Jr., J. E. Peralta, 
 F. Ogliaro, M. J. Bearpark, J. J. Heyd, E. N. Brothers, K. N. Kudin, 
 V. N. Staroverov, T. A. Keith, R. Kobayashi, J. Normand, 
 K. Raghavachari, A. P. Rendell, J. C. Burant, S. S. Iyengar, 
 J. Tomasi, M. Cossi, J. M. Millam, M. Klene, C. Adamo, R. Cammi, 
 J. W. Ochterski, R. L. Martin, K. Morokuma, O. Farkas, 
 J. B. Foresman, and D. J. Fox, Gaussian, Inc., Wallingford CT, 2016.
 
 ******************************************
 Gaussian 16:  ES64L-G16RevB.01 20-Dec-2017
                 6-Oct-2025 
 ******************************************
 %nprocs=16
 Will use up to   16 processors via shared memory.
 %mem=40GB
 %chk=ETBE0038.chk
 ----------------------------------------------------------------------
 # opt freq=noraman M08HX/6-311++G** scf=xqc Empiricaldispersion=pfd In
 t(Grid=ultraFine)
 ----------------------------------------------------------------------
 1/18=20,19=15,26=4,38=1/1,3;
 2/9=110,12=2,17=6,18=5,40=1/2;
 3/5=4,6=6,7=1111,11=2,25=1,30=1,71=1,74=-74,75=-5,124=11/1,2,3;
 4//1;
 5/5=2,8=3,13=1,38=5/2,8;
 6/7=2,8=2,9=2,10=2,28=1/1;
 7//1,2,3,16;
 1/18=20,19=15,26=4/3(2);
 2/9=110/2;
 99//99;
 2/9=110/2;
 3/5=4,6=6,7=1111,11=2,25=1,30=1,71=1,74=-74,75=-5,124=11/1,2,3;
 4/5=5,16=3,69=1/1;
 5/5=2,8=3,13=1,38=5/2,8;
 7//1,2,3,16;
 1/18=20,19=15,26=4/3(-5);
 2/9=110/2;
 6/7=2,8=2,9=2,10=2,19=2,28=1/1;
 99/9=1/99;
 --------
 ETBE0038
 --------
 Symbolic Z-matrix:
 Charge =  0 Multiplicity = 1
 O                     1.7615   -0.2932   -0.0003 
 O                     1.1871    1.9359   -0.0007 
 C                    -0.5072    0.2582   -0.0002 
 C                     3.1501    0.0548    0.0004 
 C                    -1.5657    1.1668    0.0007 
 C                    -0.7649   -1.1127   -0.0008 
 C                     0.8648    0.7403   -0.0008 
 C                    -2.8817    0.7046    0.001 
 C                    -2.081    -1.5749   -0.0006 
 C                    -3.1393   -0.6662    0.0003 
 C                     3.9764   -1.2136    0.0009 
 H                     3.3771    0.6459   -0.8936 
 H                     3.3762    0.6461    0.8946 
 H                    -1.3871    2.2389    0.001 
 H                     0.0269   -1.8566   -0.0016 
 H                    -3.706     1.4119    0.0017 
 H                    -2.2825   -2.6422   -0.0011 
 H                     5.0456   -0.9841    0.0014 
 H                     3.745    -1.8237    0.8803 
 H                     3.7459   -1.8238   -0.8785 
 H                    -4.164    -1.0261    0.0005 
 

 GradGradGradGradGradGradGradGradGradGradGradGradGradGradGradGradGradGrad
 Berny optimization.
 Initialization pass.
                           ----------------------------
                           !    Initial Parameters    !
                           ! (Angstroms and Degrees)  !
 --------------------------                            --------------------------
 ! Name  Definition              Value          Derivative Info.                !
 --------------------------------------------------------------------------------
 ! R1    R(1,4)                  1.4315         estimate D2E/DX2                !
 ! R2    R(1,7)                  1.3683         estimate D2E/DX2                !
 ! R3    R(2,7)                  1.2383         estimate D2E/DX2                !
 ! R4    R(3,5)                  1.395          estimate D2E/DX2                !
 ! R5    R(3,6)                  1.3949         estimate D2E/DX2                !
 ! R6    R(3,7)                  1.4542         estimate D2E/DX2                !
 ! R7    R(4,11)                 1.5138         estimate D2E/DX2                !
 ! R8    R(4,12)                 1.0955         estimate D2E/DX2                !
 ! R9    R(4,13)                 1.0956         estimate D2E/DX2                !
 ! R10   R(5,8)                  1.3948         estimate D2E/DX2                !
 ! R11   R(5,14)                 1.0869         estimate D2E/DX2                !
 ! R12   R(6,9)                  1.3949         estimate D2E/DX2                !
 ! R13   R(6,15)                 1.0864         estimate D2E/DX2                !
 ! R14   R(8,10)                 1.3948         estimate D2E/DX2                !
 ! R15   R(8,16)                 1.0862         estimate D2E/DX2                !
 ! R16   R(9,10)                 1.3949         estimate D2E/DX2                !
 ! R17   R(9,17)                 1.0862         estimate D2E/DX2                !
 ! R18   R(10,21)                1.0861         estimate D2E/DX2                !
 ! R19   R(11,18)                1.0936         estimate D2E/DX2                !
 ! R20   R(11,19)                1.095          estimate D2E/DX2                !
 ! R21   R(11,20)                1.0949         estimate D2E/DX2                !
 ! A1    A(4,1,7)              116.8768         estimate D2E/DX2                !
 ! A2    A(5,3,6)              119.9961         estimate D2E/DX2                !
 ! A3    A(5,3,7)              119.997          estimate D2E/DX2                !
 ! A4    A(6,3,7)              120.0068         estimate D2E/DX2                !
 ! A5    A(1,4,11)             109.013          estimate D2E/DX2                !
 ! A6    A(1,4,12)             109.3755         estimate D2E/DX2                !
 ! A7    A(1,4,13)             109.3767         estimate D2E/DX2                !
 ! A8    A(11,4,12)            109.8317         estimate D2E/DX2                !
 ! A9    A(11,4,13)            109.8339         estimate D2E/DX2                !
 ! A10   A(12,4,13)            109.3946         estimate D2E/DX2                !
 ! A11   A(3,5,8)              120.0056         estimate D2E/DX2                !
 ! A12   A(3,5,14)             121.1843         estimate D2E/DX2                !
 ! A13   A(8,5,14)             118.8101         estimate D2E/DX2                !
 ! A14   A(3,6,9)              119.9969         estimate D2E/DX2                !
 ! A15   A(3,6,15)             122.5673         estimate D2E/DX2                !
 ! A16   A(9,6,15)             117.4358         estimate D2E/DX2                !
 ! A17   A(1,7,2)              123.9673         estimate D2E/DX2                !
 ! A18   A(1,7,3)              111.5853         estimate D2E/DX2                !
 ! A19   A(2,7,3)              124.4474         estimate D2E/DX2                !
 ! A20   A(5,8,10)             119.9949         estimate D2E/DX2                !
 ! A21   A(5,8,16)             120.0163         estimate D2E/DX2                !
 ! A22   A(10,8,16)            119.9888         estimate D2E/DX2                !
 ! A23   A(6,9,10)             119.9985         estimate D2E/DX2                !
 ! A24   A(6,9,17)             120.042          estimate D2E/DX2                !
 ! A25   A(10,9,17)            119.9595         estimate D2E/DX2                !
 ! A26   A(8,10,9)             120.0079         estimate D2E/DX2                !
 ! A27   A(8,10,21)            119.9954         estimate D2E/DX2                !
 ! A28   A(9,10,21)            119.9967         estimate D2E/DX2                !
 ! A29   A(4,11,18)            110.9677         estimate D2E/DX2                !
 ! A30   A(4,11,19)            110.5943         estimate D2E/DX2                !
 ! A31   A(4,11,20)            110.5966         estimate D2E/DX2                !
 ! A32   A(18,11,19)           108.8547         estimate D2E/DX2                !
 ! A33   A(18,11,20)           108.8541         estimate D2E/DX2                !
 ! A34   A(19,11,20)           106.8591         estimate D2E/DX2                !
 ! D1    D(7,1,4,11)           179.9989         estimate D2E/DX2                !
 ! D2    D(7,1,4,12)           -59.898          estimate D2E/DX2                !
 ! D3    D(7,1,4,13)            59.8924         estimate D2E/DX2                !
 ! D4    D(4,1,7,2)              0.0011         estimate D2E/DX2                !
 ! D5    D(4,1,7,3)           -179.9455         estimate D2E/DX2                !
 ! D6    D(6,3,5,8)              0.0            estimate D2E/DX2                !
 ! D7    D(6,3,5,14)          -179.989          estimate D2E/DX2                !
 ! D8    D(7,3,5,8)            179.9869         estimate D2E/DX2                !
 ! D9    D(7,3,5,14)            -0.0021         estimate D2E/DX2                !
 ! D10   D(5,3,6,9)              0.0047         estimate D2E/DX2                !
 ! D11   D(5,3,6,15)           179.9941         estimate D2E/DX2                !
 ! D12   D(7,3,6,9)           -179.9822         estimate D2E/DX2                !
 ! D13   D(7,3,6,15)             0.0072         estimate D2E/DX2                !
 ! D14   D(5,3,7,1)            179.9391         estimate D2E/DX2                !
 ! D15   D(5,3,7,2)             -0.0072         estimate D2E/DX2                !
 ! D16   D(6,3,7,1)             -0.074          estimate D2E/DX2                !
 ! D17   D(6,3,7,2)            179.9797         estimate D2E/DX2                !
 ! D18   D(1,4,11,18)          179.9977         estimate D2E/DX2                !
 ! D19   D(1,4,11,19)          -59.0909         estimate D2E/DX2                !
 ! D20   D(1,4,11,20)           59.0855         estimate D2E/DX2                !
 ! D21   D(12,4,11,18)          60.1764         estimate D2E/DX2                !
 ! D22   D(12,4,11,19)        -178.9121         estimate D2E/DX2                !
 ! D23   D(12,4,11,20)         -60.7357         estimate D2E/DX2                !
 ! D24   D(13,4,11,18)         -60.1783         estimate D2E/DX2                !
 ! D25   D(13,4,11,19)          60.7332         estimate D2E/DX2                !
 ! D26   D(13,4,11,20)         178.9096         estimate D2E/DX2                !
 ! D27   D(3,5,8,10)            -0.0047         estimate D2E/DX2                !
 ! D28   D(3,5,8,16)          -180.0            estimate D2E/DX2                !
 ! D29   D(14,5,8,10)          179.9845         estimate D2E/DX2                !
 ! D30   D(14,5,8,16)           -0.0107         estimate D2E/DX2                !
 ! D31   D(3,6,9,10)            -0.0047         estimate D2E/DX2                !
 ! D32   D(3,6,9,17)           179.998          estimate D2E/DX2                !
 ! D33   D(15,6,9,10)         -179.9947         estimate D2E/DX2                !
 ! D34   D(15,6,9,17)            0.0081         estimate D2E/DX2                !
 ! D35   D(5,8,10,9)             0.0047         estimate D2E/DX2                !
 ! D36   D(5,8,10,21)         -179.998          estimate D2E/DX2                !
 ! D37   D(16,8,10,9)          180.0            estimate D2E/DX2                !
 ! D38   D(16,8,10,21)          -0.0027         estimate D2E/DX2                !
 ! D39   D(6,9,10,8)             0.0            estimate D2E/DX2                !
 ! D40   D(6,9,10,21)         -179.9973         estimate D2E/DX2                !
 ! D41   D(17,9,10,8)          179.9973         estimate D2E/DX2                !
 ! D42   D(17,9,10,21)           0.0            estimate D2E/DX2                !
 --------------------------------------------------------------------------------
 Trust Radius=3.00D-01 FncErr=1.00D-07 GrdErr=1.00D-06 EigMax=2.50D+02 EigMin=1.00D-04
 Number of steps in this run=    107 maximum allowed number of steps=    126.
 GradGradGradGradGradGradGradGradGradGradGradGradGradGradGradGradGradGrad

                          Input orientation:                          
 ---------------------------------------------------------------------
 Center     Atomic      Atomic             Coordinates (Angstroms)
 Number     Number       Type             X           Y           Z
 ---------------------------------------------------------------------
      1          8           0        1.761500   -0.293200   -0.000300
      2          8           0        1.187100    1.935900   -0.000700
      3          6           0       -0.507200    0.258200   -0.000200
      4          6           0        3.150100    0.054800    0.000400
      5          6           0       -1.565700    1.166800    0.000700
      6          6           0       -0.764900   -1.112700   -0.000800
      7          6           0        0.864800    0.740300   -0.000800
      8          6           0       -2.881700    0.704600    0.001000
      9          6           0       -2.081000   -1.574900   -0.000600
     10          6           0       -3.139300   -0.666200    0.000300
     11          6           0        3.976400   -1.213600    0.000900
     12          1           0        3.377100    0.645900   -0.893600
     13          1           0        3.376200    0.646100    0.894600
     14          1           0       -1.387100    2.238900    0.001000
     15          1           0        0.026900   -1.856600   -0.001600
     16          1           0       -3.706000    1.411900    0.001700
     17          1           0       -2.282500   -2.642200   -0.001100
     18          1           0        5.045600   -0.984100    0.001400
     19          1           0        3.745000   -1.823700    0.880300
     20          1           0        3.745900   -1.823800   -0.878500
     21          1           0       -4.164000   -1.026100    0.000500
 ---------------------------------------------------------------------
                    Distance matrix (angstroms):
                    1          2          3          4          5
     1  O    0.000000
     2  O    2.301917   0.000000
     3  C    2.334747   2.384393   0.000000
     4  C    1.431543   2.718806   3.662952   0.000000
     5  C    3.633437   2.858221   1.394983   4.845133   0.000000
     6  C    2.655989   3.619981   1.394911   4.085374   2.416072
     7  C    1.368281   1.238280   1.454237   2.385898   2.467637
     8  C    4.749201   4.251028   2.416097   6.066700   1.394806
     9  C    4.050625   4.796477   2.416010   5.479081   2.789705
    10  C    4.914974   5.048630   2.789707   6.330592   2.415803
    11  C    2.398524   4.207083   4.718990   1.513807   6.031681
    12  H    2.071245   2.693969   4.004530   1.095520   5.049988
    13  H    2.071325   2.693939   4.003989   1.095605   5.049016
    14  H    4.040447   2.591972   2.167348   5.035522   1.086875
    15  H    2.335178   3.965996   2.181202   3.661671   3.417211
    16  H    5.727209   4.921078   3.400492   6.989122   2.154289
    17  H    4.676723   5.744312   3.400590   6.065225   3.875859
    18  H    3.355988   4.838846   5.690070   2.161535   6.952385
    19  H    2.655590   4.631804   4.815682   2.157983   6.157948
    20  H    2.655525   4.631774   4.816118   2.157911   6.158715
    21  H    5.970653   6.116185   3.875773   7.393538   3.399996
                    6          7          8          9         10
     6  C    0.000000
     7  C    2.467698   0.000000
     8  C    2.789879   3.746671   0.000000
     9  C    1.394901   3.746717   2.416039   0.000000
    10  C    2.416017   4.243944   1.394794   1.394896   0.000000
    11  C    4.742374   3.674205   7.121308   6.068166   7.136724
    12  H    4.587584   2.667893   6.322684   5.959887   6.707021
    13  H    4.587355   2.667910   6.321650   5.959468   6.706239
    14  H    3.408865   2.704969   2.141940   3.876412   3.392611
    15  H    1.086432   2.728730   3.875527   2.126640   3.382585
    16  H    3.876039   4.619877   1.086160   3.400236   2.153985
    17  H    2.154642   4.620260   3.400017   1.086155   2.153760
    18  H    5.811923   4.522460   8.105171   7.151047   8.191071
    19  H    4.649845   3.955501   7.146931   5.897471   7.036177
    20  H    4.650090   3.955465   7.147825   5.897917   7.036924
    21  H    3.400203   5.330009   2.153977   2.154083   1.086065
                   11         12         13         14         15
    11  C    0.000000
    12  H    2.148728   0.000000
    13  H    2.148819   1.788200   0.000000
    14  H    6.378627   5.102505   5.101427   0.000000
    15  H    4.001500   4.275747   4.276037   4.332727   0.000000
    16  H    8.118653   7.180433   7.179225   2.461956   4.961617
    17  H    6.419870   6.606000   6.605761   4.962548   2.439364
    18  H    1.093553   2.498363   2.498450   7.194954   5.093978
    19  H    1.095040   3.062841   2.497224   6.604267   3.821400
    20  H    1.094906   2.497130   3.062837   6.605054   3.821124
    21  H    8.142559   7.775808   7.774978   4.286187   4.272397
                   16         17         18         19         20
    16  H    0.000000
    17  H    4.296753   0.000000
    18  H    9.073661   7.513345   0.000000
    19  H    8.170584   6.146346   1.780156   0.000000
    20  H    8.171617   6.146643   1.780039   1.758800   0.000000
    21  H    2.480647   2.480287   9.209696   7.997656   7.998468
                   21
    21  H    0.000000
 Stoichiometry    C9H10O2
 Framework group  C1[X(C9H10O2)]
 Deg. of freedom    57
 Full point group                 C1      NOp   1
 Largest Abelian subgroup         C1      NOp   1
 Largest concise Abelian subgroup C1      NOp   1
                         Standard orientation:                         
 ---------------------------------------------------------------------
 Center     Atomic      Atomic             Coordinates (Angstroms)
 Number     Number       Type             X           Y           Z
 ---------------------------------------------------------------------
      1          8           0        1.596506   -0.231244   -0.000326
      2          8           0        0.969327    1.983585   -0.000726
      3          6           0       -0.684650    0.266118   -0.000226
      4          6           0        2.976449    0.149637    0.000374
      5          6           0       -1.764430    1.149323    0.000674
      6          6           0       -0.909718   -1.110515   -0.000826
      7          6           0        0.675513    0.780667   -0.000826
      8          6           0       -3.069082    0.655998    0.000974
      9          6           0       -2.214470   -1.603842   -0.000626
     10          6           0       -3.294053   -0.720533    0.000274
     11          6           0        3.832641   -1.098781    0.000874
     12          1           0        3.189347    0.745961   -0.893626
     13          1           0        3.188442    0.746140    0.894574
     14          1           0       -1.611343    2.225362    0.000974
     15          1           0       -0.100474   -1.835400   -0.001626
     16          1           0       -3.909948    1.343521    0.001674
     17          1           0       -2.390564   -2.675627   -0.001126
     18          1           0        4.896089   -0.843952    0.001374
     19          1           0        3.615796   -1.714205    0.880274
     20          1           0        3.616698   -1.714283   -0.878526
     21          1           0       -4.309916   -1.104668    0.000474
 ---------------------------------------------------------------------
 Rotational constants (GHZ):           2.6752224           0.6197592           0.5063843
 Standard basis: 6-311++G(d,p) (5D, 7F)
 There are   323 symmetry adapted cartesian basis functions of A   symmetry.
 There are   312 symmetry adapted basis functions of A   symmetry.
   312 basis functions,   486 primitive gaussians,   323 cartesian basis functions
    40 alpha electrons       40 beta electrons
       nuclear repulsion energy       572.7935835100 Hartrees.
 NAtoms=   21 NActive=   21 NUniq=   21 SFac= 1.00D+00 NAtFMM=   60 NAOKFM=F Big=F
 Integral buffers will be    131072 words long.
 Raffenetti 2 integral format.
 Two-electron integral symmetry is turned on.
 R6APFD:  NTU= -4 IXU= 1 FactS= 1.050
 Nuclear repulsion after empirical dispersion term =      572.7811223477 Hartrees.
 One-electron integrals computed using PRISM.
 NBasis=   312 RedAO= T EigKep=  1.94D-06  NBF=   312
 NBsUse=   311 1.00D-06 EigRej=  7.93D-07 NBFU=   311
 ExpMin= 3.60D-02 ExpMax= 8.59D+03 ExpMxC= 1.30D+03 IAcc=3 IRadAn=         5 AccDes= 0.00D+00
 Harris functional with IExCor= 1009 and IRadAn=       5 diagonalized for initial guess.
 HarFok:  IExCor= 1009 AccDes= 0.00D+00 IRadAn=         5 IDoV= 1 UseB2=F ITyADJ=14
 ICtDFT=  3500011 ScaDFX=  1.000000  1.000000  1.000000  1.000000
 FoFCou: FMM=F IPFlag=           0 FMFlag=      100000 FMFlg1=           0
         NFxFlg=           0 DoJE=T BraDBF=F KetDBF=T FulRan=T
         wScrn=  0.000000 ICntrl=       500 IOpCl=  0 I1Cent=   200000004 NGrid=           0
         NMat0=    1 NMatS0=      1 NMatT0=    0 NMatD0=    1 NMtDS0=    0 NMtDT0=    0
 Petite list used in FoFCou.
 Requested convergence on RMS density matrix=1.00D-08 within  32 cycles.
 Requested convergence on MAX density matrix=1.00D-06.
 Requested convergence on             energy=1.00D-06.
 No special actions if energy rises.
 SCF Done:  E(RM08HX) =  -499.429181728     A.U. after   15 cycles
            NFock= 15  Conv=0.74D-08     -V/T= 2.0048
 QCSCF skips out because SCF is already converged.

 **********************************************************************

            Population analysis using the SCF Density.

 **********************************************************************

 Orbital symmetries:
       Occupied  (A) (A) (A) (A) (A) (A) (A) (A) (A) (A) (A) (A)
                 (A) (A) (A) (A) (A) (A) (A) (A) (A) (A) (A) (A)
                 (A) (A) (A) (A) (A) (A) (A) (A) (A) (A) (A) (A)
                 (A) (A) (A) (A)
       Virtual   (A) (A) (A) (A) (A) (A) (A) (A) (A) (A) (A) (A)
                 (A) (A) (A) (A) (A) (A) (A) (A) (A) (A) (A) (A)
                 (A) (A) (A) (A) (A) (A) (A) (A) (A) (A) (A) (A)
                 (A) (A) (A) (A) (A) (A) (A) (A) (A) (A) (A) (A)
                 (A) (A) (A) (A) (A) (A) (A) (A) (A) (A) (A) (A)
                 (A) (A) (A) (A) (A) (A) (A) (A) (A) (A) (A) (A)
                 (A) (A) (A) (A) (A) (A) (A) (A) (A) (A) (A) (A)
                 (A) (A) (A) (A) (A) (A) (A) (A) (A) (A) (A) (A)
                 (A) (A) (A) (A) (A) (A) (A) (A) (A) (A) (A) (A)
                 (A) (A) (A) (A) (A) (A) (A) (A) (A) (A) (A) (A)
                 (A) (A) (A) (A) (A) (A) (A) (A) (A) (A) (A) (A)
                 (A) (A) (A) (A) (A) (A) (A) (A) (A) (A) (A) (A)
                 (A) (A) (A) (A) (A) (A) (A) (A) (A) (A) (A) (A)
                 (A) (A) (A) (A) (A) (A) (A) (A) (A) (A) (A) (A)
                 (A) (A) (A) (A) (A) (A) (A) (A) (A) (A) (A) (A)
                 (A) (A) (A) (A) (A) (A) (A) (A) (A) (A) (A) (A)
                 (A) (A) (A) (A) (A) (A) (A) (A) (A) (A) (A) (A)
                 (A) (A) (A) (A) (A) (A) (A) (A) (A) (A) (A) (A)
                 (A) (A) (A) (A) (A) (A) (A) (A) (A) (A) (A) (A)
                 (A) (A) (A) (A) (A) (A) (A) (A) (A) (A) (A) (A)
                 (A) (A) (A) (A) (A) (A) (A) (A) (A) (A) (A) (A)
                 (A) (A) (A) (A) (A) (A) (A) (A) (A) (A) (A) (A)
                 (A) (A) (A) (A) (A) (A) (A)
 The electronic state is 1-A.
 Alpha  occ. eigenvalues --  -19.65983 -19.60255 -10.67329 -10.59037 -10.55794
 Alpha  occ. eigenvalues --  -10.55206 -10.55157 -10.55132 -10.54800 -10.54765
 Alpha  occ. eigenvalues --  -10.52865  -1.22706  -1.13130  -0.98754  -0.90134
 Alpha  occ. eigenvalues --   -0.86745  -0.86224  -0.76629  -0.71593  -0.70076
 Alpha  occ. eigenvalues --   -0.65946  -0.62859  -0.57934  -0.57737  -0.55741
 Alpha  occ. eigenvalues --   -0.53197  -0.52578  -0.50563  -0.50386  -0.48150
 Alpha  occ. eigenvalues --   -0.47013  -0.45339  -0.43199  -0.42855  -0.42790
 Alpha  occ. eigenvalues --   -0.41571  -0.37541  -0.36109  -0.32559  -0.32377
 Alpha virt. eigenvalues --   -0.03727  -0.02948  -0.02057  -0.01075  -0.00369
 Alpha virt. eigenvalues --   -0.00045   0.00158   0.00207   0.01753   0.02639
 Alpha virt. eigenvalues --    0.03083   0.03460   0.04063   0.04357   0.05695
 Alpha virt. eigenvalues --    0.05967   0.06321   0.06625   0.06883   0.08371
 Alpha virt. eigenvalues --    0.09699   0.10027   0.10551   0.10876   0.10975
 Alpha virt. eigenvalues --    0.11411   0.11813   0.12227   0.12240   0.12276
 Alpha virt. eigenvalues --    0.13275   0.13939   0.14076   0.14362   0.14423
 Alpha virt. eigenvalues --    0.15150   0.15780   0.16003   0.16541   0.17310
 Alpha virt. eigenvalues --    0.18334   0.19201   0.19508   0.19853   0.20646
 Alpha virt. eigenvalues --    0.21317   0.21489   0.22835   0.22909   0.22924
 Alpha virt. eigenvalues --    0.23454   0.25681   0.26745   0.27191   0.28026
 Alpha virt. eigenvalues --    0.28920   0.29699   0.30025   0.30506   0.30521
 Alpha virt. eigenvalues --    0.30734   0.31058   0.31892   0.32627   0.34211
 Alpha virt. eigenvalues --    0.35158   0.36236   0.37430   0.37859   0.38946
 Alpha virt. eigenvalues --    0.39730   0.42667   0.43644   0.44800   0.45638
 Alpha virt. eigenvalues --    0.47901   0.51316   0.52792   0.53014   0.53690
 Alpha virt. eigenvalues --    0.55471   0.56296   0.56924   0.57731   0.58628
 Alpha virt. eigenvalues --    0.60422   0.60994   0.61026   0.62316   0.63331
 Alpha virt. eigenvalues --    0.64140   0.64533   0.67310   0.67837   0.68438
 Alpha virt. eigenvalues --    0.69665   0.69875   0.70731   0.71176   0.71811
 Alpha virt. eigenvalues --    0.73301   0.74535   0.75879   0.77001   0.77235
 Alpha virt. eigenvalues --    0.78820   0.81459   0.83633   0.85712   0.86426
 Alpha virt. eigenvalues --    0.87305   0.87924   0.90424   0.91500   0.92294
 Alpha virt. eigenvalues --    0.93778   0.94323   0.98970   1.00194   1.01162
 Alpha virt. eigenvalues --    1.03961   1.04072   1.05813   1.06670   1.08266
 Alpha virt. eigenvalues --    1.09717   1.11138   1.11758   1.14377   1.15126
 Alpha virt. eigenvalues --    1.18488   1.19522   1.22818   1.25354   1.27953
 Alpha virt. eigenvalues --    1.29025   1.31070   1.34620   1.35703   1.42133
 Alpha virt. eigenvalues --    1.45231   1.48500   1.52323   1.53521   1.54497
 Alpha virt. eigenvalues --    1.54767   1.56599   1.57002   1.58767   1.59133
 Alpha virt. eigenvalues --    1.59504   1.60072   1.60418   1.62668   1.65474
 Alpha virt. eigenvalues --    1.66932   1.68112   1.68223   1.71401   1.72012
 Alpha virt. eigenvalues --    1.74697   1.75083   1.76200   1.79607   1.80345
 Alpha virt. eigenvalues --    1.80357   1.84550   1.85828   1.88152   1.91314
 Alpha virt. eigenvalues --    1.94777   1.97082   1.97239   1.97281   1.97924
 Alpha virt. eigenvalues --    1.99614   2.00791   2.01635   2.03752   2.07716
 Alpha virt. eigenvalues --    2.09902   2.10344   2.11154   2.14478   2.18150
 Alpha virt. eigenvalues --    2.23278   2.28651   2.28806   2.34340   2.38308
 Alpha virt. eigenvalues --    2.38698   2.44247   2.44807   2.45349   2.46950
 Alpha virt. eigenvalues --    2.47670   2.50537   2.54172   2.54709   2.61781
 Alpha virt. eigenvalues --    2.63159   2.63632   2.64149   2.64960   2.65439
 Alpha virt. eigenvalues --    2.66736   2.69276   2.70021   2.71828   2.72596
 Alpha virt. eigenvalues --    2.73841   2.75106   2.75280   2.81429   2.87085
 Alpha virt. eigenvalues --    2.87487   2.87987   2.88674   2.89952   2.93954
 Alpha virt. eigenvalues --    2.95489   2.97855   3.00717   3.01967   3.04755
 Alpha virt. eigenvalues --    3.12880   3.14929   3.16240   3.26292   3.28277
 Alpha virt. eigenvalues --    3.29242   3.34765   3.37821   3.42568   3.44290
 Alpha virt. eigenvalues --    3.45389   3.54077   3.57649   3.58869   3.65857
 Alpha virt. eigenvalues --    3.71560   3.80539   3.80824   3.84652   3.85076
 Alpha virt. eigenvalues --    4.02717   4.07241   4.13619   4.18259   4.20524
 Alpha virt. eigenvalues --    4.23486   4.34027   4.45613   4.91589   5.13563
 Alpha virt. eigenvalues --    5.16312   5.36385   5.51324   5.79201   5.95969
 Alpha virt. eigenvalues --   23.67030  23.90569  23.92784  24.01021  24.01964
 Alpha virt. eigenvalues --   24.03559  24.12718  24.14204  24.23497  49.92811
 Alpha virt. eigenvalues --   50.03854
          Condensed to atoms (all electrons):
               1          2          3          4          5          6
     1  O    8.514960  -0.172627  -0.992852   0.335876  -0.246364   0.058575
     2  O   -0.172627   7.995094   0.031095  -0.055013   0.065955  -0.012835
     3  C   -0.992852   0.031095  24.692609  -0.988227   2.008450  -0.892252
     4  C    0.335876  -0.055013  -0.988227   6.230248  -0.200411  -0.009350
     5  C   -0.246364   0.065955   2.008450  -0.200411  15.862527  -5.553778
     6  C    0.058575  -0.012835  -0.892252  -0.009350  -5.553778  19.760433
     7  C    0.589895   0.324347 -16.958273   0.252715  -5.310239  -3.163978
     8  C    0.049569  -0.043452  -1.350240   0.016891  -3.166954   2.399536
     9  C    0.077158   0.068354  -1.793509   0.057067   2.758421  -6.936291
    10  C   -0.024716   0.010253   1.412389  -0.051722  -0.542609   0.211654
    11  C   -0.178020   0.022563  -0.218520  -0.310634   0.029555  -0.047055
    12  H   -0.038336  -0.015900  -0.042249   0.464787  -0.018255   0.010823
    13  H   -0.038413  -0.015768  -0.041005   0.464393  -0.018039   0.010872
    14  H   -0.008649   0.003640   0.019761  -0.007618   0.582927  -0.065474
    15  H    0.003141  -0.007582  -0.048183   0.028712  -0.168183   0.856480
    16  H    0.001413  -0.000432  -0.004058   0.002090  -0.131630   0.070988
    17  H   -0.001674   0.000499   0.029140  -0.001214   0.113009  -0.262707
    18  H    0.018311   0.001200   0.023532  -0.064628   0.000986  -0.001842
    19  H   -0.008082  -0.000032   0.004955  -0.030459   0.001378  -0.008983
    20  H   -0.008006  -0.000023   0.004978  -0.030323   0.001408  -0.009088
    21  H   -0.000596   0.000384   0.067146  -0.001212   0.012054   0.037634
               7          8          9         10         11         12
     1  O    0.589895   0.049569   0.077158  -0.024716  -0.178020  -0.038336
     2  O    0.324347  -0.043452   0.068354   0.010253   0.022563  -0.015900
     3  C  -16.958273  -1.350240  -1.793509   1.412389  -0.218520  -0.042249
     4  C    0.252715   0.016891   0.057067  -0.051722  -0.310634   0.464787
     5  C   -5.310239  -3.166954   2.758421  -0.542609   0.029555  -0.018255
     6  C   -3.163978   2.399536  -6.936291   0.211654  -0.047055   0.010823
     7  C   28.508805   1.387790   2.393378  -1.411140   0.389864   0.009543
     8  C    1.387790   7.778921  -0.738642  -0.128153  -0.003741   0.004555
     9  C    2.393378  -0.738642  10.672125  -0.338821   0.041107   0.000446
    10  C   -1.411140  -0.128153  -0.338821   6.998905  -0.003400  -0.001958
    11  C    0.389864  -0.003741   0.041107  -0.003400   6.026845  -0.069101
    12  H    0.009543   0.004555   0.000446  -0.001958  -0.069101   0.512565
    13  H    0.008610   0.004570   0.000366  -0.001913  -0.069349  -0.054606
    14  H   -0.134516  -0.122263   0.040249   0.003085   0.000099  -0.000575
    15  H   -0.085127   0.100915  -0.326591  -0.030759  -0.017980   0.001911
    16  H    0.037690   0.442508  -0.009073  -0.103834  -0.000093   0.000113
    17  H   -0.002740  -0.011244   0.499029  -0.070156   0.001737  -0.000092
    18  H   -0.009855  -0.000298  -0.001685   0.000095   0.411916  -0.004696
    19  H   -0.003088  -0.001047   0.001881   0.000221   0.401497   0.009544
    20  H   -0.003191  -0.001047   0.001924   0.000214   0.401414  -0.016712
    21  H   -0.067432  -0.085055  -0.103809   0.465918  -0.000215  -0.000033
              13         14         15         16         17         18
     1  O   -0.038413  -0.008649   0.003141   0.001413  -0.001674   0.018311
     2  O   -0.015768   0.003640  -0.007582  -0.000432   0.000499   0.001200
     3  C   -0.041005   0.019761  -0.048183  -0.004058   0.029140   0.023532
     4  C    0.464393  -0.007618   0.028712   0.002090  -0.001214  -0.064628
     5  C   -0.018039   0.582927  -0.168183  -0.131630   0.113009   0.000986
     6  C    0.010872  -0.065474   0.856480   0.070988  -0.262707  -0.001842
     7  C    0.008610  -0.134516  -0.085127   0.037690  -0.002740  -0.009855
     8  C    0.004570  -0.122263   0.100915   0.442508  -0.011244  -0.000298
     9  C    0.000366   0.040249  -0.326591  -0.009073   0.499029  -0.001685
    10  C   -0.001913   0.003085  -0.030759  -0.103834  -0.070156   0.000095
    11  C   -0.069349   0.000099  -0.017980  -0.000093   0.001737   0.411916
    12  H   -0.054606  -0.000575   0.001911   0.000113  -0.000092  -0.004696
    13  H    0.512575  -0.000569   0.001908   0.000112  -0.000092  -0.004699
    14  H   -0.000569   0.389133  -0.002727  -0.006908   0.001850   0.000042
    15  H    0.001908  -0.002727   0.415625   0.003225  -0.010251   0.000879
    16  H    0.000112  -0.006908   0.003225   0.415779   0.000109   0.000003
    17  H   -0.000092   0.001850  -0.010251   0.000109   0.418353   0.000007
    18  H   -0.004699   0.000042   0.000879   0.000003   0.000007   0.495001
    19  H   -0.016713  -0.000024  -0.001943  -0.000017   0.000123  -0.031913
    20  H    0.009546  -0.000025  -0.001953  -0.000016   0.000125  -0.031923
    21  H   -0.000032   0.001268   0.000505  -0.009933  -0.008957   0.000003
              19         20         21
     1  O   -0.008082  -0.008006  -0.000596
     2  O   -0.000032  -0.000023   0.000384
     3  C    0.004955   0.004978   0.067146
     4  C   -0.030459  -0.030323  -0.001212
     5  C    0.001378   0.001408   0.012054
     6  C   -0.008983  -0.009088   0.037634
     7  C   -0.003088  -0.003191  -0.067432
     8  C   -0.001047  -0.001047  -0.085055
     9  C    0.001881   0.001924  -0.103809
    10  C    0.000221   0.000214   0.465918
    11  C    0.401497   0.401414  -0.000215
    12  H    0.009544  -0.016712  -0.000033
    13  H   -0.016713   0.009546  -0.000032
    14  H   -0.000024  -0.000025   0.001268
    15  H   -0.001943  -0.001953   0.000505
    16  H   -0.000017  -0.000016  -0.009933
    17  H    0.000123   0.000125  -0.008957
    18  H   -0.031913  -0.031923   0.000003
    19  H    0.529343  -0.057370   0.000003
    20  H   -0.057370   0.529321   0.000003
    21  H    0.000003   0.000003   0.420433
 Mulliken charges:
               1
     1  O    0.069436
     2  O   -0.199720
     3  C    1.035313
     4  C   -0.101965
     5  C   -0.080209
     6  C   -0.453366
     7  C   -0.753060
     8  C   -0.533118
     9  C   -0.363083
    10  C   -0.393552
    11  C   -0.808489
    12  H    0.248225
    13  H    0.248247
    14  H    0.307294
    15  H    0.287978
    16  H    0.291964
    17  H    0.305146
    18  H    0.199565
    19  H    0.210726
    20  H    0.210746
    21  H    0.271924
 Sum of Mulliken charges =  -0.00000
 Mulliken charges with hydrogens summed into heavy atoms:
               1
     1  O    0.069436
     2  O   -0.199720
     3  C    1.035313
     4  C    0.394506
     5  C    0.227085
     6  C   -0.165387
     7  C   -0.753060
     8  C   -0.241155
     9  C   -0.057937
    10  C   -0.121629
    11  C   -0.187453
 Electronic spatial extent (au):  <R**2>=           2178.8467
 Charge=             -0.0000 electrons
 Dipole moment (field-independent basis, Debye):
    X=             -0.3304    Y=             -2.3334    Z=              0.0010  Tot=              2.3567
 Quadrupole moment (field-independent basis, Debye-Ang):
   XX=            -50.9710   YY=            -67.6040   ZZ=            -68.1741
   XY=             -2.7503   XZ=             -0.0009   YZ=              0.0072
 Traceless Quadrupole moment (field-independent basis, Debye-Ang):
   XX=             11.2787   YY=             -5.3543   ZZ=             -5.9244
   XY=             -2.7503   XZ=             -0.0009   YZ=              0.0072
 Octapole moment (field-independent basis, Debye-Ang**2):
  XXX=             15.6307  YYY=            -15.7727  ZZZ=             -0.0041  XYY=            -13.5789
  XXY=             -0.8971  XXZ=              0.0201  XZZ=             15.4343  YZZ=              3.4113
  YYZ=              0.0029  XYZ=             -0.0056
 Hexadecapole moment (field-independent basis, Debye-Ang**3):
 XXXX=          -2064.4142 YYYY=           -572.3963 ZZZZ=            -88.9446 XXXY=              8.4569
 XXXZ=             -0.0622 YYYX=            -11.9039 YYYZ=              0.0341 ZZZX=             -0.0087
 ZZZY=             -0.0218 XXYY=           -464.3626 XXZZ=           -427.6746 YYZZ=           -114.4583
 XXYZ=              0.0263 YYXZ=             -0.0023 ZZXY=             -0.6229
 N-N= 5.727811223477D+02 E-N=-2.309257601613D+03  KE= 4.970472542895D+02
 R6APFD:  NTU= -4 IXU= 1 FactS= 1.050
 Calling FoFJK, ICntrl=      2127 FMM=F ISym2X=0 I1Cent= 0 IOpClX= 0 NMat=1 NMatS=1 NMatT=0.
 ***** Axes restored to original set *****
 -------------------------------------------------------------------
 Center     Atomic                   Forces (Hartrees/Bohr)
 Number     Number              X              Y              Z
 -------------------------------------------------------------------
      1        8          -0.008792635    0.017409475   -0.000032710
      2        8          -0.008774880   -0.053356577   -0.000045477
      3        6          -0.014043237   -0.009381557   -0.000052406
      4        6           0.004086539    0.001660889    0.000025597
      5        6          -0.008487624    0.001029968   -0.000009442
      6        6          -0.011691181   -0.009914115   -0.000009764
      7        6           0.041807638    0.041688541    0.000143705
      8        6           0.004701521   -0.002524380   -0.000003394
      9        6           0.000063455    0.005835541    0.000011848
     10        6           0.002671197    0.000421147    0.000008216
     11        6          -0.006924506   -0.007490716    0.000067223
     12        1          -0.002361870    0.004669768    0.000688701
     13        1          -0.002376608    0.004637225   -0.000733137
     14        1           0.005500994    0.000002562    0.000004766
     15        1           0.004213259    0.004701878    0.000005054
     16        1          -0.000689867    0.001285198    0.000000921
     17        1           0.000198531   -0.001497239   -0.000003394
     18        1           0.000430813    0.001259094    0.000002865
     19        1           0.001229770    0.000121368    0.001819463
     20        1           0.001210286    0.000075082   -0.001887100
     21        1          -0.001971593   -0.000633152   -0.000001535
 -------------------------------------------------------------------
 Cartesian Forces:  Max     0.053356577 RMS     0.011071800

 GradGradGradGradGradGradGradGradGradGradGradGradGradGradGradGradGradGrad
 Berny optimization.
 FormGI is forming the generalized inverse of G from B-inverse, IUseBI=4.
 Internal  Forces:  Max     0.053801609 RMS     0.007170774
 Search for a local minimum.
 Step number   1 out of a maximum of  107
 All quantities printed in internal units (Hartrees-Bohrs-Radians)
 Mixed Optimization -- RFO/linear search
 Second derivative matrix not updated -- first step.
 ITU=  0
     Eigenvalues ---    0.00583   0.01275   0.01371   0.01616   0.01914
     Eigenvalues ---    0.02111   0.02156   0.02156   0.02156   0.02156
     Eigenvalues ---    0.02156   0.02157   0.02157   0.02158   0.05365
     Eigenvalues ---    0.05649   0.05788   0.05984   0.11229   0.13683
     Eigenvalues ---    0.16000   0.16000   0.16000   0.16000   0.16000
     Eigenvalues ---    0.16000   0.16000   0.16000   0.22000   0.22000
     Eigenvalues ---    0.22056   0.23486   0.25000   0.25000   0.25000
     Eigenvalues ---    0.25000   0.30971   0.34173   0.34182   0.34237
     Eigenvalues ---    0.34252   0.34405   0.35176   0.35228   0.35260
     Eigenvalues ---    0.35261   0.35271   0.37695   0.40768   0.42135
     Eigenvalues ---    0.42323   0.46467   0.46476   0.46484   0.46490
     Eigenvalues ---    0.51308   0.87722
 RFO step:  Lambda=-1.00960635D-02 EMin= 5.83312337D-03
 Linear search not attempted -- first point.
 Iteration  1 RMS(Cart)=  0.09481096 RMS(Int)=  0.00186405
 Iteration  2 RMS(Cart)=  0.00358034 RMS(Int)=  0.00017160
 Iteration  3 RMS(Cart)=  0.00000284 RMS(Int)=  0.00017159
 Iteration  4 RMS(Cart)=  0.00000000 RMS(Int)=  0.00017159
 Variable       Old X    -DE/DX   Delta X   Delta X   Delta X     New X
                                 (Linear)    (Quad)   (Total)
    R1        2.70522  -0.00337   0.00000  -0.00807  -0.00807   2.69716
    R2        2.58568  -0.02571   0.00000  -0.04914  -0.04914   2.53653
    R3        2.34001  -0.05380   0.00000  -0.06063  -0.06063   2.27938
    R4        2.63614  -0.00072   0.00000  -0.00148  -0.00148   2.63466
    R5        2.63600   0.00267   0.00000   0.00588   0.00588   2.64188
    R6        2.74811   0.02196   0.00000   0.05675   0.05675   2.80485
    R7        2.86068   0.00285   0.00000   0.00891   0.00891   2.86959
    R8        2.07023   0.00147   0.00000   0.00417   0.00417   2.07440
    R9        2.07039   0.00141   0.00000   0.00402   0.00402   2.07441
   R10        2.63580  -0.00359   0.00000  -0.00778  -0.00778   2.62802
   R11        2.05390   0.00091   0.00000   0.00251   0.00251   2.05640
   R12        2.63598  -0.00206   0.00000  -0.00412  -0.00412   2.63186
   R13        2.05306  -0.00015   0.00000  -0.00041  -0.00041   2.05265
   R14        2.63578  -0.00041   0.00000  -0.00111  -0.00111   2.63467
   R15        2.05255   0.00136   0.00000   0.00375   0.00375   2.05630
   R16        2.63597  -0.00085   0.00000  -0.00184  -0.00184   2.63413
   R17        2.05253   0.00143   0.00000   0.00395   0.00395   2.05649
   R18        2.05237   0.00207   0.00000   0.00570   0.00570   2.05807
   R19        2.06652   0.00068   0.00000   0.00193   0.00193   2.06845
   R20        2.06933   0.00114   0.00000   0.00322   0.00322   2.07255
   R21        2.06907   0.00122   0.00000   0.00346   0.00346   2.07253
    A1        2.03988  -0.01119   0.00000  -0.04303  -0.04303   1.99685
    A2        2.09433  -0.00069   0.00000  -0.00215  -0.00215   2.09218
    A3        2.09434  -0.00956   0.00000  -0.03703  -0.03703   2.05732
    A4        2.09451   0.01026   0.00000   0.03918   0.03918   2.13369
    A5        1.90264  -0.00667   0.00000  -0.02784  -0.02749   1.87515
    A6        1.90896  -0.00022   0.00000  -0.01235  -0.01203   1.89693
    A7        1.90898  -0.00023   0.00000  -0.01243  -0.01211   1.89688
    A8        1.91692   0.00563   0.00000   0.03891   0.03848   1.95540
    A9        1.91696   0.00563   0.00000   0.03887   0.03843   1.95540
   A10        1.90930  -0.00418   0.00000  -0.02547  -0.02659   1.88271
   A11        2.09449   0.00066   0.00000   0.00245   0.00245   2.09694
   A12        2.11506  -0.00590   0.00000  -0.03399  -0.03399   2.08108
   A13        2.07363   0.00525   0.00000   0.03154   0.03154   2.10517
   A14        2.09434  -0.00068   0.00000  -0.00201  -0.00201   2.09233
   A15        2.13920  -0.00614   0.00000  -0.03708  -0.03708   2.10212
   A16        2.04964   0.00682   0.00000   0.03909   0.03909   2.08874
   A17        2.16364  -0.01178   0.00000  -0.04528  -0.04528   2.11835
   A18        1.94753   0.01088   0.00000   0.04184   0.04184   1.98937
   A19        2.17202   0.00090   0.00000   0.00345   0.00345   2.17546
   A20        2.09431   0.00036   0.00000   0.00053   0.00053   2.09483
   A21        2.09468  -0.00072   0.00000  -0.00345  -0.00345   2.09123
   A22        2.09420   0.00036   0.00000   0.00293   0.00293   2.09713
   A23        2.09437   0.00037   0.00000   0.00193   0.00193   2.09630
   A24        2.09513  -0.00067   0.00000  -0.00381  -0.00381   2.09132
   A25        2.09369   0.00030   0.00000   0.00188   0.00188   2.09556
   A26        2.09453  -0.00002   0.00000  -0.00074  -0.00074   2.09379
   A27        2.09431  -0.00005   0.00000   0.00002   0.00002   2.09433
   A28        2.09434   0.00007   0.00000   0.00073   0.00073   2.09506
   A29        1.93675  -0.00233   0.00000  -0.01947  -0.01949   1.91726
   A30        1.93023   0.00080   0.00000   0.00753   0.00743   1.93766
   A31        1.93027   0.00079   0.00000   0.00751   0.00741   1.93768
   A32        1.89987   0.00002   0.00000  -0.00535  -0.00537   1.89450
   A33        1.89986   0.00002   0.00000  -0.00532  -0.00534   1.89452
   A34        1.86504   0.00081   0.00000   0.01608   0.01590   1.88095
    D1        3.14157  -0.00000   0.00000  -0.00006  -0.00006   3.14151
    D2       -1.04542   0.00269   0.00000   0.02305   0.02302  -1.02240
    D3        1.04532  -0.00269   0.00000  -0.02308  -0.02304   1.02227
    D4        0.00002   0.00002   0.00000   0.00090   0.00088   0.00090
    D5       -3.14064  -0.00005   0.00000  -0.00157  -0.00154   3.14100
    D6        0.00000   0.00000   0.00000   0.00007   0.00007   0.00007
    D7       -3.14140  -0.00000   0.00000  -0.00012  -0.00012  -3.14152
    D8        3.14136   0.00001   0.00000   0.00023   0.00022   3.14159
    D9       -0.00004   0.00000   0.00000   0.00004   0.00004   0.00000
   D10        0.00008  -0.00000   0.00000  -0.00010  -0.00010  -0.00002
   D11        3.14149   0.00000   0.00000   0.00008   0.00007   3.14156
   D12       -3.14128  -0.00001   0.00000  -0.00025  -0.00025  -3.14154
   D13        0.00013  -0.00000   0.00000  -0.00007  -0.00008   0.00005
   D14        3.14053   0.00003   0.00000   0.00121   0.00122  -3.14143
   D15       -0.00013  -0.00003   0.00000  -0.00125  -0.00126  -0.00139
   D16       -0.00129   0.00003   0.00000   0.00136   0.00138   0.00009
   D17        3.14124  -0.00003   0.00000  -0.00109  -0.00111   3.14013
   D18        3.14155   0.00000   0.00000   0.00006   0.00006  -3.14157
   D19       -1.03133  -0.00100   0.00000  -0.01463  -0.01467  -1.04600
   D20        1.03124   0.00100   0.00000   0.01473   0.01477   1.04601
   D21        1.05028   0.00096   0.00000   0.00874   0.00911   1.05938
   D22       -3.12261  -0.00003   0.00000  -0.00595  -0.00563  -3.12823
   D23       -1.06004   0.00196   0.00000   0.02341   0.02382  -1.03622
   D24       -1.05031  -0.00097   0.00000  -0.00874  -0.00911  -1.05942
   D25        1.05999  -0.00196   0.00000  -0.02343  -0.02384   1.03615
   D26        3.12256   0.00003   0.00000   0.00593   0.00560   3.12817
   D27       -0.00008   0.00000   0.00000   0.00001   0.00001  -0.00007
   D28       -3.14159  -0.00000   0.00000  -0.00005  -0.00005   3.14154
   D29        3.14132   0.00001   0.00000   0.00019   0.00019   3.14151
   D30       -0.00019   0.00000   0.00000   0.00013   0.00013  -0.00006
   D31       -0.00008   0.00000   0.00000   0.00006   0.00006  -0.00002
   D32        3.14156   0.00000   0.00000   0.00003   0.00003   3.14159
   D33       -3.14150  -0.00000   0.00000  -0.00010  -0.00011   3.14158
   D34        0.00014  -0.00000   0.00000  -0.00013  -0.00013   0.00001
   D35        0.00008  -0.00000   0.00000  -0.00006  -0.00005   0.00003
   D36       -3.14156   0.00000   0.00000   0.00000   0.00000  -3.14156
   D37        3.14159   0.00000   0.00000   0.00001   0.00001  -3.14158
   D38       -0.00005   0.00000   0.00000   0.00006   0.00006   0.00002
   D39        0.00000   0.00000   0.00000   0.00002   0.00002   0.00002
   D40       -3.14155  -0.00000   0.00000  -0.00004  -0.00004  -3.14158
   D41        3.14155   0.00000   0.00000   0.00005   0.00005   3.14159
   D42       -0.00000  -0.00000   0.00000  -0.00001  -0.00001  -0.00001
         Item               Value     Threshold  Converged?
 Maximum Force            0.053802     0.000450     NO 
 RMS     Force            0.007171     0.000300     NO 
 Maximum Displacement     0.299648     0.001800     NO 
 RMS     Displacement     0.095087     0.001200     NO 
 Predicted change in Energy=-5.212546D-03
 GradGradGradGradGradGradGradGradGradGradGradGradGradGradGradGradGradGrad

                          Input orientation:                          
 ---------------------------------------------------------------------
 Center     Atomic      Atomic             Coordinates (Angstroms)
 Number     Number       Type             X           Y           Z
 ---------------------------------------------------------------------
      1          8           0        1.799113   -0.356877    0.000776
      2          8           0        1.226350    1.791216    0.000065
      3          6           0       -0.515371    0.160296    0.000591
      4          6           0        3.155642    0.086902    0.000436
      5          6           0       -1.525337    1.121424    0.000631
      6          6           0       -0.846657   -1.197905    0.000049
      7          6           0        0.891832    0.632337    0.001042
      8          6           0       -2.860309    0.731721    0.000212
      9          6           0       -2.184254   -1.585853   -0.000428
     10          6           0       -3.191730   -0.622521   -0.000335
     11          6           0        4.038601   -1.148531    0.000288
     12          1           0        3.321121    0.711510   -0.886967
     13          1           0        3.321488    0.711556    0.887742
     14          1           0       -1.255746    2.175703    0.000986
     15          1           0       -0.067283   -1.954500   -0.000013
     16          1           0       -3.644268    1.486354    0.000294
     17          1           0       -2.441067   -2.643362   -0.000852
     18          1           0        5.092329   -0.852297    0.000048
     19          1           0        3.850238   -1.766798    0.886354
     20          1           0        3.849840   -1.766888   -0.885622
     21          1           0       -4.237333   -0.927183   -0.000697
 ---------------------------------------------------------------------
                    Distance matrix (angstroms):
                    1          2          3          4          5
     1  O    0.000000
     2  O    2.223142   0.000000
     3  C    2.371562   2.386104   0.000000
     4  C    1.427273   2.574267   3.671746   0.000000
     5  C    3.638316   2.832031   1.394201   4.793933   0.000000
     6  C    2.776226   3.637609   1.398021   4.203466   2.416587
     7  C    1.342275   1.206193   1.484265   2.328590   2.466153
     8  C    4.784899   4.221766   2.413557   6.050409   1.390690
     9  C    4.168645   4.799668   2.415411   5.595766   2.786310
    10  C    4.997908   5.034437   2.788495   6.386893   2.412097
    11  C    2.375295   4.068276   4.738322   1.518523   6.009168
    12  H    2.060594   2.518066   3.976213   1.097726   4.944089
    13  H    2.060555   2.518579   3.976483   1.097730   4.944358
    14  H    3.968138   2.511699   2.147095   4.880925   1.088202
    15  H    2.456794   3.962812   2.161747   3.815045   3.404002
    16  H    5.746990   4.880149   3.398297   6.942423   2.150126
    17  H    4.817379   5.754601   3.401295   6.227157   3.874555
    18  H    3.330272   4.683370   5.698390   2.152406   6.905728
    19  H    2.641825   4.508853   4.853536   2.168759   6.166291
    20  H    2.641839   4.508575   4.853296   2.168766   6.166062
    21  H    6.063326   6.102583   3.877578   7.462201   3.398781
                    6          7          8          9         10
     6  C    0.000000
     7  C    2.524308   0.000000
     8  C    2.788951   3.753457   0.000000
     9  C    1.392720   3.792450   2.414166   0.000000
    10  C    2.414629   4.272020   1.394207   1.393921   0.000000
    11  C    4.885508   3.615750   7.150546   6.238204   7.249440
    12  H    4.669373   2.587716   6.244804   6.031003   6.706936
    13  H    4.669848   2.587613   6.245217   6.031595   6.707493
    14  H    3.398321   2.644630   2.158636   3.874460   3.402660
    15  H    1.086214   2.758919   3.875148   2.148829   3.396518
    16  H    3.877096   4.615793   1.088147   3.401484   2.156883
    17  H    2.152089   4.673160   3.401022   1.088245   2.155758
    18  H    5.949034   4.455145   8.108857   7.313465   8.287245
    19  H    4.813523   3.910472   7.215212   6.101985   7.189221
    20  H    4.813028   3.910533   7.214835   6.101364   7.188673
    21  H    3.401466   5.361011   2.155959   2.156149   1.089084
                   11         12         13         14         15
    11  C    0.000000
    12  H    2.182144   0.000000
    13  H    2.182144   1.774710   0.000000
    14  H    6.251451   4.886720   4.886833   0.000000
    15  H    4.184241   4.401771   4.402243   4.297793   0.000000
    16  H    8.122136   7.064295   7.064675   2.486009   4.963295
    17  H    6.649859   6.726305   6.726970   4.962699   2.471716
    18  H    1.094576   2.523780   2.523790   7.033267   5.276026
    19  H    1.096744   3.092999   2.534131   6.511395   4.020927
    20  H    1.096737   2.534167   3.093003   6.511306   4.020368
    21  H    8.278894   7.784666   7.785279   4.303228   4.294728
                   16         17         18         19         20
    16  H    0.000000
    17  H    4.301424   0.000000
    18  H    9.044192   7.743382   0.000000
    19  H    8.218012   6.413737   1.778943   0.000000
    20  H    8.217669   6.412997   1.778951   1.771976   0.000000
    21  H    2.485335   2.484319   9.329962   8.179280   8.178665
                   21
    21  H    0.000000
 Stoichiometry    C9H10O2
 Framework group  C1[X(C9H10O2)]
 Deg. of freedom    57
 Full point group                 C1      NOp   1
 Largest Abelian subgroup         C1      NOp   1
 Largest concise Abelian subgroup C1      NOp   1
                         Standard orientation:                         
 ---------------------------------------------------------------------
 Center     Atomic      Atomic             Coordinates (Angstroms)
 Number     Number       Type             X           Y           Z
 ---------------------------------------------------------------------
      1          8           0        1.630947   -0.281441    0.000411
      2          8           0        1.029376    1.858763   -0.000653
      3          6           0       -0.690276    0.204591    0.000322
      4          6           0        2.981391    0.180523   -0.000126
      5          6           0       -1.713063    1.152063    0.000267
      6          6           0       -1.003285   -1.157939    0.000061
      7          6           0        0.710458    0.695495    0.000568
      8          6           0       -3.042679    0.744459    0.000032
      9          6           0       -2.335549   -1.563823   -0.000232
     10          6           0       -3.355876   -0.614113   -0.000235
     11          6           0        3.880869   -1.042936   -0.000117
     12          1           0        3.138393    0.807132   -0.887659
     13          1           0        3.138903    0.807516    0.887051
     14          1           0       -1.457661    2.209869    0.000403
     15          1           0       -0.213816   -1.903995    0.000075
     16          1           0       -3.836706    1.488492    0.000038
     17          1           0       -2.578131   -2.624687   -0.000438
     18          1           0        4.930522   -0.732572   -0.000500
     19          1           0        3.700901   -1.663512    0.886080
     20          1           0        3.700361   -1.663939   -0.885896
     21          1           0       -4.397292   -0.932796   -0.000453
 ---------------------------------------------------------------------
 Rotational constants (GHZ):           2.8420440           0.6046208           0.5016942
 Standard basis: 6-311++G(d,p) (5D, 7F)
 There are   323 symmetry adapted cartesian basis functions of A   symmetry.
 There are   312 symmetry adapted basis functions of A   symmetry.
   312 basis functions,   486 primitive gaussians,   323 cartesian basis functions
    40 alpha electrons       40 beta electrons
       nuclear repulsion energy       573.7049344734 Hartrees.
 NAtoms=   21 NActive=   21 NUniq=   21 SFac= 1.00D+00 NAtFMM=   60 NAOKFM=F Big=F
 Integral buffers will be    131072 words long.
 Raffenetti 2 integral format.
 Two-electron integral symmetry is turned on.
 R6APFD:  NTU= -4 IXU= 1 FactS= 1.050
 Nuclear repulsion after empirical dispersion term =      573.6927910950 Hartrees.
 One-electron integrals computed using PRISM.
 NBasis=   312 RedAO= T EigKep=  1.97D-06  NBF=   312
 NBsUse=   311 1.00D-06 EigRej=  7.86D-07 NBFU=   311
 Initial guess from the checkpoint file:  "ETBE0038.chk"
 B after Tr=     0.000000    0.000000    0.000000
         Rot=    0.999975    0.000041   -0.000012    0.007095 Ang=   0.81 deg.
 ExpMin= 3.60D-02 ExpMax= 8.59D+03 ExpMxC= 1.30D+03 IAcc=3 IRadAn=         5 AccDes= 0.00D+00
 Harris functional with IExCor= 1009 and IRadAn=       5 diagonalized for initial guess.
 HarFok:  IExCor= 1009 AccDes= 0.00D+00 IRadAn=         5 IDoV= 1 UseB2=F ITyADJ=14
 ICtDFT=  3500011 ScaDFX=  1.000000  1.000000  1.000000  1.000000
 FoFCou: FMM=F IPFlag=           0 FMFlag=      100000 FMFlg1=           0
         NFxFlg=           0 DoJE=T BraDBF=F KetDBF=T FulRan=T
         wScrn=  0.000000 ICntrl=       500 IOpCl=  0 I1Cent=   200000004 NGrid=           0
         NMat0=    1 NMatS0=      1 NMatT0=    0 NMatD0=    1 NMtDS0=    0 NMtDT0=    0
 Petite list used in FoFCou.
 Requested convergence on RMS density matrix=1.00D-08 within  32 cycles.
 Requested convergence on MAX density matrix=1.00D-06.
 Requested convergence on             energy=1.00D-06.
 No special actions if energy rises.
 SCF Done:  E(RM08HX) =  -499.433779996     A.U. after   14 cycles
            NFock= 14  Conv=0.50D-08     -V/T= 2.0045
 QCSCF skips out because SCF is already converged.
 R6APFD:  NTU= -4 IXU= 1 FactS= 1.050
 Calling FoFJK, ICntrl=      2127 FMM=F ISym2X=0 I1Cent= 0 IOpClX= 0 NMat=1 NMatS=1 NMatT=0.
 ***** Axes restored to original set *****
 -------------------------------------------------------------------
 Center     Atomic                   Forces (Hartrees/Bohr)
 Number     Number              X              Y              Z
 -------------------------------------------------------------------
      1        8          -0.008389404   -0.003168561    0.000070758
      2        8          -0.007057516    0.001209978    0.000094481
      3        6          -0.003462839   -0.004712501    0.000057737
      4        6           0.005625019   -0.004102240    0.000001147
      5        6          -0.001756644    0.001854534    0.000002850
      6        6          -0.001212230   -0.000379173    0.000005663
      7        6           0.011032043    0.004717901   -0.000229495
      8        6           0.000382191   -0.000364906   -0.000004096
      9        6           0.000594768    0.001198442   -0.000001078
     10        6           0.000514775    0.000203682    0.000000741
     11        6          -0.002207539   -0.000161792    0.000007849
     12        1           0.000272270    0.000611081    0.000598993
     13        1           0.000279368    0.000612601   -0.000602609
     14        1           0.001617406   -0.000140326    0.000002073
     15        1           0.002512747    0.000905064    0.000002369
     16        1          -0.000149326    0.000035600   -0.000001281
     17        1           0.000087333   -0.000107006   -0.000001382
     18        1           0.000822969   -0.000324897   -0.000001663
     19        1           0.000175552    0.001068027    0.000080493
     20        1           0.000174951    0.001067325   -0.000084689
     21        1           0.000144104   -0.000022834    0.000001138
 -------------------------------------------------------------------
 Cartesian Forces:  Max     0.011032043 RMS     0.002482970

 GradGradGradGradGradGradGradGradGradGradGradGradGradGradGradGradGradGrad
 Berny optimization.
 Using GEDIIS/GDIIS optimizer.
 FormGI is forming the generalized inverse of G from B-inverse, IUseBI=4.
 Internal  Forces:  Max     0.012815859 RMS     0.002081340
 Search for a local minimum.
 Step number   2 out of a maximum of  107
 All quantities printed in internal units (Hartrees-Bohrs-Radians)
 Mixed Optimization -- RFO/linear search
 Update second derivatives using D2CorX and points    1    2
 DE= -4.60D-03 DEPred=-5.21D-03 R= 8.82D-01
 TightC=F SS=  1.41D+00  RLast= 1.78D-01 DXNew= 5.0454D-01 5.3469D-01
 Trust test= 8.82D-01 RLast= 1.78D-01 DXMaxT set to 5.05D-01
 ITU=  1  0
 Use linear search instead of GDIIS.
     Eigenvalues ---    0.00583   0.01275   0.01371   0.01606   0.01914
     Eigenvalues ---    0.02111   0.02156   0.02156   0.02156   0.02156
     Eigenvalues ---    0.02156   0.02157   0.02157   0.02158   0.05413
     Eigenvalues ---    0.05664   0.05703   0.05781   0.11116   0.13609
     Eigenvalues ---    0.14930   0.16000   0.16000   0.16000   0.16000
     Eigenvalues ---    0.16000   0.16000   0.16042   0.21586   0.22000
     Eigenvalues ---    0.22002   0.23438   0.24479   0.25000   0.25000
     Eigenvalues ---    0.30521   0.31796   0.34176   0.34191   0.34243
     Eigenvalues ---    0.34296   0.34390   0.35166   0.35202   0.35260
     Eigenvalues ---    0.35264   0.35309   0.37980   0.41468   0.42186
     Eigenvalues ---    0.42670   0.46368   0.46471   0.46484   0.46586
     Eigenvalues ---    0.52646   0.85452
 RFO step:  Lambda=-1.27296845D-03 EMin= 5.83312339D-03
 Quartic linear search produced a step of -0.09351.
 Iteration  1 RMS(Cart)=  0.04404605 RMS(Int)=  0.00048297
 Iteration  2 RMS(Cart)=  0.00092286 RMS(Int)=  0.00001569
 Iteration  3 RMS(Cart)=  0.00000011 RMS(Int)=  0.00001569
 Variable       Old X    -DE/DX   Delta X   Delta X   Delta X     New X
                                 (Linear)    (Quad)   (Total)
    R1        2.69716   0.00452   0.00075   0.00821   0.00896   2.70612
    R2        2.53653   0.00102   0.00460  -0.00917  -0.00457   2.53196
    R3        2.27938  -0.00079   0.00567  -0.01423  -0.00856   2.27081
    R4        2.63466   0.00014   0.00014  -0.00007   0.00007   2.63473
    R5        2.64188  -0.00268  -0.00055  -0.00404  -0.00459   2.63729
    R6        2.80485   0.00119  -0.00531   0.01560   0.01029   2.81515
    R7        2.86959  -0.00196  -0.00083  -0.00369  -0.00452   2.86507
    R8        2.07440  -0.00009  -0.00039   0.00069   0.00030   2.07471
    R9        2.07441  -0.00009  -0.00038   0.00066   0.00028   2.07469
   R10        2.62802  -0.00054   0.00073  -0.00266  -0.00193   2.62609
   R11        2.05640   0.00026  -0.00023   0.00124   0.00100   2.05740
   R12        2.63186  -0.00122   0.00039  -0.00343  -0.00305   2.62881
   R13        2.05265   0.00117   0.00004   0.00292   0.00296   2.05560
   R14        2.63467   0.00032   0.00010   0.00053   0.00063   2.63530
   R15        2.05630   0.00013  -0.00035   0.00118   0.00083   2.05713
   R16        2.63413   0.00038   0.00017   0.00034   0.00051   2.63464
   R17        2.05649   0.00009  -0.00037   0.00111   0.00074   2.05723
   R18        2.05807  -0.00013  -0.00053   0.00095   0.00042   2.05849
   R19        2.06845   0.00071  -0.00018   0.00229   0.00211   2.07056
   R20        2.07255  -0.00057  -0.00030  -0.00078  -0.00108   2.07147
   R21        2.07253  -0.00057  -0.00032  -0.00071  -0.00104   2.07149
    A1        1.99685   0.00868   0.00402   0.02151   0.02553   2.02238
    A2        2.09218   0.00248   0.00020   0.00833   0.00854   2.10072
    A3        2.05732  -0.00001   0.00346  -0.00841  -0.00495   2.05237
    A4        2.13369  -0.00247  -0.00366   0.00007  -0.00359   2.13010
    A5        1.87515  -0.00098   0.00257  -0.00915  -0.00660   1.86855
    A6        1.89693   0.00043   0.00112  -0.00004   0.00107   1.89800
    A7        1.89688   0.00044   0.00113   0.00003   0.00114   1.89802
    A8        1.95540   0.00044  -0.00360   0.01113   0.00756   1.96297
    A9        1.95540   0.00044  -0.00359   0.01111   0.00755   1.96295
   A10        1.88271  -0.00075   0.00249  -0.01338  -0.01080   1.87190
   A11        2.09694  -0.00137  -0.00023  -0.00459  -0.00481   2.09213
   A12        2.08108  -0.00096   0.00318  -0.01457  -0.01139   2.06968
   A13        2.10517   0.00233  -0.00295   0.01915   0.01620   2.12137
   A14        2.09233  -0.00096   0.00019  -0.00479  -0.00460   2.08773
   A15        2.10212  -0.00198   0.00347  -0.02031  -0.01685   2.08528
   A16        2.08874   0.00294  -0.00366   0.02510   0.02145   2.11018
   A17        2.11835   0.01282   0.00423   0.03590   0.04013   2.15848
   A18        1.98937  -0.00940  -0.00391  -0.02438  -0.02829   1.96108
   A19        2.17546  -0.00341  -0.00032  -0.01152  -0.01184   2.16362
   A20        2.09483  -0.00064  -0.00005  -0.00171  -0.00176   2.09307
   A21        2.09123   0.00041   0.00032   0.00060   0.00092   2.09215
   A22        2.09713   0.00023  -0.00027   0.00111   0.00084   2.09796
   A23        2.09630  -0.00015  -0.00018  -0.00024  -0.00042   2.09588
   A24        2.09132  -0.00004   0.00036  -0.00121  -0.00085   2.09047
   A25        2.09556   0.00019  -0.00018   0.00144   0.00127   2.09684
   A26        2.09379   0.00064   0.00007   0.00300   0.00306   2.09685
   A27        2.09433  -0.00025  -0.00000  -0.00118  -0.00118   2.09315
   A28        2.09506  -0.00039  -0.00007  -0.00182  -0.00188   2.09318
   A29        1.91726   0.00091   0.00182  -0.00056   0.00126   1.91853
   A30        1.93766  -0.00079  -0.00069  -0.00216  -0.00284   1.93482
   A31        1.93768  -0.00080  -0.00069  -0.00219  -0.00287   1.93481
   A32        1.89450  -0.00017   0.00050  -0.00332  -0.00281   1.89169
   A33        1.89452  -0.00018   0.00050  -0.00332  -0.00283   1.89170
   A34        1.88095   0.00105  -0.00149   0.01165   0.01018   1.89113
    D1        3.14151  -0.00000   0.00001  -0.00008  -0.00008   3.14143
    D2       -1.02240   0.00021  -0.00215   0.00788   0.00573  -1.01667
    D3        1.02227  -0.00021   0.00215  -0.00807  -0.00592   1.01636
    D4        0.00090  -0.00005  -0.00008  -0.00266  -0.00280  -0.00190
    D5        3.14100   0.00004   0.00014   0.00195   0.00215  -3.14003
    D6        0.00007  -0.00000  -0.00001  -0.00008  -0.00009  -0.00002
    D7       -3.14152  -0.00000   0.00001  -0.00008  -0.00007  -3.14159
    D8        3.14159  -0.00000  -0.00002  -0.00008  -0.00010   3.14149
    D9        0.00000  -0.00000  -0.00000  -0.00007  -0.00007  -0.00007
   D10       -0.00002   0.00000   0.00001   0.00005   0.00006   0.00004
   D11        3.14156   0.00000  -0.00001   0.00006   0.00005  -3.14157
   D12       -3.14154   0.00000   0.00002   0.00005   0.00007  -3.14147
   D13        0.00005   0.00000   0.00001   0.00005   0.00006   0.00011
   D14       -3.14143  -0.00005  -0.00011  -0.00223  -0.00232   3.13944
   D15       -0.00139   0.00006   0.00012   0.00261   0.00270   0.00131
   D16        0.00009  -0.00005  -0.00013  -0.00222  -0.00232  -0.00224
   D17        3.14013   0.00006   0.00010   0.00262   0.00269  -3.14036
   D18       -3.14157  -0.00000  -0.00001  -0.00003  -0.00004   3.14158
   D19       -1.04600  -0.00013   0.00137  -0.00591  -0.00454  -1.05054
   D20        1.04601   0.00013  -0.00138   0.00588   0.00449   1.05050
   D21        1.05938  -0.00017  -0.00085  -0.00066  -0.00153   1.05785
   D22       -3.12823  -0.00030   0.00053  -0.00654  -0.00603  -3.13427
   D23       -1.03622  -0.00004  -0.00223   0.00526   0.00300  -1.03322
   D24       -1.05942   0.00017   0.00085   0.00066   0.00154  -1.05787
   D25        1.03615   0.00004   0.00223  -0.00522  -0.00296   1.03319
   D26        3.12817   0.00030  -0.00052   0.00658   0.00607   3.13424
   D27       -0.00007   0.00000  -0.00000   0.00008   0.00008   0.00000
   D28        3.14154   0.00000   0.00000   0.00005   0.00005   3.14159
   D29        3.14151   0.00000  -0.00002   0.00007   0.00005   3.14157
   D30       -0.00006  -0.00000  -0.00001   0.00004   0.00003  -0.00003
   D31       -0.00002  -0.00000  -0.00001  -0.00002  -0.00002  -0.00005
   D32        3.14159  -0.00000  -0.00000  -0.00004  -0.00005   3.14154
   D33        3.14158   0.00000   0.00001  -0.00002  -0.00001   3.14157
   D34        0.00001  -0.00000   0.00001  -0.00005  -0.00003  -0.00003
   D35        0.00003  -0.00000   0.00001  -0.00004  -0.00003  -0.00001
   D36       -3.14156  -0.00000  -0.00000  -0.00003  -0.00003  -3.14158
   D37       -3.14158  -0.00000  -0.00000  -0.00001  -0.00001   3.14159
   D38        0.00002  -0.00000  -0.00001   0.00000  -0.00000   0.00001
   D39        0.00002   0.00000  -0.00000   0.00001   0.00001   0.00003
   D40       -3.14158   0.00000   0.00000  -0.00000  -0.00000  -3.14158
   D41        3.14159   0.00000  -0.00000   0.00004   0.00003  -3.14156
   D42       -0.00001   0.00000   0.00000   0.00002   0.00002   0.00001
         Item               Value     Threshold  Converged?
 Maximum Force            0.012816     0.000450     NO 
 RMS     Force            0.002081     0.000300     NO 
 Maximum Displacement     0.151154     0.001800     NO 
 RMS     Displacement     0.044332     0.001200     NO 
 Predicted change in Energy=-6.873863D-04
 GradGradGradGradGradGradGradGradGradGradGradGradGradGradGradGradGradGrad

                          Input orientation:                          
 ---------------------------------------------------------------------
 Center     Atomic      Atomic             Coordinates (Angstroms)
 Number     Number       Type             X           Y           Z
 ---------------------------------------------------------------------
      1          8           0        1.786310   -0.310993   -0.000943
      2          8           0        1.188168    1.849280   -0.000286
      3          6           0       -0.513051    0.185131   -0.001019
      4          6           0        3.162168    0.086098    0.000161
      5          6           0       -1.536104    1.132369    0.000618
      6          6           0       -0.813550   -1.177728   -0.001723
      7          6           0        0.890241    0.685138   -0.002072
      8          6           0       -2.862663    0.718340    0.001529
      9          6           0       -2.142560   -1.588710   -0.000833
     10          6           0       -3.166653   -0.642664    0.000807
     11          6           0        3.991428   -1.183143    0.001551
     12          1           0        3.350284    0.709264   -0.883939
     13          1           0        3.348638    0.710100    0.884011
     14          1           0       -1.268805    2.187778    0.001124
     15          1           0       -0.004054   -1.904347   -0.002981
     16          1           0       -3.661450    1.457902    0.002808
     17          1           0       -2.379884   -2.651164   -0.001424
     18          1           0        5.058017   -0.932285    0.002417
     19          1           0        3.777774   -1.787953    0.890454
     20          1           0        3.779409   -1.788826   -0.887170
     21          1           0       -4.206462   -0.967287    0.001512
 ---------------------------------------------------------------------
                    Distance matrix (angstroms):
                    1          2          3          4          5
     1  O    0.000000
     2  O    2.241551   0.000000
     3  C    2.352275   2.379819   0.000000
     4  C    1.432015   2.646787   3.676553   0.000000
     5  C    3.622393   2.817024   1.394238   4.813360   0.000000
     6  C    2.740530   3.629001   1.395594   4.171761   2.420462
     7  C    1.339857   1.201661   1.489711   2.349575   2.467220
     8  C    4.761563   4.205741   2.409355   6.057913   1.389668
     9  C    4.131415   4.786808   2.408695   5.562834   2.787841
    10  C    4.964056   5.017395   2.779722   6.370641   2.410276
    11  C    2.371328   4.129631   4.707707   1.516129   5.992929
    12  H    2.065579   2.599081   3.997451   1.097887   4.983798
    13  H    2.065585   2.597565   3.996438   1.097879   4.981907
    14  H    3.946845   2.480182   2.140505   4.904139   1.088732
    15  H    2.396703   3.938416   2.150581   3.739899   3.401299
    16  H    5.727748   4.865387   3.395936   6.960145   2.150134
    17  H    4.778450   5.743257   3.395532   6.181177   3.876479
    18  H    3.330177   4.765799   5.682027   2.152058   6.909792
    19  H    2.634754   4.552905   4.806138   2.164177   6.128408
    20  H    2.634736   4.553779   4.806972   2.164182   6.129945
    21  H    6.028602   6.085646   3.869025   7.443542   3.396964
                    6          7          8          9         10
     6  C    0.000000
     7  C    2.524514   0.000000
     8  C    2.791764   3.753053   0.000000
     9  C    1.391106   3.790550   2.416823   0.000000
    10  C    2.413171   4.268660   1.394540   1.394192   0.000000
    11  C    4.804982   3.620475   7.112960   6.147382   7.178457
    12  H    4.655808   2.613442   6.275734   6.019294   6.714235
    13  H    4.655344   2.613327   6.273683   6.018366   6.712603
    14  H    3.396158   2.630479   2.167862   3.876249   3.407818
    15  H    1.087778   2.739562   3.879453   2.161676   3.404981
    16  H    3.880348   4.616827   1.088584   3.404245   2.158055
    17  H    2.150447   4.671685   3.403916   1.088638   2.157101
    18  H    5.876696   4.470618   8.090842   7.230437   8.229768
    19  H    4.716843   3.905205   7.153118   5.990363   7.094239
    20  H    4.717280   3.905276   7.154913   5.991274   7.095772
    21  H    3.399434   5.357883   2.155722   2.155426   1.089304
                   11         12         13         14         15
    11  C    0.000000
    12  H    2.185488   0.000000
    13  H    2.185470   1.767951   0.000000
    14  H    6.247652   4.930043   4.927860   0.000000
    15  H    4.060053   4.342653   4.343113   4.283118   0.000000
    16  H    8.095781   7.107123   7.104722   2.501494   4.968028
    17  H    6.538250   6.701204   6.700602   4.964863   2.490443
    18  H    1.095693   2.529162   2.529152   7.054323   5.154561
    19  H    1.096172   3.093107   2.534653   6.485777   3.887672
    20  H    1.096188   2.534681   3.093101   6.487442   3.887124
    21  H    8.200731   7.790972   7.789221   4.310946   4.305617
                   16         17         18         19         20
    16  H    0.000000
    17  H    4.304283   0.000000
    18  H    9.041134   7.633933   0.000000
    19  H    8.164897   6.281507   1.777583   0.000000
    20  H    8.166988   6.282123   1.777601   1.777625   0.000000
    21  H    2.485674   2.484318   9.264545   8.075378   8.077055
                   21
    21  H    0.000000
 Stoichiometry    C9H10O2
 Framework group  C1[X(C9H10O2)]
 Deg. of freedom    57
 Full point group                 C1      NOp   1
 Largest Abelian subgroup         C1      NOp   1
 Largest concise Abelian subgroup C1      NOp   1
                         Standard orientation:                         
 ---------------------------------------------------------------------
 Center     Atomic      Atomic             Coordinates (Angstroms)
 Number     Number       Type             X           Y           Z
 ---------------------------------------------------------------------
      1          8           0        1.619632   -0.244377   -0.000832
      2          8           0        0.988881    1.906600   -0.000175
      3          6           0       -0.686971    0.216908   -0.000908
      4          6           0        2.989325    0.173480    0.000272
      5          6           0       -1.724235    1.148563    0.000729
      6          6           0       -0.966820   -1.150339   -0.001611
      7          6           0        0.708598    0.738085   -0.001961
      8          6           0       -3.044379    0.714516    0.001640
      9          6           0       -2.289462   -1.581378   -0.000721
     10          6           0       -3.327748   -0.650930    0.000919
     11          6           0        3.837689   -1.083073    0.001662
     12          1           0        3.167994    0.799419   -0.883828
     13          1           0        3.166336    0.800230    0.884122
     14          1           0       -1.472931    2.207894    0.001235
     15          1           0       -0.146426   -1.864631   -0.002869
     16          1           0       -3.854262    1.441910    0.002919
     17          1           0       -2.510688   -2.647301   -0.001312
     18          1           0        4.900362   -0.816110    0.002529
     19          1           0        3.633208   -1.691046    0.890566
     20          1           0        3.634857   -1.691893   -0.887059
     21          1           0       -4.362528   -0.991245    0.001624
 ---------------------------------------------------------------------
 Rotational constants (GHZ):           2.7650208           0.6133636           0.5051832
 Standard basis: 6-311++G(d,p) (5D, 7F)
 There are   323 symmetry adapted cartesian basis functions of A   symmetry.
 There are   312 symmetry adapted basis functions of A   symmetry.
   312 basis functions,   486 primitive gaussians,   323 cartesian basis functions
    40 alpha electrons       40 beta electrons
       nuclear repulsion energy       574.0757730140 Hartrees.
 NAtoms=   21 NActive=   21 NUniq=   21 SFac= 1.00D+00 NAtFMM=   60 NAOKFM=F Big=F
 Integral buffers will be    131072 words long.
 Raffenetti 2 integral format.
 Two-electron integral symmetry is turned on.
 R6APFD:  NTU= -4 IXU= 1 FactS= 1.050
[...]
 0000031,0.01377044,-0.03954567,-0.00000436,-0.05264904,0.00075922,-0.0
 0001573,0.00146286,0.00132139,0.00000328,-0.14191217,-0.08111207,-0.00
 003522,-0.24331675,0.14255623,-0.00002417,0.73909246,0.00080630,0.0003
 4968,0.00000046,-0.00178562,-0.00007345,-0.00000125,0.02119372,-0.0724
 8577,-0.00000480,-0.00020442,0.00002821,0.00000009,-0.09604204,0.00311
 179,-0.00002609,0.05789142,0.06936281,0.00002541,0.00209332,-0.0042985
 5,0.00000109,-0.00378037,-0.32867135,-0.00004480,0.06515411,-0.2305003
 2,-0.00001074,0.02082312,0.67449761,-0.00000023,-0.00000026,-0.0000146
 6,-0.00000084,0.00000012,-0.00001347,0.00000315,-0.00000505,-0.0065438
 1,0.00000020,0.00000005,-0.00006930,-0.00001331,-0.00001092,0.00555324
 ,-0.00000610,0.00001157,0.00546886,0.00000066,-0.00000028,-0.00064446,
 -0.00002283,-0.00006635,-0.06261512,-0.00003752,0.00001045,-0.06277948
 ,0.00016357,0.00009350,0.13882898,-0.03653086,0.03394502,0.00001486,0.
 00239222,0.00208382,-0.00000065,-0.00095474,0.00159192,0.00000092,-0.1
 0709964,0.05543251,0.00001293,-0.00037981,-0.00038958,-0.00000005,0.00
 012784,0.00011279,-0.00000015,-0.00439885,-0.00781326,-0.00000153,-0.0
 0012047,0.00013021,-0.00000012,0.00000597,-0.00000677,0.,-0.00001984,0
 .00001293,0.00000001,0.55163918,-0.01141429,0.01351713,0.00000531,0.00
 172733,0.00157780,-0.00000100,-0.00044503,0.00089146,0.00000025,0.0716
 2915,-0.19266510,-0.00002991,-0.00015396,-0.00025562,-0.00000005,-0.00
 004771,0.00008083,-0.00000005,-0.00225039,-0.00457894,-0.00000021,-0.0
 0009204,0.00002208,-0.00000007,0.00002134,-0.00003496,0.00000003,-0.00
 003936,0.00003990,0.,0.04019937,0.52319865,0.00000611,-0.00000409,0.00
 164282,-0.00000136,-0.00000033,0.00112840,0.00000030,-0.00000030,-0.00
 018557,0.00001577,-0.00002718,-0.08556807,0.,0.,0.00005959,-0.00000009
 ,0.00000010,-0.00002210,0.00000037,0.00000190,0.00004334,0.00000003,-0
 .00000004,-0.00002712,0.,-0.00000002,-0.00006917,-0.00000002,-0.000000
 03,0.00003725,0.00000814,-0.00001572,0.57390237,-0.02619840,-0.0201446
 8,0.02941624,0.00055242,0.00374910,0.00009888,-0.00051423,0.00023951,-
 0.00096432,-0.05171512,-0.01716421,0.02357353,0.00013421,-0.00018670,-
 0.00009582,-0.00009415,-0.00002588,0.00005415,0.00287945,-0.00902738,0
 .00131339,-0.00015947,-0.00009046,0.00006961,0.00007403,0.00010453,-0.
 00006148,-0.00011366,0.00010012,-0.00001001,0.00452098,0.01057575,-0.0
 1673025,0.06897212,-0.00945534,-0.00559275,0.00633534,-0.00012692,0.00
 032343,-0.00031759,-0.00026531,-0.00003817,0.00025115,-0.02100333,-0.1
 2824479,0.11572137,-0.00001363,-0.00002892,-0.00006460,0.00000626,-0.0
 0003730,-0.00008691,0.00234391,-0.00025908,-0.00027961,-0.00002170,0.0
 0001267,0.00002955,-0.00005805,0.00001954,-0.00001286,0.00000042,-0.00
 001660,-0.00000896,-0.00309681,-0.01391129,0.02165219,0.02565541,0.140
 10801,0.00410779,-0.00300414,0.00637502,-0.00149543,-0.00148158,0.0002
 3134,0.00016240,-0.00028875,-0.00040083,0.03150837,0.11686174,-0.22750
 572,-0.00003658,0.00005300,-0.00000203,-0.00005898,0.00003375,0.000017
 75,-0.00086995,0.00383989,0.00048104,0.00006074,-0.00000281,0.00000195
 ,-0.00003807,-0.00003317,0.00000542,-0.00000304,-0.00004603,0.00000157
 ,-0.00121161,-0.00205822,0.00284668,-0.03469344,-0.12825932,0.23658656
 ,-0.02621257,-0.02013636,-0.02941009,0.00055443,0.00374715,-0.00010074
 ,-0.00051529,0.00023921,0.00096219,-0.05173618,-0.01719910,-0.02364300
 ,0.00013428,-0.00018678,0.00009571,-0.00009430,-0.00002598,-0.00005399
 ,0.00287951,-0.00902609,-0.00131202,-0.00015947,-0.00009052,-0.0000697
 2,0.00007400,0.00010459,0.00006163,-0.00011369,0.00010017,0.00001014,0
 .00452751,0.01057162,0.01673355,0.00278385,0.00350659,0.00321957,0.069
 00029,-0.00945451,-0.00559044,-0.00633486,-0.00013018,0.00032436,0.000
 31605,-0.00026511,-0.00003852,-0.00024951,-0.02103632,-0.12816669,-0.1
 1567893,-0.00001358,-0.00002891,0.00006429,0.00000610,-0.00003727,0.00
 008676,0.00234330,-0.00025691,0.00027772,-0.00002170,0.00001266,-0.000
 02947,-0.00005804,0.00001950,0.00001279,0.00000041,-0.00001660,0.00000
 888,-0.00310575,-0.01390587,-0.02165721,0.00351340,0.00985182,0.014468
 66,0.02569347,0.14001971,-0.00409743,0.00300942,0.00638746,0.00149515,
 0.00148042,0.00023045,-0.00016202,0.00028829,-0.00040105,-0.03157969,-
 0.11682263,-0.22755913,0.00003666,-0.00005302,-0.00000199,0.00005892,-
 0.00003367,0.00001777,0.00086951,-0.00383668,0.00048152,-0.00006070,0.
 00000284,0.00000193,0.00003798,0.00003310,0.00000548,0.00000308,0.0000
 4599,0.00000153,0.00121024,0.00204846,0.00283286,-0.00322798,-0.014460
 33,-0.02072561,0.03476230,0.12821748,0.23664146,0.00118459,-0.00151598
 ,-0.00000048,-0.00161200,-0.00170642,0.00000009,0.01093962,0.02127739,
 0.00000593,-0.00032590,-0.00008857,0.,-0.07433557,-0.06619750,-0.00002
 041,-0.00360381,0.00335744,-0.00000226,-0.00010454,0.00355326,0.000001
 09,-0.00072517,-0.02824155,-0.00000642,-0.00127954,0.00045919,-0.00000
 012,-0.00532213,-0.00126632,-0.00000335,0.00002583,0.00001618,0.,0.000
 00135,0.00002864,0.00002110,0.00000133,0.00002865,-0.00002107,0.074175
 34,0.00004432,0.00045971,0.00000015,-0.00134854,0.00183502,-0.00000063
 ,-0.00665315,-0.01697297,-0.00000492,0.00002760,-0.00001189,-0.0000001
 0,-0.06427481,-0.32342331,-0.00006221,0.00385096,-0.00072722,0.0000001
 7,-0.00130318,-0.00283220,0.00000065,0.00113989,-0.00216153,-0.0000007
 5,0.00030463,0.00071499,0.00000036,-0.00115688,0.00144483,-0.00000123,
 0.00002151,0.00000348,0.00000001,0.00002323,0.00000282,-0.00000970,0.0
 0002322,0.00000281,0.00000970,0.07000760,0.34218954,0.00000024,0.00000
 001,0.00015134,-0.00000012,0.00000056,-0.00034164,0.00000243,0.0000003
 4,0.00441815,0.00000003,-0.00000010,0.00018765,-0.00002147,-0.00006027
 ,-0.04034969,-0.00000193,0.00000020,0.00661455,-0.00000034,0.00000066,
 -0.00410995,-0.00000039,-0.00000880,0.00435339,-0.00000056,0.00000039,
 -0.00124742,-0.00000366,-0.00000200,0.00783366,0.,0.00000001,0.0000054
 1,-0.00000642,-0.00000753,-0.00000769,0.00000641,0.00000755,-0.0000077
 1,0.00002434,0.00006809,0.02751168,-0.00345323,-0.00232714,-0.00000057
 ,0.00008013,0.00064428,-0.00000028,0.00837237,-0.00427540,0.00000128,-
 0.00046741,-0.00016258,-0.00000002,0.00097155,-0.00246315,-0.00000207,
 -0.21249677,0.14223962,-0.00002695,0.00066112,-0.00012620,0.00000115,-
 0.00032546,-0.00116300,0.00000003,-0.01426892,0.02074782,-0.00000220,-
 0.00440118,-0.00270827,-0.00000379,0.00012217,-0.00002247,-0.00000003,
 0.00007531,0.00004011,-0.00002714,0.00007529,0.00004011,0.00002713,0.0
 0041624,-0.00041046,-0.00000010,0.22493765,-0.00105719,0.00081402,0.00
 000027,-0.00044554,0.00102018,-0.00000012,0.02420799,-0.01447749,0.000
 00395,-0.00103184,0.00042074,0.00000043,-0.00294264,-0.00509055,-0.000
 00297,0.13991100,-0.18652406,0.00001437,0.00313698,-0.00190909,0.00000
 029,-0.00098873,-0.00026435,-0.00000013,-0.00893044,0.01074709,-0.0000
 0166,-0.00268568,0.00046827,-0.00000192,-0.00003373,0.00000598,-0.0000
 0005,0.00018983,0.00007585,-0.00004091,0.00018992,0.00007586,0.0000408
 5,0.00133071,-0.00080896,0.00000015,-0.15084826,0.19447151,-0.00000032
 ,-0.00000049,0.00016752,0.00000040,0.00000099,0.00055337,0.00000638,-0
 .00000103,0.00364147,-0.00000032,0.00000004,-0.00018119,-0.00000153,-0
 .00000309,0.00688817,-0.00002805,0.00001151,-0.03961817,0.00000008,-0.
 00000041,-0.00408350,-0.00000056,-0.00000072,-0.00126867,-0.00000551,0
 .00000732,0.00436553,-0.00000417,-0.00000129,0.00781903,0.00000002,0.0
 0000002,0.00017327,0.00007635,0.00005342,-0.00000822,-0.00007631,-0.00
 005336,-0.00000823,0.00000025,-0.00000034,0.00034688,0.00003189,-0.000
 01374,0.02672557,-0.00106844,-0.00007385,0.00000018,-0.00021758,-0.000
 46175,0.00000023,-0.00459193,-0.00317736,-0.00000440,0.00019520,0.0001
 5201,0.00000007,-0.01624193,0.02232073,-0.00000144,-0.00020766,-0.0012
 1026,0.00000006,0.00040561,0.00171678,-0.00000036,-0.20953367,0.139319
 00,-0.00002164,0.00114260,-0.00202289,-0.00000187,0.00872221,-0.006731
 21,0.00000019,-0.00006468,-0.00003852,0.,-0.00003125,-0.00001057,0.000
 00451,-0.00003123,-0.00001058,-0.00000451,0.00067072,-0.00036726,0.000
 00129,-0.00002209,0.00010357,0.00000026,0.22004809,-0.00018261,-0.0000
 5678,0.00000008,0.00013033,-0.00002871,0.00000009,-0.00253986,0.000769
 05,-0.00000203,-0.00004118,0.00003096,0.00000003,-0.00860746,0.0102207
 9,-0.00000109,-0.00119037,-0.00049235,-0.00000021,-0.00044555,0.000517
 43,-0.00000038,0.13932152,-0.18730881,0.00001059,-0.00262248,-0.005077
 33,-0.00000278,0.02447574,-0.01451345,0.00000352,-0.00001217,-0.000008
 72,0.,-0.00000007,0.00000119,0.00000214,-0.00000006,0.00000119,-0.0000
 0215,0.00042395,0.00051160,0.00000102,0.00007000,0.00002805,0.00000019
 ,-0.14954497,0.19569477,-0.00000022,0.,-0.00016374,-0.00000004,0.00000
 003,0.00003618,-0.00000344,-0.00000153,0.00806569,-0.00000002,0.000000
 01,-0.00007208,-0.00000667,0.00000684,0.00338773,0.00000008,-0.0000002
 0,-0.00126316,-0.00000015,0.,0.00032360,-0.00002185,0.00001076,-0.0382
 2158,-0.00000232,-0.00000267,0.00757997,0.00000545,-0.00000478,0.00335
 615,0.,0.,-0.00000064,0.00001295,0.00000220,0.00000038,-0.00001294,-0.
 00000220,0.00000038,0.00000124,0.00000052,-0.00422747,0.00000031,0.000
 00022,-0.00105824,0.00002625,-0.00000981,0.02612916,-0.00033680,0.0002
 7630,0.00000024,-0.00085107,-0.00054628,0.00000043,-0.00559934,-0.0011
 2610,-0.00000457,0.00014250,0.00001493,0.00000002,-0.00140347,0.000536
 57,0.00000002,-0.00142413,-0.03022776,-0.00000628,0.00118045,-0.001364
 69,-0.00000066,-0.00300757,0.00339956,-0.00000208,-0.07186273,-0.06017
 900,-0.00001864,0.00949037,0.02330722,0.00000563,-0.00001744,-0.000024
 02,-0.00000002,-0.00001534,-0.00000727,-0.00000698,-0.00001532,-0.0000
 0728,0.00000697,0.00006061,-0.00006691,0.00000024,0.00059458,0.0004450
 7,0.00000143,0.00027516,0.00118337,0.00000024,0.07224906,-0.00038715,0
 .00012787,0.00000009,-0.00035919,-0.00026052,0.00000011,-0.00183963,0.
 00172056,-0.00000157,0.00014999,0.00001285,0.,0.00060940,0.00073191,0.
 00000044,0.00085425,-0.00472670,-0.00000126,0.00088760,-0.00015025,-0.
 00000005,0.00400312,-0.00093845,-0.00000033,-0.06026991,-0.32452913,-0
 .00006414,-0.00797109,-0.01535077,-0.00000534,-0.00001786,-0.00001365,
 -0.00000001,-0.00002033,-0.00000791,-0.00000181,-0.00002034,-0.0000079
 1,0.00000180,-0.00004608,-0.00006032,0.00000015,-0.00035771,0.00057322
 ,0.00000065,-0.00040436,-0.00086264,-0.00000026,0.06477208,0.34316233,
 -0.00000012,0.,0.00001866,-0.00000034,-0.00000027,-0.00031319,-0.00000
 357,-0.00000164,0.00788256,0.,0.,0.00002115,0.00000005,0.00000062,-0.0
 0124725,-0.00000113,-0.00000942,0.00326437,0.00000014,-0.00000007,0.00
 042796,-0.00000228,-0.00000047,0.00752682,-0.00001897,-0.00006447,-0.0
 3781811,0.00000050,0.00000322,0.00331213,0.00000001,-0.00000001,0.0000
 1366,-0.00000352,0.00000702,-0.00000291,0.00000351,-0.00000702,-0.0000
 0291,0.00000028,0.00000012,-0.00098533,0.00000122,0.00000094,-0.004187
 67,-0.00000001,0.00000016,0.00007785,0.00002296,0.00007064,0.02598016,
 -0.00313175,0.00512379,0.00000198,0.00015126,0.00090991,-0.00000034,-0
 .00018216,0.00029690,0.00000010,-0.01466456,-0.00871075,0.00000080,-0.
 00006012,-0.00012064,-0.00000006,0.00000341,0.00000577,-0.00000004,0.0
 0057409,-0.00222784,-0.00000014,-0.00003843,0.00000847,-0.00000003,-0.
 00001807,0.00002555,0.,-0.00002999,-0.00000104,-0.00000001,-0.30034888
 ,-0.05945181,0.00003640,0.00018977,0.00032899,-0.00050558,0.00019000,0
 .00032866,0.00050560,0.00002110,0.,0.,0.00005070,0.00003282,0.,-0.0000
 2369,-0.00000006,0.,-0.00000945,-0.00001171,0.,0.32614047,0.00641788,-
 0.00600815,-0.00000298,-0.00043819,-0.00048729,0.00000019,0.00027180,-
 0.00051577,-0.00000040,0.02450766,0.01052608,-0.00000230,0.00011106,0.
 00015266,0.00000003,0.00006285,-0.00009486,0.00000016,0.00109734,0.002
 11425,0.00000044,0.00004005,-0.00001932,0.00000005,-0.00001747,0.00003
 739,-0.00000009,0.00001963,-0.00001660,0.00000005,-0.06253876,-0.06309
 604,0.00000923,-0.00066940,0.00058892,0.00067984,-0.00066950,0.0005892
 5,-0.00067940,-0.00001694,0.00000200,-0.00000001,0.00004887,-0.0000076
 2,-0.00000003,0.00002266,0.00000593,0.,0.00001717,0.00000775,0.0000000
 2,0.06452768,0.06492975,0.00000194,-0.00000230,0.00098199,-0.00000010,
 -0.00000036,-0.00013051,0.00000008,-0.00000017,0.00003734,0.00000660,0
 .00000350,-0.00219094,0.00000005,0.00000007,-0.00002249,0.00000002,-0.
 00000003,0.00000892,-0.00000001,0.00000095,0.00040565,0.00000002,-0.00
 000001,-0.00000240,0.,0.,0.00001161,0.,0.,-0.00000780,0.00003596,0.000
 00841,-0.04486121,0.00001017,-0.00000437,-0.00008515,-0.00001051,0.000
 00451,-0.00008552,0.,0.,0.00000070,0.,0.,-0.00005474,0.,0.,0.00000326,
 0.,0.,-0.00000126,-0.00004075,-0.00000877,0.04411809,0.00259616,-0.001
 27528,-0.00010618,-0.00044666,-0.00057018,0.00010682,0.00010032,-0.000
 08186,0.00010639,0.00259504,0.01185406,-0.01746550,0.00000478,0.000019
 85,-0.00002148,-0.00005636,0.00005922,-0.00001060,-0.00028682,0.001224
 35,0.00003577,0.00001978,-0.00000944,-0.00000266,0.00001163,-0.0000486
 2,0.00001126,0.00001042,0.00000275,-0.00000123,-0.05669045,-0.03036499
 ,0.04438943,-0.00175291,0.00305652,0.00018076,0.00042868,-0.00089734,0
 .00032148,0.00000496,-0.00000716,-0.00000164,-0.00005793,-0.00002418,-
 0.00005173,0.00000761,-0.00000185,0.00000145,-0.00000472,0.00000260,0.
 00000208,-0.00439644,-0.01640137,0.02596372,0.05760063,-0.00126206,0.0
 0201203,-0.00111815,0.00055768,0.00028814,-0.00022880,0.00001608,0.000
 02860,0.00003745,-0.00702519,-0.01765157,0.02585683,0.00002104,0.00001
 208,0.00000525,0.00002130,-0.00002156,0.00000498,-0.00022463,-0.000679
 68,-0.00007285,-0.00000711,0.00000449,-0.00000593,0.00002300,0.0000066
 9,-0.00001636,0.00001313,0.00001221,0.00000357,-0.02824096,-0.12547079
 ,0.11685557,0.00377963,-0.00336515,-0.00100703,-0.00060988,0.00051619,
 -0.00029830,-0.00001544,0.00000574,0.00000643,0.00001479,0.00000619,0.
 00002560,0.00000536,-0.00000051,0.00000225,0.00000394,0.00000399,0.000
 00129,-0.00053113,-0.00435649,0.00459453,0.02901180,0.13833587,-0.0006
 6311,-0.00009325,0.00012743,-0.00004936,-0.00028211,-0.00004278,-0.000
 00635,0.00003626,0.00000114,-0.00014419,-0.00082802,0.00129627,-0.0000
 0737,-0.00003610,0.00000750,-0.00008107,0.00007142,0.00002540,-0.00002
 983,0.00006421,0.00000136,-0.00000183,-0.00001893,-0.00000143,0.000020
 32,-0.00003528,0.00000396,-0.00000776,0.00001028,0.00000237,0.04342029
 ,0.11872120,-0.22595437,0.00054344,-0.00040411,0.00144504,-0.00061193,
 0.00014715,0.00074442,0.00001122,-0.00000802,-0.00000323,-0.00007310,0
 .00001071,-0.00005002,-0.00000156,-0.00000277,-0.00000071,-0.00001327,
 -0.00000248,-0.00000297,-0.00060671,-0.00195133,0.00093307,-0.04757677
 ,-0.13002571,0.24067635,0.00259608,-0.00127527,0.00010438,-0.00044635,
 -0.00057007,-0.00010625,0.00010040,-0.00008181,-0.00010647,0.00260145,
 0.01184853,0.01746896,0.00000476,0.00001983,0.00002144,-0.00005637,0.0
 0005918,0.00001061,-0.00028661,0.00122392,-0.00003566,0.00001976,-0.00
 000943,0.00000271,0.00001162,-0.00004862,-0.00001127,0.00001042,0.0000
 0275,0.00000121,-0.05672288,-0.03039472,-0.04445836,0.00042884,-0.0008
 9745,-0.00032169,-0.00175330,0.00305672,-0.00017838,0.00000496,-0.0000
 0716,0.00000165,-0.00005791,-0.00002420,0.00005174,0.00000761,-0.00000
 185,-0.00000145,-0.00000471,0.00000260,-0.00000209,-0.00440613,-0.0163
 9164,-0.02596718,0.00030347,0.00444656,0.00587403,0.05763605,-0.001261
 56,0.00201122,0.00111932,0.00055730,0.00028782,0.00022833,0.00001605,0
 .00002858,-0.00003736,-0.00703431,-0.01764340,-0.02586054,0.00002107,0
 .00001206,-0.00000525,0.00002125,-0.00002151,-0.00000500,-0.00022491,-
 0.00067890,0.00007308,-0.00000711,0.00000448,0.00000590,0.00002302,0.0
 0000667,0.00001637,0.00001313,0.00001222,-0.00000355,-0.02827117,-0.12
 539211,-0.11681404,-0.00060988,0.00051618,0.00029849,0.00378019,-0.003
 36572,0.00100380,-0.00001543,0.00000574,-0.00000643,0.00001476,0.00000
 621,-0.00002562,0.00000536,-0.00000051,-0.00000225,0.00000393,0.000003
 99,-0.00000128,-0.00053293,-0.00435549,-0.00459596,0.00445409,0.010311
 52,0.01463041,0.02904506,0.13824897,0.00066178,0.00009399,0.00012757,0
 .00004975,0.00028229,-0.00004275,0.00000627,-0.00003622,0.00000128,0.0
 0014178,0.00081747,0.00128157,0.00000740,0.00003610,0.00000753,0.00008
 111,-0.00007148,0.00002538,0.00002983,-0.00006468,0.00000120,0.0000018
 3,0.00001893,-0.00000144,-0.00002031,0.00003531,0.00000401,0.00000776,
 -0.00001028,0.00000236,-0.04348926,-0.11867844,-0.22600412,0.00061186,
 -0.00014689,0.00074434,-0.00054104,0.00040152,0.00144580,-0.00001123,0
 .00000803,-0.00000323,0.00007313,-0.00001068,-0.00005008,0.00000156,0.
 00000277,-0.00000071,0.00001328,0.00000248,-0.00000297,0.00060877,0.00
 195530,0.00094161,-0.00587977,-0.01462212,-0.01920644,0.04765045,0.129
 98306,0.24073145,-0.00020514,-0.00009854,0.,-0.00010710,-0.00007054,0.
 00000005,0.00081656,0.00075903,0.00000050,0.00014185,0.00000734,0.,0.0
 0165506,-0.00128101,-0.00000176,-0.00176495,0.00408101,-0.00000176,-0.
 00005314,0.00006557,0.00000016,-0.00239647,0.00105188,-0.00000154,-0.0
 1614339,-0.01009032,-0.00000700,-0.31277953,-0.07896864,-0.00008554,-0
 .00001315,-0.00000142,0.,-0.00001781,-0.00001045,0.00000323,-0.0000178
 0,-0.00001045,-0.00000323,-0.00019800,0.00015253,0.,-0.00080621,-0.000
 53550,-0.00000031,0.00055936,-0.00041435,0.00000113,0.00055938,0.00042
 371,0.00000126,-0.00001115,-0.00000140,0.,0.00000883,0.00000210,0.0000
 0494,0.00000883,0.00000210,-0.00000494,0.33076396,-0.00007752,0.000201
 63,0.00000007,-0.00015152,0.00026914,-0.00000011,0.00076634,-0.0014478
 1,0.00000013,-0.00001627,0.00002523,0.00000003,-0.00098217,-0.00592236
 ,-0.00000254,0.00375165,-0.00241617,-0.00000067,0.00010591,-0.00041059
 ,0.00000020,-0.03000430,-0.00295892,-0.00000892,0.02102817,0.01071049,
 0.00000654,-0.07899354,-0.08338407,-0.00002785,-0.00000327,-0.00000422
 ,0.,0.00000846,0.00000152,-0.00000405,0.00000847,0.00000152,0.00000404
 ,-0.00137279,-0.00017988,-0.00000041,0.00100427,0.00036897,0.00000040,
 0.00040811,0.00056885,0.00000085,-0.00041083,0.00056380,0.00000063,-0.
 00000064,0.00000366,0.,-0.00000295,0.00000201,-0.00000354,-0.00000295,
 0.00000201,0.00000354,0.08493736,0.08400519,-0.00000018,0.00000002,0.0
 0007786,-0.00000004,0.00000015,0.00017192,0.00000078,-0.00000003,-0.00
 070906,0.00000007,-0.00000001,-0.00001375,-0.00000240,-0.00000231,0.00
 754013,-0.00000226,-0.00000115,0.00760110,0.00000008,-0.00000001,-0.00
 138226,-0.00000620,-0.00000022,0.00407833,-0.00000115,-0.00000167,0.00
 399826,-0.00008557,-0.00002796,-0.03952903,-0.00000001,0.,0.00000671,0
 .00001268,0.00000083,0.00000106,-0.00001274,-0.00000083,0.00000107,-0.
 00000019,0.00000008,-0.00014004,0.00000012,0.,-0.00011209,0.00000118,0
 .00000060,-0.00395202,0.00000102,0.00000089,-0.00396076,0.,0.,-0.00000
 023,-0.00000162,0.00000148,-0.00000237,0.00000163,-0.00000148,-0.00000
 237,0.00009482,0.00003165,0.02632753\\0.00001673,-0.00001733,-0.000045
 29,0.00018666,0.00033941,-0.00005939,-0.00018025,-0.00018095,-0.000044
 27,-0.00003794,-0.00017472,0.00000065,-0.00004924,0.00008084,-0.000002
 11,-0.00002966,-0.00005362,-0.00000350,0.00005464,-0.00018063,0.000150
 66,-0.00005866,-0.00000448,0.00000234,-0.00001288,-0.00001794,0.000002
 47,0.00001072,0.00000790,-0.00000026,0.00001800,0.00006974,-0.00000259
 ,0.00000142,0.00001811,-0.00002494,-0.00000130,0.00001782,0.00002526,0
 .00001523,-0.00000684,-0.00000047,0.00002467,0.00003301,-0.00000023,-0
 .00000056,-0.00002642,0.00000057,-0.00000637,0.00001401,0.00000030,0.0
 0000669,-0.00003867,0.00000007,-0.00000182,0.00006142,-0.00001628,-0.0
 0000063,0.00006142,0.00001741,0.00004454,-0.00000208,-0.00000042\\\@


 THE FIRST AND LAST THING REQUIRED OF GENIUS IS THE LOVE OF TRUTH.

                          -- GOETHE
 Job cpu time:       0 days  1 hours 48 minutes 29.6 seconds.
 Elapsed time:       0 days  0 hours  6 minutes 48.5 seconds.
 File lengths (MBytes):  RWF=    187 Int=      0 D2E=      0 Chk=      9 Scr=      1
 Normal termination of Gaussian 16 at Mon Oct  6 22:24:29 2025.
