 Entering Gaussian System, Link 0=g16
 Input=ETLA0039.gjf
 Output=ETLA0039.log
 Initial command:
 /usr/local/g16/l1.exe "/dados_01/scratch/Gau-2477318.inp" -scrdir="/dados_01/scratch/"
 Entering Link 1 = /usr/local/g16/l1.exe PID=   2477319.
  
 Copyright (c) 1988-2017, Gaussian, Inc.  All Rights Reserved.
  
 This is part of the Gaussian(R) 16 program.  It is based on
 the Gaussian(R) 09 system (copyright 2009, Gaussian, Inc.),
 the Gaussian(R) 03 system (copyright 2003, Gaussian, Inc.),
 the Gaussian(R) 98 system (copyright 1998, Gaussian, Inc.),
 the Gaussian(R) 94 system (copyright 1995, Gaussian, Inc.),
 the Gaussian 92(TM) system (copyright 1992, Gaussian, Inc.),
 the Gaussian 90(TM) system (copyright 1990, Gaussian, Inc.),
 the Gaussian 88(TM) system (copyright 1988, Gaussian, Inc.),
 the Gaussian 86(TM) system (copyright 1986, Carnegie Mellon
 University), and the Gaussian 82(TM) system (copyright 1983,
 Carnegie Mellon University). Gaussian is a federally registered
 trademark of Gaussian, Inc.
  
 This software contains proprietary and confidential information,
 including trade secrets, belonging to Gaussian, Inc.
  
 This software is provided under written license and may be
 used, copied, transmitted, or stored only in accord with that
 written license.
  
 The following legend is applicable only to US Government
 contracts under FAR:
  
                    RESTRICTED RIGHTS LEGEND
  
 Use, reproduction and disclosure by the US Government is
 subject to restrictions as set forth in subparagraphs (a)
 and (c) of the Commercial Computer Software - Restricted
 Rights clause in FAR 52.227-19.
  
 Gaussian, Inc.
 340 Quinnipiac St., Bldg. 40, Wallingford CT 06492
  
  
 ---------------------------------------------------------------
 Warning -- This program may not be used in any manner that
 competes with the business of Gaussian, Inc. or will provide
 assistance to any competitor of Gaussian, Inc.  The licensee
 of this program is prohibited from giving any competitor of
 Gaussian, Inc. access to this program.  By using this program,
 the user acknowledges that Gaussian, Inc. is engaged in the
 business of creating and licensing software in the field of
 computational chemistry and represents and warrants to the
 licensee that it is not a competitor of Gaussian, Inc. and that
 it will not use this program in any manner prohibited above.
 ---------------------------------------------------------------
  

 Cite this work as:
 Gaussian 16, Revision B.01,
 M. J. Frisch, G. W. Trucks, H. B. Schlegel, G. E. Scuseria, 
 M. A. Robb, J. R. Cheeseman, G. Scalmani, V. Barone, 
 G. A. Petersson, H. Nakatsuji, X. Li, M. Caricato, A. V. Marenich, 
 J. Bloino, B. G. Janesko, R. Gomperts, B. Mennucci, H. P. Hratchian, 
 J. V. Ortiz, A. F. Izmaylov, J. L. Sonnenberg, D. Williams-Young, 
 F. Ding, F. Lipparini, F. Egidi, J. Goings, B. Peng, A. Petrone, 
 T. Henderson, D. Ranasinghe, V. G. Zakrzewski, J. Gao, N. Rega, 
 G. Zheng, W. Liang, M. Hada, M. Ehara, K. Toyota, R. Fukuda, 
 J. Hasegawa, M. Ishida, T. Nakajima, Y. Honda, O. Kitao, H. Nakai, 
 T. Vreven, K. Throssell, J. A. Montgomery, Jr., J. E. Peralta, 
 F. Ogliaro, M. J. Bearpark, J. J. Heyd, E. N. Brothers, K. N. Kudin, 
 V. N. Staroverov, T. A. Keith, R. Kobayashi, J. Normand, 
 K. Raghavachari, A. P. Rendell, J. C. Burant, S. S. Iyengar, 
 J. Tomasi, M. Cossi, J. M. Millam, M. Klene, C. Adamo, R. Cammi, 
 J. W. Ochterski, R. L. Martin, K. Morokuma, O. Farkas, 
 J. B. Foresman, and D. J. Fox, Gaussian, Inc., Wallingford CT, 2016.
 
 ******************************************
 Gaussian 16:  ES64L-G16RevB.01 20-Dec-2017
                 6-Oct-2025 
 ******************************************
 %nprocs=16
 Will use up to   16 processors via shared memory.
 %mem=40GB
 %chk=ETLA0039.chk
 ----------------------------------------------------------------------
 # opt freq=noraman M08HX/6-311++G** scf=xqc Empiricaldispersion=pfd In
 t(Grid=ultraFine)
 ----------------------------------------------------------------------
 1/18=20,19=15,26=4,38=1/1,3;
 2/9=110,12=2,17=6,18=5,40=1/2;
 3/5=4,6=6,7=1111,11=2,25=1,30=1,71=1,74=-74,75=-5,124=11/1,2,3;
 4//1;
 5/5=2,8=3,13=1,38=5/2,8;
 6/7=2,8=2,9=2,10=2,28=1/1;
 7//1,2,3,16;
 1/18=20,19=15,26=4/3(2);
 2/9=110/2;
 99//99;
 2/9=110/2;
 3/5=4,6=6,7=1111,11=2,25=1,30=1,71=1,74=-74,75=-5,124=11/1,2,3;
 4/5=5,16=3,69=1/1;
 5/5=2,8=3,13=1,38=5/2,8;
 7//1,2,3,16;
 1/18=20,19=15,26=4/3(-5);
 2/9=110/2;
 6/7=2,8=2,9=2,10=2,19=2,28=1/1;
 99/9=1/99;
 --------
 ETLA0039
 --------
 Symbolic Z-matrix:
 Charge =  0 Multiplicity = 1
 O                     0.8827   -0.3016    0.1896 
 O                    -2.6182    0.439     0.2797 
 O                    -0.2899    1.6003   -0.3818 
 C                    -1.4634   -0.3773    0.3984 
 C                    -1.6382   -1.578    -0.515 
 C                    -0.2489    0.4411    0.0095 
 C                     2.1125    0.364    -0.1152 
 C                     3.2633   -0.5874    0.1346 
 H                    -1.3726   -0.6775    1.4466 
 H                    -0.8059   -2.2821   -0.4171 
 H                    -2.5699   -2.1053   -0.2841 
 H                    -1.6973   -1.2698   -1.5651 
 H                     2.1095    0.6731   -1.1664 
 H                     2.2175    1.2479    0.5239 
 H                     4.2213   -0.1099   -0.0892 
 H                     3.269    -0.9198    1.178 
 H                     3.1623   -1.4851   -0.4842 
 H                    -2.7392    0.6592   -0.6599 
 

 GradGradGradGradGradGradGradGradGradGradGradGradGradGradGradGradGradGrad
 Berny optimization.
 Initialization pass.
                           ----------------------------
                           !    Initial Parameters    !
                           ! (Angstroms and Degrees)  !
 --------------------------                            --------------------------
 ! Name  Definition              Value          Derivative Info.                !
 --------------------------------------------------------------------------------
 ! R1    R(1,6)                  1.3655         estimate D2E/DX2                !
 ! R2    R(1,7)                  1.4312         estimate D2E/DX2                !
 ! R3    R(2,4)                  1.4192         estimate D2E/DX2                !
 ! R4    R(2,18)                 0.9726         estimate D2E/DX2                !
 ! R5    R(3,6)                  1.2241         estimate D2E/DX2                !
 ! R6    R(4,5)                  1.5187         estimate D2E/DX2                !
 ! R7    R(4,6)                  1.5153         estimate D2E/DX2                !
 ! R8    R(4,9)                  1.0941         estimate D2E/DX2                !
 ! R9    R(5,10)                 1.0946         estimate D2E/DX2                !
 ! R10   R(5,11)                 1.0952         estimate D2E/DX2                !
 ! R11   R(5,12)                 1.096          estimate D2E/DX2                !
 ! R12   R(7,8)                  1.5139         estimate D2E/DX2                !
 ! R13   R(7,13)                 1.0957         estimate D2E/DX2                !
 ! R14   R(7,14)                 1.0958         estimate D2E/DX2                !
 ! R15   R(8,15)                 1.0936         estimate D2E/DX2                !
 ! R16   R(8,16)                 1.0951         estimate D2E/DX2                !
 ! R17   R(8,17)                 1.095          estimate D2E/DX2                !
 ! A1    A(6,1,7)              115.5346         estimate D2E/DX2                !
 ! A2    A(4,2,18)             108.1956         estimate D2E/DX2                !
 ! A3    A(2,4,5)              108.1069         estimate D2E/DX2                !
 ! A4    A(2,4,6)              108.6673         estimate D2E/DX2                !
 ! A5    A(2,4,9)              107.7873         estimate D2E/DX2                !
 ! A6    A(5,4,6)              111.4012         estimate D2E/DX2                !
 ! A7    A(5,4,9)              111.6426         estimate D2E/DX2                !
 ! A8    A(6,4,9)              109.1207         estimate D2E/DX2                !
 ! A9    A(4,5,10)             111.5465         estimate D2E/DX2                !
 ! A10   A(4,5,11)             110.5953         estimate D2E/DX2                !
 ! A11   A(4,5,12)             111.1081         estimate D2E/DX2                !
 ! A12   A(10,5,11)            108.561          estimate D2E/DX2                !
 ! A13   A(10,5,12)            107.9143         estimate D2E/DX2                !
 ! A14   A(11,5,12)            106.9492         estimate D2E/DX2                !
 ! A15   A(1,6,3)              125.8006         estimate D2E/DX2                !
 ! A16   A(1,6,4)              109.6702         estimate D2E/DX2                !
 ! A17   A(3,6,4)              124.5164         estimate D2E/DX2                !
 ! A18   A(1,7,8)              109.0127         estimate D2E/DX2                !
 ! A19   A(1,7,13)             109.4607         estimate D2E/DX2                !
 ! A20   A(1,7,14)             109.467          estimate D2E/DX2                !
 ! A21   A(8,7,13)             109.7348         estimate D2E/DX2                !
 ! A22   A(8,7,14)             109.7458         estimate D2E/DX2                !
 ! A23   A(13,7,14)            109.4056         estimate D2E/DX2                !
 ! A24   A(7,8,15)             110.9621         estimate D2E/DX2                !
 ! A25   A(7,8,16)             110.6054         estimate D2E/DX2                !
 ! A26   A(7,8,17)             110.6007         estimate D2E/DX2                !
 ! A27   A(15,8,16)            108.843          estimate D2E/DX2                !
 ! A28   A(15,8,17)            108.8524         estimate D2E/DX2                !
 ! A29   A(16,8,17)            106.8629         estimate D2E/DX2                !
 ! D1    D(7,1,6,3)             -0.0025         estimate D2E/DX2                !
 ! D2    D(7,1,6,4)           -178.742          estimate D2E/DX2                !
 ! D3    D(6,1,7,8)           -179.9999         estimate D2E/DX2                !
 ! D4    D(6,1,7,13)           -59.9638         estimate D2E/DX2                !
 ! D5    D(6,1,7,14)            59.9467         estimate D2E/DX2                !
 ! D6    D(18,2,4,5)           -55.3498         estimate D2E/DX2                !
 ! D7    D(18,2,4,6)            65.6941         estimate D2E/DX2                !
 ! D8    D(18,2,4,9)          -176.1746         estimate D2E/DX2                !
 ! D9    D(2,4,5,10)          -176.1897         estimate D2E/DX2                !
 ! D10   D(2,4,5,11)           -55.261          estimate D2E/DX2                !
 ! D11   D(2,4,5,12)            63.352          estimate D2E/DX2                !
 ! D12   D(6,4,5,10)            64.4803         estimate D2E/DX2                !
 ! D13   D(6,4,5,11)          -174.591          estimate D2E/DX2                !
 ! D14   D(6,4,5,12)           -55.9781         estimate D2E/DX2                !
 ! D15   D(9,4,5,10)           -57.7965         estimate D2E/DX2                !
 ! D16   D(9,4,5,11)            63.1322         estimate D2E/DX2                !
 ! D17   D(9,4,5,12)          -178.2548         estimate D2E/DX2                !
 ! D18   D(2,4,6,1)            176.554          estimate D2E/DX2                !
 ! D19   D(2,4,6,3)             -2.2052         estimate D2E/DX2                !
 ! D20   D(5,4,6,1)            -64.4498         estimate D2E/DX2                !
 ! D21   D(5,4,6,3)            116.791          estimate D2E/DX2                !
 ! D22   D(9,4,6,1)             59.2701         estimate D2E/DX2                !
 ! D23   D(9,4,6,3)           -119.4891         estimate D2E/DX2                !
 ! D24   D(1,7,8,15)           179.9843         estimate D2E/DX2                !
 ! D25   D(1,7,8,16)           -59.1154         estimate D2E/DX2                !
 ! D26   D(1,7,8,17)            59.0753         estimate D2E/DX2                !
 ! D27   D(13,7,8,15)           60.1175         estimate D2E/DX2                !
 ! D28   D(13,7,8,16)         -178.9822         estimate D2E/DX2                !
 ! D29   D(13,7,8,17)          -60.7915         estimate D2E/DX2                !
 ! D30   D(14,7,8,15)          -60.1347         estimate D2E/DX2                !
 ! D31   D(14,7,8,16)           60.7657         estimate D2E/DX2                !
 ! D32   D(14,7,8,17)          178.9563         estimate D2E/DX2                !
 --------------------------------------------------------------------------------
 Trust Radius=3.00D-01 FncErr=1.00D-07 GrdErr=1.00D-06 EigMax=2.50D+02 EigMin=1.00D-04
 Number of steps in this run=     88 maximum allowed number of steps=    108.
 GradGradGradGradGradGradGradGradGradGradGradGradGradGradGradGradGradGrad

                          Input orientation:                          
 ---------------------------------------------------------------------
 Center     Atomic      Atomic             Coordinates (Angstroms)
 Number     Number       Type             X           Y           Z
 ---------------------------------------------------------------------
      1          8           0        0.882700   -0.301600    0.189600
      2          8           0       -2.618200    0.439000    0.279700
      3          8           0       -0.289900    1.600300   -0.381800
      4          6           0       -1.463400   -0.377300    0.398400
      5          6           0       -1.638200   -1.578000   -0.515000
      6          6           0       -0.248900    0.441100    0.009500
      7          6           0        2.112500    0.364000   -0.115200
      8          6           0        3.263300   -0.587400    0.134600
      9          1           0       -1.372600   -0.677500    1.446600
     10          1           0       -0.805900   -2.282100   -0.417100
     11          1           0       -2.569900   -2.105300   -0.284100
     12          1           0       -1.697300   -1.269800   -1.565100
     13          1           0        2.109500    0.673100   -1.166400
     14          1           0        2.217500    1.247900    0.523900
     15          1           0        4.221300   -0.109900   -0.089200
     16          1           0        3.269000   -0.919800    1.178000
     17          1           0        3.162300   -1.485100   -0.484200
     18          1           0       -2.739200    0.659200   -0.659900
 ---------------------------------------------------------------------
                    Distance matrix (angstroms):
                    1          2          3          4          5
     1  O    0.000000
     2  O    3.579512   0.000000
     3  O    2.306233   2.684619   0.000000
     4  C    2.356589   1.419154   2.428315   0.000000
     5  C    2.912146   2.379125   3.455032   1.518728   0.000000
     6  C    1.365488   2.384658   1.224149   1.515266   2.506396
     7  C    1.431200   4.747746   2.714966   3.687868   4.242517
     8  C    2.398325   5.972151   4.204513   4.738716   5.042615
     9  H    2.609162   2.039546   3.115070   1.094115   2.174700
    10  H    2.672421   3.342805   3.916699   2.173847   1.094561
    11  H    3.924050   2.606466   4.351944   2.162437   1.095183
    12  H    3.266923   2.677936   3.408584   2.169469   1.095988
    13  H    2.072152   4.949460   2.689315   4.039499   4.420071
    14  H    2.072293   4.908966   2.689151   4.025674   4.891978
    15  H    3.355701   6.871400   4.833355   5.711836   6.055606
    16  H    2.655849   6.108388   4.631377   4.826768   5.232599
    17  H    2.655420   6.140023   4.631184   4.837696   4.801498
    18  H    3.842258   0.972614   2.638575   1.954993   2.497651
                    6          7          8          9         10
     6  C    0.000000
     7  C    2.365947   0.000000
     8  C    3.661832   1.513903   0.000000
     9  H    2.139912   3.958518   4.818820   0.000000
    10  H    2.812126   3.950955   4.442383   2.523741   0.000000
    11  H    3.457947   5.296304   6.041982   2.543121   1.777820
    12  H    2.739417   4.391593   5.287930   3.086517   1.771228
    13  H    2.645490   1.095707   2.147723   4.558170   4.218319
    14  H    2.645499   1.095789   2.147924   4.177004   4.742081
    15  H    4.505112   2.161549   1.093552   5.828599   5.486229
    16  H    3.948805   2.158240   1.095083   4.655675   4.583123
    17  H    3.948452   2.158104   1.094979   4.994549   4.048002
    18  H    2.587906   4.891097   6.181848   2.844592   3.528151
                   11         12         13         14         15
    11  H    0.000000
    12  H    1.760810   0.000000
    13  H    5.513143   4.292499   0.000000
    14  H    5.900510   5.101803   1.788623   0.000000
    15  H    7.080961   6.209144   2.496627   2.496944   0.000000
    16  H    6.134810   5.684297   3.062349   2.496482   1.780059
    17  H    5.769125   4.983012   2.496320   3.062385   1.780079
    18  H    2.795058   2.371916   4.875103   5.129993   7.026078
                   16         17         18
    16  H    0.000000
    17  H    1.758937   0.000000
    18  H    6.478394   6.281448   0.000000
 Stoichiometry    C5H10O3
 Framework group  C1[X(C5H10O3)]
 Deg. of freedom    48
 Full point group                 C1      NOp   1
 Largest Abelian subgroup         C1      NOp   1
 Largest concise Abelian subgroup C1      NOp   1
                         Standard orientation:                         
 ---------------------------------------------------------------------
 Center     Atomic      Atomic             Coordinates (Angstroms)
 Number     Number       Type             X           Y           Z
 ---------------------------------------------------------------------
      1          8           0        0.857142    0.259859   -0.201209
      2          8           0       -2.638695   -0.498239   -0.332803
      3          8           0       -0.314608   -1.641678    0.373135
      4          6           0       -1.486112    0.322287   -0.443650
      5          6           0       -1.679275    1.531373    0.454868
      6          6           0       -0.273447   -0.486337   -0.029400
      7          6           0        2.085585   -0.396756    0.127604
      8          6           0        3.235391    0.557509   -0.115763
      9          1           0       -1.381957    0.612236   -1.493492
     10          1           0       -0.848932    2.238386    0.361444
     11          1           0       -2.610053    2.051865    0.205540
     12          1           0       -1.751724    1.233594    1.507136
     13          1           0        2.069219   -0.695158    1.181768
     14          1           0        2.203637   -1.286603   -0.500878
     15          1           0        4.192336    0.086866    0.126325
     16          1           0        3.254239    0.879301   -1.162329
     17          1           0        3.121560    1.460967    0.492336
     18          1           0       -2.771887   -0.709442    0.607213
 ---------------------------------------------------------------------
 Rotational constants (GHZ):           4.1891001           1.1242722           0.9466838
 Standard basis: 6-311++G(d,p) (5D, 7F)
 There are   254 symmetry adapted cartesian basis functions of A   symmetry.
 There are   246 symmetry adapted basis functions of A   symmetry.
   246 basis functions,   378 primitive gaussians,   254 cartesian basis functions
    32 alpha electrons       32 beta electrons
       nuclear repulsion energy       397.1382578540 Hartrees.
 NAtoms=   18 NActive=   18 NUniq=   18 SFac= 1.00D+00 NAtFMM=   60 NAOKFM=F Big=F
 Integral buffers will be    131072 words long.
 Raffenetti 2 integral format.
 Two-electron integral symmetry is turned on.
 R6APFD:  NTU= -4 IXU= 1 FactS= 1.050
 Nuclear repulsion after empirical dispersion term =      397.1270347811 Hartrees.
 One-electron integrals computed using PRISM.
 NBasis=   246 RedAO= T EigKep=  1.21D-05  NBF=   246
 NBsUse=   246 1.00D-06 EigRej= -1.00D+00 NBFU=   246
 ExpMin= 3.60D-02 ExpMax= 8.59D+03 ExpMxC= 1.30D+03 IAcc=3 IRadAn=         5 AccDes= 0.00D+00
 Harris functional with IExCor= 1009 and IRadAn=       5 diagonalized for initial guess.
 HarFok:  IExCor= 1009 AccDes= 0.00D+00 IRadAn=         5 IDoV= 1 UseB2=F ITyADJ=14
 ICtDFT=  3500011 ScaDFX=  1.000000  1.000000  1.000000  1.000000
 FoFCou: FMM=F IPFlag=           0 FMFlag=      100000 FMFlg1=           0
         NFxFlg=           0 DoJE=T BraDBF=F KetDBF=T FulRan=T
         wScrn=  0.000000 ICntrl=       500 IOpCl=  0 I1Cent=   200000004 NGrid=           0
         NMat0=    1 NMatS0=      1 NMatT0=    0 NMatD0=    1 NMtDS0=    0 NMtDT0=    0
 Petite list used in FoFCou.
 Requested convergence on RMS density matrix=1.00D-08 within  32 cycles.
 Requested convergence on MAX density matrix=1.00D-06.
 Requested convergence on             energy=1.00D-06.
 No special actions if energy rises.
 SCF Done:  E(RM08HX) =  -422.220895829     A.U. after   13 cycles
            NFock= 13  Conv=0.69D-08     -V/T= 2.0044
 QCSCF skips out because SCF is already converged.

 **********************************************************************

            Population analysis using the SCF Density.

 **********************************************************************

 Orbital symmetries:
       Occupied  (A) (A) (A) (A) (A) (A) (A) (A) (A) (A) (A) (A)
                 (A) (A) (A) (A) (A) (A) (A) (A) (A) (A) (A) (A)
                 (A) (A) (A) (A) (A) (A) (A) (A)
       Virtual   (A) (A) (A) (A) (A) (A) (A) (A) (A) (A) (A) (A)
                 (A) (A) (A) (A) (A) (A) (A) (A) (A) (A) (A) (A)
                 (A) (A) (A) (A) (A) (A) (A) (A) (A) (A) (A) (A)
                 (A) (A) (A) (A) (A) (A) (A) (A) (A) (A) (A) (A)
                 (A) (A) (A) (A) (A) (A) (A) (A) (A) (A) (A) (A)
                 (A) (A) (A) (A) (A) (A) (A) (A) (A) (A) (A) (A)
                 (A) (A) (A) (A) (A) (A) (A) (A) (A) (A) (A) (A)
                 (A) (A) (A) (A) (A) (A) (A) (A) (A) (A) (A) (A)
                 (A) (A) (A) (A) (A) (A) (A) (A) (A) (A) (A) (A)
                 (A) (A) (A) (A) (A) (A) (A) (A) (A) (A) (A) (A)
                 (A) (A) (A) (A) (A) (A) (A) (A) (A) (A) (A) (A)
                 (A) (A) (A) (A) (A) (A) (A) (A) (A) (A) (A) (A)
                 (A) (A) (A) (A) (A) (A) (A) (A) (A) (A) (A) (A)
                 (A) (A) (A) (A) (A) (A) (A) (A) (A) (A) (A) (A)
                 (A) (A) (A) (A) (A) (A) (A) (A) (A) (A) (A) (A)
                 (A) (A) (A) (A) (A) (A) (A) (A) (A) (A) (A) (A)
                 (A) (A) (A) (A) (A) (A) (A) (A) (A) (A) (A) (A)
                 (A) (A) (A) (A) (A) (A) (A) (A) (A) (A)
 The electronic state is 1-A.
 Alpha  occ. eigenvalues --  -19.66846 -19.61473 -19.61250 -10.67542 -10.60524
 Alpha  occ. eigenvalues --  -10.59538 -10.53553 -10.53240  -1.23814  -1.15878
 Alpha  occ. eigenvalues --   -1.13748  -0.90536  -0.86532  -0.77616  -0.72532
 Alpha  occ. eigenvalues --   -0.66835  -0.62432  -0.58699  -0.57859  -0.54715
 Alpha  occ. eigenvalues --   -0.54043  -0.50228  -0.49891  -0.47665  -0.46759
 Alpha  occ. eigenvalues --   -0.45506  -0.43560  -0.43139  -0.41865  -0.38317
 Alpha  occ. eigenvalues --   -0.37445  -0.35734
 Alpha virt. eigenvalues --   -0.03314  -0.01950  -0.01354  -0.00822   0.00418
 Alpha virt. eigenvalues --    0.00671   0.01248   0.02261   0.03129   0.03452
 Alpha virt. eigenvalues --    0.03559   0.05144   0.05556   0.05741   0.06210
 Alpha virt. eigenvalues --    0.07617   0.09590   0.09758   0.10215   0.10681
 Alpha virt. eigenvalues --    0.11189   0.11309   0.11741   0.12675   0.13000
 Alpha virt. eigenvalues --    0.13637   0.14183   0.14789   0.15471   0.16429
 Alpha virt. eigenvalues --    0.17717   0.18081   0.19229   0.19414   0.20563
 Alpha virt. eigenvalues --    0.21519   0.21681   0.22973   0.23943   0.25362
 Alpha virt. eigenvalues --    0.25896   0.26558   0.27523   0.28616   0.29306
 Alpha virt. eigenvalues --    0.30214   0.30610   0.31173   0.31729   0.32679
 Alpha virt. eigenvalues --    0.33819   0.34570   0.35956   0.36864   0.38256
 Alpha virt. eigenvalues --    0.39321   0.40390   0.41467   0.43199   0.44595
 Alpha virt. eigenvalues --    0.46885   0.48763   0.50079   0.52537   0.53806
 Alpha virt. eigenvalues --    0.54930   0.57483   0.58659   0.60850   0.64050
 Alpha virt. eigenvalues --    0.65638   0.66302   0.66974   0.67481   0.68435
 Alpha virt. eigenvalues --    0.68926   0.69367   0.70155   0.70716   0.71735
 Alpha virt. eigenvalues --    0.72379   0.75400   0.77422   0.78795   0.82375
 Alpha virt. eigenvalues --    0.89048   0.92158   0.97232   0.98467   0.99980
 Alpha virt. eigenvalues --    1.03900   1.04355   1.10808   1.15859   1.18348
 Alpha virt. eigenvalues --    1.19848   1.20908   1.23464   1.25009   1.26272
 Alpha virt. eigenvalues --    1.27468   1.28467   1.28939   1.31121   1.36159
 Alpha virt. eigenvalues --    1.38385   1.43648   1.46847   1.48222   1.50335
 Alpha virt. eigenvalues --    1.52104   1.53814   1.54588   1.56824   1.57791
 Alpha virt. eigenvalues --    1.58195   1.60195   1.62593   1.64519   1.65173
 Alpha virt. eigenvalues --    1.67023   1.68091   1.68694   1.70060   1.73071
 Alpha virt. eigenvalues --    1.75164   1.77078   1.77972   1.83512   1.84025
 Alpha virt. eigenvalues --    1.85592   1.89796   1.90641   1.93409   2.01726
 Alpha virt. eigenvalues --    2.02405   2.05996   2.08892   2.12439   2.13248
 Alpha virt. eigenvalues --    2.14638   2.19594   2.21453   2.23337   2.28763
 Alpha virt. eigenvalues --    2.32425   2.36695   2.40310   2.45747   2.49072
 Alpha virt. eigenvalues --    2.49677   2.52171   2.54346   2.55627   2.56139
 Alpha virt. eigenvalues --    2.59583   2.59852   2.61957   2.62692   2.62871
 Alpha virt. eigenvalues --    2.64782   2.65932   2.69933   2.74486   2.79015
 Alpha virt. eigenvalues --    2.81681   2.84370   2.86483   2.96677   2.97508
 Alpha virt. eigenvalues --    3.00278   3.04455   3.06637   3.12188   3.13713
 Alpha virt. eigenvalues --    3.19965   3.21609   3.25422   3.30588   3.32379
 Alpha virt. eigenvalues --    3.37727   3.44161   3.50687   3.63287   3.71876
 Alpha virt. eigenvalues --    3.80396   3.81713   3.83081   3.84152   3.84610
 Alpha virt. eigenvalues --    3.85257   4.04563   4.11623   4.15837   4.24517
 Alpha virt. eigenvalues --    4.29961   4.35671   5.14387   5.16463   5.23692
 Alpha virt. eigenvalues --    5.35345   5.43656   5.53853   5.68157   5.81825
 Alpha virt. eigenvalues --    5.93734  23.85729  23.86269  23.90895  24.01411
 Alpha virt. eigenvalues --   24.02259  49.91185  49.95506  49.99580
          Condensed to atoms (all electrons):
               1          2          3          4          5          6
     1  O    8.513507   0.018630  -0.150029  -0.505066  -0.000075   0.049294
     2  O    0.018630   7.904441   0.021034   0.347399  -0.083961  -0.156304
     3  O   -0.150029   0.021034   7.897589   0.080794  -0.009050   0.453249
     4  C   -0.505066   0.347399   0.080794  10.775146  -1.154206  -3.262361
     5  C   -0.000075  -0.083961  -0.009050  -1.154206   6.309823   0.501503
     6  C    0.049294  -0.156304   0.453249  -3.262361   0.501503   8.826104
     7  C    0.182428   0.007407  -0.046317  -0.311946   0.061333  -0.241773
     8  C   -0.093107  -0.000290   0.025091  -0.085059   0.018862  -0.029068
     9  H    0.012855  -0.097166  -0.013342   0.551106  -0.165344  -0.124044
    10  H   -0.001202   0.025496  -0.000021  -0.176395   0.439316   0.102759
    11  H    0.005391  -0.014972   0.001792  -0.108766   0.464574  -0.002189
    12  H   -0.003515  -0.030306  -0.003098   0.300066   0.269639  -0.199271
    13  H   -0.045869   0.000129  -0.013879  -0.014010  -0.013210   0.018465
    14  H   -0.039022   0.000119  -0.013858  -0.029852   0.005512   0.017159
    15  H    0.021082   0.000022   0.001888   0.004195   0.000470  -0.005110
    16  H   -0.010010  -0.000023  -0.000913  -0.002264   0.001614   0.004303
    17  H   -0.011428  -0.000179  -0.000757   0.013808  -0.004587   0.001531
    18  H    0.002942   0.239804  -0.003234  -0.012753  -0.017286   0.027862
               7          8          9         10         11         12
     1  O    0.182428  -0.093107   0.012855  -0.001202   0.005391  -0.003515
     2  O    0.007407  -0.000290  -0.097166   0.025496  -0.014972  -0.030306
     3  O   -0.046317   0.025091  -0.013342  -0.000021   0.001792  -0.003098
     4  C   -0.311946  -0.085059   0.551106  -0.176395  -0.108766   0.300066
     5  C    0.061333   0.018862  -0.165344   0.439316   0.464574   0.269639
     6  C   -0.241773  -0.029068  -0.124044   0.102759  -0.002189  -0.199271
     7  C    6.082173  -0.195214  -0.004761   0.002763   0.002927  -0.002458
     8  C   -0.195214   6.064307  -0.000413  -0.008604   0.001164  -0.000923
     9  H   -0.004761  -0.000413   0.514227  -0.013163  -0.012184   0.010429
    10  H    0.002763  -0.008604  -0.013163   0.530037  -0.030628  -0.063443
    11  H    0.002927   0.001164  -0.012184  -0.030628   0.474454  -0.029620
    12  H   -0.002458  -0.000923   0.010429  -0.063443  -0.029620   0.538810
    13  H    0.428054  -0.070508   0.002717   0.001620  -0.000422  -0.000526
    14  H    0.443411  -0.083909  -0.001069   0.000781  -0.000204  -0.000675
    15  H   -0.055528   0.419457  -0.000156  -0.000330   0.000144   0.000144
    16  H   -0.033223   0.390120  -0.001815   0.000510  -0.000006  -0.000096
    17  H   -0.047213   0.395049   0.001920  -0.002845  -0.000017   0.000779
    18  H    0.007672   0.001733   0.019567  -0.001728   0.002652  -0.011532
              13         14         15         16         17         18
     1  O   -0.045869  -0.039022   0.021082  -0.010010  -0.011428   0.002942
     2  O    0.000129   0.000119   0.000022  -0.000023  -0.000179   0.239804
     3  O   -0.013879  -0.013858   0.001888  -0.000913  -0.000757  -0.003234
     4  C   -0.014010  -0.029852   0.004195  -0.002264   0.013808  -0.012753
     5  C   -0.013210   0.005512   0.000470   0.001614  -0.004587  -0.017286
     6  C    0.018465   0.017159  -0.005110   0.004303   0.001531   0.027862
     7  C    0.428054   0.443411  -0.055528  -0.033223  -0.047213   0.007672
     8  C   -0.070508  -0.083909   0.419457   0.390120   0.395049   0.001733
     9  H    0.002717  -0.001069  -0.000156  -0.001815   0.001920   0.019567
    10  H    0.001620   0.000781  -0.000330   0.000510  -0.002845  -0.001728
    11  H   -0.000422  -0.000204   0.000144  -0.000006  -0.000017   0.002652
    12  H   -0.000526  -0.000675   0.000144  -0.000096   0.000779  -0.011532
    13  H    0.523485  -0.056550  -0.006078   0.010165  -0.015637  -0.000629
    14  H   -0.056550   0.515395  -0.006472  -0.014251   0.010402   0.000568
    15  H   -0.006078  -0.006472   0.500704  -0.035004  -0.035248   0.000026
    16  H    0.010165  -0.014251  -0.035004   0.530227  -0.055207  -0.000128
    17  H   -0.015637   0.010402  -0.035248  -0.055207   0.539599  -0.000016
    18  H   -0.000629   0.000568   0.000026  -0.000128  -0.000016   0.458410
 Mulliken charges:
               1
     1  O    0.053194
     2  O   -0.181279
     3  O   -0.226940
     4  C   -0.409837
     5  C   -0.624928
     6  C    0.017890
     7  C   -0.279735
     8  C   -0.748688
     9  H    0.320634
    10  H    0.195077
    11  H    0.245912
    12  H    0.225595
    13  H    0.252682
    14  H    0.252512
    15  H    0.195795
    16  H    0.216002
    17  H    0.210046
    18  H    0.286070
 Sum of Mulliken charges =  -0.00000
 Mulliken charges with hydrogens summed into heavy atoms:
               1
     1  O    0.053194
     2  O    0.104791
     3  O   -0.226940
     4  C   -0.089204
     5  C    0.041655
     6  C    0.017890
     7  C    0.225459
     8  C   -0.126845
 Electronic spatial extent (au):  <R**2>=           1260.5441
 Charge=              0.0000 electrons
 Dipole moment (field-independent basis, Debye):
    X=              2.0220    Y=              2.4937    Z=              0.8510  Tot=              3.3214
 Quadrupole moment (field-independent basis, Debye-Ang):
   XX=            -46.9625   YY=            -54.1877   ZZ=            -47.4487
   XY=             -4.1293   XZ=             -3.7550   YZ=              0.0932
 Traceless Quadrupole moment (field-independent basis, Debye-Ang):
   XX=              2.5705   YY=             -4.6548   ZZ=              2.0843
   XY=             -4.1293   XZ=             -3.7550   YZ=              0.0932
 Octapole moment (field-independent basis, Debye-Ang**2):
  XXX=             21.3789  YYY=              5.9173  ZZZ=             -1.3614  XYY=             -1.0642
  XXY=             -0.3860  XXZ=             15.1984  XZZ=             -4.3936  YZZ=             -1.5176
  YYZ=             -1.8641  XYZ=              4.4321
 Hexadecapole moment (field-independent basis, Debye-Ang**3):
 XXXX=          -1217.7621 YYYY=           -343.3020 ZZZZ=           -102.3745 XXXY=             -9.9033
 XXXZ=            -39.8637 YYYX=             -0.0459 YYYZ=              2.5381 ZZZX=              0.0836
 ZZZY=             -4.3900 XXYY=           -252.4659 XXZZ=           -215.9674 YYZZ=            -73.6516
 XXYZ=            -13.8992 YYXZ=             -1.7134 ZZXY=              1.8599
 N-N= 3.971270347811D+02 E-N=-1.782266147650D+03  KE= 4.203518377421D+02
 R6APFD:  NTU= -4 IXU= 1 FactS= 1.050
 Calling FoFJK, ICntrl=      2127 FMM=F ISym2X=0 I1Cent= 0 IOpClX= 0 NMat=1 NMatS=1 NMatT=0.
 ***** Axes restored to original set *****
 -------------------------------------------------------------------
 Center     Atomic                   Forces (Hartrees/Bohr)
 Number     Number              X              Y              Z
 -------------------------------------------------------------------
      1        8          -0.015442594    0.015435456   -0.005136090
      2        8           0.000382035   -0.000745541   -0.001177348
      3        8           0.009056182   -0.044933835    0.010211325
      4        6          -0.021724031    0.010756016   -0.014700811
      5        6           0.007060227   -0.012615954   -0.000390960
      6        6           0.015939308    0.026654052   -0.003116859
      7        6           0.008033031    0.000930720   -0.000994345
      8        6          -0.004022873   -0.008237546    0.003120213
      9        1          -0.000374862    0.000398650    0.001571244
     10        1           0.001111670   -0.000611651   -0.000857718
     11        1           0.000205957    0.001611457    0.002768570
     12        1           0.001427783    0.002618842   -0.001358114
     13        1          -0.003659852    0.003763562   -0.000192489
     14        1          -0.003907709    0.003187942   -0.001718685
     15        1           0.000095356    0.001175642   -0.000401432
     16        1           0.001192294    0.001014142    0.001366585
     17        1           0.001003000   -0.000187983   -0.001891846
     18        1           0.003625080   -0.000213971    0.012898758
 -------------------------------------------------------------------
 Cartesian Forces:  Max     0.044933835 RMS     0.009746798

 GradGradGradGradGradGradGradGradGradGradGradGradGradGradGradGradGradGrad
 Berny optimization.
 FormGI is forming the generalized inverse of G from B-inverse, IUseBI=4.
 Internal  Forces:  Max     0.046117045 RMS     0.007009822
 Search for a local minimum.
 Step number   1 out of a maximum of   88
 All quantities printed in internal units (Hartrees-Bohrs-Radians)
 Mixed Optimization -- RFO/linear search
 Second derivative matrix not updated -- first step.
 ITU=  0
     Eigenvalues ---    0.00518   0.00564   0.00582   0.00971   0.01279
     Eigenvalues ---    0.01438   0.02148   0.04918   0.05368   0.05537
     Eigenvalues ---    0.05648   0.05662   0.05681   0.05785   0.05999
     Eigenvalues ---    0.08122   0.11217   0.13682   0.16000   0.16000
     Eigenvalues ---    0.16000   0.16000   0.16000   0.16000   0.16000
     Eigenvalues ---    0.17398   0.19632   0.22058   0.24996   0.25000
     Eigenvalues ---    0.25000   0.30489   0.30827   0.30961   0.34130
     Eigenvalues ---    0.34152   0.34161   0.34221   0.34232   0.34243
     Eigenvalues ---    0.34291   0.34341   0.34405   0.40817   0.42588
     Eigenvalues ---    0.51854   0.52846   0.93568
 RFO step:  Lambda=-1.09827587D-02 EMin= 5.18210457D-03
 Linear search not attempted -- first point.
 Iteration  1 RMS(Cart)=  0.06169469 RMS(Int)=  0.00237885
 Iteration  2 RMS(Cart)=  0.00391774 RMS(Int)=  0.00084802
 Iteration  3 RMS(Cart)=  0.00000697 RMS(Int)=  0.00084801
 Iteration  4 RMS(Cart)=  0.00000001 RMS(Int)=  0.00084801
 Variable       Old X    -DE/DX   Delta X   Delta X   Delta X     New X
                                 (Linear)    (Quad)   (Total)
    R1        2.58040  -0.02391   0.00000  -0.04515  -0.04515   2.53525
    R2        2.70458  -0.00017   0.00000  -0.00041  -0.00041   2.70417
    R3        2.68181  -0.00479   0.00000  -0.01097  -0.01097   2.67084
    R4        1.83797  -0.01296   0.00000  -0.02403  -0.02403   1.81395
    R5        2.31331  -0.04612   0.00000  -0.04872  -0.04872   2.26459
    R6        2.86998   0.00589   0.00000   0.01863   0.01863   2.88861
    R7        2.86344   0.00568   0.00000   0.01778   0.01778   2.88121
    R8        2.06758   0.00136   0.00000   0.00385   0.00385   2.07143
    R9        2.06842   0.00116   0.00000   0.00328   0.00328   2.07170
   R10        2.06960  -0.00037   0.00000  -0.00104  -0.00104   2.06856
   R11        2.07112   0.00196   0.00000   0.00556   0.00556   2.07668
   R12        2.86086   0.00296   0.00000   0.00925   0.00925   2.87011
   R13        2.07059   0.00126   0.00000   0.00356   0.00356   2.07415
   R14        2.07074   0.00119   0.00000   0.00339   0.00339   2.07413
   R15        2.06651   0.00068   0.00000   0.00191   0.00191   2.06843
   R16        2.06941   0.00100   0.00000   0.00283   0.00283   2.07224
   R17        2.06921   0.00113   0.00000   0.00320   0.00320   2.07241
    A1        2.01646  -0.00279   0.00000  -0.01071  -0.01071   2.00575
    A2        1.88837  -0.00020   0.00000  -0.00119  -0.00119   1.88718
    A3        1.88682   0.01171   0.00000   0.08545   0.08526   1.97208
    A4        1.89660   0.00224   0.00000   0.03785   0.03709   1.93369
    A5        1.88124  -0.00621   0.00000  -0.04657  -0.04547   1.83578
    A6        1.94432  -0.00870   0.00000  -0.02665  -0.02928   1.91504
    A7        1.94853  -0.00082   0.00000  -0.02615  -0.02646   1.92207
    A8        1.90452   0.00200   0.00000  -0.02184  -0.02269   1.88183
    A9        1.94685   0.00182   0.00000   0.01047   0.01052   1.95737
   A10        1.93025  -0.00380   0.00000  -0.02130  -0.02136   1.90889
   A11        1.93920  -0.00279   0.00000  -0.01708  -0.01715   1.92205
   A12        1.89475   0.00127   0.00000   0.00881   0.00887   1.90362
   A13        1.88346   0.00029   0.00000   0.00001   0.00005   1.88351
   A14        1.86662   0.00344   0.00000   0.02049   0.02031   1.88692
   A15        2.19563  -0.01190   0.00000  -0.04472  -0.04714   2.14850
   A16        1.91411   0.00563   0.00000   0.02240   0.01984   1.93394
   A17        2.17322   0.00632   0.00000   0.02499   0.02225   2.19547
   A18        1.90263  -0.00558   0.00000  -0.02289  -0.02256   1.88007
   A19        1.91045  -0.00063   0.00000  -0.01402  -0.01378   1.89667
   A20        1.91056  -0.00078   0.00000  -0.01543  -0.01518   1.89538
   A21        1.91523   0.00545   0.00000   0.03842   0.03801   1.95324
   A22        1.91543   0.00556   0.00000   0.03891   0.03849   1.95392
   A23        1.90949  -0.00404   0.00000  -0.02515  -0.02630   1.88319
   A24        1.93665  -0.00217   0.00000  -0.01811  -0.01813   1.91852
   A25        1.93043   0.00072   0.00000   0.00685   0.00676   1.93719
   A26        1.93035   0.00077   0.00000   0.00721   0.00712   1.93747
   A27        1.89967   0.00000   0.00000  -0.00518  -0.00520   1.89447
   A28        1.89983  -0.00002   0.00000  -0.00519  -0.00521   1.89463
   A29        1.86511   0.00079   0.00000   0.01533   0.01517   1.88028
    D1       -0.00004   0.00129   0.00000   0.06040   0.05798   0.05794
    D2       -3.11964  -0.00163   0.00000  -0.07093  -0.06851   3.09504
    D3       -3.14159   0.00001   0.00000  -0.00054  -0.00054   3.14106
    D4       -1.04657   0.00288   0.00000   0.02397   0.02386  -1.02271
    D5        1.04627  -0.00292   0.00000  -0.02481  -0.02470   1.02157
    D6       -0.96604  -0.00052   0.00000  -0.09469  -0.09676  -1.06279
    D7        1.14658  -0.00279   0.00000  -0.05420  -0.05230   1.09428
    D8       -3.07483  -0.00264   0.00000  -0.08536  -0.08519   3.12317
    D9       -3.07509   0.00161   0.00000   0.02420   0.02434  -3.05075
   D10       -0.96449   0.00185   0.00000   0.02784   0.02791  -0.93658
   D11        1.10570   0.00191   0.00000   0.02877   0.02896   1.13466
   D12        1.12539  -0.00338   0.00000  -0.06053  -0.06028   1.06511
   D13       -3.04719  -0.00314   0.00000  -0.05689  -0.05671  -3.10390
   D14       -0.97700  -0.00308   0.00000  -0.05596  -0.05566  -1.03266
   D15       -1.00874   0.00086   0.00000   0.00546   0.00509  -1.00365
   D16        1.10187   0.00110   0.00000   0.00910   0.00865   1.11052
   D17       -3.11113   0.00117   0.00000   0.01003   0.00971  -3.10143
   D18        3.08145  -0.00484   0.00000  -0.04431  -0.04348   3.03797
   D19       -0.03849  -0.00743   0.00000  -0.17250  -0.17307  -0.21155
   D20       -1.12486   0.00576   0.00000   0.06893   0.06916  -1.05571
   D21        2.03839   0.00317   0.00000  -0.05926  -0.06043   1.97796
   D22        1.03446   0.00022   0.00000   0.00228   0.00332   1.03778
   D23       -2.08548  -0.00237   0.00000  -0.12591  -0.12626  -2.21174
   D24        3.14132   0.00004   0.00000   0.00065   0.00065  -3.14122
   D25       -1.03176  -0.00092   0.00000  -0.01338  -0.01342  -1.04518
   D26        1.03106   0.00099   0.00000   0.01444   0.01448   1.04554
   D27        1.04925   0.00094   0.00000   0.00859   0.00894   1.05819
   D28       -3.12383  -0.00003   0.00000  -0.00544  -0.00513  -3.12896
   D29       -1.06101   0.00189   0.00000   0.02239   0.02277  -1.03824
   D30       -1.04955  -0.00096   0.00000  -0.00872  -0.00907  -1.05862
   D31        1.06056  -0.00193   0.00000  -0.02275  -0.02314   1.03742
   D32        3.12338  -0.00001   0.00000   0.00507   0.00476   3.12814
         Item               Value     Threshold  Converged?
 Maximum Force            0.046117     0.000450     NO 
 RMS     Force            0.007010     0.000300     NO 
 Maximum Displacement     0.198105     0.001800     NO 
 RMS     Displacement     0.062787     0.001200     NO 
 Predicted change in Energy=-6.190212D-03
 GradGradGradGradGradGradGradGradGradGradGradGradGradGradGradGradGradGrad

                          Input orientation:                          
 ---------------------------------------------------------------------
 Center     Atomic      Atomic             Coordinates (Angstroms)
 Number     Number       Type             X           Y           Z
 ---------------------------------------------------------------------
      1          8           0        0.865397   -0.293013    0.223190
      2          8           0       -2.644686    0.447630    0.325223
      3          8           0       -0.226374    1.544999   -0.426175
      4          6           0       -1.489908   -0.365328    0.381276
      5          6           0       -1.574713   -1.586904   -0.533680
      6          6           0       -0.241815    0.443439    0.045438
      7          6           0        2.088425    0.363268   -0.124966
      8          6           0        3.225634   -0.608453    0.138198
      9          1           0       -1.412627   -0.682483    1.427695
     10          1           0       -0.713955   -2.254885   -0.412160
     11          1           0       -2.492117   -2.142148   -0.313917
     12          1           0       -1.610839   -1.269901   -1.585277
     13          1           0        2.039600    0.660505   -1.180416
     14          1           0        2.180269    1.275470    0.478474
     15          1           0        4.182059   -0.141134   -0.116625
     16          1           0        3.252612   -0.905084    1.193552
     17          1           0        3.111383   -1.519212   -0.461931
     18          1           0       -2.743745    0.764033   -0.575601
 ---------------------------------------------------------------------
                    Distance matrix (angstroms):
                    1          2          3          4          5
     1  O    0.000000
     2  O    3.588821   0.000000
     3  O    2.234261   2.759900   0.000000
     4  C    2.361712   1.413348   2.428548   0.000000
     5  C    2.863764   2.453953   3.411509   1.528589   0.000000
     6  C    1.341594   2.419108   1.198370   1.524673   2.496856
     7  C    1.430985   4.755221   2.616393   3.686679   4.169988
     8  C    2.382739   5.967490   4.107582   4.728058   4.944909
     9  H    2.606129   2.002640   3.131406   1.096153   2.165928
    10  H    2.597492   3.402212   3.831064   2.191363   1.096299
    11  H    3.870488   2.671840   4.329115   2.155180   1.094633
    12  H    3.218168   2.769254   3.344237   2.167997   1.098933
    13  H    2.063507   4.924916   2.546732   3.993575   4.304924
    14  H    2.062570   4.897856   2.585144   4.021426   4.828823
    15  H    3.337483   6.866318   4.730026   5.698191   5.950178
    16  H    2.648591   6.112443   4.552996   4.841759   5.172164
    17  H    2.649040   6.133548   4.531146   4.818125   4.687134
    18  H    3.844648   0.959900   2.639961   1.939891   2.625890
                    6          7          8          9         10
     6  C    0.000000
     7  C    2.337838   0.000000
     8  C    3.624677   1.518796   0.000000
     9  H    2.132870   3.970103   4.814743   0.000000
    10  H    2.777277   3.845848   4.305113   2.519059   0.000000
    11  H    3.446484   5.224383   5.937112   2.515777   1.784439
    12  H    2.732946   4.299338   5.176809   3.076094   1.775049
    13  H    2.598979   1.097593   2.180751   4.530312   4.083109
    14  H    2.597362   1.097582   2.181224   4.200417   4.651147
    15  H    4.465272   2.153554   1.094564   5.829108   5.340996
    16  H    3.917615   2.168534   1.096581   4.676412   4.487085
    17  H    3.918336   2.168806   1.096673   4.973678   3.895755
    18  H    2.597715   4.869657   6.166580   2.806685   3.641515
                   11         12         13         14         15
    11  H    0.000000
    12  H    1.775900   0.000000
    13  H    5.398346   4.149226   0.000000
    14  H    5.842874   5.011036   1.774792   0.000000
    15  H    6.970481   6.081836   2.522778   2.523504   0.000000
    16  H    6.066688   5.613211   3.091633   2.532997   1.778779
    17  H    5.639962   4.860395   2.533003   3.092180   1.778956
    18  H    2.928767   2.537678   4.822542   5.061478   6.999768
                   16         17         18
    16  H    0.000000
    17  H    1.771362   0.000000
    18  H    6.470870   6.285591   0.000000
 Stoichiometry    C5H10O3
 Framework group  C1[X(C5H10O3)]
 Deg. of freedom    48
 Full point group                 C1      NOp   1
 Largest Abelian subgroup         C1      NOp   1
 Largest concise Abelian subgroup C1      NOp   1
                         Standard orientation:                         
 ---------------------------------------------------------------------
 Center     Atomic      Atomic             Coordinates (Angstroms)
 Number     Number       Type             X           Y           Z
 ---------------------------------------------------------------------
      1          8           0        0.839472    0.240521   -0.236965
      2          8           0       -2.669968   -0.500173   -0.358803
      3          8           0       -0.258510   -1.588621    0.426814
      4          6           0       -1.514398    0.311604   -0.415644
      5          6           0       -1.606293    1.544866    0.482801
      6          6           0       -0.269517   -0.493207   -0.059025
      7          6           0        2.059255   -0.411650    0.129802
      8          6           0        3.199058    0.556220   -0.136312
      9          1           0       -1.428238    0.615258   -1.465369
     10          1           0       -0.744250    2.210936    0.359907
     11          1           0       -2.521579    2.097553    0.248264
     12          1           0       -1.651342    1.241415    1.538046
     13          1           0        2.001483   -0.695281    1.188539
     14          1           0        2.155726   -1.331562   -0.461080
     15          1           0        4.153112    0.091888    0.132477
     16          1           0        3.234983    0.839256   -1.195127
     17          1           0        3.080208    1.474655    0.451091
     18          1           0       -2.776690   -0.804938    0.545153
 ---------------------------------------------------------------------
 Rotational constants (GHZ):           4.2086507           1.1370333           0.9615480
 Standard basis: 6-311++G(d,p) (5D, 7F)
 There are   254 symmetry adapted cartesian basis functions of A   symmetry.
 There are   246 symmetry adapted basis functions of A   symmetry.
   246 basis functions,   378 primitive gaussians,   254 cartesian basis functions
    32 alpha electrons       32 beta electrons
       nuclear repulsion energy       399.0007015938 Hartrees.
 NAtoms=   18 NActive=   18 NUniq=   18 SFac= 1.00D+00 NAtFMM=   60 NAOKFM=F Big=F
 Integral buffers will be    131072 words long.
 Raffenetti 2 integral format.
 Two-electron integral symmetry is turned on.
 R6APFD:  NTU= -4 IXU= 1 FactS= 1.050
 Nuclear repulsion after empirical dispersion term =      398.9893785382 Hartrees.
 One-electron integrals computed using PRISM.
 NBasis=   246 RedAO= T EigKep=  1.39D-05  NBF=   246
 NBsUse=   246 1.00D-06 EigRej= -1.00D+00 NBFU=   246
 Initial guess from the checkpoint file:  "ETLA0039.chk"
 B after Tr=    -0.000000    0.000000    0.000000
         Rot=    0.999986    0.004046   -0.003066    0.001503 Ang=   0.61 deg.
 ExpMin= 3.60D-02 ExpMax= 8.59D+03 ExpMxC= 1.30D+03 IAcc=3 IRadAn=         5 AccDes= 0.00D+00
 Harris functional with IExCor= 1009 and IRadAn=       5 diagonalized for initial guess.
 HarFok:  IExCor= 1009 AccDes= 0.00D+00 IRadAn=         5 IDoV= 1 UseB2=F ITyADJ=14
 ICtDFT=  3500011 ScaDFX=  1.000000  1.000000  1.000000  1.000000
 FoFCou: FMM=F IPFlag=           0 FMFlag=      100000 FMFlg1=           0
         NFxFlg=           0 DoJE=T BraDBF=F KetDBF=T FulRan=T
         wScrn=  0.000000 ICntrl=       500 IOpCl=  0 I1Cent=   200000004 NGrid=           0
         NMat0=    1 NMatS0=      1 NMatT0=    0 NMatD0=    1 NMtDS0=    0 NMtDT0=    0
 Petite list used in FoFCou.
 Requested convergence on RMS density matrix=1.00D-08 within  32 cycles.
 Requested convergence on MAX density matrix=1.00D-06.
 Requested convergence on             energy=1.00D-06.
 No special actions if energy rises.
 SCF Done:  E(RM08HX) =  -422.226023174     A.U. after   12 cycles
            NFock= 12  Conv=0.67D-08     -V/T= 2.0041
 QCSCF skips out because SCF is already converged.
 R6APFD:  NTU= -4 IXU= 1 FactS= 1.050
 Calling FoFJK, ICntrl=      2127 FMM=F ISym2X=0 I1Cent= 0 IOpClX= 0 NMat=1 NMatS=1 NMatT=0.
 ***** Axes restored to original set *****
 -------------------------------------------------------------------
 Center     Atomic                   Forces (Hartrees/Bohr)
 Number     Number              X              Y              Z
 -------------------------------------------------------------------
      1        8          -0.003358287    0.000145001    0.004955153
      2        8           0.004043927   -0.006048437   -0.001356314
      3        8          -0.004909754    0.004406357    0.001532365
      4        6          -0.005728679    0.005353214    0.005838996
      5        6          -0.000590239   -0.001864875   -0.002631830
      6        6           0.005774938   -0.006386420   -0.010084993
      7        6           0.005383736   -0.002187391    0.000318612
      8        6          -0.002505920   -0.000666397    0.000624858
      9        1           0.001127808   -0.001479362    0.000950648
     10        1          -0.000260624    0.002054688    0.001127061
     11        1          -0.000156629    0.000119699    0.000283226
     12        1          -0.000056535    0.000082520   -0.000154415
     13        1          -0.000182967    0.000771274    0.000177931
     14        1          -0.000021476    0.000518464   -0.000758414
     15        1           0.000710484   -0.000041323   -0.000079402
     16        1          -0.000039099    0.001015879   -0.000258482
     17        1          -0.000071203    0.000961918   -0.000492618
     18        1           0.000840519    0.003245190    0.000007620
 -------------------------------------------------------------------
 Cartesian Forces:  Max     0.010084993 RMS     0.002997697

 GradGradGradGradGradGradGradGradGradGradGradGradGradGradGradGradGradGrad
 Berny optimization.
 Using GEDIIS/GDIIS optimizer.
 FormGI is forming the generalized inverse of G from B-inverse, IUseBI=4.
 Internal  Forces:  Max     0.006458197 RMS     0.001710212
 Search for a local minimum.
 Step number   2 out of a maximum of   88
 All quantities printed in internal units (Hartrees-Bohrs-Radians)
 Mixed Optimization -- RFO/linear search
 Update second derivatives using D2CorX and points    1    2
 DE= -5.13D-03 DEPred=-6.19D-03 R= 8.28D-01
 TightC=F SS=  1.41D+00  RLast= 3.57D-01 DXNew= 5.0454D-01 1.0708D+00
 Trust test= 8.28D-01 RLast= 3.57D-01 DXMaxT set to 5.05D-01
 ITU=  1  0
 Use linear search instead of GDIIS.
     Eigenvalues ---    0.00518   0.00552   0.00582   0.01161   0.01279
     Eigenvalues ---    0.01413   0.02147   0.05287   0.05387   0.05453
     Eigenvalues ---    0.05563   0.05676   0.05738   0.05773   0.05863
     Eigenvalues ---    0.08043   0.11148   0.13630   0.15742   0.16000
     Eigenvalues ---    0.16000   0.16000   0.16000   0.16000   0.16237
     Eigenvalues ---    0.17486   0.19531   0.21794   0.24896   0.24977
     Eigenvalues ---    0.27523   0.30365   0.30744   0.31211   0.34109
     Eigenvalues ---    0.34149   0.34159   0.34221   0.34235   0.34248
     Eigenvalues ---    0.34309   0.34381   0.34407   0.40862   0.42121
     Eigenvalues ---    0.51450   0.52922   0.92837
 RFO step:  Lambda=-3.20099499D-03 EMin= 5.18290491D-03
 Quartic linear search produced a step of -0.08149.
 Iteration  1 RMS(Cart)=  0.12022382 RMS(Int)=  0.00619603
 Iteration  2 RMS(Cart)=  0.01277397 RMS(Int)=  0.00145622
 Iteration  3 RMS(Cart)=  0.00009997 RMS(Int)=  0.00145545
 Iteration  4 RMS(Cart)=  0.00000009 RMS(Int)=  0.00145545
 Variable       Old X    -DE/DX   Delta X   Delta X   Delta X     New X
                                 (Linear)    (Quad)   (Total)
    R1        2.53525   0.00024   0.00368  -0.01704  -0.01336   2.52189
    R2        2.70417   0.00308   0.00003   0.00666   0.00670   2.71087
    R3        2.67084  -0.00555   0.00089  -0.01602  -0.01513   2.65571
    R4        1.81395   0.00097   0.00196  -0.00762  -0.00566   1.80829
    R5        2.26459   0.00338   0.00397  -0.01554  -0.01157   2.25303
    R6        2.88861   0.00058  -0.00152   0.00891   0.00739   2.89601
    R7        2.88121   0.00076  -0.00145   0.00909   0.00764   2.88886
    R8        2.07143   0.00141  -0.00031   0.00521   0.00489   2.07632
    R9        2.07170  -0.00133  -0.00027  -0.00223  -0.00250   2.06920
   R10        2.06856   0.00013   0.00008  -0.00007   0.00002   2.06857
   R11        2.07668   0.00018  -0.00045   0.00262   0.00217   2.07885
   R12        2.87011  -0.00228  -0.00075  -0.00305  -0.00380   2.86631
   R13        2.07415   0.00004  -0.00029   0.00150   0.00120   2.07535
   R14        2.07413   0.00001  -0.00028   0.00135   0.00107   2.07520
   R15        2.06843   0.00062  -0.00016   0.00237   0.00221   2.07064
   R16        2.07224  -0.00052  -0.00023  -0.00029  -0.00052   2.07172
   R17        2.07241  -0.00052  -0.00026  -0.00014  -0.00040   2.07201
    A1        2.00575   0.00504   0.00087   0.01400   0.01487   2.02062
    A2        1.88718   0.00167   0.00010   0.00888   0.00897   1.89616
    A3        1.97208   0.00046  -0.00695   0.03059   0.02371   1.99580
    A4        1.93369  -0.00066  -0.00302   0.00612   0.00326   1.93695
    A5        1.83578   0.00065   0.00371  -0.00569  -0.00204   1.83374
    A6        1.91504  -0.00098   0.00239  -0.02040  -0.01787   1.89717
    A7        1.92207  -0.00036   0.00216  -0.01149  -0.00939   1.91268
    A8        1.88183   0.00099   0.00185   0.00026   0.00202   1.88385
    A9        1.95737  -0.00286  -0.00086  -0.01343  -0.01434   1.94303
   A10        1.90889   0.00007   0.00174  -0.00727  -0.00555   1.90334
   A11        1.92205   0.00054   0.00140  -0.00275  -0.00137   1.92068
   A12        1.90362   0.00121  -0.00072   0.00844   0.00765   1.91127
   A13        1.88351   0.00103  -0.00000   0.00448   0.00444   1.88795
   A14        1.88692   0.00012  -0.00165   0.01171   0.01008   1.89700
   A15        2.14850   0.00646   0.00384   0.01265   0.00905   2.15754
   A16        1.93394  -0.00110  -0.00162   0.01092   0.00196   1.93590
   A17        2.19547  -0.00501  -0.00181  -0.00272  -0.01180   2.18367
   A18        1.88007  -0.00137   0.00184  -0.01365  -0.01178   1.86828
   A19        1.89667   0.00028   0.00112  -0.00488  -0.00372   1.89295
   A20        1.89538   0.00055   0.00124  -0.00282  -0.00155   1.89383
   A21        1.95324   0.00079  -0.00310   0.01885   0.01574   1.96898
   A22        1.95392   0.00058  -0.00314   0.01822   0.01507   1.96899
   A23        1.88319  -0.00082   0.00214  -0.01664  -0.01455   1.86864
   A24        1.91852   0.00064   0.00148  -0.00459  -0.00312   1.91540
   A25        1.93719  -0.00069  -0.00055  -0.00062  -0.00117   1.93601
   A26        1.93747  -0.00077  -0.00058  -0.00107  -0.00165   1.93582
   A27        1.89447  -0.00009   0.00042  -0.00341  -0.00300   1.89147
   A28        1.89463  -0.00009   0.00042  -0.00376  -0.00335   1.89128
   A29        1.88028   0.00103  -0.00124   0.01363   0.01240   1.89269
    D1        0.05794  -0.00180  -0.00473  -0.11520  -0.12074  -0.06280
    D2        3.09504   0.00124   0.00558   0.09027   0.09667  -3.09147
    D3        3.14106  -0.00010   0.00004  -0.00377  -0.00373   3.13732
    D4       -1.02271   0.00021  -0.00194   0.00804   0.00611  -1.01660
    D5        1.02157  -0.00031   0.00201  -0.01602  -0.01402   1.00755
    D6       -1.06279  -0.00121   0.00789  -0.12346  -0.11544  -1.17824
    D7        1.09428  -0.00265   0.00426  -0.12301  -0.11883   0.97545
    D8        3.12317  -0.00145   0.00694  -0.12288  -0.11599   3.00717
    D9       -3.05075  -0.00072  -0.00198  -0.00516  -0.00719  -3.05793
   D10       -0.93658  -0.00103  -0.00227  -0.00831  -0.01060  -0.94717
   D11        1.13466  -0.00051  -0.00236  -0.00008  -0.00249   1.13218
   D12        1.06511   0.00053   0.00491  -0.01979  -0.01483   1.05029
   D13       -3.10390   0.00023   0.00462  -0.02294  -0.01824  -3.12214
   D14       -1.03266   0.00075   0.00454  -0.01471  -0.01013  -1.04279
   D15       -1.00365   0.00014  -0.00041  -0.00065  -0.00111  -1.00476
   D16        1.11052  -0.00016  -0.00070  -0.00380  -0.00452   1.10600
   D17       -3.10143   0.00036  -0.00079   0.00443   0.00359  -3.09784
   D18        3.03797  -0.00231   0.00354  -0.22696  -0.22290   2.81507
   D19       -0.21155   0.00168   0.01410  -0.01357   0.00000  -0.21155
   D20       -1.05571  -0.00289  -0.00564  -0.19804  -0.20311  -1.25882
   D21        1.97796   0.00111   0.00492   0.01535   0.01978   1.99774
   D22        1.03778  -0.00330  -0.00027  -0.22355  -0.22333   0.81445
   D23       -2.21174   0.00070   0.01029  -0.01016  -0.00044  -2.21218
   D24       -3.14122  -0.00009  -0.00005  -0.00094  -0.00099   3.14097
   D25       -1.04518  -0.00022   0.00109  -0.00860  -0.00751  -1.05268
   D26        1.04554   0.00011  -0.00118   0.00745   0.00626   1.05180
   D27        1.05819  -0.00003  -0.00073   0.00263   0.00193   1.06012
   D28       -3.12896  -0.00016   0.00042  -0.00503  -0.00458  -3.13354
   D29       -1.03824   0.00017  -0.00186   0.01102   0.00918  -1.02905
   D30       -1.05862   0.00006   0.00074  -0.00237  -0.00165  -1.06027
   D31        1.03742  -0.00008   0.00189  -0.01003  -0.00816   1.02926
   D32        3.12814   0.00025  -0.00039   0.00602   0.00560   3.13374
         Item               Value     Threshold  Converged?
 Maximum Force            0.006458     0.000450     NO 
 RMS     Force            0.001710     0.000300     NO 
 Maximum Displacement     0.399501     0.001800     NO 
 RMS     Displacement     0.128482     0.001200     NO 
 Predicted change in Energy=-1.988556D-03
 GradGradGradGradGradGradGradGradGradGradGradGradGradGradGradGradGradGrad

                          Input orientation:                          
 ---------------------------------------------------------------------
 Center     Atomic      Atomic             Coordinates (Angstroms)
 Number     Number       Type             X           Y           Z
 ---------------------------------------------------------------------
      1          8           0        0.890119   -0.304938    0.166782
      2          8           0       -2.577480    0.435818    0.472101
      3          8           0       -0.240541    1.486583   -0.523372
      4          6           0       -1.461234   -0.409729    0.353647
      5          6           0       -1.666218   -1.598075   -0.592068
      6          6           0       -0.228534    0.371653   -0.101177
      7          6           0        2.116701    0.363362   -0.159936
      8          6           0        3.248160   -0.569644    0.227278
      9          1           0       -1.272183   -0.777425    1.371633
     10          1           0       -0.800413   -2.268347   -0.582833
     11          1           0       -2.559437   -2.150463   -0.283415
     12          1           0       -1.811688   -1.239714   -1.621917
     13          1           0        2.108468    0.600640   -1.232196
     14          1           0        2.148202    1.318391    0.381225
     15          1           0        4.210744   -0.100578   -0.005205
     16          1           0        3.222377   -0.792052    1.300479
     17          1           0        3.182291   -1.514840   -0.324531
     18          1           0       -2.714735    0.880158   -0.364195
 ---------------------------------------------------------------------
                    Distance matrix (angstroms):
                    1          2          3          4          5
     1  O    0.000000
     2  O    3.558957   0.000000
     3  O    2.228060   2.748883   0.000000
     4  C    2.361093   1.405342   2.419763   0.000000
     5  C    2.963599   2.469731   3.398881   1.532502   0.000000
     6  C    1.334527   2.418742   1.192250   1.528716   2.487517
     7  C    1.434528   4.737093   2.636342   3.696357   4.283042
     8  C    2.373624   5.916838   4.118565   4.713803   5.087251
     9  H    2.520012   1.996225   3.127469   1.098743   2.164452
    10  H    2.697183   3.403434   3.796906   2.183607   1.094975
    11  H    3.938029   2.694434   4.320064   2.154542   1.094641
    12  H    3.372390   2.789042   3.332866   2.171301   1.100079
    13  H    2.064361   4.988978   2.608672   4.034664   4.415016
    14  H    2.064935   4.808250   2.559820   4.001898   4.899273
    15  H    3.331350   6.826091   4.754105   5.691720   6.093077
    16  H    2.638556   5.986002   4.528842   4.793628   5.303751
    17  H    2.638050   6.133078   4.556738   4.821153   4.856599
    18  H    3.831626   0.956905   2.552396   1.936588   2.700547
                    6          7          8          9         10
     6  C    0.000000
     7  C    2.345985   0.000000
     8  C    3.616811   1.516785   0.000000
     9  H    2.139803   3.889940   4.667572   0.000000
    10  H    2.743837   3.951491   4.464618   2.503069   0.000000
    11  H    3.439097   5.310444   6.040528   2.506280   1.788215
    12  H    2.723148   4.487703   5.428682   3.076706   1.777769
    13  H    2.606380   1.098230   2.190555   4.484171   4.136949
    14  H    2.603440   1.098148   2.190499   4.131875   4.742197
    15  H    4.465356   2.150395   1.095736   5.693531   5.490407
    16  H    3.902260   2.165713   1.096307   4.495148   4.680721
    17  H    3.904161   2.165691   1.096462   4.823183   4.061579
    18  H    2.551265   4.863288   6.165054   2.800292   3.691277
                   11         12         13         14         15
    11  H    0.000000
    12  H    1.783306   0.000000
    13  H    5.500735   4.348150   0.000000
    14  H    5.885283   5.122228   1.766317   0.000000
    15  H    7.079179   6.338855   2.533137   2.533156   0.000000
    16  H    6.146818   5.838032   3.097552   2.540246   1.777587
    17  H    5.776950   5.167082   2.540120   3.097520   1.777589
    18  H    3.035672   2.625113   4.908650   4.939216   7.003783
                   16         17         18
    16  H    0.000000
    17  H    1.778956   0.000000
    18  H    6.388797   6.364944   0.000000
 Stoichiometry    C5H10O3
 Framework group  C1[X(C5H10O3)]
 Deg. of freedom    48
 Full point group                 C1      NOp   1
 Largest Abelian subgroup         C1      NOp   1
 Largest concise Abelian subgroup C1      NOp   1
                         Standard orientation:                         
 ---------------------------------------------------------------------
 Center     Atomic      Atomic             Coordinates (Angstroms)
 Number     Number       Type             X           Y           Z
 ---------------------------------------------------------------------
      1          8           0        0.851568    0.253887   -0.189906
      2          8           0       -2.599432   -0.545486   -0.533093
      3          8           0       -0.256688   -1.555132    0.490880
      4          6           0       -1.498932    0.318880   -0.403638
      5          6           0       -1.734548    1.505286    0.537365
      6          6           0       -0.258565   -0.440905    0.066668
      7          6           0        2.085381   -0.393160    0.152013
      8          6           0        3.205378    0.558014   -0.224165
      9          1           0       -1.304503    0.687898   -1.420131
     10          1           0       -0.880047    2.189975    0.536641
     11          1           0       -2.633329    2.042063    0.217519
     12          1           0       -1.885698    1.146353    1.566196
     13          1           0        2.068929   -0.628649    1.224572
     14          1           0        2.139037   -1.348480   -0.386887
     15          1           0        4.172980    0.105577    0.020140
     16          1           0        3.188081    0.778064   -1.298022
     17          1           0        3.117406    1.502945    0.325011
     18          1           0       -2.738727   -0.990590    0.302459
 ---------------------------------------------------------------------
 Rotational constants (GHZ):           4.1716955           1.1212431           0.9634049
 Standard basis: 6-311++G(d,p) (5D, 7F)
 There are   254 symmetry adapted cartesian basis functions of A   symmetry.
 There are   246 symmetry adapted basis functions of A   symmetry.
   246 basis functions,   378 primitive gaussians,   254 cartesian basis functions
    32 alpha electrons       32 beta electrons
       nuclear repulsion energy       398.6601512633 Hartrees.
 NAtoms=   18 NActive=   18 NUniq=   18 SFac= 1.00D+00 NAtFMM=   60 NAOKFM=F Big=F
 Integral buffers will be    131072 words long.
 Raffenetti 2 integral format.
 Two-electron integral symmetry is turned on.
 R6APFD:  NTU= -4 IXU= 1 FactS= 1.050
 Nuclear repulsion after empirical dispersion term =      398.6489236495 Hartrees.
 One-electron integrals computed using PRISM.
 NBasis=   246 RedAO= T EigKep=  1.34D-05  NBF=   246
 NBsUse=   246 1.00D-06 EigRej= -1.00D+00 NBFU=   246
 Initial guess from the checkpoint file:  "ETLA0039.chk"
 B after Tr=     0.000000   -0.000000   -0.000000
         Rot=    0.999962   -0.000558    0.004346   -0.007499 Ang=  -1.00 deg.
 ExpMin= 3.60D-02 ExpMax= 8.59D+03 ExpMxC= 1.30D+03 IAcc=3 IRadAn=         5 AccDes= 0.00D+00
 Harris functional with IExCor= 1009 and IRadAn=       5 diagonalized for initial guess.
 HarFok:  IExCor= 1009 AccDes= 0.00D+00 IRadAn=         5 IDoV= 1 UseB2=F ITyADJ=14
 ICtDFT=  3500011 ScaDFX=  1.000000  1.000000  1.000000  1.000000
 FoFCou: FMM=F IPFlag=           0 FMFlag=      100000 FMFlg1=           0
         NFxFlg=           0 DoJE=T BraDBF=F KetDBF=T FulRan=T
         wScrn=  0.000000 ICntrl=       500 IOpCl=  0 I1Cent=   200000004 NGrid=           0
         NMat0=    1 NMatS0=      1 NMatT0=    0 NMatD0=    1 NMtDS0=    0 NMtDT0=    0
 Petite list used in FoFCou.
 Requested convergence on RMS density matrix=1.00D-08 within  32 cycles.
 Requested convergence on MAX density matrix=1.00D-06.
 Requested convergence on             energy=1.00D-06.
 No special actions if energy rises.
 SCF Done:  E(RM08HX) =  -422.225963437     A.U. after   13 cycles
            NFock= 13  Conv=0.34D-08     -V/T= 2.0040
 QCSCF skips out because SCF is already converged.
 R6APFD:  NTU= -4 IXU= 1 FactS= 1.050
 Calling FoFJK, ICntrl=      2127 FMM=F ISym2X=0 I1Cent= 0 IOpClX= 0 NMat=1 NMatS=1 NMatT=0.
 ***** Axes restored to original set *****
 -------------------------------------------------------------------
 Center     Atomic                   Forces (Hartrees/Bohr)
 Number     Number              X              Y              Z
 -------------------------------------------------------------------
      1        8           0.000446702   -0.006449862   -0.003788426
      2        8           0.000456007   -0.005441794   -0.001051313
      3        8          -0.004442155    0.012217235   -0.014204157
      4        6           0.000990065   -0.002583275   -0.000450013
      5        6          -0.004224506    0.001957282   -0.000998258
      6        6           0.002265358   -0.002885863    0.024857155
      7        6           0.000481657   -0.001041646   -0.000077078
      8        6          -0.000060262    0.001742834   -0.001026900
      9        1           0.002504687    0.000058666   -0.001295784
     10        1           0.000476148    0.000611016    0.001060111
     11        1           0.000104705   -0.000989517   -0.001102217
     12        1          -0.000616286   -0.000797187    0.000761368
     13        1           0.000951338   -0.000528383    0.000054765
     14        1           0.000457912   -0.000560514    0.000503241
     15        1           0.000401353   -0.000423230    0.000222251
     16        1          -0.000407935    0.000285978   -0.000582876
     17        1          -0.000301701    0.000616560    0.000254552
     18        1           0.000516914    0.004211701   -0.003136422
 -------------------------------------------------------------------
 Cartesian Forces:  Max     0.024857155 RMS     0.004654583

 GradGradGradGradGradGradGradGradGradGradGradGradGradGradGradGradGradGrad
 Berny optimization.
 Using GEDIIS/GDIIS optimizer.
 FormGI is forming the generalized inverse of G from B-inverse, IUseBI=4.
 Internal  Forces:  Max     0.016499930 RMS     0.002687528
 Search for a local minimum.
 Step number   3 out of a maximum of   88
 All quantities printed in internal units (Hartrees-Bohrs-Radians)
 Mixed Optimization -- RFO/linear search
 Update second derivatives using D2CorX and points    1    3    2
 DE=  5.97D-05 DEPred=-1.99D-03 R=-3.00D-02
 Trust test=-3.00D-02 RLast= 4.60D-01 DXMaxT set to 2.52D-01
 ITU= -1  1  0
 Use linear search instead of GDIIS.
     Eigenvalues ---    0.00472   0.00519   0.00582   0.01109   0.01279
     Eigenvalues ---    0.02145   0.04778   0.05245   0.05397   0.05528
     Eigenvalues ---    0.05670   0.05686   0.05746   0.05824   0.05871
     Eigenvalues ---    0.07945   0.11221   0.13608   0.15441   0.16000
     Eigenvalues ---    0.16000   0.16000   0.16000   0.16009   0.16133
     Eigenvalues ---    0.17599   0.20281   0.21625   0.24226   0.25035
     Eigenvalues ---    0.25080   0.30360   0.30736   0.30962   0.34133
     Eigenvalues ---    0.34149   0.34158   0.34221   0.34227   0.34241
     Eigenvalues ---    0.34293   0.34328   0.34400   0.40376   0.41699
     Eigenvalues ---    0.51379   0.52956   0.94442
 RFO step:  Lambda=-2.15560130D-03 EMin= 4.71993001D-03
 Quartic linear search produced a step of -0.50871.
 Iteration  1 RMS(Cart)=  0.04740203 RMS(Int)=  0.00234984
 Iteration  2 RMS(Cart)=  0.00400966 RMS(Int)=  0.00046369
 Iteration  3 RMS(Cart)=  0.00001115 RMS(Int)=  0.00046363
 Iteration  4 RMS(Cart)=  0.00000001 RMS(Int)=  0.00046363
 Variable       Old X    -DE/DX   Delta X   Delta X   Delta X     New X
                                 (Linear)    (Quad)   (Total)
    R1        2.52189   0.00398   0.00679  -0.00030   0.00649   2.52838
    R2        2.71087   0.00150  -0.00341   0.00976   0.00635   2.71722
    R3        2.65571  -0.00187   0.00770  -0.01708  -0.00938   2.64633
    R4        1.80829   0.00462   0.00288   0.00369   0.00656   1.81485
    R5        2.25303   0.01650   0.00588   0.00735   0.01323   2.26626
    R6        2.89601   0.00013  -0.00376   0.00401   0.00025   2.89626
    R7        2.88886  -0.00049  -0.00389   0.00362  -0.00027   2.88859
    R8        2.07632  -0.00079  -0.00249   0.00376   0.00127   2.07759
    R9        2.06920   0.00001   0.00127  -0.00385  -0.00257   2.06663
   R10        2.06857   0.00010  -0.00001   0.00044   0.00043   2.06900
   R11        2.07885  -0.00089  -0.00110  -0.00010  -0.00120   2.07765
   R12        2.86631  -0.00193   0.00193  -0.00983  -0.00790   2.85841
   R13        2.07535  -0.00017  -0.00061   0.00025  -0.00036   2.07499
   R14        2.07520  -0.00023  -0.00054   0.00007  -0.00048   2.07472
   R15        2.07064   0.00012  -0.00113   0.00229   0.00116   2.07181
   R16        2.07172  -0.00062   0.00026  -0.00220  -0.00193   2.06979
   R17        2.07201  -0.00064   0.00020  -0.00218  -0.00198   2.07003
    A1        2.02062   0.00067  -0.00756   0.02178   0.01422   2.03484
    A2        1.89616   0.00073  -0.00457   0.01303   0.00847   1.90462
    A3        1.99580  -0.00333  -0.01206  -0.00442  -0.01664   1.97916
    A4        1.93695  -0.00126  -0.00166  -0.01195  -0.01383   1.92312
    A5        1.83374   0.00266   0.00104   0.02247   0.02358   1.85732
    A6        1.89717   0.00341   0.00909  -0.00919  -0.00028   1.89689
    A7        1.91268  -0.00010   0.00478  -0.00128   0.00360   1.91628
    A8        1.88385  -0.00142  -0.00103   0.00610   0.00520   1.88904
    A9        1.94303  -0.00241   0.00730  -0.02717  -0.01983   1.92320
   A10        1.90334   0.00231   0.00283   0.00576   0.00858   1.91191
   A11        1.92068   0.00090   0.00070   0.00580   0.00648   1.92717
   A12        1.91127  -0.00019  -0.00389   0.00554   0.00170   1.91297
   A13        1.88795   0.00066  -0.00226   0.00675   0.00452   1.89248
   A14        1.89700  -0.00130  -0.00513   0.00397  -0.00122   1.89579
   A15        2.15754   0.00477  -0.00460   0.03304   0.02844   2.18598
   A16        1.93590  -0.00093  -0.00100  -0.00378  -0.00469   1.93120
   A17        2.18367  -0.00300   0.00600  -0.02468  -0.01853   2.16514
   A18        1.86828   0.00104   0.00599  -0.00583   0.00013   1.86842
   A19        1.89295   0.00035   0.00189   0.00204   0.00391   1.89686
   A20        1.89383  -0.00020   0.00079   0.00207   0.00284   1.89667
   A21        1.96898  -0.00115  -0.00801   0.00507  -0.00291   1.96606
   A22        1.96899  -0.00078  -0.00767   0.00469  -0.00295   1.96603
   A23        1.86864   0.00079   0.00740  -0.00797  -0.00051   1.86813
   A24        1.91540   0.00115   0.00159   0.00501   0.00662   1.92202
   A25        1.93601  -0.00075   0.00060  -0.00566  -0.00507   1.93095
   A26        1.93582  -0.00055   0.00084  -0.00563  -0.00479   1.93103
   A27        1.89147  -0.00009   0.00153  -0.00193  -0.00039   1.89108
   A28        1.89128  -0.00012   0.00170  -0.00220  -0.00048   1.89080
   A29        1.89269   0.00037  -0.00631   0.01059   0.00426   1.89695
    D1       -0.06280   0.00365   0.06142   0.00402   0.06792   0.00512
    D2       -3.09147  -0.00401  -0.04918  -0.03635  -0.08801   3.10370
    D3        3.13732   0.00010   0.00190  -0.00278  -0.00088   3.13645
    D4       -1.01660  -0.00047  -0.00311   0.00105  -0.00206  -1.01866
    D5        1.00755   0.00054   0.00713  -0.00617   0.00097   1.00852
    D6       -1.17824  -0.00185   0.05873  -0.14269  -0.08410  -1.26233
    D7        0.97545  -0.00083   0.06045  -0.16779  -0.10724   0.86821
    D8        3.00717  -0.00162   0.05901  -0.15386  -0.09482   2.91236
    D9       -3.05793  -0.00090   0.00366  -0.02817  -0.02447  -3.08240
   D10       -0.94717  -0.00114   0.00539  -0.03475  -0.02935  -0.97652
   D11        1.13218  -0.00078   0.00127  -0.02291  -0.02158   1.11060
   D12        1.05029   0.00049   0.00754  -0.00206   0.00542   1.05571
   D13       -3.12214   0.00025   0.00928  -0.00864   0.00054  -3.12160
   D14       -1.04279   0.00062   0.00515   0.00320   0.00831  -1.03447
   D15       -1.00476   0.00027   0.00056  -0.00335  -0.00275  -1.00751
   D16        1.10600   0.00004   0.00230  -0.00993  -0.00764   1.09836
   D17       -3.09784   0.00040  -0.00183   0.00191   0.00014  -3.09770
   D18        2.81507   0.00544   0.11339  -0.07854   0.03398   2.84906
   D19       -0.21155  -0.00297  -0.00000  -0.12419  -0.12338  -0.33493
   D20       -1.25882   0.00276   0.10333  -0.09934   0.00316  -1.25565
   D21        1.99774  -0.00565  -0.01006  -0.14499  -0.15420   1.84354
   D22        0.81445   0.00374   0.11361  -0.10253   0.01026   0.82471
   D23       -2.21218  -0.00467   0.00022  -0.14818  -0.14710  -2.35928
   D24        3.14097   0.00019   0.00051   0.00038   0.00089  -3.14133
   D25       -1.05268   0.00035   0.00382  -0.00236   0.00145  -1.05123
   D26        1.05180  -0.00005  -0.00318   0.00344   0.00026   1.05206
   D27        1.06012  -0.00025  -0.00098  -0.00130  -0.00231   1.05781
   D28       -3.13354  -0.00009   0.00233  -0.00405  -0.00175  -3.13528
   D29       -1.02905  -0.00049  -0.00467   0.00175  -0.00293  -1.03199
   D30       -1.06027   0.00016   0.00084   0.00188   0.00274  -1.05753
   D31        1.02926   0.00032   0.00415  -0.00086   0.00330   1.03256
   D32        3.13374  -0.00008  -0.00285   0.00494   0.00212   3.13586
         Item               Value     Threshold  Converged?
 Maximum Force            0.016500     0.000450     NO 
 RMS     Force            0.002688     0.000300     NO 
 Maximum Displacement     0.122367     0.001800     NO 
 RMS     Displacement     0.048907     0.001200     NO 
 Predicted change in Energy=-2.051284D-03
 GradGradGradGradGradGradGradGradGradGradGradGradGradGradGradGradGradGrad

                          Input orientation:                          
 ---------------------------------------------------------------------
 Center     Atomic      Atomic             Coordinates (Angstroms)
 Number     Number       Type             X           Y           Z
 ---------------------------------------------------------------------
      1          8           0        0.881892   -0.277371    0.220741
      2          8           0       -2.595441    0.402798    0.466583
      3          8           0       -0.305295    1.469911   -0.565367
      4          6           0       -1.468212   -0.423417    0.378398
      5          6           0       -1.640325   -1.584634   -0.606953
      6          6           0       -0.245832    0.394678   -0.037590
      7          6           0        2.112506    0.357528   -0.166579
      8          6           0        3.236113   -0.575182    0.227791
[...]
 541165,-0.3440054,0.1305585,-0.4314385,0.3512558,0.9720954,0.0308262,-
 0.0155325,0.1824259,0.320907,-0.0017334,-0.0938431,-0.002109,0.3130641
 ,-0.0449234,0.0410339,-0.0118328,0.0710825,0.0279043,0.0102117,-0.0178
 475,0.0128981,0.0700423,-0.0080252,0.006245,-0.0268268,0.0237402,0.007
 6088,0.0137979,-0.0588878,0.0397744,-0.1061862,-0.0153477,0.1017528,-0
 .0207075,0.0748231,0.0141382,-0.0077456,-0.036868,0.0133619,0.0536028,
 -0.0479776,-0.1014145,0.0234055,-0.0804561,0.0061079,-0.0022867,0.0391
 688,0.0018453,0.0600507,0.0821113,-0.0055957,0.0050262,-0.000253,0.024
 4299,0.067905,-0.004745,0.0038118,-0.0926532,-0.037412,0.0221065,-0.05
 0101,-0.0404959,0.0391447,0.0233243,0.0231968,0.0473225,-0.0875403,-0.
 0369863,0.0379092,0.0187873,-0.0566364,-0.0516195,-0.0590993,0.0081231
 ,-0.083209,-0.0001649,-0.0882674,-0.0391731,0.020812,-0.0767197,0.0235
 236,0.0285429,0.0362587,0.0259561,0.0776567,0.0648679,0.0065818,0.0307
 531,0.0422531,0.0474212,0.0300676,-0.0198444,0.0559658,-0.0928418,0.06
 36409,-0.0267446,-0.0339009,0.0332567,-0.0548481,-0.0649541,-0.0214818
 ,-0.0869679,0.0091823,0.3840528,-0.0599351,0.0244587,0.006195,0.298544
 3,0.0049177,-0.0127796,0.0119653,0.293315\Polar=81.6255795,-0.9966828,
 71.8051129,1.003999,-2.1403464,58.7913031\Quadrupole=-0.387887,-0.7264
 916,1.1143786,1.4445552,0.3593967,0.7004146\PG=C01 [X(C5H10O3)]\NImag=
 0\\0.52393982,-0.04654086,0.34588940,-0.00254233,-0.09382023,0.1152973
 0,-0.01251039,-0.00555636,0.00282112,0.32649096,-0.00387519,0.00298162
 ,-0.00038200,0.01341368,0.59632359,0.00161157,-0.00022403,0.00144008,-
 0.03105370,-0.18457237,0.10869118,-0.00882923,0.06527294,-0.02211860,-
 0.00156020,-0.01193680,0.00429796,0.11180518,0.06870806,-0.06815081,0.
 03274347,0.00230634,0.00606057,-0.00156785,-0.03892858,0.75816649,-0.0
 2329270,0.03278077,0.01890539,-0.00084633,-0.00048981,0.00203023,0.010
 62014,-0.26370677,0.13095394,-0.03051085,-0.00742814,0.00474123,-0.195
 70061,0.09459830,-0.02533071,0.00608317,0.00815782,-0.00168390,0.48960
 206,0.01911147,0.01264723,-0.00180749,0.04544397,-0.14075041,0.0285985
 1,-0.01304419,-0.02440104,0.01866221,-0.02200991,0.50247063,-0.0054717
 9,-0.00037813,0.01000812,-0.00573197,0.02311016,-0.07038688,0.00709227
 ,0.01902529,0.01953823,0.01776208,-0.04567828,0.55247903,-0.00328204,0
 .00012000,0.00098364,-0.00852891,0.04428632,0.01501606,-0.00284747,-0.
 00292220,0.00556549,-0.07819102,-0.02167897,-0.01336169,0.59119452,0.0
 0077791,-0.00264830,-0.00004946,0.01687120,-0.03802169,-0.01298683,-0.
 00100224,0.00146049,0.00108812,-0.00858617,-0.14376802,-0.05559072,-0.
 01176256,0.51736873,0.00173385,-0.00061299,0.00021983,0.00390470,0.001
 20971,0.00742431,0.00181581,0.00330040,-0.00401083,-0.00537340,-0.0570
 3175,-0.12110043,-0.00018970,-0.04829200,0.53967072,-0.26403427,0.0610
 3309,-0.01299990,-0.00750562,-0.00041957,0.00161197,-0.11717101,-0.020
 33765,0.00894131,-0.14978816,-0.04169346,0.01983947,0.00404508,-0.0123
 6053,-0.00551646,0.59990295,0.06757734,-0.15452728,0.02724746,0.025291
 47,-0.00600834,-0.00008140,-0.00272496,-0.66277948,0.21318315,-0.05846
 753,-0.09562035,0.00734667,-0.02274695,-0.02243633,0.00294512,-0.00645
 046,0.92517600,-0.01592081,0.02782831,-0.07921802,-0.00831110,0.001097
 69,-0.00124458,0.00254198,0.21406387,-0.16043554,0.02543988,0.00554880
 ,-0.09763755,-0.02110244,-0.01062853,0.00803686,-0.01384870,-0.2472315
 1,0.33339594,-0.13800300,-0.04020143,0.01792802,0.00202785,-0.00047897
 ,0.00013682,0.00383420,-0.01679516,0.00562700,0.00056637,0.00360177,-0
 .00098136,0.00069019,0.00016338,-0.00048758,-0.06722684,0.00790107,0.0
 0043388,0.45638434,-0.06230638,-0.12799868,0.02493639,0.00269780,0.000
 06318,-0.00011349,0.00599815,-0.00842923,0.00024225,0.00256699,-0.0022
 8280,0.00261398,0.00024163,0.00000831,-0.00029234,0.00783335,0.0256678
 2,-0.00891891,-0.04174793,0.56661796,0.02633285,0.02412181,-0.07911128
 ,-0.00100569,0.00003898,0.00051087,-0.00276434,0.00137190,-0.00730655,
 -0.00059056,0.00239200,0.00451578,0.00042347,0.00048537,-0.00006279,0.
 00070574,-0.00907917,0.00523716,0.02267615,0.01813094,0.60290987,-0.03
 421589,0.01853105,-0.00497353,-0.00072392,0.00001940,0.00002312,0.0012
 8808,0.00188365,-0.00068689,-0.00056413,0.00105565,-0.00037336,0.00007
 114,0.00005165,0.00006069,-0.00229158,-0.00672386,0.00252823,-0.144665
 19,0.06509379,-0.02086102,0.52501462,-0.02366850,0.01437470,-0.0034814
 3,-0.00067010,-0.00004614,0.00001852,0.00140386,0.00235822,-0.00054111
 ,-0.00024778,0.00096545,-0.00024838,-0.00006958,0.00011021,0.00003017,
 -0.00186649,-0.00623984,0.00230738,0.08051674,-0.14955522,0.01922311,0
 .04053077,0.54872080,0.01039326,-0.00557455,0.00319227,0.00028599,-0.0
 0000833,-0.00006815,-0.00055989,-0.00058156,0.00130343,0.00014110,-0.0
 0037219,0.00031413,0.00000114,0.00003585,-0.00010137,0.00084176,0.0026
 4154,-0.00107208,-0.02639499,0.01990445,-0.09179269,-0.01252216,0.0075
 6026,0.57333685,-0.00154378,0.00007198,-0.00208938,-0.01088284,0.02167
 802,-0.02749439,-0.00291346,-0.00512207,-0.00187686,-0.04851887,-0.004
 34701,-0.00338180,0.00203558,0.00025437,-0.00367743,0.00573567,-0.0041
 6960,0.02842495,0.00010356,-0.00015447,-0.00051615,0.00005619,-0.00004
 325,0.00001127,0.05870804,-0.00000588,0.00019499,-0.00127425,0.0106083
 3,-0.01174950,0.01893100,-0.00251402,-0.00247535,-0.00184765,-0.001685
 58,-0.05883067,0.05921749,-0.00037875,0.00568577,-0.02930538,0.0005518
 6,-0.00473755,0.02093813,-0.00025988,-0.00025765,-0.00071264,-0.000004
 03,-0.00003269,-0.00000408,-0.00799395,0.07528173,0.00043223,-0.000201
 49,0.00111050,-0.00721737,0.00723114,0.00368522,0.00142502,-0.00050663
 ,0.00044078,-0.00750516,0.05972186,-0.27848663,0.00083893,0.00220270,-
 0.01972560,-0.00173495,0.00310609,-0.00863071,0.00062440,0.00015218,0.
 00024962,0.00001391,0.00000486,-0.00004507,0.01440121,-0.06662134,0.30
 204343,-0.00135477,-0.00151289,-0.00027935,0.00107497,-0.00047184,-0.0
 0031792,0.00019858,0.00000393,-0.00019769,0.00084535,-0.00244731,0.000
 13565,-0.21541299,0.12747795,-0.03735764,-0.00022247,0.00033342,0.0005
 7770,-0.00006732,-0.00026349,-0.00012309,0.00004747,0.00000102,-0.0000
 4416,0.00034780,0.00041778,0.00038551,0.23121834,-0.00114985,0.0008951
 6,-0.00002903,0.00077416,-0.00660665,-0.00309884,-0.00079562,0.0006737
 7,-0.00030218,0.01993692,-0.01187714,0.00897432,0.12352146,-0.13939232
 ,0.02614892,0.00329298,-0.00165801,0.00073087,-0.00084885,0.00001575,0
 .00018588,0.00000939,-0.00003018,-0.00003869,-0.00005926,0.00081724,-0
 .00036189,-0.13766832,0.15097899,-0.00004521,-0.00041518,-0.00052418,0
 .00024667,-0.00534321,-0.00007591,-0.00003785,0.00000975,0.00012223,0.
 01584558,-0.00743249,0.00397930,-0.03883366,0.02808895,-0.05660171,-0.
 00026107,0.00031641,0.00036048,-0.00014020,0.00006155,0.00006923,0.000
 00081,0.00005685,0.00005047,0.00017337,0.00082402,0.00001970,0.0410471
 4,-0.02787016,0.05634637,-0.00012534,-0.00084870,-0.00009178,0.0011509
 6,-0.00021166,-0.00031655,0.00030991,-0.00034108,-0.00008604,-0.001325
 27,0.00092245,0.00099456,-0.23856563,-0.11460766,0.05006663,-0.0002845
 6,0.00154827,-0.00039515,0.00045514,0.00006393,-0.00013692,-0.00001693
 ,-0.00000229,0.00004101,0.00004246,-0.00034083,-0.00048578,-0.01757627
 ,-0.01300261,0.00560556,0.25453168,-0.00100607,0.00097501,0.00048228,0
 .00042658,0.00295540,0.00043884,-0.00111088,-0.00134381,0.00163387,-0.
 02545117,-0.01749968,0.00409167,-0.11263188,-0.11122912,0.03075046,0.0
 0426638,-0.00276388,-0.00492777,0.00012554,0.00016376,0.00018207,-0.00
 002269,-0.00006919,-0.00000355,0.00060712,0.00112771,0.00040124,0.0162
 7133,0.01099447,-0.00514081,0.12503426,0.12103354,-0.00101446,0.000178
 38,0.00041865,-0.00012544,0.00213767,-0.00005556,-0.00101585,-0.001421
 41,0.00149978,-0.01873579,-0.01190164,0.00335671,0.05180533,0.03088765
 ,-0.05958709,0.00227281,-0.00256919,-0.00326858,0.00021178,0.00005314,
 -0.00009245,-0.00001252,-0.00003626,0.00001366,-0.00042332,0.00079734,
 0.00084894,-0.00499100,-0.00361507,-0.00013406,-0.05418185,-0.02923649
 ,0.06240282,-0.00022920,0.00021146,0.00053614,-0.00008417,-0.00058289,
 0.00017441,-0.00010276,0.00019088,0.00023218,-0.00140017,0.00067784,-0
 .00287060,-0.04689055,0.00093252,-0.00479734,0.00044896,0.00014527,-0.
 00140482,-0.00006310,-0.00008089,-0.00004241,-0.00000534,-0.00001032,-
 0.00001070,0.00085857,-0.00053168,-0.00022034,0.00083539,0.00480518,-0
 .02448295,0.00159025,-0.00611114,0.02647285,0.04479003,0.00025554,-0.0
 0005624,0.00024447,-0.00092335,0.00251575,0.00274722,0.00034869,-0.000
 26565,0.00061257,-0.00175839,0.00566793,-0.03035025,0.00181449,-0.0652
 4440,0.06949152,0.00055286,0.00250290,-0.00136901,-0.00007946,0.000016
 20,-0.00005358,-0.00000587,-0.00000091,0.00000629,-0.00037759,-0.00464
 301,-0.00342780,-0.00203093,-0.00481870,0.01751173,0.00190069,-0.00449
 315,0.01475510,0.00027987,0.06893808,-0.00078888,-0.00006302,0.0002814
 4,0.00054655,0.00015653,0.00303025,-0.00041958,-0.00110649,0.00058392,
 -0.00257637,0.00468779,-0.01948276,-0.00390396,0.06737969,-0.29419397,
 0.00171156,0.00140777,-0.00092320,0.00008646,-0.00003230,-0.00025077,-
 0.00002453,-0.00002672,0.00000125,-0.00056698,-0.00350618,-0.00055447,
 0.00075488,0.00023113,-0.00272879,-0.00107907,0.00096738,-0.00548286,0
 .00618242,-0.06985558,0.32012250,-0.01585938,-0.01237825,0.03377725,-0
 .00030923,0.00014786,-0.00017096,-0.00033703,0.00345070,-0.00101943,-0
 .00004022,-0.00044405,-0.00084273,-0.00013129,-0.00002494,0.00017894,0
 .00424710,-0.00681002,0.00401334,-0.04812596,0.00448246,-0.01889255,0.
 00033283,0.00627583,-0.02553606,0.00006805,0.00019346,-0.00017639,0.00
 002542,0.00006847,0.00003254,-0.00002996,-0.00007358,-0.00006267,-0.00
 003369,0.00001012,-0.00005006,0.06109234,-0.00895176,-0.00766617,0.018
 58851,-0.00019850,-0.00006396,-0.00004657,-0.00074918,0.00050275,-0.00
 026526,-0.00004308,-0.00006199,-0.00001564,0.00002706,0.00000145,0.000
 08180,0.00245845,-0.00038123,0.00019101,0.00307473,-0.06705071,0.05938
 543,0.00155812,-0.00463807,0.01966242,0.00000553,0.00001975,-0.0000942
 9,0.00001253,0.00001344,0.00005307,0.00000013,-0.00002306,-0.00004715,
 -0.00006340,0.00002308,-0.00005531,0.00070274,0.07256872,0.00873823,0.
 00343108,-0.00138445,0.00018779,-0.00011688,0.00008169,-0.00076459,-0.
 00202804,0.00100952,-0.00000335,-0.00022452,-0.00031919,-0.00006876,-0
 .00001144,-0.00000996,-0.00285019,0.00405296,-0.00086098,-0.01021607,0
 .06246632,-0.29363567,-0.00115783,0.00019410,-0.00219209,-0.00001191,-
 0.00002147,0.00007051,-0.00000414,-0.00004910,-0.00002572,0.00001689,-
 0.00001892,-0.00000138,0.00001629,-0.00000227,0.00001885,0.00905591,-0
 .07297658,0.31195477,-0.01862377,-0.03019269,-0.01584670,-0.00028250,0
 .00020338,0.00004252,-0.00026317,0.00347246,-0.00147001,0.00009016,0.0
 0013878,0.00087508,-0.00001558,0.00007492,0.00006085,0.00433077,-0.008
 18331,0.00112663,-0.04746721,-0.00061715,-0.00030329,0.00252573,0.0214
 2655,0.01555162,-0.00014262,-0.00012769,0.00001280,-0.00003072,0.00018
 120,0.00002488,-0.00008749,0.00002560,-0.00002064,0.00000890,0.0000101
 4,-0.00003888,0.00155861,-0.00011629,-0.00179699,0.06090683,-0.0129537
 8,-0.01441873,-0.00466553,-0.00025540,0.00009177,0.00006926,-0.0000653
 9,0.00173053,-0.00041228,-0.00001189,-0.00006206,-0.00024851,-0.000043
 00,-0.00009120,0.00009327,0.00363912,-0.00257319,0.00098712,-0.0068861
 2,-0.22174280,-0.12090664,0.00047244,-0.01402672,-0.01077992,0.0000436
 0,-0.00001526,-0.00002082,-0.00001890,0.00013124,0.00000086,-0.0000654
 2,0.00001166,-0.00003868,0.00000115,0.00001132,-0.00000882,0.00165528,
 0.00748440,0.00455415,0.01183695,0.24394576,0.00155590,0.01142097,0.00
 833950,0.00000150,0.00013246,-0.00004991,0.00109857,0.00095690,-0.0002
 8782,-0.00005238,-0.00007201,-0.00038386,0.00000876,0.00000793,-0.0000
 6851,0.00029631,-0.00179418,0.00129337,-0.00608678,-0.12429688,-0.1401
 6690,0.00056438,0.00737579,0.00522643,0.00006425,0.00009257,-0.0000743
 0,0.00001240,-0.00000998,-0.00001223,0.00001646,0.00000157,0.00002438,
 0.00001387,-0.00002200,0.00003189,-0.00095612,-0.02510826,-0.01660558,
 0.00368213,0.13032774,0.14103654,-0.00600660,0.00481627,-0.00141972,-0
 .00034710,0.00000489,0.00001561,-0.00002800,0.00098828,-0.00036340,0.0
 0001550,0.00032167,-0.00012674,-0.00003827,0.00000756,0.00004953,0.000
 64664,-0.00245812,0.00088774,-0.01711632,-0.01483223,0.00614632,-0.252
 90494,-0.10110321,0.04746879,-0.00001722,-0.00001519,-0.00000219,0.000
 01769,0.00003015,0.00000167,-0.00002699,-0.00002795,-0.00001604,0.0000
 0629,0.00000345,-0.00000991,0.00025835,0.00001122,-0.00069680,0.000350
 56,0.00043998,0.00051790,0.27517583,0.00619364,-0.00260947,0.00100444,
 0.00019869,0.00006704,-0.00001587,-0.00028016,-0.00034063,0.00009110,0
 .00014617,-0.00041064,0.00008584,0.00004248,-0.00005101,0.00000324,0.0
 0085907,0.00168316,-0.00047705,0.01620918,0.01098508,-0.00562450,-0.10
 396192,-0.09938461,0.02505469,0.00001342,0.00000826,-0.00001836,0.0000
 2505,0.00002603,-0.00000627,-0.00000761,0.00002566,0.00001143,-0.00000
 369,0.00000763,0.00000647,-0.00066181,0.00058268,0.00032439,-0.0007538
 2,0.00025684,-0.00063293,0.11062823,0.10371501,-0.00191007,0.00108515,
 0.00067933,-0.00005551,-0.00001834,0.00000856,0.00010397,0.00002723,-0
 .00014373,-0.00005730,0.00009128,-0.00014091,-0.00002320,-0.00001405,0
 .00002954,-0.00032909,-0.00031729,0.00060613,-0.00519462,-0.00408163,-
 0.00048133,0.04850184,0.02488623,-0.05656650,0.00000090,0.00001075,0.0
 0001495,0.00001121,0.00000536,-0.00002211,-0.00000651,-0.00000280,-0.0
 0000318,0.00000452,-0.00000245,0.00000480,0.00024313,-0.00024611,-0.00
 015787,0.00024212,-0.00015204,0.00012614,-0.05209845,-0.02716576,0.056
 89017,0.00314462,-0.00089291,0.00037927,0.00008933,-0.00008141,0.00004
 515,-0.00033436,-0.00067398,0.00041271,-0.00002745,0.00002512,-0.00005
 701,-0.00001929,0.00000367,0.00000381,-0.00055888,0.00122248,-0.000333
 34,-0.00123344,0.00760892,-0.02785902,-0.04588766,-0.00137197,0.004753
 40,-0.00002756,-0.00001021,0.00004399,-0.00000235,-0.00002291,-0.00002
 852,0.00000728,-0.00000144,0.00000372,0.00001467,-0.00000088,0.0000171
 9,-0.00357536,0.00306064,-0.00040342,0.00084170,-0.00066832,0.00065666
 ,0.00107219,-0.00624022,0.02761479,0.04777333,-0.00112428,0.00083310,-
 0.00129665,0.00005924,-0.00000265,-0.00001668,0.00033892,0.00002027,-0
 .00023261,-0.00002590,0.00004053,0.00006580,0.00000750,0.00001385,-0.0
 0001550,-0.00018505,-0.00030787,0.00009197,-0.00112982,-0.00694899,0.0
 2376777,0.00007767,-0.06565465,0.06605094,0.00000836,0.00002060,0.0000
 0209,0.00000192,-0.00000566,-0.00002331,0.00000267,0.00001068,0.000004
 13,0.00000317,-0.00001717,0.00000156,0.00374365,-0.00165849,0.00002886
 ,-0.00074503,0.00018327,0.00004486,0.00109205,-0.00445835,0.01271210,-
 0.00290190,0.06973529,-0.00031704,-0.00046586,0.00068510,-0.00003244,-
 0.00005062,0.00003792,-0.00003544,-0.00026181,0.00011365,-0.00001558,0
 .00005789,-0.00009600,-0.00005216,0.00000804,0.00001219,-0.00008281,0.
 00010796,0.00000349,0.00052122,0.00174355,-0.00560494,0.00260675,0.067
 63414,-0.29775609,-0.00002700,-0.00000103,0.00003222,-0.00000064,-0.00
 000028,-0.00003834,-0.00000803,-0.00001247,0.00000159,0.00002528,-0.00
 000983,0.00001776,-0.00039600,0.00070682,0.00151521,-0.00042285,0.0002
 3243,0.00073068,-0.00050285,0.00021768,-0.00433707,-0.00205408,-0.0755
 0838,0.32005902,0.00318941,-0.00104759,0.00005081,0.00009042,-0.000109
 75,-0.00000192,-0.00035964,-0.00074639,0.00014115,-0.00000077,0.000047
 64,0.00004532,-0.00003373,0.00004963,-0.00003365,-0.00050999,0.0011461
 9,-0.00050445,0.00101449,0.02386666,0.01653084,-0.04809481,-0.02115181
 ,-0.01439874,-0.00000630,-0.00000317,0.00000989,-0.00004085,-0.0000615
 4,0.00003419,0.00003517,-0.00002384,-0.00001129,-0.00001447,0.00000294
 ,-0.00001153,0.00086814,-0.00092765,-0.00008748,-0.00370642,0.00281115
 ,-0.00126024,-0.00115936,-0.02237730,-0.01705236,-0.00129536,0.0008255
 6,0.00075668,0.05000348,-0.00062465,0.00170415,0.00049760,0.00006355,0
 .00006895,0.00000605,0.00031964,0.00032165,0.00003628,-0.00001360,-0.0
 0008010,-0.00007854,0.00002544,-0.00003107,-0.00001258,-0.00008617,-0.
 00030587,0.00018986,-0.00304696,-0.01960561,-0.01285823,-0.01845995,-0
 .22676407,-0.12358191,0.00001699,0.00001559,0.00000185,0.00002076,0.00
 003044,-0.00002883,-0.00000662,0.00002534,0.00002012,0.00002122,-0.000
 01123,0.00001982,-0.00029460,0.00032126,0.00037385,0.00340139,-0.00089
 852,0.00162673,0.00013159,-0.01012687,-0.00681147,0.00092520,0.0081938
 6,0.00560126,0.01767414,0.24715247,0.00070584,-0.00029777,-0.00020405,
 -0.00001554,0.00006310,0.00000129,-0.00016464,0.00017372,-0.00016155,0
 .00002555,-0.00007984,-0.00001056,0.00005561,-0.00005538,0.00003618,0.
 00021708,0.00002642,0.00000184,0.00106337,0.00743307,0.00490008,-0.013
 73089,-0.12497980,-0.13381567,0.00000810,-0.00001105,-0.00001057,0.000
 02749,0.00003011,0.00001411,-0.00001280,0.00001673,-0.00000382,-0.0000
 1763,0.00001975,-0.00001057,0.00078931,0.00020919,0.00057776,-0.001713
 31,0.00099451,0.00083264,0.00014537,0.00714955,0.00348615,-0.00318275,
 -0.02569386,-0.01536419,0.01579911,0.13500565,0.13973115,0.00485467,-0
 .00345699,0.00114381,-0.09248899,-0.15618377,0.06171096,0.01122721,-0.
 00329502,-0.00001675,0.00886490,0.03431854,-0.01354538,-0.00407976,0.0
 0167933,-0.00044159,-0.00976376,0.01356931,-0.00415351,-0.00110778,-0.
 00045114,0.00027965,0.00003431,0.00005052,-0.00002263,-0.00390327,0.00
 209943,-0.00084573,0.00009672,0.00098905,0.00081706,-0.00008441,-0.000
 29618,-0.00015560,0.00027041,-0.00000231,0.00017069,-0.00000872,0.0001
 3873,0.00004644,0.00000622,0.00006856,-0.00013357,0.00010175,-0.000029
 43,0.00000465,0.00001860,-0.00004873,0.00003697,0.00002059,-0.00006739
 ,0.00000074,0.08594131,-0.00041676,-0.00241967,0.00106145,-0.11055131,
 -0.40787853,0.15191453,-0.00053017,-0.00310873,-0.00053264,0.00032294,
 -0.02614687,0.00805723,0.00214749,-0.00173535,0.00150793,-0.00108778,0
 .00530933,-0.00042222,-0.00011784,0.00033363,-0.00005050,-0.00010528,-
 0.00008710,0.00002833,-0.00043218,-0.00042997,-0.00157138,-0.00015202,
 -0.00018786,-0.00066295,-0.00003795,0.00009865,0.00002093,0.00011545,-
 0.00013242,-0.00020373,-0.00004331,0.00002613,0.00002350,-0.00003540,-
 0.00001832,-0.00005128,-0.00003863,0.00002419,-0.00000615,0.00002013,0
 .00000236,0.00000052,0.00002513,-0.00001039,-0.00000408,0.11091748,0.4
 3636091,-0.00020044,0.00120675,-0.00013554,0.04640077,0.15580414,-0.05
 506060,-0.00111493,-0.00049197,-0.00415509,-0.00203094,0.00483986,-0.0
 0614653,0.00283712,-0.00255589,0.00003263,0.00118516,-0.00130880,0.004
 35597,0.00019249,-0.00000228,0.00011276,0.00004300,0.00002228,-0.00002
 876,-0.00301881,0.00249377,-0.00098852,0.00036365,-0.00093138,-0.00079
 885,0.00005940,0.00037671,0.00006245,0.00018885,-0.00029586,-0.0004652
 8,0.00001256,-0.00002309,-0.00003542,-0.00000595,-0.00002611,0.0000075
 4,0.00000317,-0.00000808,0.00000693,-0.00001254,0.00001691,-0.00001218
 ,-0.00000634,-0.00000749,-0.00000021,-0.04489622,-0.15910948,0.0632487
 1\\0.00001415,-0.00001536,0.00000647,0.00002801,-0.00000707,0.00000381
 ,-0.00000254,-0.00000486,-0.00000196,-0.00003526,0.00000266,-0.0000083
 9,-0.00000477,0.00000077,0.00000343,-0.00000331,0.00002898,-0.00000463
 ,-0.00000279,-0.00000670,-0.00000102,-0.00000327,-0.00000007,-0.000000
 43,0.00000367,-0.00000069,0.00000308,0.00000254,0.00000104,0.00000143,
 0.00000174,-0.00000062,0.00000117,-0.00000024,-0.00000232,0.00000088,0
 .00000097,0.00000181,-0.00000103,0.00000156,0.00000140,-0.00000108,0.0
 0000153,-0.00000216,-0.00000049,-0.00000008,0.00000245,-0.00000032,-0.
 00000071,0.00000123,-0.00000061,-0.00000118,-0.00000049,-0.00000031\\\
 @


 Any fool can criticize, condemn, and complain -- and most do.
 -- Dale Carnegie
 Job cpu time:       0 days  0 hours 56 minutes  7.9 seconds.
 Elapsed time:       0 days  0 hours  3 minutes 31.7 seconds.
 File lengths (MBytes):  RWF=    105 Int=      0 D2E=      0 Chk=      6 Scr=      1
 Normal termination of Gaussian 16 at Mon Oct  6 22:34:04 2025.
