 Entering Gaussian System, Link 0=g16
 Input=ETOX0040.gjf
 Output=ETOX0040.log
 Initial command:
 /usr/local/g16/l1.exe "/dados_01/scratch/Gau-2480644.inp" -scrdir="/dados_01/scratch/"
 Entering Link 1 = /usr/local/g16/l1.exe PID=   2480645.
  
 Copyright (c) 1988-2017, Gaussian, Inc.  All Rights Reserved.
  
 This is part of the Gaussian(R) 16 program.  It is based on
 the Gaussian(R) 09 system (copyright 2009, Gaussian, Inc.),
 the Gaussian(R) 03 system (copyright 2003, Gaussian, Inc.),
 the Gaussian(R) 98 system (copyright 1998, Gaussian, Inc.),
 the Gaussian(R) 94 system (copyright 1995, Gaussian, Inc.),
 the Gaussian 92(TM) system (copyright 1992, Gaussian, Inc.),
 the Gaussian 90(TM) system (copyright 1990, Gaussian, Inc.),
 the Gaussian 88(TM) system (copyright 1988, Gaussian, Inc.),
 the Gaussian 86(TM) system (copyright 1986, Carnegie Mellon
 University), and the Gaussian 82(TM) system (copyright 1983,
 Carnegie Mellon University). Gaussian is a federally registered
 trademark of Gaussian, Inc.
  
 This software contains proprietary and confidential information,
 including trade secrets, belonging to Gaussian, Inc.
  
 This software is provided under written license and may be
 used, copied, transmitted, or stored only in accord with that
 written license.
  
 The following legend is applicable only to US Government
 contracts under FAR:
  
                    RESTRICTED RIGHTS LEGEND
  
 Use, reproduction and disclosure by the US Government is
 subject to restrictions as set forth in subparagraphs (a)
 and (c) of the Commercial Computer Software - Restricted
 Rights clause in FAR 52.227-19.
  
 Gaussian, Inc.
 340 Quinnipiac St., Bldg. 40, Wallingford CT 06492
  
  
 ---------------------------------------------------------------
 Warning -- This program may not be used in any manner that
 competes with the business of Gaussian, Inc. or will provide
 assistance to any competitor of Gaussian, Inc.  The licensee
 of this program is prohibited from giving any competitor of
 Gaussian, Inc. access to this program.  By using this program,
 the user acknowledges that Gaussian, Inc. is engaged in the
 business of creating and licensing software in the field of
 computational chemistry and represents and warrants to the
 licensee that it is not a competitor of Gaussian, Inc. and that
 it will not use this program in any manner prohibited above.
 ---------------------------------------------------------------
  

 Cite this work as:
 Gaussian 16, Revision B.01,
 M. J. Frisch, G. W. Trucks, H. B. Schlegel, G. E. Scuseria, 
 M. A. Robb, J. R. Cheeseman, G. Scalmani, V. Barone, 
 G. A. Petersson, H. Nakatsuji, X. Li, M. Caricato, A. V. Marenich, 
 J. Bloino, B. G. Janesko, R. Gomperts, B. Mennucci, H. P. Hratchian, 
 J. V. Ortiz, A. F. Izmaylov, J. L. Sonnenberg, D. Williams-Young, 
 F. Ding, F. Lipparini, F. Egidi, J. Goings, B. Peng, A. Petrone, 
 T. Henderson, D. Ranasinghe, V. G. Zakrzewski, J. Gao, N. Rega, 
 G. Zheng, W. Liang, M. Hada, M. Ehara, K. Toyota, R. Fukuda, 
 J. Hasegawa, M. Ishida, T. Nakajima, Y. Honda, O. Kitao, H. Nakai, 
 T. Vreven, K. Throssell, J. A. Montgomery, Jr., J. E. Peralta, 
 F. Ogliaro, M. J. Bearpark, J. J. Heyd, E. N. Brothers, K. N. Kudin, 
 V. N. Staroverov, T. A. Keith, R. Kobayashi, J. Normand, 
 K. Raghavachari, A. P. Rendell, J. C. Burant, S. S. Iyengar, 
 J. Tomasi, M. Cossi, J. M. Millam, M. Klene, C. Adamo, R. Cammi, 
 J. W. Ochterski, R. L. Martin, K. Morokuma, O. Farkas, 
 J. B. Foresman, and D. J. Fox, Gaussian, Inc., Wallingford CT, 2016.
 
 ******************************************
 Gaussian 16:  ES64L-G16RevB.01 20-Dec-2017
                 6-Oct-2025 
 ******************************************
 %nprocs=16
 Will use up to   16 processors via shared memory.
 %mem=40GB
 %chk=ETOX0040.chk
 ----------------------------------------------------------------------
 # opt freq=noraman M08HX/6-311++G** scf=xqc Empiricaldispersion=pfd In
 t(Grid=ultraFine)
 ----------------------------------------------------------------------
 1/18=20,19=15,26=4,38=1/1,3;
 2/9=110,12=2,17=6,18=5,40=1/2;
 3/5=4,6=6,7=1111,11=2,25=1,30=1,71=1,74=-74,75=-5,124=11/1,2,3;
 4//1;
 5/5=2,8=3,13=1,38=5/2,8;
 6/7=2,8=2,9=2,10=2,28=1/1;
 7//1,2,3,16;
 1/18=20,19=15,26=4/3(2);
 2/9=110/2;
 99//99;
 2/9=110/2;
 3/5=4,6=6,7=1111,11=2,25=1,30=1,71=1,74=-74,75=-5,124=11/1,2,3;
 4/5=5,16=3,69=1/1;
 5/5=2,8=3,13=1,38=5/2,8;
 7//1,2,3,16;
 1/18=20,19=15,26=4/3(-5);
 2/9=110/2;
 6/7=2,8=2,9=2,10=2,19=2,28=1/1;
 99/9=1/99;
 --------
 ETOX0040
 --------
 Symbolic Z-matrix:
 Charge =  0 Multiplicity = 1
 O                    -0.0007    0.8141    0. 
 C                     0.7509   -0.4065    0. 
 C                    -0.7502   -0.4076    0. 
 H                     1.2625   -0.6786    0.9136 
 H                     1.2625   -0.6787   -0.9136 
 H                    -1.2614   -0.6806   -0.9136 
 H                    -1.2614   -0.6805    0.9136 
 

 GradGradGradGradGradGradGradGradGradGradGradGradGradGradGradGradGradGrad
 Berny optimization.
 Initialization pass.
                           ----------------------------
                           !    Initial Parameters    !
                           ! (Angstroms and Degrees)  !
 --------------------------                            --------------------------
 ! Name  Definition              Value          Derivative Info.                !
 --------------------------------------------------------------------------------
 ! R1    R(1,2)                  1.4334         estimate D2E/DX2                !
 ! R2    R(1,3)                  1.4333         estimate D2E/DX2                !
 ! R3    R(2,3)                  1.5011         estimate D2E/DX2                !
 ! R4    R(2,4)                  1.0819         estimate D2E/DX2                !
 ! R5    R(2,5)                  1.0819         estimate D2E/DX2                !
 ! R6    R(3,6)                  1.0819         estimate D2E/DX2                !
 ! R7    R(3,7)                  1.0819         estimate D2E/DX2                !
 ! A1    A(1,2,4)              117.5235         estimate D2E/DX2                !
 ! A2    A(1,2,5)              117.5279         estimate D2E/DX2                !
 ! A3    A(3,2,4)              118.2098         estimate D2E/DX2                !
 ! A4    A(3,2,5)              118.2091         estimate D2E/DX2                !
 ! A5    A(4,2,5)              115.2273         estimate D2E/DX2                !
 ! A6    A(1,3,6)              117.5269         estimate D2E/DX2                !
 ! A7    A(1,3,7)              117.5225         estimate D2E/DX2                !
 ! A8    A(2,3,6)              118.2087         estimate D2E/DX2                !
 ! A9    A(2,3,7)              118.2094         estimate D2E/DX2                !
 ! A10   A(6,3,7)              115.2252         estimate D2E/DX2                !
 ! D1    D(4,2,3,6)           -146.7776         estimate D2E/DX2                !
 ! D2    D(4,2,3,7)             -0.0029         estimate D2E/DX2                !
 ! D3    D(5,2,3,6)              0.0029         estimate D2E/DX2                !
 ! D4    D(5,2,3,7)            146.7776         estimate D2E/DX2                !
 --------------------------------------------------------------------------------
 Trust Radius=3.00D-01 FncErr=1.00D-07 GrdErr=1.00D-06 EigMax=2.50D+02 EigMin=1.00D-04
 Number of steps in this run=     31 maximum allowed number of steps=    100.
 GradGradGradGradGradGradGradGradGradGradGradGradGradGradGradGradGradGrad

                          Input orientation:                          
 ---------------------------------------------------------------------
 Center     Atomic      Atomic             Coordinates (Angstroms)
 Number     Number       Type             X           Y           Z
 ---------------------------------------------------------------------
      1          8           0       -0.000700    0.814100    0.000000
      2          6           0        0.750900   -0.406500    0.000000
      3          6           0       -0.750200   -0.407600    0.000000
      4          1           0        1.262500   -0.678600    0.913600
      5          1           0        1.262500   -0.678700   -0.913600
      6          1           0       -1.261400   -0.680600   -0.913600
      7          1           0       -1.261400   -0.680500    0.913600
 ---------------------------------------------------------------------
                    Distance matrix (angstroms):
                    1          2          3          4          5
     1  O    0.000000
     2  C    1.433446   0.000000
     3  C    1.433283   1.501100   0.000000
     4  H    2.158354   1.081868   2.226896   0.000000
     5  H    2.158423   1.081893   2.226908   1.827200   0.000000
     6  H    2.158277   2.226914   1.081905   3.115884   2.523901
     7  H    2.158207   2.226902   1.081880   2.523901   3.115884
                    6          7
     6  H    0.000000
     7  H    1.827200   0.000000
 Stoichiometry    C2H4O
 Framework group  C1[X(C2H4O)]
 Deg. of freedom    15
 Full point group                 C1      NOp   1
 Largest Abelian subgroup         C1      NOp   1
 Largest concise Abelian subgroup C1      NOp   1
                         Standard orientation:                         
 ---------------------------------------------------------------------
 Center     Atomic      Atomic             Coordinates (Angstroms)
 Number     Number       Type             X           Y           Z
 ---------------------------------------------------------------------
      1          8           0       -0.000303    0.859525    0.000000
      2          6           0        0.750686   -0.361451    0.000000
      3          6           0       -0.750414   -0.361800    0.000000
      4          1           0        1.262150   -0.633806    0.913600
      5          1           0        1.262150   -0.633906   -0.913600
      6          1           0       -1.261751   -0.634544   -0.913600
      7          1           0       -1.261751   -0.634444    0.913600
 ---------------------------------------------------------------------
 Rotational constants (GHZ):          25.5267295          21.6858779          13.8943512
 Standard basis: 6-311++G(d,p) (5D, 7F)
 There are    97 symmetry adapted cartesian basis functions of A   symmetry.
 There are    94 symmetry adapted basis functions of A   symmetry.
    94 basis functions,   144 primitive gaussians,    97 cartesian basis functions
    12 alpha electrons       12 beta electrons
       nuclear repulsion energy        74.7588205370 Hartrees.
 NAtoms=    7 NActive=    7 NUniq=    7 SFac= 1.00D+00 NAtFMM=   60 NAOKFM=F Big=F
 Integral buffers will be    131072 words long.
 Raffenetti 2 integral format.
 Two-electron integral symmetry is turned on.
 R6APFD:  NTU= -4 IXU= 1 FactS= 1.050
 Nuclear repulsion after empirical dispersion term =       74.7576519681 Hartrees.
 One-electron integrals computed using PRISM.
 NBasis=    94 RedAO= T EigKep=  1.21D-04  NBF=    94
 NBsUse=    94 1.00D-06 EigRej= -1.00D+00 NBFU=    94
 ExpMin= 3.60D-02 ExpMax= 8.59D+03 ExpMxC= 1.30D+03 IAcc=3 IRadAn=         5 AccDes= 0.00D+00
 Harris functional with IExCor= 1009 and IRadAn=       5 diagonalized for initial guess.
 HarFok:  IExCor= 1009 AccDes= 0.00D+00 IRadAn=         5 IDoV= 1 UseB2=F ITyADJ=14
 ICtDFT=  3500011 ScaDFX=  1.000000  1.000000  1.000000  1.000000
 FoFCou: FMM=F IPFlag=           0 FMFlag=      100000 FMFlg1=           0
         NFxFlg=           0 DoJE=T BraDBF=F KetDBF=T FulRan=T
         wScrn=  0.000000 ICntrl=       500 IOpCl=  0 I1Cent=   200000004 NGrid=           0
         NMat0=    1 NMatS0=      1 NMatT0=    0 NMatD0=    1 NMtDS0=    0 NMtDT0=    0
 Petite list used in FoFCou.
 Keep R1 ints in memory in canonical form, NReq=24742730.
 Requested convergence on RMS density matrix=1.00D-08 within  32 cycles.
 Requested convergence on MAX density matrix=1.00D-06.
 Requested convergence on             energy=1.00D-06.
 No special actions if energy rises.
 SCF Done:  E(RM08HX) =  -153.778078968     A.U. after   10 cycles
            NFock= 10  Conv=0.55D-08     -V/T= 2.0045
 QCSCF skips out because SCF is already converged.

 **********************************************************************

            Population analysis using the SCF Density.

 **********************************************************************

 Orbital symmetries:
       Occupied  (A) (A) (A) (A) (A) (A) (A) (A) (A) (A) (A) (A)
       Virtual   (A) (A) (A) (A) (A) (A) (A) (A) (A) (A) (A) (A)
                 (A) (A) (A) (A) (A) (A) (A) (A) (A) (A) (A) (A)
                 (A) (A) (A) (A) (A) (A) (A) (A) (A) (A) (A) (A)
                 (A) (A) (A) (A) (A) (A) (A) (A) (A) (A) (A) (A)
                 (A) (A) (A) (A) (A) (A) (A) (A) (A) (A) (A) (A)
                 (A) (A) (A) (A) (A) (A) (A) (A) (A) (A) (A) (A)
                 (A) (A) (A) (A) (A) (A) (A) (A) (A) (A)
 The electronic state is 1-A.
 Alpha  occ. eigenvalues --  -19.63461 -10.58569 -10.58526  -1.19465  -0.77791
 Alpha  occ. eigenvalues --   -0.73151  -0.59765  -0.56046  -0.48036  -0.45783
 Alpha  occ. eigenvalues --   -0.37495  -0.36383
 Alpha virt. eigenvalues --   -0.02241  -0.00339   0.00032   0.01324   0.03532
 Alpha virt. eigenvalues --    0.05151   0.05441   0.10099   0.10656   0.10925
 Alpha virt. eigenvalues --    0.12775   0.14511   0.15417   0.15548   0.19112
 Alpha virt. eigenvalues --    0.21189   0.22203   0.22996   0.23029   0.25720
 Alpha virt. eigenvalues --    0.31569   0.34891   0.36603   0.45762   0.46331
 Alpha virt. eigenvalues --    0.57115   0.59119   0.61493   0.61728   0.64989
 Alpha virt. eigenvalues --    0.65738   0.66447   0.68781   0.81927   0.93048
 Alpha virt. eigenvalues --    1.04413   1.08040   1.20778   1.21072   1.21264
 Alpha virt. eigenvalues --    1.33777   1.41988   1.43791   1.47608   1.57029
 Alpha virt. eigenvalues --    1.57151   1.60679   1.63605   1.70805   1.83437
 Alpha virt. eigenvalues --    1.84898   1.87593   1.91737   2.10532   2.13889
 Alpha virt. eigenvalues --    2.20350   2.27573   2.37284   2.45129   2.48470
 Alpha virt. eigenvalues --    2.60361   2.62225   2.65429   2.77477   2.77698
 Alpha virt. eigenvalues --    2.82720   2.87742   3.15398   3.21039   3.28435
 Alpha virt. eigenvalues --    3.32045   3.63428   3.73009   3.84328   3.92038
 Alpha virt. eigenvalues --    4.49797   5.16059   5.61476   5.62011  23.90211
 Alpha virt. eigenvalues --   23.91886  49.88379
          Condensed to atoms (all electrons):
               1          2          3          4          5          6
     1  O    8.057981   0.118168   0.118050  -0.046044  -0.046035  -0.046054
     2  C    0.118168   6.068274  -0.612693   0.341812   0.341833   0.018434
     3  C    0.118050  -0.612693   6.068486   0.018463   0.018428   0.341809
     4  H   -0.046044   0.341812   0.018463   0.553892  -0.042310  -0.003718
     5  H   -0.046035   0.341833   0.018428  -0.042310   0.553898   0.003244
     6  H   -0.046054   0.018434   0.341809  -0.003718   0.003244   0.553965
     7  H   -0.046064   0.018469   0.341789   0.003238  -0.003718  -0.042330
               7
     1  O   -0.046064
     2  C    0.018469
     3  C    0.341789
     4  H    0.003238
     5  H   -0.003718
     6  H   -0.042330
     7  H    0.553959
 Mulliken charges:
               1
     1  O   -0.110003
     2  C   -0.294297
     3  C   -0.294332
     4  H    0.174666
     5  H    0.174659
     6  H    0.174650
     7  H    0.174657
 Sum of Mulliken charges =  -0.00000
 Mulliken charges with hydrogens summed into heavy atoms:
               1
     1  O   -0.110003
     2  C    0.055028
     3  C    0.054975
 Electronic spatial extent (au):  <R**2>=            132.4410
 Charge=             -0.0000 electrons
 Dipole moment (field-independent basis, Debye):
    X=              0.0007    Y=             -2.1933    Z=              0.0000  Tot=              2.1933
 Quadrupole moment (field-independent basis, Debye-Ang):
   XX=            -16.6378   YY=            -21.1461   ZZ=            -17.5988
   XY=              0.0008   XZ=              0.0000   YZ=              0.0002
 Traceless Quadrupole moment (field-independent basis, Debye-Ang):
   XX=              1.8231   YY=             -2.6852   ZZ=              0.8621
   XY=              0.0008   XZ=              0.0000   YZ=              0.0002
 Octapole moment (field-independent basis, Debye-Ang**2):
  XXX=              0.0005  YYY=              1.3725  ZZZ=              0.0002  XYY=             -0.0005
  XXY=             -0.5407  XXZ=              0.0001  XZZ=              0.0005  YZZ=             -0.5870
  YYZ=             -0.0002  XYZ=              0.0000
 Hexadecapole moment (field-independent basis, Debye-Ang**3):
 XXXX=            -80.5681 YYYY=            -62.5737 ZZZZ=            -31.1088 XXXY=             -0.0030
 XXXZ=              0.0000 YYYX=              0.0011 YYYZ=             -0.0001 ZZZX=             -0.0000
 ZZZY=             -0.0002 XXYY=            -22.0564 XXZZ=            -16.0368 YYZZ=            -15.5809
 XXYZ=              0.0001 YYXZ=             -0.0000 ZZXY=              0.0001
 N-N= 7.475765196811D+01 E-N=-5.090506234260D+02  KE= 1.530842204228D+02
 R6APFD:  NTU= -4 IXU= 1 FactS= 1.050
 Calling FoFJK, ICntrl=      2127 FMM=F ISym2X=0 I1Cent= 0 IOpClX= 0 NMat=1 NMatS=1 NMatT=0.
 ***** Axes restored to original set *****
 -------------------------------------------------------------------
 Center     Atomic                   Forces (Hartrees/Bohr)
 Number     Number              X              Y              Z
 -------------------------------------------------------------------
      1        8           0.000059771   -0.017421188   -0.000010304
      2        6          -0.029704905    0.001412228   -0.000007211
      3        6           0.029656381    0.001406756   -0.000007234
      4        1           0.002886799    0.003651208    0.006114999
      5        1           0.002878623    0.003661148   -0.006102644
      6        1          -0.002884238    0.003649907   -0.006097148
      7        1          -0.002892431    0.003639942    0.006109542
 -------------------------------------------------------------------
 Cartesian Forces:  Max     0.029704905 RMS     0.010476972

 GradGradGradGradGradGradGradGradGradGradGradGradGradGradGradGradGradGrad
 Berny optimization.
 FormGI is forming the generalized inverse of G from B-inverse, IUseBI=4.
 Internal  Forces:  Max     0.017856361 RMS     0.006221602
 Search for a local minimum.
 Step number   1 out of a maximum of   31
 All quantities printed in internal units (Hartrees-Bohrs-Radians)
 Mixed Optimization -- RFO/linear search
 Second derivative matrix not updated -- first step.
 ITU=  0
     Eigenvalues ---    0.02656   0.04328   0.04348   0.16000   0.16000
     Eigenvalues ---    0.16000   0.16000   0.16000   0.32020   0.35765
     Eigenvalues ---    0.35767   0.35768   0.35770   0.39204   0.40323
 RFO step:  Lambda=-4.75655244D-03 EMin= 2.65635981D-02
 Linear search not attempted -- first point.
 Iteration  1 RMS(Cart)=  0.04558756 RMS(Int)=  0.00362984
 Iteration  2 RMS(Cart)=  0.00294783 RMS(Int)=  0.00228200
 Iteration  3 RMS(Cart)=  0.00000550 RMS(Int)=  0.00228200
 Iteration  4 RMS(Cart)=  0.00000001 RMS(Int)=  0.00228200
 Variable       Old X    -DE/DX   Delta X   Delta X   Delta X     New X
                                 (Linear)    (Quad)   (Total)
    R1        2.70882  -0.01063   0.00000  -0.02779  -0.02799   2.68083
    R2        2.70851  -0.01055   0.00000  -0.02758  -0.02778   2.68073
    R3        2.83667  -0.01786   0.00000  -0.05014  -0.04975   2.78692
    R4        2.04443   0.00561   0.00000   0.01548   0.01548   2.05991
    R5        2.04448   0.00559   0.00000   0.01543   0.01543   2.05991
    R6        2.04450   0.00559   0.00000   0.01543   0.01543   2.05993
    R7        2.04446   0.00561   0.00000   0.01547   0.01547   2.05993
    A1        2.05117  -0.00264   0.00000  -0.04912  -0.05035   2.00082
    A2        2.05125  -0.00266   0.00000  -0.04921  -0.05044   2.00081
    A3        2.06315   0.00182   0.00000   0.03386   0.03004   2.09320
    A4        2.06314   0.00183   0.00000   0.03390   0.03008   2.09322
    A5        2.01110   0.00028   0.00000   0.01340   0.00870   2.01980
    A6        2.05123  -0.00264   0.00000  -0.04912  -0.05035   2.00089
    A7        2.05115  -0.00263   0.00000  -0.04903  -0.05026   2.00090
    A8        2.06313   0.00183   0.00000   0.03386   0.03005   2.09318
    A9        2.06314   0.00182   0.00000   0.03383   0.03002   2.09316
   A10        2.01106   0.00029   0.00000   0.01339   0.00870   2.01976
    D1       -2.56175  -0.00717   0.00000  -0.15026  -0.15091  -2.71266
    D2       -0.00005  -0.00000   0.00000  -0.00009  -0.00009  -0.00014
    D3        0.00005   0.00000   0.00000   0.00009   0.00009   0.00014
    D4        2.56175   0.00717   0.00000   0.15026   0.15091   2.71266
         Item               Value     Threshold  Converged?
 Maximum Force            0.017856     0.000450     NO 
 RMS     Force            0.006222     0.000300     NO 
 Maximum Displacement     0.092185     0.001800     NO 
 RMS     Displacement     0.044776     0.001200     NO 
 Predicted change in Energy=-2.577186D-03
 GradGradGradGradGradGradGradGradGradGradGradGradGradGradGradGradGradGrad

                          Input orientation:                          
 ---------------------------------------------------------------------
 Center     Atomic      Atomic             Coordinates (Angstroms)
 Number     Number       Type             X           Y           Z
 ---------------------------------------------------------------------
      1          8           0       -0.000566    0.765318   -0.000054
      2          6           0        0.737743   -0.446054    0.000001
      3          6           0       -0.737032   -0.447116    0.000001
      4          1           0        1.281784   -0.646616    0.923052
      5          1           0        1.281805   -0.646674   -0.923026
      6          1           0       -1.280777   -0.648658   -0.923022
      7          1           0       -1.280756   -0.648600    0.923048
 ---------------------------------------------------------------------
                    Distance matrix (angstroms):
                    1          2          3          4          5
     1  O    0.000000
     2  C    1.418633   0.000000
     3  C    1.418583   1.474775   0.000000
     4  H    2.118986   1.090059   2.228776   0.000000
     5  H    2.118979   1.090060   2.228790   1.846078   0.000000
     6  H    2.118994   2.228776   1.090069   3.158277   2.562583
     7  H    2.119002   2.228762   1.090068   2.562541   3.158277
                    6          7
     6  H    0.000000
     7  H    1.846070   0.000000
 Stoichiometry    C2H4O
 Framework group  C1[X(C2H4O)]
 Deg. of freedom    15
 Full point group                 C1      NOp   1
 Largest Abelian subgroup         C1      NOp   1
 Largest concise Abelian subgroup C1      NOp   1
                         Standard orientation:                         
 ---------------------------------------------------------------------
 Center     Atomic      Atomic             Coordinates (Angstroms)
 Number     Number       Type             X           Y           Z
 ---------------------------------------------------------------------
      1          8           0       -0.000035    0.841444   -0.000039
      2          6           0        0.737402   -0.370458    0.000016
      3          6           0       -0.737373   -0.370460    0.000016
      4          1           0        1.281298   -0.571412    0.923067
      5          1           0        1.281319   -0.571470   -0.923011
      6          1           0       -1.281264   -0.571610   -0.923007
      7          1           0       -1.281243   -0.571552    0.923063
 ---------------------------------------------------------------------
 Rotational constants (GHZ):          26.2485798          21.8754812          14.2413263
 Standard basis: 6-311++G(d,p) (5D, 7F)
 There are    97 symmetry adapted cartesian basis functions of A   symmetry.
 There are    94 symmetry adapted basis functions of A   symmetry.
    94 basis functions,   144 primitive gaussians,    97 cartesian basis functions
    12 alpha electrons       12 beta electrons
       nuclear repulsion energy        75.3899727740 Hartrees.
 NAtoms=    7 NActive=    7 NUniq=    7 SFac= 1.00D+00 NAtFMM=   60 NAOKFM=F Big=F
 Integral buffers will be    131072 words long.
 Raffenetti 2 integral format.
 Two-electron integral symmetry is turned on.
 R6APFD:  NTU= -4 IXU= 1 FactS= 1.050
 Nuclear repulsion after empirical dispersion term =       75.3889288562 Hartrees.
 One-electron integrals computed using PRISM.
 NBasis=    94 RedAO= T EigKep=  1.17D-04  NBF=    94
 NBsUse=    94 1.00D-06 EigRej= -1.00D+00 NBFU=    94
 Initial guess from the checkpoint file:  "ETOX0040.chk"
 B after Tr=     0.000000   -0.000000   -0.000000
         Rot=    1.000000    0.000013    0.000000    0.000126 Ang=   0.01 deg.
 ExpMin= 3.60D-02 ExpMax= 8.59D+03 ExpMxC= 1.30D+03 IAcc=3 IRadAn=         5 AccDes= 0.00D+00
 Harris functional with IExCor= 1009 and IRadAn=       5 diagonalized for initial guess.
 HarFok:  IExCor= 1009 AccDes= 0.00D+00 IRadAn=         5 IDoV= 1 UseB2=F ITyADJ=14
 ICtDFT=  3500011 ScaDFX=  1.000000  1.000000  1.000000  1.000000
 FoFCou: FMM=F IPFlag=           0 FMFlag=      100000 FMFlg1=           0
         NFxFlg=           0 DoJE=T BraDBF=F KetDBF=T FulRan=T
         wScrn=  0.000000 ICntrl=       500 IOpCl=  0 I1Cent=   200000004 NGrid=           0
         NMat0=    1 NMatS0=      1 NMatT0=    0 NMatD0=    1 NMtDS0=    0 NMtDT0=    0
 Petite list used in FoFCou.
 Keep R1 ints in memory in canonical form, NReq=24742730.
 Requested convergence on RMS density matrix=1.00D-08 within  32 cycles.
 Requested convergence on MAX density matrix=1.00D-06.
 Requested convergence on             energy=1.00D-06.
 No special actions if energy rises.
 SCF Done:  E(RM08HX) =  -153.780018867     A.U. after    9 cycles
            NFock=  9  Conv=0.91D-08     -V/T= 2.0042
 QCSCF skips out because SCF is already converged.
 R6APFD:  NTU= -4 IXU= 1 FactS= 1.050
 Calling FoFJK, ICntrl=      2127 FMM=F ISym2X=0 I1Cent= 0 IOpClX= 0 NMat=1 NMatS=1 NMatT=0.
 ***** Axes restored to original set *****
 -------------------------------------------------------------------
 Center     Atomic                   Forces (Hartrees/Bohr)
 Number     Number              X              Y              Z
 -------------------------------------------------------------------
      1        8           0.000004597    0.000757961    0.000002439
      2        6          -0.002516267    0.003186320   -0.000001729
      3        6           0.002504182    0.003156782   -0.000001728
      4        1          -0.000452941   -0.001778438    0.000408644
      5        1          -0.000454050   -0.001780033   -0.000408135
      6        1           0.000457795   -0.001772090   -0.000405813
      7        1           0.000456684   -0.001770502    0.000406321
 -------------------------------------------------------------------
 Cartesian Forces:  Max     0.003186320 RMS     0.001502286

 GradGradGradGradGradGradGradGradGradGradGradGradGradGradGradGradGradGrad
 Berny optimization.
 Using GEDIIS/GDIIS optimizer.
 FormGI is forming the generalized inverse of G from B-inverse, IUseBI=4.
 Internal  Forces:  Max     0.003783067 RMS     0.001356115
 Search for a local minimum.
 Step number   2 out of a maximum of   31
 All quantities printed in internal units (Hartrees-Bohrs-Radians)
 Mixed Optimization -- RFO/linear search
 Update second derivatives using D2CorX and points    1    2
 DE= -1.94D-03 DEPred=-2.58D-03 R= 7.53D-01
 TightC=F SS=  1.41D+00  RLast= 2.54D-01 DXNew= 5.0454D-01 7.6152D-01
 Trust test= 7.53D-01 RLast= 2.54D-01 DXMaxT set to 5.05D-01
 ITU=  1  0
 Use linear search instead of GDIIS.
     Eigenvalues ---    0.02588   0.04000   0.06319   0.16000   0.16000
     Eigenvalues ---    0.16000   0.16000   0.16097   0.27266   0.35356
     Eigenvalues ---    0.35766   0.35767   0.35769   0.38639   0.40037
 RFO step:  Lambda=-2.42209698D-04 EMin= 2.58757799D-02
 Quartic linear search produced a step of -0.15533.
 Iteration  1 RMS(Cart)=  0.01634777 RMS(Int)=  0.00030694
 Iteration  2 RMS(Cart)=  0.00030274 RMS(Int)=  0.00015916
 Iteration  3 RMS(Cart)=  0.00000003 RMS(Int)=  0.00015916
 Variable       Old X    -DE/DX   Delta X   Delta X   Delta X     New X
                                 (Linear)    (Quad)   (Total)
    R1        2.68083   0.00051   0.00435  -0.00441  -0.00004   2.68078
    R2        2.68073   0.00052   0.00432  -0.00434   0.00000   2.68074
    R3        2.78692  -0.00378   0.00773  -0.02312  -0.01543   2.77149
    R4        2.05991   0.00045  -0.00240   0.00454   0.00214   2.06205
    R5        2.05991   0.00045  -0.00240   0.00453   0.00213   2.06205
    R6        2.05993   0.00044  -0.00240   0.00452   0.00213   2.06206
    R7        2.05993   0.00044  -0.00240   0.00453   0.00213   2.06206
    A1        2.00082   0.00041   0.00782   0.00414   0.01210   2.01292
    A2        2.00081   0.00042   0.00784   0.00414   0.01212   2.01292
    A3        2.09320  -0.00101  -0.00467  -0.00590  -0.01033   2.08287
    A4        2.09322  -0.00101  -0.00467  -0.00591  -0.01034   2.08287
    A5        2.01980   0.00084  -0.00135   0.00389   0.00287   2.02267
    A6        2.00089   0.00042   0.00782   0.00410   0.01206   2.01294
    A7        2.00090   0.00041   0.00781   0.00410   0.01205   2.01294
    A8        2.09318  -0.00101  -0.00467  -0.00588  -0.01031   2.08288
    A9        2.09316  -0.00100  -0.00466  -0.00587  -0.01029   2.08287
   A10        2.01976   0.00084  -0.00135   0.00389   0.00287   2.02263
    D1       -2.71266   0.00290   0.02344   0.01991   0.04336  -2.66930
    D2       -0.00014   0.00001   0.00001   0.00009   0.00010  -0.00004
    D3        0.00014  -0.00001  -0.00001  -0.00009  -0.00010   0.00004
    D4        2.71266  -0.00290  -0.02344  -0.01991  -0.04336   2.66930
         Item               Value     Threshold  Converged?
 Maximum Force            0.003783     0.000450     NO 
 RMS     Force            0.001356     0.000300     NO 
 Maximum Displacement     0.027198     0.001800     NO 
 RMS     Displacement     0.016556     0.001200     NO 
 Predicted change in Energy=-1.904608D-04
 GradGradGradGradGradGradGradGradGradGradGradGradGradGradGradGradGradGrad

                          Input orientation:                          
 ---------------------------------------------------------------------
 Center     Atomic      Atomic             Coordinates (Angstroms)
 Number     Number       Type             X           Y           Z
 ---------------------------------------------------------------------
      1          8           0       -0.000585    0.779710   -0.000045
      2          6           0        0.733658   -0.434102    0.000000
      3          6           0       -0.732950   -0.435207    0.000000
      4          1           0        1.268492   -0.656195    0.924839
      5          1           0        1.268498   -0.656260   -0.924817
      6          1           0       -1.267459   -0.658206   -0.924810
      7          1           0       -1.267454   -0.658141    0.924832
 ---------------------------------------------------------------------
                    Distance matrix (angstroms):
                    1          2          3          4          5
     1  O    0.000000
     2  C    1.418610   0.000000
     3  C    1.418584   1.466608   0.000000
     4  H    2.127860   1.091191   2.215836   0.000000
     5  H    2.127859   1.091190   2.215839   1.849656   0.000000
     6  H    2.127854   2.215844   1.091193   3.138830   2.535957
     7  H    2.127855   2.215842   1.091195   2.535946   3.138830
                    6          7
     6  H    0.000000
     7  H    1.849641   0.000000
 Stoichiometry    C2H4O
 Framework group  C1[X(C2H4O)]
 Deg. of freedom    15
 Full point group                 C1      NOp   1
 Largest Abelian subgroup         C1      NOp   1
 Largest concise Abelian subgroup C1      NOp   1
                         Standard orientation:                         
 ---------------------------------------------------------------------
 Center     Atomic      Atomic             Coordinates (Angstroms)
 Number     Number       Type             X           Y           Z
 ---------------------------------------------------------------------
      1          8           0       -0.000031    0.846668   -0.000032
      2          6           0        0.733319   -0.367685    0.000013
      3          6           0       -0.733289   -0.367710    0.000013
      4          1           0        1.267989   -0.590171    0.924852
      5          1           0        1.267995   -0.590236   -0.924804
      6          1           0       -1.267962   -0.590316   -0.924797
      7          1           0       -1.267957   -0.590251    0.924844
 ---------------------------------------------------------------------
 Rotational constants (GHZ):          25.9982412          22.1317862          14.2851163
 Standard basis: 6-311++G(d,p) (5D, 7F)
 There are    97 symmetry adapted cartesian basis functions of A   symmetry.
 There are    94 symmetry adapted basis functions of A   symmetry.
    94 basis functions,   144 primitive gaussians,    97 cartesian basis functions
    12 alpha electrons       12 beta electrons
       nuclear repulsion energy        75.4554074193 Hartrees.
 NAtoms=    7 NActive=    7 NUniq=    7 SFac= 1.00D+00 NAtFMM=   60 NAOKFM=F Big=F
 Integral buffers will be    131072 words long.
 Raffenetti 2 integral format.
 Two-electron integral symmetry is turned on.
 R6APFD:  NTU= -4 IXU= 1 FactS= 1.050
 Nuclear repulsion after empirical dispersion term =       75.4543604311 Hartrees.
 One-electron integrals computed using PRISM.
 NBasis=    94 RedAO= T EigKep=  1.12D-04  NBF=    94
 NBsUse=    94 1.00D-06 EigRej= -1.00D+00 NBFU=    94
 Initial guess from the checkpoint file:  "ETOX0040.chk"
 B after Tr=     0.000000   -0.000000   -0.000000
         Rot=    1.000000   -0.000002   -0.000000    0.000002 Ang=  -0.00 deg.
 ExpMin= 3.60D-02 ExpMax= 8.59D+03 ExpMxC= 1.30D+03 IAcc=3 IRadAn=         5 AccDes= 0.00D+00
 Harris functional with IExCor= 1009 and IRadAn=       5 diagonalized for initial guess.
 HarFok:  IExCor= 1009 AccDes= 0.00D+00 IRadAn=         5 IDoV= 1 UseB2=F ITyADJ=14
 ICtDFT=  3500011 ScaDFX=  1.000000  1.000000  1.000000  1.000000
 FoFCou: FMM=F IPFlag=           0 FMFlag=      100000 FMFlg1=           0
         NFxFlg=           0 DoJE=T BraDBF=F KetDBF=T FulRan=T
         wScrn=  0.000000 ICntrl=       500 IOpCl=  0 I1Cent=   200000004 NGrid=           0
         NMat0=    1 NMatS0=      1 NMatT0=    0 NMatD0=    1 NMtDS0=    0 NMtDT0=    0
 Petite list used in FoFCou.
 Keep R1 ints in memory in canonical form, NReq=24742730.
 Requested convergence on RMS density matrix=1.00D-08 within  32 cycles.
 Requested convergence on MAX density matrix=1.00D-06.
 Requested convergence on             energy=1.00D-06.
 No special actions if energy rises.
 SCF Done:  E(RM08HX) =  -153.780177913     A.U. after    9 cycles
            NFock=  9  Conv=0.30D-08     -V/T= 2.0041
 QCSCF skips out because SCF is already converged.
 R6APFD:  NTU= -4 IXU= 1 FactS= 1.050
 Calling FoFJK, ICntrl=      2127 FMM=F ISym2X=0 I1Cent= 0 IOpClX= 0 NMat=1 NMatS=1 NMatT=0.
 ***** Axes restored to original set *****
 -------------------------------------------------------------------
 Center     Atomic                   Forces (Hartrees/Bohr)
 Number     Number              X              Y              Z
 -------------------------------------------------------------------
      1        8           0.000006040   -0.000859632    0.000000215
      2        6           0.001827450    0.000230368    0.000000973
      3        6          -0.001836591    0.000215095    0.000000977
      4        1           0.000106243    0.000103119   -0.000433565
      5        1           0.000106506    0.000102773    0.000432484
      6        1          -0.000104956    0.000103965    0.000432488
      7        1          -0.000104692    0.000104312   -0.000433572
 -------------------------------------------------------------------
 Cartesian Forces:  Max     0.001836591 RMS     0.000632023

 GradGradGradGradGradGradGradGradGradGradGradGradGradGradGradGradGradGrad
 Berny optimization.
 Using GEDIIS/GDIIS optimizer.
 FormGI is forming the generalized inverse of G from B-inverse, IUseBI=4.
 Internal  Forces:  Max     0.002244830 RMS     0.000566764
 Search for a local minimum.
 Step number   3 out of a maximum of   31
 All quantities printed in internal units (Hartrees-Bohrs-Radians)
 Mixed Optimization -- En-DIIS/RFO-DIIS
 Update second derivatives using D2CorX and points    1    2    3
 DE= -1.59D-04 DEPred=-1.90D-04 R= 8.35D-01
 TightC=F SS=  1.41D+00  RLast= 7.10D-02 DXNew= 8.4853D-01 2.1304D-01
 Trust test= 8.35D-01 RLast= 7.10D-02 DXMaxT set to 5.05D-01
 ITU=  1  1  0
 Use linear search instead of GDIIS.
     Eigenvalues ---    0.02622   0.04101   0.06218   0.16000   0.16000
     Eigenvalues ---    0.16000   0.16000   0.16725   0.32608   0.35331
     Eigenvalues ---    0.35766   0.35767   0.35769   0.38762   0.41195
 RFO step:  Lambda=-1.05693382D-05 EMin= 2.62191077D-02
 Quartic linear search produced a step of -0.14414.
 Iteration  1 RMS(Cart)=  0.00274141 RMS(Int)=  0.00002673
 Iteration  2 RMS(Cart)=  0.00000176 RMS(Int)=  0.00002667
 Iteration  3 RMS(Cart)=  0.00000000 RMS(Int)=  0.00002667
 Variable       Old X    -DE/DX   Delta X   Delta X   Delta X     New X
                                 (Linear)    (Quad)   (Total)
    R1        2.68078  -0.00048   0.00001  -0.00072  -0.00071   2.68008
    R2        2.68074  -0.00047  -0.00000  -0.00069  -0.00069   2.68005
    R3        2.77149   0.00224   0.00222   0.00406   0.00628   2.77777
    R4        2.06205  -0.00034  -0.00031  -0.00062  -0.00093   2.06113
    R5        2.06205  -0.00034  -0.00031  -0.00062  -0.00092   2.06112
    R6        2.06206  -0.00034  -0.00031  -0.00062  -0.00093   2.06113
    R7        2.06206  -0.00034  -0.00031  -0.00062  -0.00093   2.06113
    A1        2.01292   0.00019  -0.00174   0.00209   0.00035   2.01328
    A2        2.01292   0.00019  -0.00175   0.00210   0.00036   2.01328
    A3        2.08287   0.00025   0.00149  -0.00017   0.00137   2.08424
    A4        2.08287   0.00025   0.00149  -0.00017   0.00136   2.08424
    A5        2.02267  -0.00035  -0.00041  -0.00142  -0.00178   2.02089
    A6        2.01294   0.00019  -0.00174   0.00208   0.00035   2.01329
    A7        2.01294   0.00019  -0.00174   0.00207   0.00034   2.01329
    A8        2.08288   0.00025   0.00149  -0.00017   0.00136   2.08424
    A9        2.08287   0.00025   0.00148  -0.00016   0.00137   2.08424
   A10        2.02263  -0.00035  -0.00041  -0.00140  -0.00176   2.02087
    D1       -2.66930  -0.00029  -0.00625   0.00446  -0.00178  -2.67108
    D2       -0.00004   0.00000  -0.00002   0.00003   0.00002  -0.00002
    D3        0.00004  -0.00000   0.00002  -0.00003  -0.00002   0.00002
    D4        2.66930   0.00029   0.00625  -0.00446   0.00178   2.67108
         Item               Value     Threshold  Converged?
 Maximum Force            0.002245     0.000450     NO 
 RMS     Force            0.000567     0.000300     NO 
 Maximum Displacement     0.005143     0.001800     NO 
 RMS     Displacement     0.002741     0.001200     NO 
 Predicted change in Energy=-9.991905D-06
 GradGradGradGradGradGradGradGradGradGradGradGradGradGradGradGradGradGrad

                          Input orientation:                          
 ---------------------------------------------------------------------
 Center     Atomic      Atomic             Coordinates (Angstroms)
 Number     Number       Type             X           Y           Z
 ---------------------------------------------------------------------
      1          8           0       -0.000582    0.777854   -0.000042
      2          6           0        0.735319   -0.434516    0.000001
      3          6           0       -0.734613   -0.435632    0.000001
      4          1           0        1.271213   -0.655518    0.923908
      5          1           0        1.271215   -0.655586   -0.923888
      6          1           0       -1.270177   -0.657535   -0.923883
      7          1           0       -1.270175   -0.657467    0.923903
 ---------------------------------------------------------------------
                    Distance matrix (angstroms):
                    1          2          3          4          5
     1  O    0.000000
     2  C    1.418235   0.000000
     3  C    1.418221   1.469932   0.000000
     4  H    2.127370   1.090700   2.219299   0.000000
     5  H    2.127372   1.090700   2.219300   1.847796   0.000000
     6  H    2.127369   2.219305   1.090703   3.142132   2.541392
     7  H    2.127367   2.219304   1.090703   2.541389   3.142132
                    6          7
     6  H    0.000000
     7  H    1.847786   0.000000
 Stoichiometry    C2H4O
 Framework group  C1[X(C2H4O)]
 Deg. of freedom    15
 Full point group                 C1      NOp   1
 Largest Abelian subgroup         C1      NOp   1
 Largest concise Abelian subgroup C1      NOp   1
                         Standard orientation:                         
 ---------------------------------------------------------------------
 Center     Atomic      Atomic             Coordinates (Angstroms)
 Number     Number       Type             X           Y           Z
 ---------------------------------------------------------------------
      1          8           0       -0.000017    0.845528   -0.000030
      2          6           0        0.734975   -0.367394    0.000013
      3          6           0       -0.734957   -0.367408    0.000013
      4          1           0        1.270703   -0.588798    0.923919
      5          1           0        1.270704   -0.588866   -0.923876
      6          1           0       -1.270688   -0.588910   -0.923871
      7          1           0       -1.270686   -0.588842    0.923914
 ---------------------------------------------------------------------
 Rotational constants (GHZ):          26.0639817          22.0550283          14.2672554
 Standard basis: 6-311++G(d,p) (5D, 7F)
 There are    97 symmetry adapted cartesian basis functions of A   symmetry.
 There are    94 symmetry adapted basis functions of A   symmetry.
    94 basis functions,   144 primitive gaussians,    97 cartesian basis functions
    12 alpha electrons       12 beta electrons
       nuclear repulsion energy        75.4328016672 Hartrees.
 NAtoms=    7 NActive=    7 NUniq=    7 SFac= 1.00D+00 NAtFMM=   60 NAOKFM=F Big=F
 Integral buffers will be    131072 words long.
 Raffenetti 2 integral format.
 Two-electron integral symmetry is turned on.
 R6APFD:  NTU= -4 IXU= 1 FactS= 1.050
 Nuclear repulsion after empirical dispersion term =       75.4317488598 Hartrees.
 One-electron integrals computed using PRISM.
 NBasis=    94 RedAO= T EigKep=  1.13D-04  NBF=    94
 NBsUse=    94 1.00D-06 EigRej= -1.00D+00 NBFU=    94
 Initial guess from the checkpoint file:  "ETOX0040.chk"
 B after Tr=    -0.000000    0.000000    0.000000
         Rot=    1.000000   -0.000001   -0.000000    0.000006 Ang=  -0.00 deg.
 Keep R1 ints in memory in canonical form, NReq=24742730.
 Requested convergence on RMS density matrix=1.00D-08 within  32 cycles.
 Requested convergence on MAX density matrix=1.00D-06.
 Requested convergence on             energy=1.00D-06.
 No special actions if energy rises.
 SCF Done:  E(RM08HX) =  -153.780187905     A.U. after    8 cycles
            NFock=  8  Conv=0.35D-08     -V/T= 2.0041
 QCSCF skips out because SCF is already converged.
 R6APFD:  NTU= -4 IXU= 1 FactS= 1.050
 Calling FoFJK, ICntrl=      2127 FMM=F ISym2X=0 I1Cent= 0 IOpClX= 0 NMat=1 NMatS=1 NMatT=0.
 ***** Axes restored to original set *****
 -------------------------------------------------------------------
 Center     Atomic                   Forces (Hartrees/Bohr)
 Number     Number              X              Y              Z
 -------------------------------------------------------------------
      1        8           0.000003468   -0.000439799   -0.000000356
      2        6          -0.000295822    0.000238149    0.000000404
      3        6           0.000289832    0.000231642    0.000000405
      4        1           0.000031256   -0.000007941   -0.000028529
      5        1           0.000031205   -0.000007750    0.000028303
      6        1          -0.000029945   -0.000007055    0.000028246
      7        1          -0.000029995   -0.000007246   -0.000028472
 -------------------------------------------------------------------
 Cartesian Forces:  Max     0.000439799 RMS     0.000151582

 GradGradGradGradGradGradGradGradGradGradGradGradGradGradGradGradGradGrad
 Berny optimization.
 Using GEDIIS/GDIIS optimizer.
 FormGI is forming the generalized inverse of G from B-inverse, IUseBI=4.
 Internal  Forces:  Max     0.000256921 RMS     0.000084565
 Search for a local minimum.
 Step number   4 out of a maximum of   31
 All quantities printed in internal units (Hartrees-Bohrs-Radians)
 Mixed Optimization -- En-DIIS/RFO-DIIS
 Swapping is turned off.
 Update second derivatives using D2CorX and points    1    2    3    4
 DE= -9.99D-06 DEPred=-9.99D-06 R= 1.00D+00
 TightC=F SS=  1.41D+00  RLast= 8.03D-03 DXNew= 8.4853D-01 2.4080D-02
 Trust test= 1.00D+00 RLast= 8.03D-03 DXMaxT set to 5.05D-01
 ITU=  1  1  1  0
     Eigenvalues ---    0.02616   0.04089   0.06280   0.16000   0.16000
     Eigenvalues ---    0.16000   0.16000   0.16159   0.35146   0.35765
     Eigenvalues ---    0.35767   0.35769   0.35854   0.37388   0.38764
 En-DIIS/RFO-DIIS/Sim-DIIS IScMMF=       -3 using points:     4    3
 RFO step:  Lambda=-4.55044317D-07.
 DidBck=F Rises=F RFO-DIIS coefs:    1.02412   -0.02412
 Iteration  1 RMS(Cart)=  0.00019772 RMS(Int)=  0.00000003
 Iteration  2 RMS(Cart)=  0.00000002 RMS(Int)=  0.00000003
 Variable       Old X    -DE/DX   Delta X   Delta X   Delta X     New X
                                 (Linear)    (Quad)   (Total)
    R1        2.68008  -0.00026  -0.00002  -0.00070  -0.00072   2.67936
    R2        2.68005  -0.00025  -0.00002  -0.00068  -0.00070   2.67935
    R3        2.77777  -0.00010   0.00015  -0.00043  -0.00028   2.77749
    R4        2.06113  -0.00001  -0.00002   0.00001  -0.00002   2.06111
    R5        2.06112  -0.00001  -0.00002   0.00001  -0.00002   2.06111
    R6        2.06113  -0.00001  -0.00002   0.00000  -0.00002   2.06111
    R7        2.06113  -0.00001  -0.00002   0.00000  -0.00002   2.06111
    A1        2.01328   0.00002   0.00001   0.00013   0.00014   2.01342
    A2        2.01328   0.00002   0.00001   0.00013   0.00014   2.01342
    A3        2.08424   0.00003   0.00003   0.00015   0.00019   2.08442
    A4        2.08424   0.00003   0.00003   0.00015   0.00019   2.08442
    A5        2.02089  -0.00005  -0.00004  -0.00033  -0.00037   2.02052
    A6        2.01329   0.00002   0.00001   0.00012   0.00013   2.01343
    A7        2.01329   0.00002   0.00001   0.00013   0.00014   2.01343
    A8        2.08424   0.00003   0.00003   0.00015   0.00018   2.08443
    A9        2.08424   0.00003   0.00003   0.00015   0.00019   2.08443
   A10        2.02087  -0.00005  -0.00004  -0.00032  -0.00036   2.02051
    D1       -2.67108  -0.00001  -0.00004   0.00012   0.00007  -2.67100
    D2       -0.00002   0.00000   0.00000   0.00001   0.00001  -0.00001
    D3        0.00002  -0.00000  -0.00000  -0.00001  -0.00001   0.00001
    D4        2.67108   0.00001   0.00004  -0.00012  -0.00007   2.67100
         Item               Value     Threshold  Converged?
 Maximum Force            0.000257     0.000450     YES
 RMS     Force            0.000085     0.000300     YES
 Maximum Displacement     0.000626     0.001800     YES
 RMS     Displacement     0.000198     0.001200     YES
 Predicted change in Energy=-2.275221D-07
 Optimization completed.
    -- Stationary point found.
                           ----------------------------
                           !   Optimized Parameters   !
                           ! (Angstroms and Degrees)  !
 --------------------------                            --------------------------
 ! Name  Definition              Value          Derivative Info.                !
 --------------------------------------------------------------------------------
 ! R1    R(1,2)                  1.4182         -DE/DX =   -0.0003              !
 ! R2    R(1,3)                  1.4182         -DE/DX =   -0.0003              !
 ! R3    R(2,3)                  1.4699         -DE/DX =   -0.0001              !
 ! R4    R(2,4)                  1.0907         -DE/DX =    0.0                 !
 ! R5    R(2,5)                  1.0907         -DE/DX =    0.0                 !
 ! R6    R(3,6)                  1.0907         -DE/DX =    0.0                 !
 ! R7    R(3,7)                  1.0907         -DE/DX =    0.0                 !
 ! A1    A(1,2,4)              115.3522         -DE/DX =    0.0                 !
 ! A2    A(1,2,5)              115.3524         -DE/DX =    0.0                 !
 ! A3    A(3,2,4)              119.4179         -DE/DX =    0.0                 !
 ! A4    A(3,2,5)              119.418          -DE/DX =    0.0                 !
 ! A5    A(4,2,5)              115.7885         -DE/DX =    0.0                 !
 ! A6    A(1,3,6)              115.3531         -DE/DX =    0.0                 !
 ! A7    A(1,3,7)              115.3529         -DE/DX =    0.0                 !
 ! A8    A(2,3,6)              119.4182         -DE/DX =    0.0                 !
 ! A9    A(2,3,7)              119.4181         -DE/DX =    0.0                 !
 ! A10   A(6,3,7)              115.7871         -DE/DX =    0.0                 !
 ! D1    D(4,2,3,6)           -153.0416         -DE/DX =    0.0                 !
 ! D2    D(4,2,3,7)             -0.0012         -DE/DX =    0.0                 !
 ! D3    D(5,2,3,6)              0.0012         -DE/DX =    0.0                 !
 ! D4    D(5,2,3,7)            153.0416         -DE/DX =    0.0                 !
 --------------------------------------------------------------------------------
 GradGradGradGradGradGradGradGradGradGradGradGradGradGradGradGradGradGrad

                          Input orientation:                          
 ---------------------------------------------------------------------
 Center     Atomic      Atomic             Coordinates (Angstroms)
 Number     Number       Type             X           Y           Z
 ---------------------------------------------------------------------
      1          8           0       -0.000582    0.777854   -0.000042
      2          6           0        0.735319   -0.434516    0.000001
      3          6           0       -0.734613   -0.435632    0.000001
      4          1           0        1.271213   -0.655518    0.923908
      5          1           0        1.271215   -0.655586   -0.923888
      6          1           0       -1.270177   -0.657535   -0.923883
      7          1           0       -1.270175   -0.657467    0.923903
 ---------------------------------------------------------------------
                    Distance matrix (angstroms):
                    1          2          3          4          5
     1  O    0.000000
     2  C    1.418235   0.000000
     3  C    1.418221   1.469932   0.000000
     4  H    2.127370   1.090700   2.219299   0.000000
     5  H    2.127372   1.090700   2.219300   1.847796   0.000000
     6  H    2.127369   2.219305   1.090703   3.142132   2.541392
     7  H    2.127367   2.219304   1.090703   2.541389   3.142132
                    6          7
     6  H    0.000000
     7  H    1.847786   0.000000
 Stoichiometry    C2H4O
 Framework group  C1[X(C2H4O)]
 Deg. of freedom    15
 Full point group                 C1      NOp   1
 Largest Abelian subgroup         C1      NOp   1
 Largest concise Abelian subgroup C1      NOp   1
                         Standard orientation:                         
 ---------------------------------------------------------------------
 Center     Atomic      Atomic             Coordinates (Angstroms)
 Number     Number       Type             X           Y           Z
 ---------------------------------------------------------------------
      1          8           0       -0.000017    0.845528   -0.000030
      2          6           0        0.734975   -0.367394    0.000013
      3          6           0       -0.734957   -0.367408    0.000013
      4          1           0        1.270703   -0.588798    0.923919
      5          1           0        1.270704   -0.588866   -0.923876
      6          1           0       -1.270688   -0.588910   -0.923871
      7          1           0       -1.270686   -0.588842    0.923914
 ---------------------------------------------------------------------
 Rotational constants (GHZ):          26.0639817          22.0550283          14.2672554

 **********************************************************************

            Population analysis using the SCF Density.

 **********************************************************************

 Orbital symmetries:
       Occupied  (A) (A) (A) (A) (A) (A) (A) (A) (A) (A) (A) (A)
       Virtual   (A) (A) (A) (A) (A) (A) (A) (A) (A) (A) (A) (A)
                 (A) (A) (A) (A) (A) (A) (A) (A) (A) (A) (A) (A)
                 (A) (A) (A) (A) (A) (A) (A) (A) (A) (A) (A) (A)
                 (A) (A) (A) (A) (A) (A) (A) (A) (A) (A) (A) (A)
                 (A) (A) (A) (A) (A) (A) (A) (A) (A) (A) (A) (A)
                 (A) (A) (A) (A) (A) (A) (A) (A) (A) (A) (A) (A)
                 (A) (A) (A) (A) (A) (A) (A) (A) (A) (A)
 The electronic state is 1-A.
 Alpha  occ. eigenvalues --  -19.62962 -10.58534 -10.58485  -1.20528  -0.77509
 Alpha  occ. eigenvalues --   -0.73113  -0.60192  -0.56387  -0.47567  -0.45449
 Alpha  occ. eigenvalues --   -0.38389  -0.35957
 Alpha virt. eigenvalues --   -0.02175  -0.00327  -0.00001   0.01363   0.03484
 Alpha virt. eigenvalues --    0.05273   0.05400   0.10130   0.10633   0.11289
 Alpha virt. eigenvalues --    0.12811   0.14885   0.15434   0.16116   0.19060
 Alpha virt. eigenvalues --    0.21290   0.21749   0.22175   0.23338   0.26972
 Alpha virt. eigenvalues --    0.31627   0.35719   0.36825   0.45723   0.46415
 Alpha virt. eigenvalues --    0.57208   0.58721   0.62275   0.64626   0.64849
 Alpha virt. eigenvalues --    0.64877   0.66852   0.69835   0.82201   0.93249
 Alpha virt. eigenvalues --    1.03881   1.07934   1.19453   1.20720   1.21386
 Alpha virt. eigenvalues --    1.31917   1.42063   1.45225   1.46056   1.57581
 Alpha virt. eigenvalues --    1.59168   1.60270   1.65001   1.70458   1.85830
 Alpha virt. eigenvalues --    1.86424   1.88048   1.90688   2.10969   2.12295
 Alpha virt. eigenvalues --    2.19252   2.25884   2.37568   2.43217   2.49659
 Alpha virt. eigenvalues --    2.59318   2.62430   2.66739   2.79620   2.81465
 Alpha virt. eigenvalues --    2.83027   2.88014   3.18108   3.24442   3.30571
 Alpha virt. eigenvalues --    3.31757   3.64959   3.75892   3.83166   3.95119
 Alpha virt. eigenvalues --    4.50069   5.15505   5.61069   5.65111  23.89333
 Alpha virt. eigenvalues --   23.94705  49.89162
          Condensed to atoms (all electrons):
               1          2          3          4          5          6
     1  O    8.086811   0.109574   0.109566  -0.049724  -0.049723  -0.049725
     2  C    0.109574   6.079040  -0.633748   0.346469   0.346470   0.023519
     3  C    0.109566  -0.633748   6.079066   0.023518   0.023518   0.346466
     4  H   -0.049724   0.346469   0.023518   0.538811  -0.031591  -0.002541
     5  H   -0.049723   0.346470   0.023518  -0.031591   0.538810   0.000869
     6  H   -0.049725   0.023519   0.346466  -0.002541   0.000869   0.538823
     7  H   -0.049725   0.023520   0.346465   0.000869  -0.002541  -0.031598
               7
     1  O   -0.049725
     2  C    0.023520
     3  C    0.346465
     4  H    0.000869
     5  H   -0.002541
     6  H   -0.031598
     7  H    0.538824
 Mulliken charges:
               1
     1  O   -0.107054
     2  C   -0.294843
     3  C   -0.294851
     4  H    0.174188
     5  H    0.174188
     6  H    0.174186
     7  H    0.174186
 Sum of Mulliken charges =  -0.00000
 Mulliken charges with hydrogens summed into heavy atoms:
               1
     1  O   -0.107054
     2  C    0.053533
     3  C    0.053521
 Electronic spatial extent (au):  <R**2>=            130.7330
 Charge=             -0.0000 electrons
 Dipole moment (field-independent basis, Debye):
    X=              0.0000    Y=             -2.0769    Z=              0.0001  Tot=              2.0769
 Quadrupole moment (field-independent basis, Debye-Ang):
   XX=            -16.5336   YY=            -21.3087   ZZ=            -17.5277
   XY=              0.0001   XZ=             -0.0000   YZ=              0.0001
 Traceless Quadrupole moment (field-independent basis, Debye-Ang):
   XX=              1.9231   YY=             -2.8520   ZZ=              0.9289
   XY=              0.0001   XZ=             -0.0000   YZ=              0.0001
 Octapole moment (field-independent basis, Debye-Ang**2):
  XXX=              0.0000  YYY=              1.6170  ZZZ=              0.0000  XYY=             -0.0000
  XXY=             -0.2423  XXZ=             -0.0000  XZZ=              0.0001  YZZ=             -0.3676
  YYZ=             -0.0001  XYZ=              0.0000
 Hexadecapole moment (field-independent basis, Debye-Ang**3):
 XXXX=            -78.9703 YYYY=            -61.2563 ZZZZ=            -31.4038 XXXY=             -0.0001
 XXXZ=              0.0000 YYYX=              0.0001 YYYZ=              0.0005 ZZZX=              0.0000
 ZZZY=              0.0005 XXYY=            -22.0675 XXZZ=            -15.6958 YYZZ=            -15.6679
 XXYZ=              0.0002 YYXZ=              0.0000 ZZXY=              0.0000
 N-N= 7.543174885985D+01 E-N=-5.104467929740D+02  KE= 1.531456012068D+02
 1\1\GINC-PITOMBA\FOpt\RM08HX\6-311++G(d,p)\C2H4O1\VALTER\06-Oct-2025\0
 \\# opt freq=noraman M08HX/6-311++G** scf=xqc Empiricaldispersion=pfd 
 Int(Grid=ultraFine)\\ETOX0040\\0,1\O,-0.0005818947,0.7778543829,-0.000
 0415083\C,0.7353191989,-0.4345156094,0.0000010726\C,-0.7346126599,-0.4
 356317159,0.0000010911\H,1.2712127464,-0.6555183914,0.9239076701\H,1.2
 712145403,-0.6555860296,-0.9238880317\H,-1.270176836,-0.6575351378,-0.
 9238830204\H,-1.2701750949,-0.6574674988,0.9239027266\\Version=ES64L-G
 16RevB.01\State=1-A\HF=-153.7801879\RMSD=3.546e-09\RMSF=1.516e-04\Dipo
 le=0.0006311,-0.8171078,0.0000285\Quadrupole=1.4297644,-2.1204086,0.69
 06442,0.0027042,0.,0.0001035\PG=C01 [X(C2H4O1)]\\@


 THE MOST SERIOUS THREAT TO THE SURVIVAL OF MANKIND IS NOT NOW
 IGNORANCE IN THE TRADITIONAL SENSE,
 BUT A MORALLY NEUTRAL, AN INSENSITIVE OR INHIBITED HUMAN INTELLIGENCE.

                     -- MARGO JEFFERSON IN NEWSWEEK, SEPTEMBER 2, 1974
 Job cpu time:       0 days  0 hours  2 minutes 56.9 seconds.
 Elapsed time:       0 days  0 hours  0 minutes 12.8 seconds.
 File lengths (MBytes):  RWF=     10 Int=      0 D2E=      0 Chk=      2 Scr=      1
 Normal termination of Gaussian 16 at Mon Oct  6 22:34:17 2025.
 Link1:  Proceeding to internal job step number  2.
 ----------------------------------------------------------------------
 #N Geom=AllCheck Guess=TCheck SCRF=Check GenChk RM08HX/6-311++G(d,p) F
 req
 ----------------------------------------------------------------------
 1/10=4,29=7,30=1,38=1,40=1/1,3;
 2/12=2,40=1/2;
 3/5=4,6=6,7=1111,11=2,14=-4,25=1,30=1,70=2,71=2,74=-74,75=-5,116=1,124=11,140=1/1,2,3;
 4/5=101/1;
 5/5=2,8=3,13=1,38=6,98=1/2,8;
 8/6=4,10=90,11=11/1;
 11/6=1,8=1,9=11,15=111,16=1/1,2,10;
 10/6=1/2;
 6/7=2,8=2,9=2,10=2,28=1/1;
 7/8=1,10=1,25=1/1,2,3,16;
 1/10=4,30=1/3;
 99//99;
 Structure from the checkpoint file:  "ETOX0040.chk"
 --------
 ETOX0040
 --------
 Charge =  0 Multiplicity = 1
 Redundant internal coordinates found in file.  (old form).
 O,0,-0.0005818947,0.7778543829,-0.0000415083
 C,0,0.7353191989,-0.4345156094,0.0000010726
 C,0,-0.7346126599,-0.4356317159,0.0000010911
 H,0,1.2712127464,-0.6555183914,0.9239076701
 H,0,1.2712145403,-0.6555860296,-0.9238880317
 H,0,-1.270176836,-0.6575351378,-0.9238830204
 H,0,-1.2701750949,-0.6574674988,0.9239027266
 Recover connectivity data from disk.

 GradGradGradGradGradGradGradGradGradGradGradGradGradGradGradGradGradGrad
 Berny optimization.
 Initialization pass.
                           ----------------------------
                           !    Initial Parameters    !
                           ! (Angstroms and Degrees)  !
 --------------------------                            --------------------------
 ! Name  Definition              Value          Derivative Info.                !
 --------------------------------------------------------------------------------
 ! R1    R(1,2)                  1.4182         calculate D2E/DX2 analytically  !
 ! R2    R(1,3)                  1.4182         calculate D2E/DX2 analytically  !
 ! R3    R(2,3)                  1.4699         calculate D2E/DX2 analytically  !
 ! R4    R(2,4)                  1.0907         calculate D2E/DX2 analytically  !
 ! R5    R(2,5)                  1.0907         calculate D2E/DX2 analytically  !
 ! R6    R(3,6)                  1.0907         calculate D2E/DX2 analytically  !
 ! R7    R(3,7)                  1.0907         calculate D2E/DX2 analytically  !
 ! A1    A(1,2,4)              115.3522         calculate D2E/DX2 analytically  !
 ! A2    A(1,2,5)              115.3524         calculate D2E/DX2 analytically  !
 ! A3    A(3,2,4)              119.4179         calculate D2E/DX2 analytically  !
 ! A4    A(3,2,5)              119.418          calculate D2E/DX2 analytically  !
 ! A5    A(4,2,5)              115.7885         calculate D2E/DX2 analytically  !
 ! A6    A(1,3,6)              115.3531         calculate D2E/DX2 analytically  !
 ! A7    A(1,3,7)              115.3529         calculate D2E/DX2 analytically  !
 ! A8    A(2,3,6)              119.4182         calculate D2E/DX2 analytically  !
 ! A9    A(2,3,7)              119.4181         calculate D2E/DX2 analytically  !
 ! A10   A(6,3,7)              115.7871         calculate D2E/DX2 analytically  !
 ! D1    D(4,2,3,6)           -153.0416         calculate D2E/DX2 analytically  !
 ! D2    D(4,2,3,7)             -0.0012         calculate D2E/DX2 analytically  !
 ! D3    D(5,2,3,6)              0.0012         calculate D2E/DX2 analytically  !
 ! D4    D(5,2,3,7)            153.0416         calculate D2E/DX2 analytically  !
 --------------------------------------------------------------------------------
 Trust Radius=3.00D-01 FncErr=1.00D-07 GrdErr=1.00D-07 EigMax=2.50D+02 EigMin=1.00D-04
 Number of steps in this run=      2 maximum allowed number of steps=      2.
 GradGradGradGradGradGradGradGradGradGradGradGradGradGradGradGradGradGrad

                          Input orientation:                          
 ---------------------------------------------------------------------
 Center     Atomic      Atomic             Coordinates (Angstroms)
 Number     Number       Type             X           Y           Z
 ---------------------------------------------------------------------
      1          8           0       -0.000582    0.777854   -0.000042
      2          6           0        0.735319   -0.434516    0.000001
      3          6           0       -0.734613   -0.435632    0.000001
      4          1           0        1.271213   -0.655518    0.923908
      5          1           0        1.271215   -0.655586   -0.923888
      6          1           0       -1.270177   -0.657535   -0.923883
      7          1           0       -1.270175   -0.657467    0.923903
 ---------------------------------------------------------------------
                    Distance matrix (angstroms):
                    1          2          3          4          5
     1  O    0.000000
     2  C    1.418235   0.000000
     3  C    1.418221   1.469932   0.000000
     4  H    2.127370   1.090700   2.219299   0.000000
     5  H    2.127372   1.090700   2.219300   1.847796   0.000000
     6  H    2.127369   2.219305   1.090703   3.142132   2.541392
     7  H    2.127367   2.219304   1.090703   2.541389   3.142132
                    6          7
     6  H    0.000000
     7  H    1.847786   0.000000
 Stoichiometry    C2H4O
 Framework group  C1[X(C2H4O)]
 Deg. of freedom    15
 Full point group                 C1      NOp   1
 Largest Abelian subgroup         C1      NOp   1
 Largest concise Abelian subgroup C1      NOp   1
                         Standard orientation:                         
 ---------------------------------------------------------------------
 Center     Atomic      Atomic             Coordinates (Angstroms)
 Number     Number       Type             X           Y           Z
 ---------------------------------------------------------------------
      1          8           0       -0.000017    0.845528   -0.000030
      2          6           0        0.734975   -0.367394    0.000013
      3          6           0       -0.734957   -0.367408    0.000013
      4          1           0        1.270703   -0.588798    0.923919
      5          1           0        1.270704   -0.588866   -0.923876
      6          1           0       -1.270688   -0.588910   -0.923871
      7          1           0       -1.270686   -0.588842    0.923914
 ---------------------------------------------------------------------
 Rotational constants (GHZ):          26.0639817          22.0550283          14.2672554
 Standard basis: 6-311++G(d,p) (5D, 7F)
 There are    97 symmetry adapted cartesian basis functions of A   symmetry.
 There are    94 symmetry adapted basis functions of A   symmetry.
    94 basis functions,   144 primitive gaussians,    97 cartesian basis functions
    12 alpha electrons       12 beta electrons
       nuclear repulsion energy        75.4328016672 Hartrees.
 NAtoms=    7 NActive=    7 NUniq=    7 SFac= 1.00D+00 NAtFMM=   60 NAOKFM=F Big=F
 Integral buffers will be    131072 words long.
 Raffenetti 2 integral format.
 Two-electron integral symmetry is turned on.
 R6APFD:  NTU= -4 IXU= 1 FactS= 1.050
 Nuclear repulsion after empirical dispersion term =       75.4317488598 Hartrees.
 One-electron integrals computed using PRISM.
 NBasis=    94 RedAO= T EigKep=  1.13D-04  NBF=    94
 NBsUse=    94 1.00D-06 EigRej= -1.00D+00 NBFU=    94
 Initial guess from the checkpoint file:  "ETOX0040.chk"
 B after Tr=    -0.000000   -0.000000    0.000000
         Rot=    1.000000   -0.000000    0.000000    0.000000 Ang=   0.00 deg.
 Keep R1 ints in memory in canonical form, NReq=24742730.
 Requested convergence on RMS density matrix=1.00D-08 within  32 cycles.
 Requested convergence on MAX density matrix=1.00D-06.
 Requested convergence on             energy=1.00D-06.
 No special actions if energy rises.
 SCF Done:  E(RM08HX) =  -153.780187905     A.U. after    1 cycles
            NFock=  1  Conv=0.88D-09     -V/T= 2.0041
 QCSCF skips out because SCF is already converged.
 DoSCS=F DFT=T ScalE2(SS,OS)=  1.000000  1.000000
 Range of M.O.s used for correlation:     1    94
 NBasis=    94 NAE=    12 NBE=    12 NFC=     0 NFV=     0
 NROrb=     94 NOA=    12 NOB=    12 NVA=    82 NVB=    82

 **** Warning!!: The largest alpha MO coefficient is  0.32127267D+02

 R6APFD:  NTU= -4 IXU= 1 FactS= 1.050
 Symmetrizing basis deriv contribution to polar:
 IMax=3 JMax=2 DiffMx= 0.00D+00
 G2DrvN: will do     8 centers at a time, making    1 passes.
 Calling FoFCou, ICntrl=  3107 FMM=F I1Cent=   0 AccDes= 0.00D+00.
 End of G2Drv F.D. properties file   721 does not exist.
 End of G2Drv F.D. properties file   722 does not exist.
 End of G2Drv F.D. properties file   788 does not exist.
          IDoAtm=1111111
          Differentiating once with respect to electric field.
                with respect to dipole field.
          Differentiating once with respect to nuclear coordinates.
 Keep R1 ints in memory in canonical form, NReq=24693307.
          There are    24 degrees of freedom in the 1st order CPHF.  IDoFFX=6 NUNeed=     3.
     21 vectors produced by pass  0 Test12= 4.10D-15 4.17D-09 XBig12= 1.39D+01 1.77D+00.
 AX will form    21 AO Fock derivatives at one time.
     21 vectors produced by pass  1 Test12= 4.10D-15 4.17D-09 XBig12= 2.44D+00 5.07D-01.
     21 vectors produced by pass  2 Test12= 4.10D-15 4.17D-09 XBig12= 4.57D-02 7.25D-02.
     21 vectors produced by pass  3 Test12= 4.10D-15 4.17D-09 XBig12= 4.35D-04 6.90D-03.
     21 vectors produced by pass  4 Test12= 4.10D-15 4.17D-09 XBig12= 1.68D-06 3.29D-04.
     21 vectors produced by pass  5 Test12= 4.10D-15 4.17D-09 XBig12= 4.73D-09 1.86D-05.
     13 vectors produced by pass  6 Test12= 4.10D-15 4.17D-09 XBig12= 2.07D-11 1.41D-06.
      3 vectors produced by pass  7 Test12= 4.10D-15 4.17D-09 XBig12= 7.90D-14 5.98D-08.
 InvSVY:  IOpt=1 It=  1 EMax= 4.44D-15
 Solved reduced A of dimension   142 with    24 vectors.
 Isotropic polarizability for W=    0.000000       26.44 Bohr**3.
 End of Minotr F.D. properties file   721 does not exist.
 End of Minotr F.D. properties file   722 does not exist.
 End of Minotr F.D. properties file   788 does not exist.

 **********************************************************************

            Population analysis using the SCF Density.

 **********************************************************************

 Orbital symmetries:
       Occupied  (A) (A) (A) (A) (A) (A) (A) (A) (A) (A) (A) (A)
       Virtual   (A) (A) (A) (A) (A) (A) (A) (A) (A) (A) (A) (A)
                 (A) (A) (A) (A) (A) (A) (A) (A) (A) (A) (A) (A)
                 (A) (A) (A) (A) (A) (A) (A) (A) (A) (A) (A) (A)
                 (A) (A) (A) (A) (A) (A) (A) (A) (A) (A) (A) (A)
                 (A) (A) (A) (A) (A) (A) (A) (A) (A) (A) (A) (A)
                 (A) (A) (A) (A) (A) (A) (A) (A) (A) (A) (A) (A)
                 (A) (A) (A) (A) (A) (A) (A) (A) (A) (A)
 The electronic state is 1-A.
 Alpha  occ. eigenvalues --  -19.62962 -10.58534 -10.58485  -1.20528  -0.77509
 Alpha  occ. eigenvalues --   -0.73113  -0.60192  -0.56387  -0.47567  -0.45449
 Alpha  occ. eigenvalues --   -0.38389  -0.35957
 Alpha virt. eigenvalues --   -0.02175  -0.00327  -0.00001   0.01363   0.03484
 Alpha virt. eigenvalues --    0.05273   0.05400   0.10130   0.10633   0.11289
 Alpha virt. eigenvalues --    0.12811   0.14885   0.15434   0.16116   0.19060
 Alpha virt. eigenvalues --    0.21290   0.21749   0.22175   0.23338   0.26972
 Alpha virt. eigenvalues --    0.31627   0.35719   0.36825   0.45723   0.46415
 Alpha virt. eigenvalues --    0.57208   0.58721   0.62275   0.64626   0.64849
 Alpha virt. eigenvalues --    0.64877   0.66852   0.69835   0.82201   0.93249
 Alpha virt. eigenvalues --    1.03881   1.07934   1.19453   1.20720   1.21386
 Alpha virt. eigenvalues --    1.31917   1.42063   1.45225   1.46056   1.57581
 Alpha virt. eigenvalues --    1.59168   1.60270   1.65001   1.70458   1.85830
 Alpha virt. eigenvalues --    1.86424   1.88048   1.90688   2.10969   2.12295
 Alpha virt. eigenvalues --    2.19252   2.25884   2.37568   2.43217   2.49659
 Alpha virt. eigenvalues --    2.59318   2.62430   2.66739   2.79620   2.81465
 Alpha virt. eigenvalues --    2.83027   2.88014   3.18108   3.24442   3.30571
 Alpha virt. eigenvalues --    3.31757   3.64959   3.75892   3.83166   3.95119
 Alpha virt. eigenvalues --    4.50069   5.15505   5.61069   5.65111  23.89333
 Alpha virt. eigenvalues --   23.94705  49.89162
          Condensed to atoms (all electrons):
               1          2          3          4          5          6
     1  O    8.086811   0.109574   0.109566  -0.049724  -0.049723  -0.049725
     2  C    0.109574   6.079039  -0.633748   0.346469   0.346470   0.023519
     3  C    0.109566  -0.633748   6.079065   0.023518   0.023517   0.346466
     4  H   -0.049724   0.346469   0.023518   0.538811  -0.031591  -0.002541
     5  H   -0.049723   0.346470   0.023517  -0.031591   0.538810   0.000869
     6  H   -0.049725   0.023519   0.346466  -0.002541   0.000869   0.538823
     7  H   -0.049725   0.023520   0.346465   0.000869  -0.002541  -0.031598
               7
     1  O   -0.049725
     2  C    0.023520
     3  C    0.346465
     4  H    0.000869
     5  H   -0.002541
     6  H   -0.031598
     7  H    0.538824
 Mulliken charges:
               1
     1  O   -0.107054
     2  C   -0.294843
     3  C   -0.294851
     4  H    0.174188
     5  H    0.174188
     6  H    0.174186
     7  H    0.174186
 Sum of Mulliken charges =  -0.00000
 Mulliken charges with hydrogens summed into heavy atoms:
               1
     1  O   -0.107054
     2  C    0.053533
     3  C    0.053521
 APT charges:
               1
     1  O   -0.558499
     2  C    0.290357
     3  C    0.290380
     4  H   -0.005556
     5  H   -0.005556
     6  H   -0.005563
     7  H   -0.005563
 Sum of APT charges =  -0.00000
 APT charges with hydrogens summed into heavy atoms:
               1
     1  O   -0.558499
     2  C    0.279244
     3  C    0.279255
 Electronic spatial extent (au):  <R**2>=            130.7330
 Charge=             -0.0000 electrons
 Dipole moment (field-independent basis, Debye):
    X=              0.0000    Y=             -2.0769    Z=              0.0001  Tot=              2.0769
 Quadrupole moment (field-independent basis, Debye-Ang):
   XX=            -16.5336   YY=            -21.3087   ZZ=            -17.5277
   XY=              0.0001   XZ=             -0.0000   YZ=              0.0001
 Traceless Quadrupole moment (field-independent basis, Debye-Ang):
   XX=              1.9231   YY=             -2.8520   ZZ=              0.9289
   XY=              0.0001   XZ=             -0.0000   YZ=              0.0001
 Octapole moment (field-independent basis, Debye-Ang**2):
  XXX=              0.0000  YYY=              1.6170  ZZZ=              0.0000  XYY=             -0.0000
  XXY=             -0.2423  XXZ=             -0.0000  XZZ=              0.0001  YZZ=             -0.3676
  YYZ=             -0.0001  XYZ=              0.0000
 Hexadecapole moment (field-independent basis, Debye-Ang**3):
 XXXX=            -78.9703 YYYY=            -61.2563 ZZZZ=            -31.4038 XXXY=             -0.0001
 XXXZ=              0.0000 YYYX=              0.0001 YYYZ=              0.0005 ZZZX=              0.0000
 ZZZY=              0.0005 XXYY=            -22.0675 XXZZ=            -15.6958 YYZZ=            -15.6679
 XXYZ=              0.0002 YYXZ=              0.0000 ZZXY=              0.0000
 N-N= 7.543174885985D+01 E-N=-5.104467935738D+02  KE= 1.531456014602D+02
  Exact polarizability:  31.356   0.000  23.207  -0.000   0.000  24.755
 Approx polarizability:  34.907  -0.000  28.522  -0.000  -0.000  27.698
 R6APFD:  NTU= -4 IXU= 1 FactS= 1.050
 Calling FoFJK, ICntrl=    100127 FMM=F ISym2X=0 I1Cent= 0 IOpClX= 0 NMat=1 NMatS=1 NMatT=0.
 Full mass-weighted force constant matrix:
 Low frequencies ---  -35.2326  -18.8118   -0.0010   -0.0010   -0.0010   22.4707
 Low frequencies ---  815.8833  888.7331  913.6828
 Diagonal vibrational polarizability:
        0.4152229       2.8719169       0.2121012
 Harmonic frequencies (cm**-1), IR intensities (KM/Mole), Raman scattering
 activities (A**4/AMU), depolarization ratios for plane and unpolarized
 incident light, reduced masses (AMU), force constants (mDyne/A),
 and normal coordinates:
                      1                      2                      3
                      A                      A                      A
 Frequencies --    815.8817               888.7331               913.6828
 Red. masses --      1.0236                 9.6530                 3.4807
 Frc consts  --      0.4014                 4.4922                 1.7120
 IR Inten    --      0.2907                 9.0370                78.3771
  Atom  AN      X      Y      Z        X      Y      Z        X      Y      Z
     1   8     0.00   0.00  -0.03     0.42  -0.00   0.00     0.00   0.30  -0.00
     2   6    -0.00  -0.00  -0.01    -0.24   0.47  -0.00    -0.18  -0.14   0.00
     3   6     0.00  -0.00  -0.01    -0.24  -0.47   0.00     0.18  -0.14   0.00
     4   1    -0.42  -0.19   0.19    -0.26   0.03  -0.06    -0.29  -0.35  -0.00
     5   1     0.42   0.19   0.19    -0.26   0.03   0.06    -0.29  -0.35   0.00
     6   1    -0.42   0.19   0.19    -0.26  -0.03  -0.06     0.29  -0.35   0.00
     7   1     0.42  -0.19   0.19    -0.26  -0.03   0.06     0.29  -0.35  -0.00
                      4                      5                      6
                      A                      A                      A
 Frequencies --   1048.1957              1145.3531              1148.4071
 Red. masses --      1.0148                 1.4434                 1.3059
 Frc consts  --      0.6569                 1.1156                 1.0147
 IR Inten    --      0.0000                 0.0014                 1.3073
  Atom  AN      X      Y      Z        X      Y      Z        X      Y      Z
     1   8     0.00   0.00   0.00    -0.00  -0.08   0.00    -0.07   0.00   0.00
     2   6    -0.00   0.00  -0.02     0.02   0.12  -0.00     0.08   0.07  -0.00
     3   6    -0.00  -0.00   0.02    -0.02   0.12  -0.00     0.08  -0.07   0.00
     4   1     0.03   0.49   0.08    -0.28  -0.40   0.04    -0.19  -0.45   0.03
     5   1    -0.03  -0.49   0.08    -0.28  -0.40  -0.04    -0.19  -0.45  -0.03
     6   1    -0.03   0.49  -0.08     0.28  -0.40  -0.04    -0.19   0.46   0.03
     7   1     0.03  -0.49  -0.08     0.28  -0.40   0.04    -0.19   0.46  -0.03
                      7                      8                      9
                      A                      A                      A
 Frequencies --   1166.3270              1181.9844              1327.4145
 Red. masses --      1.4201                 1.2785                 2.4815
 Frc consts  --      1.1382                 1.0524                 2.5762
 IR Inten    --      0.0000                 5.2265                17.8714
  Atom  AN      X      Y      Z        X      Y      Z        X      Y      Z
     1   8     0.00  -0.00   0.00    -0.00  -0.00  -0.09    -0.00  -0.15   0.00
     2   6    -0.00  -0.00  -0.14    -0.00  -0.00   0.08    -0.23   0.04  -0.00
     3   6    -0.00   0.00   0.14     0.00  -0.00   0.08     0.23   0.04  -0.00
     4   1    -0.47  -0.02   0.13     0.16  -0.45  -0.11    -0.30   0.35   0.09
     5   1     0.47   0.02   0.13    -0.16   0.45  -0.11    -0.30   0.35  -0.09
     6   1     0.47  -0.02  -0.13     0.16   0.45  -0.11     0.30   0.35  -0.09
     7   1    -0.47   0.02  -0.13    -0.16  -0.45  -0.11     0.30   0.35   0.09
                     10                     11                     12
                      A                      A                      A
 Frequencies --   1489.9808              1534.8020              3094.3747
 Red. masses --      1.0722                 1.3918                 1.0440
 Frc consts  --      1.4025                 1.9316                 5.8900
 IR Inten    --      0.2469                 3.5647                27.6285
  Atom  AN      X      Y      Z        X      Y      Z        X      Y      Z
     1   8    -0.02  -0.00   0.00     0.00  -0.04   0.00    -0.00   0.00   0.00
     2   6    -0.05   0.02  -0.00    -0.12   0.05  -0.00    -0.04   0.01   0.00
     3   6    -0.05  -0.02   0.00     0.12   0.05  -0.00    -0.04  -0.01  -0.00
     4   1     0.37  -0.19  -0.28     0.34  -0.17  -0.31     0.24  -0.10   0.43
     5   1     0.37  -0.19   0.28     0.34  -0.17   0.31     0.24  -0.10  -0.43
     6   1     0.37   0.19  -0.28    -0.34  -0.17   0.31     0.24   0.10   0.43
     7   1     0.37   0.19   0.28    -0.34  -0.17  -0.31     0.24   0.10  -0.43
                     13                     14                     15
                      A                      A                      A
 Frequencies --   3101.8138              3184.7393              3198.9588
 Red. masses --      1.0579                 1.1205                 1.1201
 Frc consts  --      5.9967                 6.6958                 6.7536
 IR Inten    --     11.3140                 0.0000                37.9033
  Atom  AN      X      Y      Z        X      Y      Z        X      Y      Z
     1   8     0.00   0.00   0.00     0.00  -0.00   0.00    -0.00   0.00   0.00
     2   6     0.04  -0.02  -0.00     0.00   0.00   0.07    -0.00  -0.00  -0.07
     3   6    -0.04  -0.02  -0.00     0.00  -0.00  -0.07     0.00  -0.00  -0.07
     4   1    -0.23   0.10  -0.43    -0.24   0.10  -0.42     0.25  -0.09   0.42
     5   1    -0.23   0.10   0.43     0.24  -0.10  -0.42    -0.25   0.09   0.42
     6   1     0.23   0.10   0.43     0.24   0.10   0.42     0.25   0.09   0.42
     7   1     0.23   0.10  -0.43    -0.24  -0.10   0.42    -0.25  -0.09   0.42

 -------------------
 - Thermochemistry -
 -------------------
 Temperature   298.150 Kelvin.  Pressure   1.00000 Atm.
 Atom     1 has atomic number  8 and mass  15.99491
 Atom     2 has atomic number  6 and mass  12.00000
 Atom     3 has atomic number  6 and mass  12.00000
 Atom     4 has atomic number  1 and mass   1.00783
 Atom     5 has atomic number  1 and mass   1.00783
 Atom     6 has atomic number  1 and mass   1.00783
 Atom     7 has atomic number  1 and mass   1.00783
 Molecular mass:    44.02621 amu.
 Principal axes and moments of inertia in atomic units:
                           1         2         3
     Eigenvalues --    69.24273  81.82901 126.49533
           X            1.00000   0.00003   0.00000
           Y           -0.00003   1.00000   0.00003
           Z           -0.00000  -0.00003   1.00000
 This molecule is an asymmetric top.
 Rotational symmetry number  1.
 Rotational temperatures (Kelvin)      1.25087     1.05847     0.68472
 Rotational constants (GHZ):          26.06398    22.05503    14.26726
 Zero-point vibrational energy     150972.6 (Joules/Mol)
                                   36.08332 (Kcal/Mol)
 Vibrational temperatures:   1173.87  1278.69  1314.59  1508.12  1647.91
          (Kelvin)           1652.30  1678.08  1700.61  1909.85  2143.75
                             2208.24  4452.12  4462.82  4582.13  4602.59
 
 Zero-point correction=                           0.057502 (Hartree/Particle)
 Thermal correction to Energy=                    0.060645
 Thermal correction to Enthalpy=                  0.061589
 Thermal correction to Gibbs Free Energy=         0.033431
 Sum of electronic and zero-point Energies=           -153.722685
 Sum of electronic and thermal Energies=              -153.719543
 Sum of electronic and thermal Enthalpies=            -153.718599
 Sum of electronic and thermal Free Energies=         -153.746757
 
                     E (Thermal)             CV                S
                      KCal/Mol        Cal/Mol-Kelvin    Cal/Mol-Kelvin
 Total                   38.055              9.120             59.263
 Electronic               0.000              0.000              0.000
 Translational            0.889              2.981             37.273
 Rotational               0.889              2.981             21.199
 Vibrational             36.278              3.158              0.792
                       Q            Log10(Q)             Ln(Q)
 Total Bot       0.419456D-15        -15.377314        -35.407573
 Total V=0       0.118017D+12         11.071944         25.494094
 Vib (Bot)       0.381190D-26        -26.418858        -60.831669
 Vib (V=0)       0.107251D+01          0.030400          0.069998
 Electronic      0.100000D+01          0.000000          0.000000
 Translational   0.114821D+08          7.060021         16.256299
 Rotational      0.958349D+04          3.981524          9.167797
 ***** Axes restored to original set *****
 -------------------------------------------------------------------
 Center     Atomic                   Forces (Hartrees/Bohr)
 Number     Number              X              Y              Z
 -------------------------------------------------------------------
      1        8           0.000003469   -0.000439780   -0.000000356
      2        6          -0.000295822    0.000238137    0.000000404
      3        6           0.000289835    0.000231627    0.000000405
      4        1           0.000031254   -0.000007938   -0.000028530
      5        1           0.000031204   -0.000007748    0.000028304
      6        1          -0.000029945   -0.000007054    0.000028245
      7        1          -0.000029995   -0.000007244   -0.000028472
 -------------------------------------------------------------------
 Cartesian Forces:  Max     0.000439780 RMS     0.000151577
 FormGI is forming the generalized inverse of G from B-inverse, IUseBI=4.

 GradGradGradGradGradGradGradGradGradGradGradGradGradGradGradGradGradGrad
 Berny optimization.
 Internal  Forces:  Max     0.000256911 RMS     0.000084562
 Search for a local minimum.
 Step number   1 out of a maximum of    2
 All quantities printed in internal units (Hartrees-Bohrs-Radians)
 Second derivative matrix not updated -- analytic derivatives used.
 ITU=  0
     Eigenvalues ---    0.02787   0.04044   0.05674   0.09447   0.10635
     Eigenvalues ---    0.10965   0.12832   0.22625   0.29492   0.31010
     Eigenvalues ---    0.34721   0.34893   0.34909   0.36304   0.37219
 Angle between quadratic step and forces=  33.32 degrees.
 Linear search not attempted -- first point.
 Iteration  1 RMS(Cart)=  0.00027488 RMS(Int)=  0.00000005
 Iteration  2 RMS(Cart)=  0.00000005 RMS(Int)=  0.00000000
 Variable       Old X    -DE/DX   Delta X   Delta X   Delta X     New X
                                 (Linear)    (Quad)   (Total)
    R1        2.68008  -0.00026   0.00000  -0.00092  -0.00092   2.67916
    R2        2.68005  -0.00025   0.00000  -0.00089  -0.00089   2.67916
    R3        2.77777  -0.00010   0.00000  -0.00038  -0.00038   2.77738
    R4        2.06113  -0.00001   0.00000   0.00003   0.00003   2.06115
    R5        2.06112  -0.00001   0.00000   0.00003   0.00003   2.06115
    R6        2.06113  -0.00001   0.00000   0.00002   0.00002   2.06115
    R7        2.06113  -0.00001   0.00000   0.00002   0.00002   2.06115
    A1        2.01328   0.00002   0.00000   0.00031   0.00031   2.01358
    A2        2.01328   0.00002   0.00000   0.00030   0.00030   2.01358
    A3        2.08424   0.00003   0.00000   0.00029   0.00029   2.08453
    A4        2.08424   0.00003   0.00000   0.00029   0.00029   2.08453
    A5        2.02089  -0.00005   0.00000  -0.00067  -0.00067   2.02022
    A6        2.01329   0.00002   0.00000   0.00029   0.00029   2.01358
    A7        2.01329   0.00002   0.00000   0.00029   0.00029   2.01358
    A8        2.08424   0.00003   0.00000   0.00029   0.00029   2.08453
    A9        2.08424   0.00003   0.00000   0.00029   0.00029   2.08453
   A10        2.02087  -0.00005   0.00000  -0.00064  -0.00064   2.02022
    D1       -2.67108  -0.00001   0.00000   0.00036   0.00036  -2.67072
    D2       -0.00002   0.00000   0.00000   0.00002   0.00002   0.00000
    D3        0.00002  -0.00000   0.00000  -0.00002  -0.00002  -0.00000
    D4        2.67108   0.00001   0.00000  -0.00036  -0.00036   2.67072
         Item               Value     Threshold  Converged?
 Maximum Force            0.000257     0.000450     YES
 RMS     Force            0.000085     0.000300     YES
 Maximum Displacement     0.000665     0.001800     YES
 RMS     Displacement     0.000275     0.001200     YES
 Predicted change in Energy=-3.075353D-07
 Optimization completed.
    -- Stationary point found.
                           ----------------------------
                           !   Optimized Parameters   !
                           ! (Angstroms and Degrees)  !
 --------------------------                            --------------------------
 ! Name  Definition              Value          Derivative Info.                !
 --------------------------------------------------------------------------------
 ! R1    R(1,2)                  1.4182         -DE/DX =   -0.0003              !
 ! R2    R(1,3)                  1.4182         -DE/DX =   -0.0003              !
 ! R3    R(2,3)                  1.4699         -DE/DX =   -0.0001              !
 ! R4    R(2,4)                  1.0907         -DE/DX =    0.0                 !
 ! R5    R(2,5)                  1.0907         -DE/DX =    0.0                 !
 ! R6    R(3,6)                  1.0907         -DE/DX =    0.0                 !
 ! R7    R(3,7)                  1.0907         -DE/DX =    0.0                 !
 ! A1    A(1,2,4)              115.3522         -DE/DX =    0.0                 !
 ! A2    A(1,2,5)              115.3524         -DE/DX =    0.0                 !
 ! A3    A(3,2,4)              119.4179         -DE/DX =    0.0                 !
 ! A4    A(3,2,5)              119.418          -DE/DX =    0.0                 !
 ! A5    A(4,2,5)              115.7885         -DE/DX =    0.0                 !
 ! A6    A(1,3,6)              115.3531         -DE/DX =    0.0                 !
 ! A7    A(1,3,7)              115.3529         -DE/DX =    0.0                 !
 ! A8    A(2,3,6)              119.4182         -DE/DX =    0.0                 !
 ! A9    A(2,3,7)              119.4181         -DE/DX =    0.0                 !
 ! A10   A(6,3,7)              115.7871         -DE/DX =    0.0                 !
 ! D1    D(4,2,3,6)           -153.0416         -DE/DX =    0.0                 !
 ! D2    D(4,2,3,7)             -0.0012         -DE/DX =    0.0                 !
 ! D3    D(5,2,3,6)              0.0012         -DE/DX =    0.0                 !
 ! D4    D(5,2,3,7)            153.0416         -DE/DX =    0.0                 !
 --------------------------------------------------------------------------------
 GradGradGradGradGradGradGradGradGradGradGradGradGradGradGradGradGradGrad


 ----------------------------------------------------------------------

 Electric dipole moment (input orientation):
 (Debye = 10**-18 statcoulomb cm , SI units = C m)
                  (au)            (Debye)         (10**-30 SI)
   Tot        0.817108D+00      0.207688D+01      0.692773D+01
   x          0.631120D-03      0.160415D-02      0.535086D-02
   y         -0.817108D+00     -0.207688D+01     -0.692773D+01
   z          0.285082D-04      0.724607D-04      0.241703D-03

 Dipole polarizability, Alpha (input orientation).
 (esu units = cm**3 , SI units = C**2 m**2 J**-1)
 Alpha(0;0):
               (au)            (10**-24 esu)      (10**-40 SI)
   iso        0.264393D+02      0.391790D+01      0.435925D+01
   aniso      0.749550D+01      0.111072D+01      0.123584D+01
   xx         0.313557D+02      0.464643D+01      0.516985D+01
   yx         0.618793D-02      0.916956D-03      0.102025D-02
   yy         0.232068D+02      0.343890D+01      0.382629D+01
   zx         0.000000D+00      0.000000D+00      0.000000D+00
   zy         0.618743D-04      0.916882D-05      0.102017D-04
   zz         0.247554D+02      0.366837D+01      0.408162D+01

 ----------------------------------------------------------------------

 Dipole orientation:
     8          0.00003575         -0.00002713         -1.46993216
     6          1.38891688          0.00104612          0.82218852
     6         -1.38885173         -0.00109935          0.82215215
     1          2.39993722          1.74774337          1.24066623
     1          2.40263754         -1.74408340          1.24067222
     1         -2.39989612         -1.74778333          1.24064610
     1         -2.40258975          1.74402464          1.24064011

 Electric dipole moment (dipole orientation):
 (Debye = 10**-18 statcoulomb cm , SI units = C m)
                  (au)            (Debye)         (10**-30 SI)
   Tot        0.817108D+00      0.207688D+01      0.692773D+01
   x          0.000000D+00      0.000000D+00      0.000000D+00
   y          0.000000D+00      0.000000D+00      0.000000D+00
   z          0.817108D+00      0.207688D+01      0.692773D+01

 Dipole polarizability, Alpha (dipole orientation).
 (esu units = cm**3 , SI units = C**2 m**2 J**-1)
 Alpha(0;0):
               (au)            (10**-24 esu)      (10**-40 SI)
   iso        0.264393D+02      0.391790D+01      0.435925D+01
   aniso      0.749550D+01      0.111072D+01      0.123584D+01
   xx         0.313557D+02      0.464643D+01      0.516985D+01
   yx         0.509783D-02      0.755421D-03      0.840519D-03
   yy         0.247554D+02      0.366838D+01      0.408162D+01
   zx         0.106098D-03      0.157221D-04      0.174932D-04
   zy         0.000000D+00      0.000000D+00      0.000000D+00
   zz         0.232068D+02      0.343890D+01      0.382629D+01

 ----------------------------------------------------------------------
 1\1\GINC-PITOMBA\Freq\RM08HX\6-311++G(d,p)\C2H4O1\VALTER\06-Oct-2025\0
 \\#N Geom=AllCheck Guess=TCheck SCRF=Check GenChk RM08HX/6-311++G(d,p)
  Freq\\ETOX0040\\0,1\O,-0.0005818947,0.7778543829,-0.0000415083\C,0.73
 53191989,-0.4345156094,0.0000010726\C,-0.7346126599,-0.4356317159,0.00
 00010911\H,1.2712127464,-0.6555183914,0.9239076701\H,1.2712145403,-0.6
 555860296,-0.9238880317\H,-1.270176836,-0.6575351378,-0.9238830204\H,-
 1.2701750949,-0.6574674988,0.9239027266\\Version=ES64L-G16RevB.01\Stat
 e=1-A\HF=-153.7801879\RMSD=8.847e-10\RMSF=1.516e-04\ZeroPoint=0.057502
 4\Thermal=0.0606451\Dipole=0.0006311,-0.817108,0.0000285\DipoleDeriv=-
 0.3268501,0.0004805,0.,0.0004809,-0.9578784,0.0000207,0.,0.0000213,-0.
 3907688,0.1866957,-0.0360578,0.0000004,-0.115727,0.3520853,-0.0000004,
 0.0000044,-0.0000019,0.3322895,0.1864929,0.0358084,-0.0000004,0.115477
 7,0.3523418,-0.0000005,-0.0000044,-0.0000019,0.3323065,-0.0116601,0.05
 98072,-0.0436599,0.0424958,0.0634451,0.0054307,-0.0745757,0.0374252,-0
 .068454,-0.0116601,0.0598101,0.0436563,0.0425013,0.0634426,-0.0054406,
 0.0745727,-0.0374339,-0.0684512,-0.0115091,-0.0599257,-0.0436533,-0.04
 26171,0.0632805,-0.0055114,-0.0745197,-0.0375508,-0.0684596,-0.0115092
 ,-0.0599227,0.0436569,-0.0426116,0.0632831,0.0055015,0.0745227,0.03754
 2,-0.0684624\Polar=31.3556674,0.0061879,23.2068387,-0.0000001,0.000061
 9,24.755418\Quadrupole=1.4297645,-2.1204086,0.6906441,0.0027042,0.,0.0
 001035\PG=C01 [X(C2H4O1)]\NImag=0\\0.19201219,-0.00017338,0.43398523,0
 .,-0.00001295,0.09560481,-0.07728579,0.12017891,-0.00000416,0.62380365
 ,0.07576055,-0.19263196,0.00000464,-0.14055542,0.28007572,-0.00000273,
 0.00000476,-0.06405365,0.00000483,0.00001333,0.64642958,-0.07699119,-0
 .12001146,0.00000416,-0.30884101,0.02860093,-0.00000097,0.62337803,-0.
 07559430,-0.19294905,0.00000464,-0.02908919,0.01108327,-0.00000252,0.1
 4109038,0.28053009,0.00000272,0.00000477,-0.06405395,0.00000098,-0.000
 00252,-0.05896193,-0.00000486,0.00001331,0.64641506,-0.00945791,0.0060
 8996,-0.00333704,-0.10834622,0.02576494,-0.11006846,-0.01049736,0.0076
 5864,-0.02279132,0.12082479,0.02545616,-0.01207559,0.02936124,0.020559
 64,-0.04701815,0.03707704,-0.00418144,-0.00223790,-0.01644143,-0.03703
 893,0.05585630,-0.00146727,0.00325126,0.00812432,-0.11265187,0.0403234
 9,-0.26457413,0.00404201,-0.00002059,0.00286477,0.12229135,-0.04750805
 ,0.26827822,-0.00945753,0.00608977,0.00333630,-0.10834676,0.02577291,0
 .11006677,-0.01049732,0.00766022,0.02279076,0.00859973,-0.00363313,-0.
 01287890,0.12082491,0.02545577,-0.01207741,-0.02935941,0.02056782,-0.0
 4702425,-0.03709293,-0.00418171,-0.00223673,0.01644176,-0.00363221,0.0
 0350784,0.00379236,-0.03704731,0.05586314,0.00146513,-0.00324955,0.008
 12687,0.11265053,-0.04033934,-0.26456788,-0.00404170,0.00002101,0.0028
 6355,0.01287925,-0.00379375,-0.01538722,-0.12228861,0.04752327,0.26827
 055,-0.00940970,-0.00608681,-0.00329170,-0.01049192,-0.00767275,-0.022
 81572,-0.10827584,-0.02586686,-0.11000782,-0.00183849,-0.00238174,0.00
 084656,0.00071545,0.00121944,0.00018177,0.12071193,-0.02545220,-0.0121
 2652,-0.02936516,0.00416926,-0.00224173,0.01640686,-0.02066244,-0.0470
 9790,-0.03726226,0.00237593,0.00198837,-0.00057098,-0.00121833,-0.0000
 2096,-0.00073248,0.03714795,0.05597949,-0.00146065,-0.00325264,0.00812
 707,0.00404173,0.00002720,0.00286339,-0.11258617,-0.04051221,-0.264560
 62,0.00084549,0.00057215,0.00024828,-0.00018066,-0.00073277,0.00044586
 ,0.12221376,0.04771185,0.26826438,-0.00941008,-0.00608699,0.00329244,-
 0.01049195,-0.00767117,0.02281628,-0.10827531,-0.02585889,0.11000954,0
 .00071545,0.00121945,-0.00018186,-0.00183849,-0.00238180,-0.00084638,0
 .00858855,0.00363984,-0.01287350,0.12071183,-0.02545259,-0.01212470,0.
 02936699,0.00416899,-0.00224291,-0.01640653,-0.02065427,-0.04709178,0.
 03724638,-0.00121833,-0.00002086,0.00073252,0.00237587,0.00198837,0.00
 057085,0.00364076,0.00351926,-0.00381358,0.03713957,0.05597262,0.00146
 279,0.00325435,0.00812452,-0.00404203,-0.00002678,0.00286462,0.1125875
 2,0.04049636,-0.26456688,0.00018074,0.00073280,0.00044575,-0.00084566,
 -0.00057228,0.00024827,0.01287316,0.00381219,-0.01538834,-0.12221652,-
 0.04769663,0.26827207\\-0.00000347,0.00043978,0.00000036,0.00029582,-0
 .00023814,-0.00000040,-0.00028983,-0.00023163,-0.00000040,-0.00003125,
 0.00000794,0.00002853,-0.00003120,0.00000775,-0.00002830,0.00002994,0.
 00000705,-0.00002825,0.00003000,0.00000724,0.00002847\\\@


 MATERIAL COPIED FROM ONE SCHOLARLY BOOK WITHOUT CREDIT COMPRISES PLAGIARISM.
 MATERIAL COPIED FROM TWO SCHOLARLY BOOKS COMPRISES AN ESSAY.
 MATERIAL COPIED FROM THREE SCHOLARLY BOOKS COMPRISES A DISSERTATION.
 MATERIAL COPIED FROM FOUR SCHOLARLY BOOKS COMPRISES A FIFTH SCHOLARLY BOOK.

                               -- C&EN, 25 FEB 1980
 Job cpu time:       0 days  0 hours  3 minutes 42.1 seconds.
 Elapsed time:       0 days  0 hours  0 minutes 14.4 seconds.
 File lengths (MBytes):  RWF=     10 Int=      0 D2E=      0 Chk=      2 Scr=      1
 Normal termination of Gaussian 16 at Mon Oct  6 22:34:32 2025.
