 Entering Gaussian System, Link 0=g16
 Input=EUBE0042.gjf
 Output=EUBE0042.log
 Initial command:
 /usr/local/g16/l1.exe "/dados_01/scratch/Gau-2481802.inp" -scrdir="/dados_01/scratch/"
 Entering Link 1 = /usr/local/g16/l1.exe PID=   2481803.
  
 Copyright (c) 1988-2017, Gaussian, Inc.  All Rights Reserved.
  
 This is part of the Gaussian(R) 16 program.  It is based on
 the Gaussian(R) 09 system (copyright 2009, Gaussian, Inc.),
 the Gaussian(R) 03 system (copyright 2003, Gaussian, Inc.),
 the Gaussian(R) 98 system (copyright 1998, Gaussian, Inc.),
 the Gaussian(R) 94 system (copyright 1995, Gaussian, Inc.),
 the Gaussian 92(TM) system (copyright 1992, Gaussian, Inc.),
 the Gaussian 90(TM) system (copyright 1990, Gaussian, Inc.),
 the Gaussian 88(TM) system (copyright 1988, Gaussian, Inc.),
 the Gaussian 86(TM) system (copyright 1986, Carnegie Mellon
 University), and the Gaussian 82(TM) system (copyright 1983,
 Carnegie Mellon University). Gaussian is a federally registered
 trademark of Gaussian, Inc.
  
 This software contains proprietary and confidential information,
 including trade secrets, belonging to Gaussian, Inc.
  
 This software is provided under written license and may be
 used, copied, transmitted, or stored only in accord with that
 written license.
  
 The following legend is applicable only to US Government
 contracts under FAR:
  
                    RESTRICTED RIGHTS LEGEND
  
 Use, reproduction and disclosure by the US Government is
 subject to restrictions as set forth in subparagraphs (a)
 and (c) of the Commercial Computer Software - Restricted
 Rights clause in FAR 52.227-19.
  
 Gaussian, Inc.
 340 Quinnipiac St., Bldg. 40, Wallingford CT 06492
  
  
 ---------------------------------------------------------------
 Warning -- This program may not be used in any manner that
 competes with the business of Gaussian, Inc. or will provide
 assistance to any competitor of Gaussian, Inc.  The licensee
 of this program is prohibited from giving any competitor of
 Gaussian, Inc. access to this program.  By using this program,
 the user acknowledges that Gaussian, Inc. is engaged in the
 business of creating and licensing software in the field of
 computational chemistry and represents and warrants to the
 licensee that it is not a competitor of Gaussian, Inc. and that
 it will not use this program in any manner prohibited above.
 ---------------------------------------------------------------
  

 Cite this work as:
 Gaussian 16, Revision B.01,
 M. J. Frisch, G. W. Trucks, H. B. Schlegel, G. E. Scuseria, 
 M. A. Robb, J. R. Cheeseman, G. Scalmani, V. Barone, 
 G. A. Petersson, H. Nakatsuji, X. Li, M. Caricato, A. V. Marenich, 
 J. Bloino, B. G. Janesko, R. Gomperts, B. Mennucci, H. P. Hratchian, 
 J. V. Ortiz, A. F. Izmaylov, J. L. Sonnenberg, D. Williams-Young, 
 F. Ding, F. Lipparini, F. Egidi, J. Goings, B. Peng, A. Petrone, 
 T. Henderson, D. Ranasinghe, V. G. Zakrzewski, J. Gao, N. Rega, 
 G. Zheng, W. Liang, M. Hada, M. Ehara, K. Toyota, R. Fukuda, 
 J. Hasegawa, M. Ishida, T. Nakajima, Y. Honda, O. Kitao, H. Nakai, 
 T. Vreven, K. Throssell, J. A. Montgomery, Jr., J. E. Peralta, 
 F. Ogliaro, M. J. Bearpark, J. J. Heyd, E. N. Brothers, K. N. Kudin, 
 V. N. Staroverov, T. A. Keith, R. Kobayashi, J. Normand, 
 K. Raghavachari, A. P. Rendell, J. C. Burant, S. S. Iyengar, 
 J. Tomasi, M. Cossi, J. M. Millam, M. Klene, C. Adamo, R. Cammi, 
 J. W. Ochterski, R. L. Martin, K. Morokuma, O. Farkas, 
 J. B. Foresman, and D. J. Fox, Gaussian, Inc., Wallingford CT, 2016.
 
 ******************************************
 Gaussian 16:  ES64L-G16RevB.01 20-Dec-2017
                 6-Oct-2025 
 ******************************************
 %nprocs=16
 Will use up to   16 processors via shared memory.
 %mem=40GB
 %chk=EUBE0042.chk
 ----------------------------------------------------------------------
 # opt freq=noraman M08HX/6-311++G** scf=xqc Empiricaldispersion=pfd In
 t(Grid=ultraFine)
 ----------------------------------------------------------------------
 1/18=20,19=15,26=4,38=1/1,3;
 2/9=110,12=2,17=6,18=5,40=1/2;
 3/5=4,6=6,7=1111,11=2,25=1,30=1,71=1,74=-74,75=-5,124=11/1,2,3;
 4//1;
 5/5=2,8=3,13=1,38=5/2,8;
 6/7=2,8=2,9=2,10=2,28=1/1;
 7//1,2,3,16;
 1/18=20,19=15,26=4/3(2);
 2/9=110/2;
 99//99;
 2/9=110/2;
 3/5=4,6=6,7=1111,11=2,25=1,30=1,71=1,74=-74,75=-5,124=11/1,2,3;
 4/5=5,16=3,69=1/1;
 5/5=2,8=3,13=1,38=5/2,8;
 7//1,2,3,16;
 1/18=20,19=15,26=4/3(-5);
 2/9=110/2;
 6/7=2,8=2,9=2,10=2,19=2,28=1/1;
 99/9=1/99;
 --------
 EUBE0042
 --------
 Symbolic Z-matrix:
 Charge =  0 Multiplicity = 1
 O                     0.7741   -0.0132    0.5458 
 O                    -0.6988   -1.8379   -0.9469 
 O                     1.2281    1.172    -1.41 
 C                    -3.2661    0.6399   -0.152 
 C                    -4.7174    0.8782   -0.3993 
 C                    -2.6484   -0.4991   -0.6683 
 C                    -1.2912   -0.7224   -0.4362 
 C                    -0.5863    0.1986    0.3064 
 C                    -2.5268    1.5555    0.5968 
 C                    -1.1697    1.3323    0.829 
 C                    -5.6031    0.2781    0.6618 
 C                     3.0112    0.2773   -0.1039 
 C                     1.6155    0.5371   -0.4187 
 C                     3.9951    1.1864   -0.4928 
 C                     3.3662   -0.8813    0.5869 
 C                     5.3339    0.9369   -0.1911 
 C                     4.7049   -1.1308    0.8888 
 C                     5.6888   -0.2217    0.4997 
 C                    -0.7022   -3.0058   -0.1284 
 C                    -6.508    -0.6801    0.4324 
 H                    -4.9143    1.9573   -0.4454 
 H                    -4.9883    0.4972   -1.393 
 H                    -3.2197   -1.2166   -1.2524 
 H                    -2.9961    2.4462    1.0062 
 H                    -0.5947    2.0444    1.4126 
 H                    -5.5042    0.6661    1.6728 
 H                     3.7354    2.0955   -1.0293 
 H                     2.6236   -1.6145    0.8909 
 H                     6.1       1.6449   -0.4935 
 H                     4.982    -2.0344    1.424 
 H                     6.7312   -0.4164    0.7342 
 H                    -0.1679   -2.8206    0.8089 
 H                    -0.19     -3.8054   -0.6704 
 H                    -1.7282   -3.3251    0.0801 
 H                    -7.1198   -1.0632    1.2417 
 H                    -6.6528   -1.0975   -0.5579 
 

 GradGradGradGradGradGradGradGradGradGradGradGradGradGradGradGradGradGrad
 Berny optimization.
 Initialization pass.
                           ----------------------------
                           !    Initial Parameters    !
                           ! (Angstroms and Degrees)  !
 --------------------------                            --------------------------
 ! Name  Definition              Value          Derivative Info.                !
 --------------------------------------------------------------------------------
 ! R1    R(1,8)                  1.3974         estimate D2E/DX2                !
 ! R2    R(1,13)                 1.3932         estimate D2E/DX2                !
 ! R3    R(2,7)                  1.3624         estimate D2E/DX2                !
 ! R4    R(2,19)                 1.4262         estimate D2E/DX2                !
 ! R5    R(3,13)                 1.2393         estimate D2E/DX2                !
 ! R6    R(4,5)                  1.4914         estimate D2E/DX2                !
 ! R7    R(4,6)                  1.3948         estimate D2E/DX2                !
 ! R8    R(4,9)                  1.3948         estimate D2E/DX2                !
 ! R9    R(5,11)                 1.5068         estimate D2E/DX2                !
 ! R10   R(5,21)                 1.0979         estimate D2E/DX2                !
 ! R11   R(5,22)                 1.0982         estimate D2E/DX2                !
 ! R12   R(6,7)                  1.3949         estimate D2E/DX2                !
 ! R13   R(6,23)                 1.0874         estimate D2E/DX2                !
 ! R14   R(7,8)                  1.3772         estimate D2E/DX2                !
 ! R15   R(8,10)                 1.3779         estimate D2E/DX2                !
 ! R16   R(9,10)                 1.3948         estimate D2E/DX2                !
 ! R17   R(9,24)                 1.0868         estimate D2E/DX2                !
 ! R18   R(10,25)                1.0855         estimate D2E/DX2                !
 ! R19   R(11,20)                1.3378         estimate D2E/DX2                !
 ! R20   R(11,26)                1.0874         estimate D2E/DX2                !
 ! R21   R(12,13)                1.4542         estimate D2E/DX2                !
 ! R22   R(12,14)                1.3949         estimate D2E/DX2                !
 ! R23   R(12,15)                1.3948         estimate D2E/DX2                !
 ! R24   R(14,16)                1.3949         estimate D2E/DX2                !
 ! R25   R(14,27)                1.0871         estimate D2E/DX2                !
 ! R26   R(15,17)                1.3948         estimate D2E/DX2                !
 ! R27   R(15,28)                1.0869         estimate D2E/DX2                !
 ! R28   R(16,18)                1.3948         estimate D2E/DX2                !
 ! R29   R(16,29)                1.0861         estimate D2E/DX2                !
 ! R30   R(17,18)                1.395          estimate D2E/DX2                !
 ! R31   R(17,30)                1.0861         estimate D2E/DX2                !
 ! R32   R(18,31)                1.086          estimate D2E/DX2                !
 ! R33   R(19,32)                1.0947         estimate D2E/DX2                !
 ! R34   R(19,33)                1.0934         estimate D2E/DX2                !
 ! R35   R(19,34)                1.0946         estimate D2E/DX2                !
 ! R36   R(20,35)                1.0844         estimate D2E/DX2                !
 ! R37   R(20,36)                1.0844         estimate D2E/DX2                !
 ! A1    A(8,1,13)             114.1706         estimate D2E/DX2                !
 ! A2    A(7,2,19)             117.0223         estimate D2E/DX2                !
 ! A3    A(5,4,6)              120.0041         estimate D2E/DX2                !
 ! A4    A(5,4,9)              119.9941         estimate D2E/DX2                !
 ! A5    A(6,4,9)              120.0017         estimate D2E/DX2                !
 ! A6    A(4,5,11)             113.0536         estimate D2E/DX2                !
 ! A7    A(4,5,21)             109.7879         estimate D2E/DX2                !
 ! A8    A(4,5,22)             109.5519         estimate D2E/DX2                !
 ! A9    A(11,5,21)            108.3966         estimate D2E/DX2                !
 ! A10   A(11,5,22)            110.7343         estimate D2E/DX2                !
 ! A11   A(21,5,22)            104.9969         estimate D2E/DX2                !
 ! A12   A(4,6,7)              120.0019         estimate D2E/DX2                !
 ! A13   A(4,6,23)             120.3316         estimate D2E/DX2                !
 ! A14   A(7,6,23)             119.6665         estimate D2E/DX2                !
 ! A15   A(2,7,6)              119.4574         estimate D2E/DX2                !
 ! A16   A(2,7,8)              121.8126         estimate D2E/DX2                !
 ! A17   A(6,7,8)              118.73           estimate D2E/DX2                !
 ! A18   A(1,8,7)              119.2943         estimate D2E/DX2                !
 ! A19   A(1,8,10)             118.1566         estimate D2E/DX2                !
 ! A20   A(7,8,10)             122.549          estimate D2E/DX2                !
 ! A21   A(4,9,10)             120.0018         estimate D2E/DX2                !
 ! A22   A(4,9,24)             120.7514         estimate D2E/DX2                !
 ! A23   A(10,9,24)            119.2468         estimate D2E/DX2                !
 ! A24   A(8,10,9)             118.7155         estimate D2E/DX2                !
 ! A25   A(8,10,25)            121.2896         estimate D2E/DX2                !
 ! A26   A(9,10,25)            119.9948         estimate D2E/DX2                !
 ! A27   A(5,11,20)            124.2012         estimate D2E/DX2                !
 ! A28   A(5,11,26)            117.3326         estimate D2E/DX2                !
 ! A29   A(20,11,26)           118.4588         estimate D2E/DX2                !
 ! A30   A(13,12,14)           120.0134         estimate D2E/DX2                !
 ! A31   A(13,12,15)           119.9929         estimate D2E/DX2                !
 ! A32   A(14,12,15)           119.9937         estimate D2E/DX2                !
 ! A33   A(1,13,3)             124.5635         estimate D2E/DX2                !
 ! A34   A(1,13,12)            111.0519         estimate D2E/DX2                !
 ! A35   A(3,13,12)            124.383          estimate D2E/DX2                !
 ! A36   A(12,14,16)           120.0081         estimate D2E/DX2                !
 ! A37   A(12,14,27)           120.9383         estimate D2E/DX2                !
 ! A38   A(16,14,27)           119.0534         estimate D2E/DX2                !
 ! A39   A(12,15,17)           120.003          estimate D2E/DX2                !
 ! A40   A(12,15,28)           121.664          estimate D2E/DX2                !
 ! A41   A(17,15,28)           118.3278         estimate D2E/DX2                !
 ! A42   A(14,16,18)           119.9943         estimate D2E/DX2                !
 ! A43   A(14,16,29)           120.0126         estimate D2E/DX2                !
 ! A44   A(18,16,29)           119.9931         estimate D2E/DX2                !
 ! A45   A(15,17,18)           120.0            estimate D2E/DX2                !
 ! A46   A(15,17,30)           120.0214         estimate D2E/DX2                !
 ! A47   A(18,17,30)           119.9783         estimate D2E/DX2                !
 ! A48   A(16,18,17)           120.001          estimate D2E/DX2                !
 ! A49   A(16,18,31)           120.0045         estimate D2E/DX2                !
 ! A50   A(17,18,31)           119.9945         estimate D2E/DX2                !
 ! A51   A(2,19,32)            110.5914         estimate D2E/DX2                !
 ! A52   A(2,19,33)            108.2561         estimate D2E/DX2                !
 ! A53   A(2,19,34)            110.5143         estimate D2E/DX2                !
 ! A54   A(32,19,33)           108.6341         estimate D2E/DX2                !
 ! A55   A(32,19,34)           110.1064         estimate D2E/DX2                !
 ! A56   A(33,19,34)           108.6751         estimate D2E/DX2                !
 ! A57   A(11,20,35)           120.4425         estimate D2E/DX2                !
 ! A58   A(11,20,36)           121.5091         estimate D2E/DX2                !
 ! A59   A(35,20,36)           118.0484         estimate D2E/DX2                !
 ! D1    D(13,1,8,7)            89.9735         estimate D2E/DX2                !
 ! D2    D(13,1,8,10)          -90.0043         estimate D2E/DX2                !
 ! D3    D(8,1,13,3)             0.4447         estimate D2E/DX2                !
 ! D4    D(8,1,13,12)         -179.9951         estimate D2E/DX2                !
 ! D5    D(19,2,7,6)           -90.0619         estimate D2E/DX2                !
 ! D6    D(19,2,7,8)            89.9931         estimate D2E/DX2                !
 ! D7    D(7,2,19,32)          -60.7832         estimate D2E/DX2                !
 ! D8    D(7,2,19,33)         -179.6879         estimate D2E/DX2                !
 ! D9    D(7,2,19,34)           61.4026         estimate D2E/DX2                !
 ! D10   D(6,4,5,11)            89.9957         estimate D2E/DX2                !
 ! D11   D(6,4,5,21)          -148.8314         estimate D2E/DX2                !
 ! D12   D(6,4,5,22)           -34.0218         estimate D2E/DX2                !
 ! D13   D(9,4,5,11)           -89.9402         estimate D2E/DX2                !
 ! D14   D(9,4,5,21)            31.2327         estimate D2E/DX2                !
 ! D15   D(9,4,5,22)           146.0424         estimate D2E/DX2                !
 ! D16   D(5,4,6,7)           -179.9562         estimate D2E/DX2                !
 ! D17   D(5,4,6,23)             0.0378         estimate D2E/DX2                !
 ! D18   D(9,4,6,7)             -0.0204         estimate D2E/DX2                !
 ! D19   D(9,4,6,23)           179.9737         estimate D2E/DX2                !
 ! D20   D(5,4,9,10)           179.9536         estimate D2E/DX2                !
 ! D21   D(5,4,9,24)             0.0353         estimate D2E/DX2                !
 ! D22   D(6,4,9,10)             0.0177         estimate D2E/DX2                !
 ! D23   D(6,4,9,24)          -179.9005         estimate D2E/DX2                !
 ! D24   D(4,5,11,20)         -117.5612         estimate D2E/DX2                !
 ! D25   D(4,5,11,26)           63.4424         estimate D2E/DX2                !
 ! D26   D(21,5,11,20)         120.4821         estimate D2E/DX2                !
 ! D27   D(21,5,11,26)         -58.5144         estimate D2E/DX2                !
 ! D28   D(22,5,11,20)           5.8057         estimate D2E/DX2                !
 ! D29   D(22,5,11,26)        -173.1907         estimate D2E/DX2                !
 ! D30   D(4,6,7,2)           -179.9327         estimate D2E/DX2                !
 ! D31   D(4,6,7,8)              0.014          estimate D2E/DX2                !
 ! D32   D(23,6,7,2)             0.0732         estimate D2E/DX2                !
 ! D33   D(23,6,7,8)          -179.9801         estimate D2E/DX2                !
 ! D34   D(2,7,8,1)             -0.0365         estimate D2E/DX2                !
 ! D35   D(2,7,8,10)           179.9403         estimate D2E/DX2                !
 ! D36   D(6,7,8,1)           -179.9819         estimate D2E/DX2                !
 ! D37   D(6,7,8,10)            -0.0051         estimate D2E/DX2                !
 ! D38   D(1,8,10,9)           179.9795         estimate D2E/DX2                !
 ! D39   D(1,8,10,25)           -0.0925         estimate D2E/DX2                !
 ! D40   D(7,8,10,9)             0.0025         estimate D2E/DX2                !
 ! D41   D(7,8,10,25)          179.9305         estimate D2E/DX2                !
 ! D42   D(4,9,10,8)            -0.0087         estimate D2E/DX2                !
 ! D43   D(4,9,10,25)         -179.9377         estimate D2E/DX2                !
 ! D44   D(24,9,10,8)          179.9107         estimate D2E/DX2                !
 ! D45   D(24,9,10,25)          -0.0183         estimate D2E/DX2                !
 ! D46   D(5,11,20,35)        -179.514          estimate D2E/DX2                !
 ! D47   D(5,11,20,36)           0.5855         estimate D2E/DX2                !
 ! D48   D(26,11,20,35)         -0.5281         estimate D2E/DX2                !
 ! D49   D(26,11,20,36)        179.5714         estimate D2E/DX2                !
 ! D50   D(14,12,13,1)        -149.5615         estimate D2E/DX2                !
 ! D51   D(14,12,13,3)          29.9996         estimate D2E/DX2                !
 ! D52   D(15,12,13,1)          30.4484         estimate D2E/DX2                !
 ! D53   D(15,12,13,3)        -149.9904         estimate D2E/DX2                !
 ! D54   D(13,12,14,16)       -179.9823         estimate D2E/DX2                !
 ! D55   D(13,12,14,27)          0.1834         estimate D2E/DX2                !
 ! D56   D(15,12,14,16)          0.0077         estimate D2E/DX2                !
 ! D57   D(15,12,14,27)       -179.8265         estimate D2E/DX2                !
 ! D58   D(13,12,15,17)        179.9911         estimate D2E/DX2                !
 ! D59   D(13,12,15,28)          0.8411         estimate D2E/DX2                !
 ! D60   D(14,12,15,17)          0.001          estimate D2E/DX2                !
 ! D61   D(14,12,15,28)       -179.149          estimate D2E/DX2                !
 ! D62   D(12,14,16,18)         -0.0082         estimate D2E/DX2                !
 ! D63   D(12,14,16,29)       -179.974          estimate D2E/DX2                !
 ! D64   D(27,14,16,18)        179.8292         estimate D2E/DX2                !
 ! D65   D(27,14,16,29)         -0.1366         estimate D2E/DX2                !
 ! D66   D(12,15,17,18)         -0.0092         estimate D2E/DX2                !
 ! D67   D(12,15,17,30)       -179.8103         estimate D2E/DX2                !
 ! D68   D(28,15,17,18)        179.1689         estimate D2E/DX2                !
 ! D69   D(28,15,17,30)         -0.6322         estimate D2E/DX2                !
 ! D70   D(14,16,18,17)          0.0            estimate D2E/DX2                !
 ! D71   D(14,16,18,31)        179.9656         estimate D2E/DX2                !
 ! D72   D(29,16,18,17)        179.9658         estimate D2E/DX2                !
 ! D73   D(29,16,18,31)         -0.0686         estimate D2E/DX2                !
 ! D74   D(15,17,18,16)          0.0087         estimate D2E/DX2                !
 ! D75   D(15,17,18,31)       -179.9569         estimate D2E/DX2                !
 ! D76   D(30,17,18,16)        179.8098         estimate D2E/DX2                !
 ! D77   D(30,17,18,31)         -0.1558         estimate D2E/DX2                !
 --------------------------------------------------------------------------------
 Trust Radius=3.00D-01 FncErr=1.00D-07 GrdErr=1.00D-06 EigMax=2.50D+02 EigMin=1.00D-04
 Number of steps in this run=    183 maximum allowed number of steps=    216.
 GradGradGradGradGradGradGradGradGradGradGradGradGradGradGradGradGradGrad

                          Input orientation:                          
 ---------------------------------------------------------------------
 Center     Atomic      Atomic             Coordinates (Angstroms)
 Number     Number       Type             X           Y           Z
 ---------------------------------------------------------------------
      1          8           0        0.774100   -0.013200    0.545800
      2          8           0       -0.698800   -1.837900   -0.946900
      3          8           0        1.228100    1.172000   -1.410000
      4          6           0       -3.266100    0.639900   -0.152000
      5          6           0       -4.717400    0.878200   -0.399300
      6          6           0       -2.648400   -0.499100   -0.668300
      7          6           0       -1.291200   -0.722400   -0.436200
      8          6           0       -0.586300    0.198600    0.306400
      9          6           0       -2.526800    1.555500    0.596800
     10          6           0       -1.169700    1.332300    0.829000
     11          6           0       -5.603100    0.278100    0.661800
     12          6           0        3.011200    0.277300   -0.103900
     13          6           0        1.615500    0.537100   -0.418700
     14          6           0        3.995100    1.186400   -0.492800
     15          6           0        3.366200   -0.881300    0.586900
     16          6           0        5.333900    0.936900   -0.191100
     17          6           0        4.704900   -1.130800    0.888800
     18          6           0        5.688800   -0.221700    0.499700
     19          6           0       -0.702200   -3.005800   -0.128400
     20          6           0       -6.508000   -0.680100    0.432400
     21          1           0       -4.914300    1.957300   -0.445400
     22          1           0       -4.988300    0.497200   -1.393000
     23          1           0       -3.219700   -1.216600   -1.252400
     24          1           0       -2.996100    2.446200    1.006200
     25          1           0       -0.594700    2.044400    1.412600
     26          1           0       -5.504200    0.666100    1.672800
     27          1           0        3.735400    2.095500   -1.029300
     28          1           0        2.623600   -1.614500    0.890900
     29          1           0        6.100000    1.644900   -0.493500
     30          1           0        4.982000   -2.034400    1.424000
     31          1           0        6.731200   -0.416400    0.734200
     32          1           0       -0.167900   -2.820600    0.808900
     33          1           0       -0.190000   -3.805400   -0.670400
     34          1           0       -1.728200   -3.325100    0.080100
     35          1           0       -7.119800   -1.063200    1.241700
     36          1           0       -6.652800   -1.097500   -0.557900
 ---------------------------------------------------------------------
                    Distance matrix (angstroms):
                    1          2          3          4          5
     1  O    0.000000
     2  O    2.779769   0.000000
     3  O    2.331516   3.603735   0.000000
     4  C    4.151708   3.655460   4.697183   0.000000
     5  C    5.643083   4.881210   6.037947   1.491381   0.000000
     6  C    3.663829   2.381374   4.286018   1.394790   2.500015
     7  C    2.394317   1.362385   3.299077   2.415960   3.781815
     8  C    1.397448   2.393898   2.680594   2.754306   4.245687
     9  C    3.655046   4.152079   4.274762   1.394844   2.499936
    10  C    2.380952   3.664115   3.284549   2.415920   3.781680
    11  C    6.384903   5.578309   7.194213   2.500948   1.506824
    12  C    2.347577   4.353024   2.384498   6.287948   7.757551
    13  C    1.393214   3.357917   1.239295   4.889961   6.342109
    14  C    3.590623   5.602258   2.915090   7.289707   8.718451
    15  C    2.733911   4.448803   3.574230   6.844518   8.331448
    16  C    4.715664   6.683129   4.289357   8.605216  10.053627
    17  C    4.100959   5.750631   4.761881   8.231372   9.719826
    18  C    4.919337   6.745827   5.048485   9.019828  10.502713
    19  C    3.404359   1.426164   4.777297   4.457047   5.592913
    20  C    7.313453   6.081922   8.165290   3.548780   2.515208
    21  H    6.101085   5.694338   6.267075   2.130303   1.097885
    22  H    6.101205   4.904234   6.252941   2.127538   1.098175
    23  H    4.542261   2.614246   5.051057   2.158617   2.712761
    24  H    4.524934   5.238864   5.030455   2.162648   2.719729
    25  H    2.618907   4.544263   3.471419   3.399555   4.651845
    26  H    6.414720   6.018697   7.421823   2.887849   2.226576
    27  H    3.961925   5.927947   2.698951   7.204820   8.563209
    28  H    2.470608   3.803388   3.873776   6.392067   7.859291
    29  H    5.674033   7.652395   4.979861   9.426053  10.844946
    30  H    4.750043   6.158837   5.692479   8.812878  10.290093
    31  H    5.973701   7.749301   6.115940  10.091934  11.577187
    32  H    2.972891   2.080958   4.776315   4.743125   5.986553
    33  H    4.097489   2.050948   5.228052   5.430637   6.519736
    34  H    4.176968   2.079942   5.584265   4.259135   5.180046
    35  H    7.993775   6.827838   9.039639   4.437787   3.497634
    36  H    7.586350   6.012456   8.245319   3.827930   2.770256
                    6          7          8          9         10
     6  C    0.000000
     7  C    1.394893   0.000000
     8  C    2.385180   1.377164   0.000000
     9  C    2.415915   2.789736   2.385592   0.000000
    10  C    2.789711   2.416047   1.377948   1.394796   0.000000
    11  C    3.332185   4.560601   5.030001   3.331606   4.560080
    12  C    5.740420   4.429500   3.621677   5.726624   4.411718
    13  C    4.395094   3.167894   2.342707   4.384864   3.153797
    14  C    6.856224   5.620648   4.754334   6.622586   5.333254
    15  C    6.156055   4.771096   4.106960   6.376954   5.053021
    16  C    8.124465   6.834128   5.986766   7.924270   6.594980
    17  C    7.542853   6.154318   5.486647   7.720036   6.370350
    18  C    8.423187   7.060241   6.292130   8.406185   7.040055
    19  C    3.219120   2.378146   3.235840   4.965938   4.467022
    20  C    4.017563   5.288786   5.987864   4.568904   5.718784
    21  H    3.349312   4.506410   4.731787   2.635864   4.004591
    22  H    2.644416   4.008920   4.728079   3.337407   4.496263
    23  H    1.087365   2.151634   3.371564   3.403555   3.877063
    24  H    3.405824   3.876497   3.368763   1.086829   2.146604
    25  H    3.875206   3.399758   2.151912   2.153500   1.085495
    26  H    3.872213   4.911739   5.125558   3.288422   4.465838
    27  H    6.900375   5.793016   4.905040   6.492376   5.300543
    28  H    5.609742   4.228794   3.732617   6.054917   4.803810
    29  H    9.008984   7.761265   6.887542   8.695886   7.395625
    30  H    8.059645   6.673434   6.102564   8.363834   7.037905
    31  H    9.484236   8.113099   7.355749   9.466670   8.092661
    32  H    3.704641   2.685986   3.089196   4.975907   4.272070
    33  H    4.120116   3.282130   4.140436   5.983785   5.440953
    34  H    3.064824   2.689160   3.711012   4.972424   4.750173
    35  H    4.894867   6.074872   6.719639   5.326268   6.427475
    36  H    4.050369   5.376083   6.263331   5.039406   6.155632
                   11         12         13         14         15
    11  C    0.000000
    12  C    8.648264   0.000000
    13  C    7.303612   1.454157   0.000000
    14  C    9.709972   1.394907   2.467707   0.000000
    15  C    9.044234   1.394842   2.467395   2.415916   0.000000
    16  C   10.989969   2.416115   3.746751   1.394869   2.789799
    17  C   10.406315   2.415951   3.746444   2.789633   1.394816
    18  C   11.304118   2.789781   4.243938   2.415869   2.416019
    19  C    5.952078   4.956681   4.243601   6.306501   4.645108
    20  C    1.337765   9.582244   8.258160  10.707704   9.877458
    21  H    2.126041   8.108796   6.682512   8.942815   8.814192
    22  H    2.155965   8.105685   6.675405   9.054658   8.695857
    23  H    3.402776   6.509601   5.210535   7.642299   6.846132
    24  H    3.408184   6.482600   5.190555   7.260232   7.192144
    25  H    5.363542   4.292427   3.242005   5.043112   4.993018
    26  H    1.087403   8.707460   7.421667   9.756907   9.069599
    27  H    9.662833   2.164875   2.701003   1.087078   3.407308
    28  H    8.444703   2.172273   2.713061   3.411844   1.086947
    29  H   11.839147   3.400412   4.619909   2.154258   3.875902
    30  H   10.861535   3.400366   4.619684   3.875777   2.154341
    31  H   12.354049   3.875827   5.329984   3.400109   3.400155
    32  H    6.258193   4.531762   3.995205   5.922925   4.037330
    33  H    6.910237   5.218912   4.709617   6.516492   4.772601
    34  H    5.323183   5.955926   5.132808   7.310131   5.672911
    35  H    2.106122  10.307509   9.034564  11.472149  10.507999
    36  H    2.117029   9.771852   8.429477  10.890281  10.086509
                   16         17         18         19         20
    16  C    0.000000
    17  C    2.416032   0.000000
    18  C    1.394816   1.394963   0.000000
    19  C    7.209946   5.812663   6.999329   0.000000
    20  C   11.968042  11.231231  12.205597   6.279386   0.000000
    21  H   10.302014  10.190459  10.865863   6.517257   3.204105
    22  H   10.401236  10.090348  10.867364   5.678105   2.650964
    23  H    8.884143   8.209226   9.133513   3.286703   3.733537
    24  H    8.549878   8.492003   9.099545   6.022757   4.736712
    25  H    6.240730   6.200163   6.741733   5.281170   6.584133
    26  H   11.000539  10.395635  11.289269   6.307644   2.087693
    27  H    2.144793   3.876603   3.394559   6.821083  10.712972
    28  H    3.876350   2.136769   3.389451   3.746416   9.190726
    29  H    1.086103   3.400231   2.154003   8.248165  12.853971
    30  H    3.400148   1.086148   2.154014   5.971909  11.611955
    31  H    2.154077   2.154103   1.086046   7.918618  13.245265
    32  H    6.737107   5.158099   6.414891   1.094672   6.702265
    33  H    7.296068   5.791773   6.983719   1.093377   7.134479
    34  H    8.252966   6.844978   8.051028   1.094578   5.474178
    35  H   12.694407  11.830158  12.857641   6.843717   1.084450
    36  H   12.163647  11.449515  12.417755   6.263842   1.084382
                   21         22         23         24         25
    21  H    0.000000
    22  H    1.742215   0.000000
    23  H    3.687351   2.466744   0.000000
    24  H    2.454721   3.677448   4.308988   0.000000
    25  H    4.703052   5.437733   4.962557   2.468466   0.000000
    26  H    2.549892   3.113488   4.161766   3.147011   5.105938
    27  H    8.670487   8.876361   7.706698   7.041260   4.971444
    28  H    8.447685   8.222925   6.236683   6.934234   4.900732
    29  H   11.018834  11.183770   9.778595   9.253660   6.972218
    30  H   10.833516  10.665429   8.666014   9.159717   6.909148
    31  H   11.943349  11.945975  10.178768  10.143413   7.757872
    32  H    6.850541   6.252393   4.016872   5.981373   4.920857
    33  H    7.455089   6.485229   4.027368   7.054622   6.222767
    34  H    6.191214   5.235289   2.906183   5.981065   5.647292
    35  H    4.102921   3.730923   4.631938   5.419986   7.229337
    36  H    3.516652   2.451738   3.504667   5.326882   7.103167
                   26         27         28         29         30
    26  H    0.000000
    27  H    9.732150   0.000000
    28  H    8.477832   4.322889   0.000000
    29  H   11.845183   2.466061   4.962420   0.000000
    30  H   10.831205   4.962738   2.454091   4.296973   0.000000
    31  H   12.319001   4.288868   4.281632   2.480850   2.480615
    32  H    6.432690   6.540854   3.042018   7.805351   5.245753
    33  H    7.329776   7.096351   3.892820   8.324732   5.854275
    34  H    5.720537   7.775899   4.745705   9.290352   6.964105
    35  H    2.405512  11.531270   9.765287  13.605434  12.142077
    36  H    3.066853  10.878059   9.403080  13.044494  11.839522
                   31         32         33         34         35
    31  H    0.000000
    32  H    7.306390   0.000000
    33  H    7.833341   1.777259   0.000000
    34  H    8.969383   1.794493   1.777638   0.000000
    35  H   13.875378   7.183640   7.694018   5.961112   0.000000
    36  H   13.463464   6.847711   7.008078   5.442511   1.859523
                   36
    36  H    0.000000
 Stoichiometry    C17H16O3
 Framework group  C1[X(C17H16O3)]
 Deg. of freedom   102
 Full point group                 C1      NOp   1
 Largest Abelian subgroup         C1      NOp   1
 Largest concise Abelian subgroup C1      NOp   1
                         Standard orientation:                         
 ---------------------------------------------------------------------
 Center     Atomic      Atomic             Coordinates (Angstroms)
 Number     Number       Type             X           Y           Z
 ---------------------------------------------------------------------
      1          8           0        0.854147   -0.029141   -0.547012
      2          8           0       -0.627569    1.772499    0.964851
      3          8           0        1.312162   -1.233927    1.395842
      4          6           0       -3.183576   -0.707502    0.140953
      5          6           0       -4.633968   -0.954839    0.384680
      6          6           0       -2.571150    0.428392    0.670217
      7          6           0       -1.214801    0.660152    0.441463
      8          6           0       -0.505457   -0.249497   -0.310834
      9          6           0       -2.439853   -1.611533   -0.617462
     10          6           0       -1.083602   -1.379872   -0.846316
     11          6           0       -5.521653   -0.346893   -0.670278
     12          6           0        3.092111   -0.317074    0.100854
     13          6           0        1.697372   -0.586414    0.411874
     14          6           0        4.079736   -1.226131    0.480296
     15          6           0        3.442462    0.850635   -0.576858
     16          6           0        5.417612   -0.967483    0.182226
     17          6           0        4.780239    1.109285   -0.875129
     18          6           0        5.767864    0.200225   -0.495487
     19          6           0       -0.635579    2.949360    0.159321
     20          6           0       -6.430856    0.604762   -0.430864
     21          1           0       -4.826190   -2.035230    0.418712
     22          1           0       -4.907110   -0.586043    1.382362
     23          1           0       -3.145915    1.136890    1.261857
     24          1           0       -2.905025   -2.499681   -1.036990
     25          1           0       -0.505161   -2.082960   -1.437395
     26          1           0       -5.420469   -0.723246   -1.685446
     27          1           0        3.823687   -2.142235    1.006540
     28          1           0        2.696851    1.583915   -0.873198
     29          1           0        6.186614   -1.675445    0.477260
     30          1           0        5.053711    2.019950   -1.400122
     31          1           0        6.809543    0.402044   -0.727156
     32          1           0       -0.099927    2.776872   -0.779631
     33          1           0       -0.127188    3.745135    0.710461
     34          1           0       -1.662839    3.266480   -0.046284
     35          1           0       -7.043845    0.994129   -1.236264
     36          1           0       -6.578055    1.010542    0.563902
 ---------------------------------------------------------------------
 Rotational constants (GHZ):           0.9911884           0.1468768           0.1363042
 Standard basis: 6-311++G(d,p) (5D, 7F)
 There are   572 symmetry adapted cartesian basis functions of A   symmetry.
 There are   552 symmetry adapted basis functions of A   symmetry.
   552 basis functions,   864 primitive gaussians,   572 cartesian basis functions
    71 alpha electrons       71 beta electrons
       nuclear repulsion energy      1432.1959181903 Hartrees.
 NAtoms=   36 NActive=   36 NUniq=   36 SFac= 1.00D+00 NAtFMM=   60 NAOKFM=F Big=F
 Integral buffers will be    131072 words long.
 Raffenetti 2 integral format.
 Two-electron integral symmetry is turned on.
 R6APFD:  NTU= -4 IXU= 1 FactS= 1.050
 Nuclear repulsion after empirical dispersion term =     1432.1673397683 Hartrees.
 One-electron integrals computed using PRISM.
 NBasis=   552 RedAO= T EigKep=  1.01D-06  NBF=   552
 NBsUse=   550 1.00D-06 EigRej=  6.21D-07 NBFU=   550
 ExpMin= 3.60D-02 ExpMax= 8.59D+03 ExpMxC= 1.30D+03 IAcc=3 IRadAn=         5 AccDes= 0.00D+00
 Harris functional with IExCor= 1009 and IRadAn=       5 diagonalized for initial guess.
 HarFok:  IExCor= 1009 AccDes= 0.00D+00 IRadAn=         5 IDoV= 1 UseB2=F ITyADJ=14
 ICtDFT=  3500011 ScaDFX=  1.000000  1.000000  1.000000  1.000000
 FoFCou: FMM=F IPFlag=           0 FMFlag=      100000 FMFlg1=           0
         NFxFlg=           0 DoJE=T BraDBF=F KetDBF=T FulRan=T
         wScrn=  0.000000 ICntrl=       500 IOpCl=  0 I1Cent=   200000004 NGrid=           0
         NMat0=    1 NMatS0=      1 NMatT0=    0 NMatD0=    1 NMtDS0=    0 NMtDT0=    0
 Petite list used in FoFCou.
 Requested convergence on RMS density matrix=1.00D-08 within  32 cycles.
 Requested convergence on MAX density matrix=1.00D-06.
 Requested convergence on             energy=1.00D-06.
 No special actions if energy rises.
 SCF Done:  E(RM08HX) =  -883.066134719     A.U. after   17 cycles
            NFock= 17  Conv=0.38D-08     -V/T= 2.0047
 QCSCF skips out because SCF is already converged.

 **********************************************************************

            Population analysis using the SCF Density.

 **********************************************************************

 Orbital symmetries:
       Occupied  (A) (A) (A) (A) (A) (A) (A) (A) (A) (A) (A) (A)
                 (A) (A) (A) (A) (A) (A) (A) (A) (A) (A) (A) (A)
                 (A) (A) (A) (A) (A) (A) (A) (A) (A) (A) (A) (A)
                 (A) (A) (A) (A) (A) (A) (A) (A) (A) (A) (A) (A)
                 (A) (A) (A) (A) (A) (A) (A) (A) (A) (A) (A) (A)
                 (A) (A) (A) (A) (A) (A) (A) (A) (A) (A) (A)
       Virtual   (A) (A) (A) (A) (A) (A) (A) (A) (A) (A) (A) (A)
                 (A) (A) (A) (A) (A) (A) (A) (A) (A) (A) (A) (A)
                 (A) (A) (A) (A) (A) (A) (A) (A) (A) (A) (A) (A)
                 (A) (A) (A) (A) (A) (A) (A) (A) (A) (A) (A) (A)
                 (A) (A) (A) (A) (A) (A) (A) (A) (A) (A) (A) (A)
                 (A) (A) (A) (A) (A) (A) (A) (A) (A) (A) (A) (A)
                 (A) (A) (A) (A) (A) (A) (A) (A) (A) (A) (A) (A)
                 (A) (A) (A) (A) (A) (A) (A) (A) (A) (A) (A) (A)
                 (A) (A) (A) (A) (A) (A) (A) (A) (A) (A) (A) (A)
                 (A) (A) (A) (A) (A) (A) (A) (A) (A) (A) (A) (A)
                 (A) (A) (A) (A) (A) (A) (A) (A) (A) (A) (A) (A)
                 (A) (A) (A) (A) (A) (A) (A) (A) (A) (A) (A) (A)
                 (A) (A) (A) (A) (A) (A) (A) (A) (A) (A) (A) (A)
                 (A) (A) (A) (A) (A) (A) (A) (A) (A) (A) (A) (A)
                 (A) (A) (A) (A) (A) (A) (A) (A) (A) (A) (A) (A)
                 (A) (A) (A) (A) (A) (A) (A) (A) (A) (A) (A) (A)
                 (A) (A) (A) (A) (A) (A) (A) (A) (A) (A) (A) (A)
                 (A) (A) (A) (A) (A) (A) (A) (A) (A) (A) (A) (A)
                 (A) (A) (A) (A) (A) (A) (A) (A) (A) (A) (A) (A)
                 (A) (A) (A) (A) (A) (A) (A) (A) (A) (A) (A) (A)
                 (A) (A) (A) (A) (A) (A) (A) (A) (A) (A) (A) (A)
                 (A) (A) (A) (A) (A) (A) (A) (A) (A) (A) (A) (A)
                 (A) (A) (A) (A) (A) (A) (A) (A) (A) (A) (A) (A)
                 (A) (A) (A) (A) (A) (A) (A) (A) (A) (A) (A) (A)
                 (A) (A) (A) (A) (A) (A) (A) (A) (A) (A) (A) (A)
                 (A) (A) (A) (A) (A) (A) (A) (A) (A) (A) (A) (A)
                 (A) (A) (A) (A) (A) (A) (A) (A) (A) (A) (A) (A)
                 (A) (A) (A) (A) (A) (A) (A) (A) (A) (A) (A) (A)
                 (A) (A) (A) (A) (A) (A) (A) (A) (A) (A) (A) (A)
                 (A) (A) (A) (A) (A) (A) (A) (A) (A) (A) (A) (A)
                 (A) (A) (A) (A) (A) (A) (A) (A) (A) (A) (A) (A)
                 (A) (A) (A) (A) (A) (A) (A) (A) (A) (A) (A) (A)
                 (A) (A) (A) (A) (A) (A) (A) (A) (A) (A) (A) (A)
                 (A) (A) (A) (A) (A) (A) (A) (A) (A) (A) (A) (A)
                 (A) (A) (A) (A) (A) (A) (A) (A) (A) (A) (A) (A)
                 (A) (A) (A) (A) (A) (A) (A) (A) (A) (A) (A) (A)
                 (A) (A) (A) (A) (A) (A) (A) (A) (A) (A) (A) (A)
                 (A) (A) (A) (A) (A) (A) (A) (A) (A) (A) (A) (A)
                 (A) (A) (A) (A) (A) (A) (A) (A) (A) (A) (A) (A)
                 (A) (A) (A) (A) (A) (A) (A) (A) (A) (A) (A)
 The electronic state is 1-A.
 Alpha  occ. eigenvalues --  -19.66983 -19.63169 -19.60865 -10.67992 -10.59822
 Alpha  occ. eigenvalues --  -10.59724 -10.58244 -10.56095 -10.55414 -10.55390
 Alpha  occ. eigenvalues --  -10.55293 -10.55049 -10.54969 -10.54958 -10.54449
 Alpha  occ. eigenvalues --  -10.54252 -10.54016 -10.54006 -10.53975 -10.52654
 Alpha  occ. eigenvalues --   -1.23449  -1.18368  -1.13774  -0.99110  -0.98255
 Alpha  occ. eigenvalues --   -0.91938  -0.89053  -0.86711  -0.86623  -0.85873
 Alpha  occ. eigenvalues --   -0.79714  -0.79496  -0.74928  -0.71516  -0.71228
 Alpha  occ. eigenvalues --   -0.69149  -0.66210  -0.64431  -0.62915  -0.59747
 Alpha  occ. eigenvalues --   -0.59399  -0.58162  -0.57244  -0.55290  -0.54519
 Alpha  occ. eigenvalues --   -0.54173  -0.53276  -0.52517  -0.52156  -0.51685
 Alpha  occ. eigenvalues --   -0.51016  -0.50401  -0.49820  -0.48627  -0.46247
 Alpha  occ. eigenvalues --   -0.45566  -0.44811  -0.44209  -0.43433  -0.42641
 Alpha  occ. eigenvalues --   -0.42194  -0.41798  -0.40671  -0.38977  -0.36727
 Alpha  occ. eigenvalues --   -0.35831  -0.32798  -0.32646  -0.32512  -0.31099
 Alpha  occ. eigenvalues --   -0.29995
 Alpha virt. eigenvalues --   -0.03416  -0.03125  -0.02437  -0.02104  -0.01571
 Alpha virt. eigenvalues --   -0.01128  -0.00931  -0.00359  -0.00184   0.00062
 Alpha virt. eigenvalues --    0.00327   0.00709   0.01319   0.01556   0.01588
 Alpha virt. eigenvalues --    0.02156   0.02421   0.02760   0.03147   0.03683
 Alpha virt. eigenvalues --    0.03878   0.04426   0.04771   0.05055   0.05739
 Alpha virt. eigenvalues --    0.05935   0.06114   0.06465   0.07213   0.07665
 Alpha virt. eigenvalues --    0.08009   0.08283   0.08346   0.08968   0.09468
 Alpha virt. eigenvalues --    0.09564   0.10355   0.10474   0.10850   0.11077
 Alpha virt. eigenvalues --    0.11192   0.11451   0.11715   0.11950   0.12004
 Alpha virt. eigenvalues --    0.12063   0.12516   0.12636   0.12894   0.13363
 Alpha virt. eigenvalues --    0.13366   0.13683   0.13775   0.13951   0.14447
 Alpha virt. eigenvalues --    0.14878   0.14968   0.15176   0.15453   0.15730
 Alpha virt. eigenvalues --    0.16041   0.16333   0.16615   0.16939   0.17380
 Alpha virt. eigenvalues --    0.17782   0.18149   0.18649   0.18965   0.19174
 Alpha virt. eigenvalues --    0.19731   0.20215   0.20511   0.20715   0.20809
 Alpha virt. eigenvalues --    0.21314   0.21397   0.21517   0.22127   0.22181
 Alpha virt. eigenvalues --    0.22384   0.22992   0.23385   0.23939   0.24172
 Alpha virt. eigenvalues --    0.24342   0.25020   0.25796   0.25992   0.26318
 Alpha virt. eigenvalues --    0.26525   0.27322   0.27573   0.28345   0.28665
 Alpha virt. eigenvalues --    0.28878   0.28959   0.29920   0.30054   0.30474
 Alpha virt. eigenvalues --    0.30841   0.31286   0.31478   0.31919   0.32295
 Alpha virt. eigenvalues --    0.32544   0.32983   0.33211   0.34200   0.34297
 Alpha virt. eigenvalues --    0.35112   0.35557   0.35960   0.36400   0.36536
 Alpha virt. eigenvalues --    0.36943   0.37301   0.37890   0.38628   0.38908
 Alpha virt. eigenvalues --    0.39440   0.39916   0.40553   0.41149   0.42007
 Alpha virt. eigenvalues --    0.42304   0.42868   0.44633   0.44914   0.45552
 Alpha virt. eigenvalues --    0.46126   0.47156   0.49661   0.49942   0.50856
 Alpha virt. eigenvalues --    0.51592   0.51690   0.52820   0.54005   0.54863
 Alpha virt. eigenvalues --    0.55664   0.56092   0.56210   0.56905   0.57281
 Alpha virt. eigenvalues --    0.57635   0.58103   0.59367   0.59991   0.60522
 Alpha virt. eigenvalues --    0.61062   0.61409   0.61734   0.63121   0.63523
 Alpha virt. eigenvalues --    0.63941   0.64222   0.65374   0.65845   0.66777
 Alpha virt. eigenvalues --    0.67212   0.67613   0.68161   0.68923   0.69081
 Alpha virt. eigenvalues --    0.70093   0.70556   0.70799   0.71838   0.72079
 Alpha virt. eigenvalues --    0.72570   0.73084   0.73629   0.74363   0.74759
 Alpha virt. eigenvalues --    0.75043   0.75445   0.75806   0.76790   0.77047
 Alpha virt. eigenvalues --    0.77348   0.78011   0.78229   0.79259   0.79432
 Alpha virt. eigenvalues --    0.79769   0.81093   0.81722   0.81869   0.83463
 Alpha virt. eigenvalues --    0.84475   0.85181   0.85483   0.85988   0.86833
 Alpha virt. eigenvalues --    0.87305   0.87614   0.88182   0.88898   0.90146
 Alpha virt. eigenvalues --    0.91105   0.91501   0.92341   0.93278   0.93958
 Alpha virt. eigenvalues --    0.94737   0.95296   0.96068   0.96258   0.97875
 Alpha virt. eigenvalues --    0.98623   0.99831   1.02064   1.03064   1.03715
 Alpha virt. eigenvalues --    1.04904   1.05509   1.05982   1.06876   1.07003
 Alpha virt. eigenvalues --    1.07878   1.09114   1.09393   1.10418   1.11233
 Alpha virt. eigenvalues --    1.11774   1.12457   1.14236   1.16056   1.17571
 Alpha virt. eigenvalues --    1.18248   1.18992   1.20408   1.21311   1.21888
 Alpha virt. eigenvalues --    1.24537   1.24744   1.27453   1.29007   1.30364
 Alpha virt. eigenvalues --    1.31679   1.33327   1.35492   1.37095   1.37882
 Alpha virt. eigenvalues --    1.39239   1.42136   1.42894   1.45144   1.46434
 Alpha virt. eigenvalues --    1.47378   1.48348   1.49219   1.49653   1.51570
 Alpha virt. eigenvalues --    1.52158   1.53859   1.54657   1.54954   1.56839
 Alpha virt. eigenvalues --    1.57056   1.57826   1.58458   1.59474   1.60059
 Alpha virt. eigenvalues --    1.60244   1.60934   1.61288   1.61603   1.62088
 Alpha virt. eigenvalues --    1.62948   1.64706   1.66352   1.66795   1.67406
 Alpha virt. eigenvalues --    1.67779   1.69005   1.69288   1.71206   1.71487
 Alpha virt. eigenvalues --    1.72073   1.72622   1.73954   1.74490   1.74862
 Alpha virt. eigenvalues --    1.76340   1.77922   1.78365   1.79293   1.80500
 Alpha virt. eigenvalues --    1.80752   1.82091   1.82592   1.83380   1.84158
 Alpha virt. eigenvalues --    1.85442   1.86635   1.87145   1.88397   1.89750
 Alpha virt. eigenvalues --    1.90598   1.92349   1.94019   1.96231   1.96952
 Alpha virt. eigenvalues --    1.97027   1.97330   1.98282   1.99042   1.99833
 Alpha virt. eigenvalues --    1.99971   2.00247   2.01754   2.02532   2.03743
 Alpha virt. eigenvalues --    2.05139   2.05798   2.07479   2.08680   2.09930
 Alpha virt. eigenvalues --    2.10637   2.11679   2.12106   2.12969   2.15207
 Alpha virt. eigenvalues --    2.18549   2.18690   2.19716   2.22077   2.23364
 Alpha virt. eigenvalues --    2.24601   2.25370   2.25768   2.28298   2.29417
 Alpha virt. eigenvalues --    2.34048   2.34554   2.35447   2.36160   2.37635
 Alpha virt. eigenvalues --    2.39793   2.42846   2.44083   2.44734   2.45882
 Alpha virt. eigenvalues --    2.47449   2.47677   2.48923   2.50911   2.56206
 Alpha virt. eigenvalues --    2.57730   2.58056   2.58560   2.59622   2.59888
 Alpha virt. eigenvalues --    2.61439   2.62783   2.63602   2.64382   2.66116
 Alpha virt. eigenvalues --    2.66228   2.68683   2.69219   2.69593   2.69952
 Alpha virt. eigenvalues --    2.71538   2.72709   2.72992   2.74120   2.75015
 Alpha virt. eigenvalues --    2.75399   2.75497   2.76287   2.79662   2.80744
 Alpha virt. eigenvalues --    2.80971   2.83538   2.86327   2.86999   2.88106
 Alpha virt. eigenvalues --    2.88465   2.88946   2.89528   2.90611   2.91081
 Alpha virt. eigenvalues --    2.91454   2.92730   2.93757   2.95435   2.95768
 Alpha virt. eigenvalues --    3.00172   3.00514   3.01274   3.03787   3.05279
 Alpha virt. eigenvalues --    3.07684   3.08101   3.11439   3.12538   3.13561
 Alpha virt. eigenvalues --    3.16439   3.17126   3.18512   3.22004   3.22623
 Alpha virt. eigenvalues --    3.25190   3.26489   3.29100   3.29907   3.33946
 Alpha virt. eigenvalues --    3.37168   3.39295   3.40986   3.42194   3.44398
 Alpha virt. eigenvalues --    3.44882   3.47400   3.53076   3.53281   3.54360
 Alpha virt. eigenvalues --    3.58199   3.59147   3.59911   3.63136   3.64522
 Alpha virt. eigenvalues --    3.67436   3.71205   3.75841   3.77609   3.81005
 Alpha virt. eigenvalues --    3.83072   3.84642   3.87411   3.88518   4.02198
 Alpha virt. eigenvalues --    4.03332   4.07216   4.07638   4.12685   4.16587
 Alpha virt. eigenvalues --    4.20161   4.20903   4.23994   4.25326   4.34745
 Alpha virt. eigenvalues --    4.38732   4.41937   4.43075   4.91313   4.93645
 Alpha virt. eigenvalues --    5.21238   5.26190   5.35148   5.38567   5.51489
 Alpha virt. eigenvalues --    5.55388   5.78309   5.89572   6.00218  23.63972
 Alpha virt. eigenvalues --   23.68515  23.83409  23.90441  23.97802  23.98217
 Alpha virt. eigenvalues --   24.01269  24.01931  24.02162  24.04431  24.12597
 Alpha virt. eigenvalues --   24.13815  24.14236  24.15946  24.23301  24.25224
 Alpha virt. eigenvalues --   24.30456  49.95269  50.00481  50.01938
          Condensed to atoms (all electrons):
               1          2          3          4          5          6
     1  O    8.635105   0.025542  -0.133749  -0.059586   0.001212   0.562246
     2  O    0.025542   7.978848   0.011901  -0.038311   0.005153  -0.752360
     3  O   -0.133749   0.011901   7.738810  -0.002076   0.004780  -0.009231
     4  C   -0.059586  -0.038311  -0.002076  17.613774  -4.756437  -0.219667
     5  C    0.001212   0.005153   0.004780  -4.756437  12.240943  -1.580912
     6  C    0.562246  -0.752360  -0.009231  -0.219667  -1.580912  39.700904
     7  C    0.159123   0.562033  -0.105092  -2.323590   0.286331  -3.254911
     8  C   -0.767413   0.180326   0.274980  -0.091903   0.043201 -22.061897
     9  C    0.083354  -0.005457  -0.057904  -2.380661   0.643227 -10.816137
    10  C    0.335190   0.160193  -0.031835  -1.346862  -0.738220   5.670585
    11  C   -0.001694  -0.000515   0.000486  -0.919956  -0.377012   0.317872
    12  C   -0.553151  -0.061136   0.267589   0.077938  -0.019141  -0.266775
    13  C   -0.290036  -0.029545  -0.015120  -0.208147  -0.045327  -1.874505
    14  C    0.010886  -0.044594  -0.010462   0.012778   0.001386   0.195890
    15  C   -0.164400   0.075707   0.051247   0.005382   0.003740  -0.455418
    16  C    0.006334   0.002380   0.023507  -0.004319  -0.000065  -0.085418
    17  C    0.037605   0.039641   0.009054   0.000958  -0.000872   0.025250
    18  C    0.007539  -0.000824   0.015574   0.002489   0.000271   0.013122
    19  C   -0.006249   0.099054  -0.001638  -0.137066  -0.027373   0.075306
    20  C   -0.000714  -0.000029  -0.000153   0.446330  -0.326192   0.078795
    21  H    0.000935   0.000253  -0.000199  -0.144241   0.629879   0.121066
    22  H   -0.000139   0.001065  -0.000188  -0.030335   0.504422   0.003512
    23  H    0.008116  -0.022940   0.001042  -0.001757  -0.052617   1.002733
    24  H    0.001689   0.000130   0.000511  -0.035728  -0.002538  -0.016237
    25  H   -0.004066   0.000464   0.000716   0.021784  -0.011170   0.149852
    26  H   -0.000304  -0.000050   0.000022  -0.057932   0.090145  -0.043555
    27  H   -0.008898  -0.000203  -0.008011   0.001186   0.000041   0.002206
    28  H   -0.019942   0.005653  -0.000372  -0.006177  -0.001230  -0.128857
    29  H    0.000432   0.000071   0.000537  -0.000074  -0.000018  -0.000140
    30  H    0.001116  -0.000064   0.000026  -0.000039  -0.000007   0.003363
    31  H    0.000140  -0.000034   0.000328   0.000023   0.000001   0.000284
    32  H   -0.016238  -0.037897  -0.001840   0.009740  -0.005774  -0.139936
    33  H    0.002403  -0.063662   0.000486   0.005014  -0.000940   0.066820
    34  H   -0.003887  -0.045680   0.000204  -0.003855   0.015581   0.053511
    35  H   -0.000021  -0.000057   0.000001   0.015683  -0.005876  -0.012906
    36  H   -0.000037   0.000097  -0.000002  -0.050703   0.050064   0.007860
               7          8          9         10         11         12
     1  O    0.159123  -0.767413   0.083354   0.335190  -0.001694  -0.553151
     2  O    0.562033   0.180326  -0.005457   0.160193  -0.000515  -0.061136
     3  O   -0.105092   0.274980  -0.057904  -0.031835   0.000486   0.267589
     4  C   -2.323590  -0.091903  -2.380661  -1.346862  -0.919956   0.077938
     5  C    0.286331   0.043201   0.643227  -0.738220  -0.377012  -0.019141
     6  C   -3.254911 -22.061897 -10.816137   5.670585   0.317872  -0.266775
     7  C   33.255121  -9.380496   1.544784 -11.134847   0.020316  -2.040675
     8  C   -9.380496  42.067212  -1.288240  -4.991348  -0.025893   0.904685
     9  C    1.544784  -1.288240  19.686313  -1.887464   0.101893  -0.050478
    10  C  -11.134847  -4.991348  -1.887464  19.482497   0.190915   1.198720
    11  C    0.020316  -0.025893   0.101893   0.190915   6.601274   0.002691
    12  C   -2.040675   0.904685  -0.050478   1.198720   0.002691  38.472802
    13  C    1.088437   1.333975   0.487962  -2.094269  -0.012087 -26.300755
    14  C    2.439579   0.104932  -0.278653  -1.968150   0.000295  -5.660238
    15  C   -2.822730   0.316719   0.404641   1.720675  -0.000896   1.215873
    16  C   -0.679101   0.156961   0.058507   0.365336  -0.000040   1.116577
    17  C   -0.391989  -0.123796  -0.030040   0.425647   0.000195  -4.143708
    18  C    0.203813  -0.048504  -0.001754  -0.134928   0.000004   0.198997
    19  C   -0.672526   0.261809   0.035130   0.186454  -0.000992   0.036021
    20  C    0.086942   0.100320  -0.164000  -0.033888  -0.165237  -0.000788
    21  H   -0.020429  -0.036192  -0.094049   0.000426  -0.098677  -0.002391
    22  H    0.026113   0.024897  -0.045118  -0.045114  -0.151888  -0.000919
    23  H   -0.289105  -0.443758  -0.054786   0.131658  -0.000192  -0.002816
    24  H    0.068888  -0.016510   0.343193  -0.057963   0.023093   0.005569
    25  H    0.012952  -0.175523  -0.145582   0.438811  -0.003141  -0.071199
    26  H   -0.008927   0.003933   0.009697   0.000965   0.374122   0.000058
    27  H    0.048248   0.019621  -0.011313  -0.054037   0.000025  -0.038573
    28  H   -0.476032   0.279859   0.032528   0.171952  -0.000065   0.056286
    29  H   -0.006145  -0.000643   0.000227   0.006407  -0.000000  -0.002992
    30  H    0.012352  -0.006947  -0.001270  -0.001305  -0.000001   0.030875
    31  H    0.004177  -0.001737  -0.000069  -0.002241   0.000000   0.065969
    32  H    0.006859   0.102252   0.027647  -0.092076  -0.000641   0.011323
    33  H    0.036611  -0.066555  -0.006209  -0.001871   0.000130  -0.012654
    34  H   -0.049026   0.016471  -0.005626  -0.008097   0.001552   0.003922
    35  H   -0.001157  -0.003168   0.020069   0.001597  -0.033783   0.000023
    36  H    0.011086   0.008637  -0.009389   0.001163  -0.014414   0.000095
              13         14         15         16         17         18
     1  O   -0.290036   0.010886  -0.164400   0.006334   0.037605   0.007539
     2  O   -0.029545  -0.044594   0.075707   0.002380   0.039641  -0.000824
     3  O   -0.015120  -0.010462   0.051247   0.023507   0.009054   0.015574
     4  C   -0.208147   0.012778   0.005382  -0.004319   0.000958   0.002489
     5  C   -0.045327   0.001386   0.003740  -0.000065  -0.000872   0.000271
     6  C   -1.874505   0.195890  -0.455418  -0.085418   0.025250   0.013122
     7  C    1.088437   2.439579  -2.822730  -0.679101  -0.391989   0.203813
     8  C    1.333975   0.104932   0.316719   0.156961  -0.123796  -0.048504
     9  C    0.487962  -0.278653   0.404641   0.058507  -0.030040  -0.001754
    10  C   -2.094269  -1.968150   1.720675   0.365336   0.425647  -0.134928
    11  C   -0.012087   0.000295  -0.000896  -0.000040   0.000195   0.000004
    12  C  -26.300755  -5.660238   1.215873   1.116577  -4.143708   0.198997
    13  C   39.572605   1.947462  -6.115388  -2.092667   2.487003  -0.307240
    14  C    1.947462  25.901046 -12.808492  -5.054739   1.755516  -0.665392
    15  C   -6.115388 -12.808492  26.591317   2.943462  -5.243324   0.220066
    16  C   -2.092667  -5.054739   2.943462  10.187759  -0.225045  -0.591325
    17  C    2.487003   1.755516  -5.243324  -0.225045  11.957077  -0.531064
    18  C   -0.307240  -0.665392   0.220066  -0.591325  -0.531064   7.845552
    19  C    0.082314  -0.027149   0.012805   0.009641  -0.051179  -0.007894
    20  C    0.005658  -0.000131   0.000561   0.000005   0.000013  -0.000000
    21  H    0.003801   0.000148  -0.000112   0.000054   0.000035  -0.000013
    22  H    0.000122  -0.000364   0.000576   0.000006  -0.000041   0.000004
    23  H   -0.035023   0.001428  -0.007505  -0.000501   0.001263  -0.000111
    24  H   -0.019263  -0.000352   0.000128   0.000144  -0.001428   0.000185
    25  H    0.083401  -0.000380  -0.017853  -0.004335   0.005755  -0.000549
    26  H   -0.000826   0.000073  -0.000043  -0.000017   0.000003   0.000006
    27  H   -0.044037   0.591996  -0.018461  -0.202336   0.010092   0.013365
    28  H   -0.356480  -0.473455   1.148185   0.200236  -0.073294  -0.043291
    29  H   -0.021553  -0.072628   0.017044   0.454190   0.026661  -0.095131
    30  H   -0.000281   0.148602  -0.226200  -0.030901   0.416244  -0.061590
    31  H   -0.050344  -0.038952   0.057397  -0.068031  -0.098261   0.457074
    32  H    0.094646   0.024922  -0.046851  -0.002431  -0.029680  -0.002743
    33  H    0.008860   0.006558  -0.021392  -0.002625   0.013070   0.001539
    34  H   -0.014229  -0.001919   0.008322   0.000497  -0.002820  -0.000146
    35  H   -0.000181   0.000003  -0.000014  -0.000001  -0.000002   0.000000
    36  H    0.000445   0.000003   0.000010   0.000001  -0.000000   0.000000
              19         20         21         22         23         24
     1  O   -0.006249  -0.000714   0.000935  -0.000139   0.008116   0.001689
     2  O    0.099054  -0.000029   0.000253   0.001065  -0.022940   0.000130
     3  O   -0.001638  -0.000153  -0.000199  -0.000188   0.001042   0.000511
     4  C   -0.137066   0.446330  -0.144241  -0.030335  -0.001757  -0.035728
     5  C   -0.027373  -0.326192   0.629879   0.504422  -0.052617  -0.002538
     6  C    0.075306   0.078795   0.121066   0.003512   1.002733  -0.016237
     7  C   -0.672526   0.086942  -0.020429   0.026113  -0.289105   0.068888
     8  C    0.261809   0.100320  -0.036192   0.024897  -0.443758  -0.016510
     9  C    0.035130  -0.164000  -0.094049  -0.045118  -0.054786   0.343193
    10  C    0.186454  -0.033888   0.000426  -0.045114   0.131658  -0.057963
    11  C   -0.000992  -0.165237  -0.098677  -0.151888  -0.000192   0.023093
    12  C    0.036021  -0.000788  -0.002391  -0.000919  -0.002816   0.005569
    13  C    0.082314   0.005658   0.003801   0.000122  -0.035023  -0.019263
    14  C   -0.027149  -0.000131   0.000148  -0.000364   0.001428  -0.000352
    15  C    0.012805   0.000561  -0.000112   0.000576  -0.007505   0.000128
    16  C    0.009641   0.000005   0.000054   0.000006  -0.000501   0.000144
    17  C   -0.051179   0.000013   0.000035  -0.000041   0.001263  -0.001428
    18  C   -0.007894  -0.000000  -0.000013   0.000004  -0.000111   0.000185
    19  C    5.480963  -0.002387   0.000309   0.000539  -0.003234   0.001203
    20  C   -0.002387   6.072532  -0.036238   0.031751   0.000516  -0.004593
    21  H    0.000309  -0.036238   0.456770  -0.013770   0.003823  -0.010770
    22  H    0.000539   0.031751  -0.013770   0.460746  -0.010256   0.001292
    23  H   -0.003234   0.000516   0.003823  -0.010256   0.453924  -0.001491
    24  H    0.001203  -0.004593  -0.010770   0.001292  -0.001491   0.416640
    25  H   -0.000468   0.000173   0.002472  -0.000414   0.004237  -0.007654
    26  H   -0.000689  -0.076343   0.005826  -0.001045  -0.000795  -0.004735
    27  H   -0.000548   0.000000  -0.000038  -0.000012  -0.000083   0.000015
    28  H    0.018140   0.000092  -0.000054   0.000065  -0.001963   0.000186
    29  H    0.000066  -0.000000   0.000001  -0.000000   0.000007  -0.000005
    30  H   -0.000507  -0.000001   0.000001  -0.000001   0.000061  -0.000009
    31  H   -0.000191  -0.000000  -0.000000   0.000000  -0.000001   0.000003
    32  H    0.393299  -0.000054  -0.000062  -0.000150   0.000845  -0.000156
    33  H    0.376334  -0.000160   0.000002  -0.000025   0.002209  -0.000056
    34  H    0.417203  -0.000832  -0.000009   0.000904  -0.005327  -0.000087
    35  H    0.000104   0.398275  -0.000772  -0.003581   0.001066   0.000697
    36  H   -0.000301   0.364470   0.002329  -0.000427  -0.001301  -0.000381
              25         26         27         28         29         30
     1  O   -0.004066  -0.000304  -0.008898  -0.019942   0.000432   0.001116
     2  O    0.000464  -0.000050  -0.000203   0.005653   0.000071  -0.000064
     3  O    0.000716   0.000022  -0.008011  -0.000372   0.000537   0.000026
     4  C    0.021784  -0.057932   0.001186  -0.006177  -0.000074  -0.000039
     5  C   -0.011170   0.090145   0.000041  -0.001230  -0.000018  -0.000007
     6  C    0.149852  -0.043555   0.002206  -0.128857  -0.000140   0.003363
     7  C    0.012952  -0.008927   0.048248  -0.476032  -0.006145   0.012352
     8  C   -0.175523   0.003933   0.019621   0.279859  -0.000643  -0.006947
     9  C   -0.145582   0.009697  -0.011313   0.032528   0.000227  -0.001270
    10  C    0.438811   0.000965  -0.054037   0.171952   0.006407  -0.001305
    11  C   -0.003141   0.374122   0.000025  -0.000065  -0.000000  -0.000001
    12  C   -0.071199   0.000058  -0.038573   0.056286  -0.002992   0.030875
    13  C    0.083401  -0.000826  -0.044037  -0.356480  -0.021553  -0.000281
    14  C   -0.000380   0.000073   0.591996  -0.473455  -0.072628   0.148602
    15  C   -0.017853  -0.000043  -0.018461   1.148185   0.017044  -0.226200
    16  C   -0.004335  -0.000017  -0.202336   0.200236   0.454190  -0.030901
    17  C    0.005755   0.000003   0.010092  -0.073294   0.026661   0.416244
    18  C   -0.000549   0.000006   0.013365  -0.043291  -0.095131  -0.061590
    19  C   -0.000468  -0.000689  -0.000548   0.018140   0.000066  -0.000507
    20  C    0.000173  -0.076343   0.000000   0.000092  -0.000000  -0.000001
    21  H    0.002472   0.005826  -0.000038  -0.000054   0.000001   0.000001
    22  H   -0.000414  -0.001045  -0.000012   0.000065  -0.000000  -0.000001
    23  H    0.004237  -0.000795  -0.000083  -0.001963   0.000007   0.000061
    24  H   -0.007654  -0.004735   0.000015   0.000186  -0.000005  -0.000009
    25  H    0.418940   0.000172  -0.000615  -0.001710  -0.000018   0.000040
    26  H    0.000172   0.428327   0.000007  -0.000031  -0.000000  -0.000000
    27  H   -0.000615   0.000007   0.402332  -0.001416  -0.008920   0.001383
    28  H   -0.001710  -0.000031  -0.001416   0.523084   0.002379  -0.018422
    29  H   -0.000018  -0.000000  -0.008920   0.002379   0.410209   0.001195
    30  H    0.000040  -0.000000   0.001383  -0.018422   0.001195   0.413842
    31  H    0.000006   0.000000   0.001431   0.001820  -0.009795  -0.008943
    32  H   -0.000820   0.000052   0.000198  -0.001716  -0.000014   0.000727
    33  H    0.000309   0.000025   0.000048  -0.004373  -0.000022   0.000002
    34  H   -0.000473   0.000346   0.000008  -0.001350  -0.000000   0.000068
    35  H   -0.000021  -0.006182   0.000000  -0.000006  -0.000000   0.000000
    36  H   -0.000039  -0.004637   0.000000   0.000015  -0.000000  -0.000000
              31         32         33         34         35         36
     1  O    0.000140  -0.016238   0.002403  -0.003887  -0.000021  -0.000037
     2  O   -0.000034  -0.037897  -0.063662  -0.045680  -0.000057   0.000097
     3  O    0.000328  -0.001840   0.000486   0.000204   0.000001  -0.000002
     4  C    0.000023   0.009740   0.005014  -0.003855   0.015683  -0.050703
     5  C    0.000001  -0.005774  -0.000940   0.015581  -0.005876   0.050064
     6  C    0.000284  -0.139936   0.066820   0.053511  -0.012906   0.007860
     7  C    0.004177   0.006859   0.036611  -0.049026  -0.001157   0.011086
     8  C   -0.001737   0.102252  -0.066555   0.016471  -0.003168   0.008637
     9  C   -0.000069   0.027647  -0.006209  -0.005626   0.020069  -0.009389
    10  C   -0.002241  -0.092076  -0.001871  -0.008097   0.001597   0.001163
    11  C    0.000000  -0.000641   0.000130   0.001552  -0.033783  -0.014414
    12  C    0.065969   0.011323  -0.012654   0.003922   0.000023   0.000095
    13  C   -0.050344   0.094646   0.008860  -0.014229  -0.000181   0.000445
    14  C   -0.038952   0.024922   0.006558  -0.001919   0.000003   0.000003
    15  C    0.057397  -0.046851  -0.021392   0.008322  -0.000014   0.000010
    16  C   -0.068031  -0.002431  -0.002625   0.000497  -0.000001   0.000001
    17  C   -0.098261  -0.029680   0.013070  -0.002820  -0.000002  -0.000000
    18  C    0.457074  -0.002743   0.001539  -0.000146   0.000000   0.000000
    19  C   -0.000191   0.393299   0.376334   0.417203   0.000104  -0.000301
    20  C   -0.000000  -0.000054  -0.000160  -0.000832   0.398275   0.364470
    21  H   -0.000000  -0.000062   0.000002  -0.000009  -0.000772   0.002329
    22  H    0.000000  -0.000150  -0.000025   0.000904  -0.003581  -0.000427
    23  H   -0.000001   0.000845   0.002209  -0.005327   0.001066  -0.001301
    24  H    0.000003  -0.000156  -0.000056  -0.000087   0.000697  -0.000381
    25  H    0.000006  -0.000820   0.000309  -0.000473  -0.000021  -0.000039
    26  H    0.000000   0.000052   0.000025   0.000346  -0.006182  -0.004637
    27  H    0.001431   0.000198   0.000048   0.000008   0.000000   0.000000
    28  H    0.001820  -0.001716  -0.004373  -0.001350  -0.000006   0.000015
    29  H   -0.009795  -0.000014  -0.000022  -0.000000  -0.000000  -0.000000
    30  H   -0.008943   0.000727   0.000002   0.000068   0.000000  -0.000000
    31  H    0.416436  -0.000072   0.000024  -0.000008   0.000000   0.000000
    32  H   -0.000072   0.577623  -0.029592  -0.067667   0.000041  -0.000068
    33  H    0.000024  -0.029592   0.480772  -0.022195   0.000021  -0.000046
    34  H   -0.000008  -0.067667  -0.022195   0.533389  -0.000162   0.000194
    35  H    0.000000   0.000041   0.000021  -0.000162   0.458998  -0.007979
    36  H    0.000000  -0.000068  -0.000046   0.000194  -0.007979   0.469694
 Mulliken charges:
               1
     1  O    0.151558
     2  O   -0.045151
     3  O   -0.023925
     4  C    0.606343
     5  C   -0.568656
     6  C   -0.332317
     7  C   -0.216984
     8  C   -0.670266
     9  C   -0.144976
    10  C    0.135325
    11  C    0.172261
    12  C    1.562377
    13  C   -1.269390
    14  C   -0.037452
    15  C   -0.844777
    16  C   -0.481699
    17  C   -0.264535
    18  C   -0.487101
    19  C   -0.546304
    20  C   -0.774693
    21  H    0.229889
    22  H    0.247776
    23  H    0.322633
    24  H    0.316390
    25  H    0.305945
    26  H    0.292332
    27  H    0.305298
    28  H    0.169753
    29  H    0.298674
    30  H    0.326591
    31  H    0.273568
    32  H    0.226302
    33  H    0.231139
    34  H    0.181222
    35  H    0.179290
    36  H    0.173561
 Sum of Mulliken charges =  -0.00000
 Mulliken charges with hydrogens summed into heavy atoms:
               1
     1  O    0.151558
     2  O   -0.045151
     3  O   -0.023925
     4  C    0.606343
     5  C   -0.090991
     6  C   -0.009684
     7  C   -0.216984
     8  C   -0.670266
     9  C    0.171414
    10  C    0.441270
    11  C    0.464593
    12  C    1.562377
    13  C   -1.269390
    14  C    0.267846
    15  C   -0.675023
    16  C   -0.183025
    17  C    0.062056
    18  C   -0.213533
    19  C    0.092358
    20  C   -0.421842
 Electronic spatial extent (au):  <R**2>=           7801.5600
 Charge=             -0.0000 electrons
 Dipole moment (field-independent basis, Debye):
    X=              0.4800    Y=              1.3556    Z=             -2.4839  Tot=              2.8702
 Quadrupole moment (field-independent basis, Debye-Ang):
   XX=            -96.4699   YY=           -107.8117   ZZ=           -124.3213
   XY=              0.3041   XZ=             -3.5556   YZ=              1.2581
 Traceless Quadrupole moment (field-independent basis, Debye-Ang):
   XX=             13.0644   YY=              1.7226   ZZ=            -14.7870
   XY=              0.3041   XZ=             -3.5556   YZ=              1.2581
 Octapole moment (field-independent basis, Debye-Ang**2):
  XXX=            110.7584  YYY=             22.0322  ZZZ=             -0.0694  XYY=              5.3229
  XXY=              3.6258  XXZ=             -2.7274  XZZ=            -17.0059  YZZ=              4.1761
  YYZ=             -8.6273  XYZ=            -19.1669
 Hexadecapole moment (field-independent basis, Debye-Ang**3):
 XXXX=          -8655.3694 YYYY=          -1103.1817 ZZZZ=           -474.2305 XXXY=           -170.2650
 XXXZ=            -58.9786 YYYX=             -1.7765 YYYZ=             12.1416 ZZZX=              5.7519
 ZZZY=              6.1843 XXYY=          -1671.6667 XXZZ=          -1633.3022 YYZZ=           -275.7226
 XXYZ=            -61.7010 YYXZ=              1.4831 ZZXY=             11.2948
 N-N= 1.432167339768D+03 E-N=-4.920556840173D+03  KE= 8.789293010530D+02
 R6APFD:  NTU= -4 IXU= 1 FactS= 1.050
 Calling FoFJK, ICntrl=      2127 FMM=F ISym2X=0 I1Cent= 0 IOpClX= 0 NMat=1 NMatS=1 NMatT=0.
 ***** Axes restored to original set *****
 -------------------------------------------------------------------
 Center     Atomic                   Forces (Hartrees/Bohr)
 Number     Number              X              Y              Z
 -------------------------------------------------------------------
      1        8           0.007170615    0.009421274   -0.023099164
      2        8           0.010652206   -0.003360479   -0.007613284
      3        8           0.014269146   -0.033087100    0.057635965
      4        6           0.006472975    0.001006863    0.000325899
      5        6          -0.013199918    0.003806024   -0.004859624
      6        6           0.002426889    0.005669902    0.006184319
      7        6          -0.018652147   -0.015613599   -0.003436267
      8        6           0.023606051    0.005239487    0.008674948
      9        6           0.008019522   -0.004713193    0.001501015
     10        6          -0.015175284    0.005224639   -0.000438991
     11        6          -0.009142171   -0.010494243   -0.006662966
     12        6           0.014816316   -0.005780570    0.007150818
     13        6          -0.041065498    0.026245118   -0.042208862
     14        6           0.007016776    0.000824657   -0.001820436
     15        6           0.008707019   -0.005019624    0.004885108
     16        6          -0.004438623   -0.002651063    0.001228480
     17        6          -0.001088818    0.003870646   -0.003294793
     18        6          -0.003098199    0.000237143   -0.000304383
     19        6          -0.000760930    0.006998302   -0.000039202
     20        6           0.009768490    0.009671436    0.004412491
     21        1           0.001428204    0.002432797    0.001178629
     22        1          -0.002100957   -0.003278586    0.001096778
     23        1           0.000496774   -0.001647645   -0.001002617
     24        1          -0.002353193    0.001062765   -0.000696300
     25        1           0.004362039   -0.001213551   -0.000493396
     26        1           0.003405670    0.002141420    0.003049630
     27        1          -0.004589937   -0.000713349   -0.000819296
     28        1          -0.004021411    0.002983316   -0.001037945
     29        1           0.000549828    0.001326491   -0.000439340
     30        1          -0.000011511   -0.001427581    0.000498757
     31        1           0.001889493   -0.000296490    0.000475828
     32        1           0.000320679    0.001545202    0.003529561
     33        1           0.000364000    0.002996182   -0.002996917
     34        1          -0.002998799    0.000199838    0.002118493
     35        1          -0.002209411   -0.002100288    0.000800974
     36        1          -0.000835883   -0.001506142   -0.003483907
 -------------------------------------------------------------------
 Cartesian Forces:  Max     0.057635965 RMS     0.010899337

 GradGradGradGradGradGradGradGradGradGradGradGradGradGradGradGradGradGrad
 Berny optimization.
 FormGI is forming the generalized inverse of G from B-inverse, IUseBI=4.
 Internal  Forces:  Max     0.067513435 RMS     0.006636345
 Search for a local minimum.
 Step number   1 out of a maximum of  183
 All quantities printed in internal units (Hartrees-Bohrs-Radians)
 Mixed Optimization -- RFO/linear search
 Second derivative matrix not updated -- first step.
 ITU=  0
     Eigenvalues ---    0.00676   0.00880   0.01346   0.01372   0.01509
     Eigenvalues ---    0.01582   0.01651   0.01726   0.01782   0.01915
     Eigenvalues ---    0.02156   0.02156   0.02156   0.02156   0.02157
     Eigenvalues ---    0.02157   0.02157   0.02157   0.02157   0.02157
     Eigenvalues ---    0.02158   0.02189   0.02203   0.02242   0.02262
     Eigenvalues ---    0.02278   0.02363   0.02912   0.02912   0.04851
     Eigenvalues ---    0.06468   0.10137   0.10173   0.10462   0.13394
     Eigenvalues ---    0.15998   0.15999   0.16000   0.16000   0.16000
     Eigenvalues ---    0.16000   0.16000   0.16000   0.16000   0.16000
     Eigenvalues ---    0.16000   0.16000   0.16000   0.16000   0.21918
     Eigenvalues ---    0.22000   0.22000   0.22000   0.22381   0.23486
     Eigenvalues ---    0.23492   0.24613   0.25000   0.25000   0.25000
     Eigenvalues ---    0.25000   0.25000   0.25000   0.25000   0.25000
     Eigenvalues ---    0.31672   0.33299   0.33885   0.33917   0.34278
     Eigenvalues ---    0.34289   0.34425   0.35114   0.35119   0.35152
     Eigenvalues ---    0.35168   0.35182   0.35262   0.35267   0.35274
     Eigenvalues ---    0.35338   0.35462   0.35470   0.37705   0.41545
     Eigenvalues ---    0.42136   0.42325   0.42556   0.43322   0.46046
     Eigenvalues ---    0.46470   0.46481   0.46484   0.46487   0.46489
     Eigenvalues ---    0.46492   0.46764   0.48406   0.49235   0.52468
     Eigenvalues ---    0.57709   0.87321
 RFO step:  Lambda=-1.64506732D-02 EMin= 6.75682850D-03
 Linear search not attempted -- first point.
 Iteration  1 RMS(Cart)=  0.14448691 RMS(Int)=  0.00256269
 Iteration  2 RMS(Cart)=  0.00726967 RMS(Int)=  0.00012201
 Iteration  3 RMS(Cart)=  0.00001066 RMS(Int)=  0.00012185
 Iteration  4 RMS(Cart)=  0.00000000 RMS(Int)=  0.00012185
 Variable       Old X    -DE/DX   Delta X   Delta X   Delta X     New X
                                 (Linear)    (Quad)   (Total)
    R1        2.64079  -0.00338   0.00000  -0.00708  -0.00708   2.63372
    R2        2.63279  -0.02720   0.00000  -0.05619  -0.05619   2.57661
    R3        2.57453  -0.00169   0.00000  -0.00312  -0.00312   2.57142
    R4        2.69506  -0.00811   0.00000  -0.01878  -0.01878   2.67628
    R5        2.34193  -0.06751   0.00000  -0.07589  -0.07589   2.26604
    R6        2.81830   0.01339   0.00000   0.03831   0.03831   2.85661
    R7        2.63577  -0.00048   0.00000  -0.00172  -0.00173   2.63405
    R8        2.63587   0.00250   0.00000   0.00441   0.00440   2.64028
    R9        2.84748  -0.00099   0.00000  -0.00297  -0.00297   2.84451
   R10        2.07470   0.00209   0.00000   0.00586   0.00586   2.08057
   R11        2.07525   0.00066   0.00000   0.00186   0.00186   2.07711
   R12        2.63596  -0.00153   0.00000  -0.00310  -0.00310   2.63286
   R13        2.05482   0.00136   0.00000   0.00371   0.00371   2.05853
   R14        2.60246   0.01009   0.00000   0.02041   0.02043   2.62289
   R15        2.60395   0.00548   0.00000   0.01140   0.01141   2.61535
   R16        2.63578  -0.00057   0.00000  -0.00126  -0.00126   2.63452
   R17        2.05381   0.00162   0.00000   0.00441   0.00441   2.05822
   R18        2.05129   0.00125   0.00000   0.00338   0.00338   2.05467
   R19        2.52801  -0.00919   0.00000  -0.01548  -0.01548   2.51253
   R20        2.05489   0.00391   0.00000   0.01064   0.01064   2.06553
   R21        2.74796   0.01770   0.00000   0.04497   0.04497   2.79293
   R22        2.63599  -0.00152   0.00000  -0.00316  -0.00315   2.63284
   R23        2.63587   0.00105   0.00000   0.00231   0.00232   2.63819
   R24        2.63592  -0.00368   0.00000  -0.00777  -0.00777   2.62815
   R25        2.05428   0.00091   0.00000   0.00246   0.00246   2.05674
   R26        2.63582  -0.00286   0.00000  -0.00582  -0.00581   2.63001
   R27        2.05403   0.00044   0.00000   0.00121   0.00121   2.05524
   R28        2.63582  -0.00014   0.00000  -0.00041  -0.00041   2.63541
   R29        2.05244   0.00138   0.00000   0.00373   0.00373   2.05616
   R30        2.63610  -0.00072   0.00000  -0.00150  -0.00150   2.63459
   R31        2.05252   0.00143   0.00000   0.00387   0.00387   2.05639
   R32        2.05233   0.00197   0.00000   0.00533   0.00533   2.05766
   R33        2.06863   0.00344   0.00000   0.00957   0.00957   2.07820
   R34        2.06618  -0.00053   0.00000  -0.00148  -0.00148   2.06470
   R35        2.06845   0.00316   0.00000   0.00878   0.00878   2.07723
   R36        2.04931   0.00259   0.00000   0.00697   0.00697   2.05628
   R37        2.04918   0.00387   0.00000   0.01044   0.01044   2.05962
    A1        1.99265   0.00172   0.00000   0.00646   0.00646   1.99911
    A2        2.04242  -0.01902   0.00000  -0.07137  -0.07137   1.97105
    A3        2.09447  -0.00032   0.00000   0.00041   0.00034   2.09481
    A4        2.09429   0.00335   0.00000   0.01419   0.01413   2.10842
    A5        2.09443  -0.00303   0.00000  -0.01462  -0.01469   2.07974
    A6        1.97316  -0.00424   0.00000  -0.02250  -0.02263   1.95053
    A7        1.91616  -0.00059   0.00000  -0.00486  -0.00484   1.91132
    A8        1.91204   0.00341   0.00000   0.01587   0.01549   1.92753
    A9        1.89188   0.00288   0.00000   0.01643   0.01646   1.90833
[...]
 1,-0.00004653,0.00000085,-0.00000041,-0.00000055,0.00000037,-0.0000003
 3,-0.00000017,0.00000117,0.00000024,0.00000036,-0.00000013,0.00000073,
 -0.00000059,0.00000096,-0.00000014,-0.00000053,-0.00000077,0.00000080,
 -0.00000036,-0.00000067,0.00000010,0.00000011,-0.00116179,0.00044512,0
 .00005230,0.00101052,-0.00054721,0.00017661,-0.00023617,-0.00146355,0.
 00004635,-0.00095421,-0.00115517,0.00004686,0.01792790,-0.01999985,0.0
 5653739,-0.00052920,-0.00095607,0.00070646,-0.00249825,0.00316510,-0.0
 0720859,-0.00014038,0.00006837,0.00036411,-0.00002752,-0.00018867,-0.0
 0018987,-0.00000824,0.00003624,0.00000234,-0.00066011,0.00017863,0.000
 39533,0.00089323,-0.00252463,-0.00221371,0.00010685,0.00054317,0.00005
 516,0.00013503,0.00008005,0.00014633,-0.00025512,0.00016585,0.00009574
 ,-0.00000833,-0.00001123,-0.00002473,0.00008631,-0.00004980,0.00018077
 ,0.00068070,-0.00051094,-0.00064783,-0.00000574,0.00007238,-0.00001384
 ,-0.00076330,-0.00023034,0.00002664,-0.00001089,0.00000103,-0.00004611
 ,0.00002564,0.00012743,-0.00011426,0.00000350,-0.00002007,0.00004600,-
 0.10351418,-0.05101418,-0.08831326,-0.00000766,0.00001947,0.00002254,-
 0.00001362,0.00000755,-0.00000252,0.00000886,-0.00000071,0.00000551,0.
 00011529,-0.00001431,0.00002714,0.00000796,0.00000867,0.00001053,0.000
 00835,0.00005148,-0.00006285,-0.00000455,-0.00000739,-0.00000112,0.000
 01941,-0.00001230,-0.00002518,-0.00059861,-0.00068351,-0.00056669,0.00
 000890,0.00000391,-0.00000913,0.00000545,-0.00001200,0.00000100,0.0000
 2103,-0.00000370,-0.00001249,0.10534627,-0.00071098,-0.00281869,0.0000
 1905,0.01500777,0.00439450,0.02633639,0.00012878,-0.00000167,-0.000388
 10,0.00003120,0.00026613,0.00021849,0.00001905,-0.00005453,-0.00002367
 ,0.00053562,-0.00057209,-0.00069787,-0.00092047,0.00418420,0.00245728,
 0.00116918,-0.00031038,0.00000569,-0.00018410,-0.00014429,-0.00007721,
 0.00011299,-0.00000451,-0.00000702,-0.00002353,0.00000967,-0.00001170,
 0.00020444,-0.00003825,-0.00013212,-0.00110527,-0.00049329,0.00154530,
 -0.00005416,0.00003548,0.00008852,-0.00032925,-0.00031961,0.00006866,0
 .00006597,-0.00005282,0.00006918,0.00003001,-0.00003303,-0.00009400,0.
 00011354,-0.00001948,-0.00006967,-0.05370435,-0.10125611,-0.09560464,-
 0.00001056,0.00000188,0.00001562,0.00001683,0.00000257,0.00000184,-0.0
 0001408,-0.00000297,-0.00000503,-0.00009564,-0.00003689,0.00001069,-0.
 00002321,0.00000096,-0.00000627,-0.00001998,0.00000578,-0.00000083,0.0
 0000235,-0.00000388,-0.00000227,-0.00000246,0.00000314,-0.00000406,-0.
 00062897,-0.00005449,-0.00028693,0.00000791,-0.00000929,0.00000224,0.0
 0005340,0.00000125,0.00003071,0.00000486,0.00000270,-0.00000936,0.0553
 1271,0.10875642,0.00087069,-0.00208214,0.00056430,-0.01104204,0.001833
 96,-0.01550286,0.00049722,-0.00013359,0.00064291,0.00003173,-0.0003683
 5,-0.00025244,-0.00000252,0.00005080,0.00004435,-0.00078140,0.00064121
 ,0.00045931,0.00349332,-0.00265028,-0.00085614,-0.00225832,0.00052201,
 0.00003575,0.00015779,0.00021189,0.00015777,0.00010379,0.00040797,0.00
 006418,-0.00000159,0.00003551,-0.00002110,0.00010621,-0.00017659,-0.00
 017343,-0.00048936,0.00109563,-0.00130852,0.00010088,0.00003369,-0.000
 11406,-0.00028882,-0.00015603,-0.00011943,-0.00010756,0.00006278,0.000
 02339,0.00015103,-0.00020331,-0.00003348,0.00003565,0.00001767,0.00010
 931,-0.08799568,-0.08659282,-0.19981062,-0.00001922,-0.00000249,0.0000
 0668,-0.00003237,0.00000445,0.00000747,0.00000337,-0.00000834,0.000000
 21,0.00012407,0.00000508,-0.00002341,0.00001775,0.00000701,0.00002392,
 -0.00007258,0.00007732,0.00006634,0.00000427,-0.00000257,0.00000449,-0
 .00002135,-0.00001378,0.00001595,-0.00039790,-0.00015426,0.00017947,-0
 .00001710,-0.00000703,0.00000363,-0.00000077,0.00000665,-0.00000199,-0
 .00001920,0.00000854,0.00000937,0.10007898,0.09100172,0.21627197,0.000
 32390,-0.00038098,0.00013199,-0.00741621,0.00985381,0.00302489,0.00002
 698,0.00003787,0.00001515,0.00006217,-0.00020997,0.00000448,0.00001073
 ,0.00001669,0.00001620,0.00008123,0.00034074,0.00016074,0.00060467,0.0
 0044450,-0.00234541,-0.00080085,0.00002087,-0.00030626,0.00001859,0.00
 014212,0.00008811,-0.00012329,0.00004981,0.00010052,-0.00000016,0.0000
 4134,0.00000154,0.00009062,0.00012261,0.00007765,0.00010017,0.00001144
 ,-0.00006660,-0.00001009,0.00001772,0.00007975,0.00019423,0.00017767,-
 0.00005998,0.00001909,0.00000682,0.00001797,-0.00001453,0.00011163,0.0
 0002486,-0.00002656,0.00000648,-0.00000841,-0.16111797,0.09769645,0.08
 967534,-0.00001209,-0.00001636,-0.00000484,-0.00001631,0.00000198,0.00
 000180,-0.00001244,-0.00000100,-0.00000669,0.00001066,-0.00001554,0.00
 003824,0.00000377,0.00000688,0.00000348,-0.00001569,0.00002248,0.00002
 202,0.00001127,-0.00000319,-0.00000833,0.00000026,0.00001079,0.0000064
 1,0.00007951,0.00001695,-0.00001366,0.00000574,-0.00000268,-0.00000180
 ,0.00000993,-0.00000306,0.00000200,0.00000002,-0.00000563,-0.00000035,
 0.01128123,-0.00942400,-0.00748566,0.17013707,-0.00083356,-0.00022324,
 0.00052012,0.02012849,-0.02280006,-0.00869274,-0.00028587,0.00005825,0
 .00025240,0.00018516,0.00007601,-0.00034857,-0.00001031,-0.00004105,-0
 .00006657,0.00015934,-0.00075620,-0.00023692,0.00065245,-0.00083265,0.
 00420413,0.00076447,-0.00026416,-0.00018082,0.00028845,-0.00006067,0.0
 0005477,-0.00027509,0.00018831,-0.00010036,-0.00000872,-0.00007144,0.0
 0003138,0.00005840,0.00009241,0.00015555,0.00114025,-0.00024477,-0.000
 80142,-0.00008481,0.00005510,0.00010708,0.00010600,0.00011913,-0.00016
 022,-0.00001551,0.00002193,0.00003458,-0.00011202,0.00010496,0.0000226
 6,-0.00004573,0.00000379,-0.00002866,0.09394740,-0.13158875,-0.0772790
 7,0.00001738,0.00003512,-0.00000460,0.00003057,-0.00000437,-0.00000012
 ,0.00001120,0.00001261,0.00001081,-0.00001240,-0.00008140,0.00016377,0
 .00000116,-0.00001990,0.00001721,0.00002079,-0.00005372,-0.00002924,0.
 00000189,0.00000240,-0.00001277,0.00000870,-0.00003727,-0.00000436,0.0
 0005627,-0.00005715,0.00000308,-0.00000557,-0.00000748,-0.00000655,-0.
 00000368,-0.00001336,-0.00000481,0.00000658,-0.00000693,-0.00000137,0.
 00836397,-0.00609780,-0.00690822,-0.11320083,0.15044737,0.00000554,-0.
 00034533,0.00028103,-0.01899315,0.02077395,0.01048471,-0.00020167,0.00
 005988,0.00006841,-0.00020535,-0.00029926,0.00006118,-0.00001804,0.000
 05681,0.00003986,-0.00053439,0.00058099,0.00046757,-0.00148519,0.00254
 117,-0.00209687,-0.00069076,0.00037330,0.00011322,0.00002999,0.0000812
 6,0.00002963,0.00002662,0.00003754,0.00018673,0.00001851,0.00000970,-0
 .00001705,-0.00004234,0.00003950,0.00008379,0.00063011,-0.00030395,-0.
 00034660,-0.00002062,-0.00000827,0.00001572,0.00015312,0.00006732,-0.0
 0013949,-0.00001623,-0.00002641,-0.00002642,-0.00009005,0.00009667,0.0
 0003733,-0.00004743,0.00004665,0.00002730,0.09765906,-0.08771486,-0.12
 532184,0.00000459,-0.00001402,0.00000262,-0.00002166,0.00000427,-0.000
 00928,0.00000619,0.00000010,0.00000214,-0.00000881,0.00004728,-0.00012
 679,0.00000745,0.00001131,-0.00001125,-0.00001747,0.00003956,0.0000083
 7,-0.00001193,-0.00000048,0.00000757,0.00001847,0.00001202,-0.00000594
 ,0.00010201,-0.00004812,-0.00000734,0.00000427,0.00000205,-0.00000463,
 -0.00001997,-0.00002562,-0.00002977,-0.00000984,-0.00000992,-0.0000005
 9,0.01642086,-0.01161929,-0.00993033,-0.09585716,0.08073580,0.12957993
 ,0.00026339,-0.00036223,0.00006575,0.01355663,0.01192619,-0.00641742,0
 .00024185,-0.00004232,0.00021895,-0.00001132,0.00014245,0.00033008,0.0
 0001731,-0.00001074,-0.00004280,0.00057107,-0.00139520,-0.00027420,0.0
 0291450,0.00043367,-0.00098367,-0.00073734,0.00000393,0.00054647,-0.00
 011955,-0.00015423,-0.00017023,0.00031750,-0.00006777,-0.00001911,0.00
 000655,-0.00006112,0.00003444,-0.00008483,-0.00007958,-0.00010425,-0.0
 0016614,0.00059183,-0.00038348,0.00008568,-0.00000881,-0.00011099,-0.0
 0012329,-0.00014707,-0.00000538,-0.00004210,0.00004511,-0.00001816,0.0
 0010842,-0.00011328,0.00003758,-0.00000148,-0.00000152,0.00005826,-0.2
 1752110,-0.10930332,0.06094751,0.00001187,0.00002312,-0.00000312,0.000
 02522,0.00000158,-0.00000375,0.00000773,0.00000354,-0.00000353,-0.0000
 6659,-0.00004688,-0.00017112,0.00000429,-0.00000502,-0.00001925,-0.000
 01433,0.00002441,-0.00001127,0.00000850,-0.00000045,-0.00000938,-0.000
 00074,0.00001185,0.00000536,0.00001894,0.00009160,0.00015229,-0.000009
 40,0.00000134,0.00000481,-0.00000998,0.00000588,-0.00000864,-0.0000179
 4,0.00000555,0.00000864,-0.00972384,-0.00557916,0.00524867,-0.01350195
 ,-0.01105650,0.00321142,0.22398403,0.00028557,-0.00037980,0.00012236,-
 0.00805396,-0.01933466,0.01414563,-0.00031858,-0.00027197,-0.00012742,
 0.00016906,-0.00024358,-0.00024211,-0.00000828,-0.00001809,-0.00001488
 ,0.00056311,0.00027971,-0.00017368,-0.00510019,0.00319836,0.00246819,-
 0.00013844,-0.00065816,-0.00104560,0.00032339,0.00004138,0.00011029,-0
 .00039124,0.00013364,-0.00007712,-0.00002866,-0.00003867,0.00004356,-0
 .00000469,0.00006757,-0.00001480,0.00075881,0.00023029,0.00023649,-0.0
 0001476,0.00001152,0.00000420,-0.00001346,-0.00003962,-0.00009677,-0.0
 0002613,0.00000836,0.00000281,-0.00003322,-0.00001089,0.00002568,-0.00
 003050,0.00003166,0.00000592,-0.10529788,-0.11774698,0.03339347,-0.000
 00179,0.00003852,-0.00000060,0.00000067,0.00000264,-0.00000125,0.00000
 039,0.00001036,0.00000020,0.00002228,-0.00007106,0.00023712,0.00001508
 ,-0.00000329,0.00002121,0.00002355,-0.00005732,-0.00001297,0.00002277,
 -0.00000060,-0.00002992,0.00001864,-0.00000885,-0.00000614,0.00001960,
 0.00001755,0.00009811,-0.00000971,-0.00000299,0.00000150,-0.00001144,-
 0.00000123,-0.00001033,-0.00000798,0.00000062,0.00000208,-0.01196450,-
 0.00533791,0.00344777,0.01410718,0.01203502,-0.00520389,0.11511628,0.1
 2811381,0.00008753,-0.00109118,0.00034408,0.01015539,0.01996764,-0.009
 84774,0.00039136,0.00003482,0.00050161,-0.00006718,0.00008589,-0.00003
 683,0.00000496,0.00002704,0.00002501,-0.00021867,0.00027649,0.00020629
 ,0.00242149,-0.00318170,-0.00156418,-0.00099072,0.00077757,0.00040142,
 -0.00025464,0.00002820,-0.00003183,0.00037360,-0.00015011,-0.00001753,
 0.00003274,0.00005156,0.00002102,0.00000446,-0.00011737,-0.00004462,-0
 .00040639,0.00037713,-0.00100381,0.00005941,-0.00000386,-0.00000615,-0
 .00007676,-0.00010481,-0.00020675,-0.00007316,0.00003150,0.00002571,0.
 00007053,-0.00009744,0.00002551,0.00000133,0.00000423,0.00006412,0.057
 22508,0.03452712,-0.06912576,0.00000246,-0.00004435,-0.00004056,-0.000
 01513,-0.00001158,0.00000966,-0.00000469,-0.00000477,-0.00000793,-0.00
 010516,0.00005573,-0.00012066,-0.00000234,-0.00000544,-0.00000749,-0.0
 0003563,0.00005022,0.00003180,0.00000593,0.00000234,0.00000432,-0.0000
 2637,-0.00000890,0.00001927,0.00004506,0.00010318,0.00018823,-0.000000
 49,-0.00000264,0.00000004,0.00000619,-0.00000274,0.00000087,-0.0000100
 2,0.00000230,0.00001126,-0.01913502,-0.01282640,0.00945517,0.01267097,
 0.00855436,-0.00342616,-0.06210759,-0.04730320,0.07414681,0.00000884,0
 .00001190,0.00000351,-0.00003386,0.00011667,0.00001708,0.00000528,0.00
 001704,-0.00000887,0.00092744,0.00181651,0.00019910,0.00962752,-0.0056
 9663,-0.00477546,-0.00006142,0.00014569,0.00005422,-0.00007316,-0.0000
 8982,-0.00006210,-0.00000928,0.00010288,0.00005215,0.00018754,-0.00013
 235,-0.00018382,0.00009729,0.00003618,0.00011971,-0.00103619,-0.012656
 48,0.00424910,0.00000223,-0.00000015,0.00000020,-0.00001848,-0.0000189
 3,0.00001490,0.00000064,0.00000219,0.00000296,0.00000051,0.00000366,0.
 00000144,-0.00000018,0.00000114,0.00000084,0.00000177,0.00000343,-0.00
 000151,-0.00000074,0.00000122,0.00000074,-0.00003101,-0.00007076,0.000
 04617,-0.08102588,-0.10401004,0.01785651,-0.00148448,-0.00208487,0.000
 11643,-0.00007376,0.00020775,-0.00001254,-0.00006693,-0.00015333,0.000
 03449,0.00001602,0.00009377,0.00003611,0.00002647,-0.00001424,0.000020
 82,-0.00577465,0.00306959,0.00157309,-0.00000141,-0.00000257,-0.000000
 37,-0.00000205,-0.00000377,-0.00000340,-0.00000020,-0.00000126,-0.0000
 0082,-0.00000138,-0.00000177,-0.00000074,0.,-0.00000141,-0.00000047,0.
 00000890,0.00001077,-0.00000262,-0.00000490,0.00000672,-0.00000452,0.0
 0000978,0.00000997,-0.00002340,0.07552759,-0.00024243,0.00003278,0.000
 07320,-0.00011412,0.00013521,0.00000823,-0.00005329,-0.00000344,0.0000
 5074,0.00003202,-0.00157222,-0.00025798,-0.00509824,0.00318983,-0.0009
 4743,-0.00001678,-0.00000363,-0.00006758,0.00007440,-0.00008511,-0.000
 08947,0.00012655,-0.00001107,0.00001259,-0.00049977,0.00011295,0.00003
 557,-0.00002501,-0.00003813,-0.00011538,-0.00578515,-0.01127294,0.0070
 0564,-0.00002451,0.00000748,0.00000935,0.00015986,-0.00002790,-0.00012
 840,-0.00000153,0.00000516,-0.00001213,-0.00000193,-0.00000142,0.00000
 396,-0.00000359,0.00000162,-0.00000382,-0.00000567,-0.00000248,0.00000
 699,-0.00000416,0.00000335,-0.00000009,0.00001842,-0.00006673,0.000056
 15,-0.10498480,-0.28243456,0.05407112,0.00024417,0.00040051,-0.0001598
 1,0.00019561,0.00046846,-0.00012240,0.00001741,-0.00002346,0.00005209,
 0.00000325,-0.00002303,0.00002722,-0.00004827,-0.00000110,-0.00001288,
 0.00295104,-0.00072444,-0.00141336,0.00000556,-0.00000052,-0.00000193,
 0.00000616,-0.00000366,0.00000718,-0.00000276,0.00000092,0.00000155,-0
 .00000144,0.00000174,-0.00000189,-0.00000245,0.00000108,0.00000019,0.0
 0000158,-0.00000222,-0.00000746,-0.00000732,0.00001152,0.00000069,0.00
 000695,0.00000528,-0.00000827,0.11665721,0.29643080,-0.00010223,0.0000
 1246,0.00003759,-0.00003883,0.00003156,-0.00000206,-0.00001092,-0.0000
 0767,0.00003205,0.00001865,-0.00107042,0.00020677,-0.00373497,0.000521
 08,-0.00194758,-0.00001296,-0.00007282,-0.00006873,-0.00000314,-0.0000
 0022,-0.00001468,0.00004710,-0.00000921,-0.00000443,-0.00029236,0.0000
 5619,-0.00002849,-0.00001182,0.00002425,-0.00011333,-0.01004920,-0.022
 54365,0.00769802,-0.00000645,0.00000178,0.00000586,0.00005050,-0.00000
 285,-0.00006521,-0.00000099,0.00000226,-0.00000499,-0.00000169,-0.0000
 0058,0.00000050,-0.00000168,-0.00000011,-0.00000101,-0.00000090,-0.000
 00151,0.00000232,-0.00000158,0.00000073,0.00000023,0.00000456,-0.00001
 810,0.00001602,0.02022631,0.05861232,-0.06720960,0.00014947,-0.0001194
 8,0.00019981,0.00001001,-0.00026452,0.00028636,-0.00001222,0.00009040,
 0.00000027,-0.00000443,-0.00002777,0.00004442,-0.00002705,-0.00000200,
 -0.00000856,0.00165594,-0.00074453,0.00035879,0.00000119,0.00000017,-0
 .00000069,0.00000212,-0.00000091,0.00000305,-0.00000067,0.00000087,0.0
 0000037,-0.00000069,0.00000083,-0.00000036,-0.00000041,0.00000050,0.00
 000034,-0.00000208,-0.00000526,-0.00000187,0.00000240,0.00000439,-0.00
 000004,0.00000365,0.00000378,0.00000697,-0.01774618,-0.05715396,0.0623
 6961,0.00008935,0.00002213,0.00000638,0.00006576,-0.00001821,0.0000365
 8,0.00003941,0.00000613,0.00000161,-0.00017425,-0.00110901,-0.00037884
 ,-0.00615320,0.00456862,0.00132675,0.00007233,-0.00024510,-0.00018644,
 -0.00007228,0.00012949,0.00005769,-0.00001359,-0.00004350,-0.00002691,
 -0.00028492,0.00008695,0.00010376,0.00001049,-0.00002246,-0.00007227,0
 .00440565,0.00368241,-0.01439882,0.00001380,-0.00000754,-0.00000229,-0
 .00008754,0.00000406,0.00002481,-0.00000065,-0.00000116,0.00000791,0.0
 0000166,0.00000445,-0.00000253,0.00000209,0.00000103,0.00000460,0.0000
 0430,0.00000384,-0.00000433,0.00000154,-0.00000150,-0.00000016,-0.0000
 3788,0.00003216,-0.00003685,-0.04201192,-0.00071895,-0.02205765,0.0007
 3197,0.00088085,0.00045659,0.00008207,-0.00055172,0.00034776,-0.000077
 89,0.00015102,-0.00003989,0.00000203,-0.00001048,0.00000903,-0.0000216
 0,0.00001268,-0.00001500,0.00772531,-0.00548794,-0.00403609,-0.0000043
 7,-0.00000171,0.00000077,-0.00000427,-0.00000128,-0.00000536,0.0000007
 9,-0.00000145,-0.00000142,0.00000015,-0.00000196,0.00000088,0.00000139
 ,-0.00000165,-0.00000032,0.00000666,0.00000280,0.00001065,0.00000121,-
 0.00000503,-0.00000164,-0.00000135,-0.00000090,-0.00000515,0.00325215,
 -0.00357697,0.00989159,0.03243561,0.00006972,-0.00002423,-0.00003906,0
 .00001332,-0.00004495,-0.00004104,0.00000408,-0.00000328,-0.00002717,-
 0.00014518,0.00048108,0.00018944,0.00333523,-0.00016571,-0.00255647,0.
 00006907,0.00006590,0.00013742,0.00000079,-0.00001667,0.00002659,-0.00
 004017,0.00001627,0.00000463,0.00022059,-0.00001392,0.00002259,0.00000
 589,-0.00000210,0.00002793,-0.00308888,0.00889311,-0.01662487,0.000004
 14,-0.00000036,-0.00000272,-0.00003077,0.00001253,0.00005143,0.0000013
 7,-0.00000238,0.00000170,-0.00000100,-0.00000099,-0.00000077,-0.000000
 43,-0.00000154,-0.00000109,0.00000132,-0.00000058,-0.00000086,0.000001
 26,-0.00000090,0.00000063,0.00000473,-0.00000105,0.00000752,0.00045289
 ,-0.08542478,0.09418350,-0.00035922,-0.00042018,-0.00008369,-0.0000598
 2,-0.00038020,0.00044030,0.00009685,-0.00001035,0.00003197,0.00000024,
 0.00000755,-0.00001653,0.00001681,-0.00000090,0.00000706,-0.00542115,0
 .00068282,-0.00140739,0.00000005,0.00000216,0.00000091,-0.00000027,0.0
 0000170,-0.00000048,0.00000150,0.00000067,0.00000003,0.00000014,0.0000
 0024,0.00000014,0.00000044,0.00000036,0.00000029,-0.00000324,-0.000000
 49,-0.00000439,0.00000576,-0.00000158,0.00000161,-0.00000009,-0.000000
 60,0.00000743,0.00262410,-0.00451061,0.02268200,0.00221990,0.08086397,
 0.00001135,-0.00000547,0.00001390,0.00002606,-0.00003743,0.00002048,0.
 00000738,-0.00000782,0.00001294,0.00010839,0.00033021,0.00038298,0.002
 70639,0.00044313,0.00065677,0.00002404,-0.00012994,-0.00003230,-0.0000
 3550,0.00002325,0.00001742,0.00000830,0.00002994,-0.00000190,0.0001251
 9,-0.00000941,-0.00001886,0.00004306,0.00004105,0.00000932,-0.00170795
 ,0.01057426,-0.01885846,0.00000148,-0.00000105,0.00000104,-0.00000926,
 0.00001171,-0.00001693,-0.00000030,0.00000074,0.00000029,0.00000201,-0
 .00000065,-0.00000229,0.00000016,-0.00000214,0.00000087,-0.00000125,-0
 .00000150,-0.00000005,0.00000141,0.00000054,-0.00000005,0.00000173,0.0
 0004076,-0.00003185,-0.02389392,0.08977491,-0.29546881,-0.00012907,-0.
 00017816,0.00013400,-0.00061207,-0.00129916,0.00040432,-0.00012306,0.0
 0003431,-0.00008223,-0.00000362,0.00001139,0.00000743,0.00001250,-0.00
 000197,0.00000513,-0.00397198,-0.00169273,-0.00084493,-0.00000081,0.00
 000021,0.00000016,0.00000029,0.00000159,-0.00000017,0.,0.00000026,0.00
 000017,0.00000115,-0.00000007,0.00000040,0.00000012,0.00000012,0.00000
 001,0.00000384,0.00000031,0.00000371,-0.00000140,-0.00000471,0.0000032
 7,-0.00000655,-0.00000969,-0.00000118,-0.00157275,-0.00091821,-0.00179
 771,0.02898462,-0.09701860,0.31548312\\0.00001282,-0.00001937,-0.00000
 724,-0.00003627,-0.00000395,0.00000705,-0.00000306,0.00000121,-0.00000
 381,0.00001133,0.00000813,0.00001267,-0.00000945,-0.00000110,-0.000008
 81,0.00000708,-0.00000976,-0.00001530,0.00002851,-0.00000457,-0.000003
 40,-0.00001809,0.00001882,0.00001290,-0.00000491,0.00000184,-0.0000024
 0,0.00000146,-0.00000081,-0.00000769,-0.00000176,0.00000120,0.00000290
 ,0.00001531,-0.00000752,0.00000070,-0.00001217,0.00000940,0.00000538,-
 0.00001343,0.00000199,-0.00000034,0.00000092,0.00000216,0.00000349,0.0
 0000697,-0.00000468,0.00000468,-0.00000371,0.00000195,0.00000055,0.000
 00047,0.00000266,-0.00000904,0.00001660,0.00000713,0.00000198,-0.00000
 206,0.00000148,0.00000172,-0.00000173,-0.00000060,0.00000375,0.0000047
 8,0.00000106,0.00000343,-0.00000104,0.00000259,0.00000289,-0.00000118,
 -0.00000018,-0.00000099,0.00000192,-0.00000052,0.00000021,0.00000266,0
 .00000051,0.00000146,0.00000077,0.00000009,0.00000098,-0.00000144,-0.0
 0000070,-0.00000191,0.,-0.00000175,-0.00000093,0.00000164,-0.00000111,
 -0.00000162,-0.00000012,-0.00000060,0.00000008,-0.00000300,-0.00000344
 ,-0.00000062,0.00000152,0.00000073,0.00000013,0.00000009,-0.00000197,-
 0.00000338,-0.00000178,0.00000135,-0.00000055,0.00000035,-0.00000168,0
 .00000109\\\@


 IF GOD HAD MEANT MAN TO SEE THE SUN RISE, HE
 WOULD HAVE SCHEDULED IT FOR A LATER HOUR.
 Job cpu time:       0 days 11 hours 24 minutes 58.7 seconds.
 Elapsed time:       0 days  0 hours 42 minutes 58.1 seconds.
 File lengths (MBytes):  RWF=    947 Int=      0 D2E=      0 Chk=     26 Scr=      1
 Normal termination of Gaussian 16 at Tue Oct  7 00:30:43 2025.
