 Entering Gaussian System, Link 0=g16
 Input=FCHE0115.gjf
 Output=FCHE0115.log
 Initial command:
 /usr/local/g16/l1.exe "/dados_01/scratch/Gau-2089483.inp" -scrdir="/dados_01/scratch/"
 Entering Link 1 = /usr/local/g16/l1.exe PID=   2089484.
  
 Copyright (c) 1988-2017, Gaussian, Inc.  All Rights Reserved.
  
 This is part of the Gaussian(R) 16 program.  It is based on
 the Gaussian(R) 09 system (copyright 2009, Gaussian, Inc.),
 the Gaussian(R) 03 system (copyright 2003, Gaussian, Inc.),
 the Gaussian(R) 98 system (copyright 1998, Gaussian, Inc.),
 the Gaussian(R) 94 system (copyright 1995, Gaussian, Inc.),
 the Gaussian 92(TM) system (copyright 1992, Gaussian, Inc.),
 the Gaussian 90(TM) system (copyright 1990, Gaussian, Inc.),
 the Gaussian 88(TM) system (copyright 1988, Gaussian, Inc.),
 the Gaussian 86(TM) system (copyright 1986, Carnegie Mellon
 University), and the Gaussian 82(TM) system (copyright 1983,
 Carnegie Mellon University). Gaussian is a federally registered
 trademark of Gaussian, Inc.
  
 This software contains proprietary and confidential information,
 including trade secrets, belonging to Gaussian, Inc.
  
 This software is provided under written license and may be
 used, copied, transmitted, or stored only in accord with that
 written license.
  
 The following legend is applicable only to US Government
 contracts under FAR:
  
                    RESTRICTED RIGHTS LEGEND
  
 Use, reproduction and disclosure by the US Government is
 subject to restrictions as set forth in subparagraphs (a)
 and (c) of the Commercial Computer Software - Restricted
 Rights clause in FAR 52.227-19.
  
 Gaussian, Inc.
 340 Quinnipiac St., Bldg. 40, Wallingford CT 06492
  
  
 ---------------------------------------------------------------
 Warning -- This program may not be used in any manner that
 competes with the business of Gaussian, Inc. or will provide
 assistance to any competitor of Gaussian, Inc.  The licensee
 of this program is prohibited from giving any competitor of
 Gaussian, Inc. access to this program.  By using this program,
 the user acknowledges that Gaussian, Inc. is engaged in the
 business of creating and licensing software in the field of
 computational chemistry and represents and warrants to the
 licensee that it is not a competitor of Gaussian, Inc. and that
 it will not use this program in any manner prohibited above.
 ---------------------------------------------------------------
  

 Cite this work as:
 Gaussian 16, Revision B.01,
 M. J. Frisch, G. W. Trucks, H. B. Schlegel, G. E. Scuseria, 
 M. A. Robb, J. R. Cheeseman, G. Scalmani, V. Barone, 
 G. A. Petersson, H. Nakatsuji, X. Li, M. Caricato, A. V. Marenich, 
 J. Bloino, B. G. Janesko, R. Gomperts, B. Mennucci, H. P. Hratchian, 
 J. V. Ortiz, A. F. Izmaylov, J. L. Sonnenberg, D. Williams-Young, 
 F. Ding, F. Lipparini, F. Egidi, J. Goings, B. Peng, A. Petrone, 
 T. Henderson, D. Ranasinghe, V. G. Zakrzewski, J. Gao, N. Rega, 
 G. Zheng, W. Liang, M. Hada, M. Ehara, K. Toyota, R. Fukuda, 
 J. Hasegawa, M. Ishida, T. Nakajima, Y. Honda, O. Kitao, H. Nakai, 
 T. Vreven, K. Throssell, J. A. Montgomery, Jr., J. E. Peralta, 
 F. Ogliaro, M. J. Bearpark, J. J. Heyd, E. N. Brothers, K. N. Kudin, 
 V. N. Staroverov, T. A. Keith, R. Kobayashi, J. Normand, 
 K. Raghavachari, A. P. Rendell, J. C. Burant, S. S. Iyengar, 
 J. Tomasi, M. Cossi, J. M. Millam, M. Klene, C. Adamo, R. Cammi, 
 J. W. Ochterski, R. L. Martin, K. Morokuma, O. Farkas, 
 J. B. Foresman, and D. J. Fox, Gaussian, Inc., Wallingford CT, 2016.
 
 ******************************************
 Gaussian 16:  ES64L-G16RevB.01 20-Dec-2017
                20-Sep-2025 
 ******************************************
 %nprocs=16
 Will use up to   16 processors via shared memory.
 %mem=40GB
 %chk=FCHE0115.chk
 ----------------------------------------------------------------------
 # opt freq=noraman M08HX/6-311++G** scf=xqc Empiricaldispersion=pfd In
 t(Grid=ultraFine)
 ----------------------------------------------------------------------
 1/18=20,19=15,26=4,38=1/1,3;
 2/9=110,12=2,17=6,18=5,40=1/2;
 3/5=4,6=6,7=1111,11=2,25=1,30=1,71=1,74=-74,75=-5,124=11/1,2,3;
 4//1;
 5/5=2,8=3,13=1,38=5/2,8;
 6/7=2,8=2,9=2,10=2,28=1/1;
 7//1,2,3,16;
 1/18=20,19=15,26=4/3(2);
 2/9=110/2;
 99//99;
 2/9=110/2;
 3/5=4,6=6,7=1111,11=2,25=1,30=1,71=1,74=-74,75=-5,124=11/1,2,3;
 4/5=5,16=3,69=1/1;
 5/5=2,8=3,13=1,38=5/2,8;
 7//1,2,3,16;
 1/18=20,19=15,26=4/3(-5);
 2/9=110/2;
 6/7=2,8=2,9=2,10=2,19=2,28=1/1;
 99/9=1/99;
 --------
 FCHE0115
 --------
 Symbolic Z-matrix:
 Charge =  0 Multiplicity = 1
 C                    -1.2013    0.3605   -0.1323 
 C                     0.4732   -0.6634    0.9276 
 C                     1.2291    0.2455   -0.0922 
 C                    -0.732     0.2056    1.3165 
 C                     0.0539    0.9617   -0.8122 
 C                    -1.3531   -1.1125   -0.5733 
 C                    -0.2505   -1.8258    0.2226 
 C                    -2.4534    1.1884   -0.3263 
 C                     2.1935    1.2489    0.5542 
 C                     2.0407   -0.6088   -1.0846 
 H                     1.0895   -0.9888    1.7694 
 H                    -1.4538   -0.316     1.9551 
 H                    -0.4567    1.1537    1.7889 
 H                     0.0469    0.7967   -1.8954 
 H                     0.0953    2.0452   -0.645 
 H                    -1.2222   -1.237    -1.6533 
 H                    -2.3336   -1.5211   -0.3025 
 H                    -0.7112   -2.4829    0.9714 
 H                     0.385    -2.4618   -0.3969 
 H                    -3.3022    0.7527    0.2116 
 H                    -2.314     2.2089    0.0461 
 H                    -2.7211    1.2495   -1.3864 
 H                     2.9986    0.7289    1.0848 
 H                     2.6496    1.9019   -0.1982 
 H                     1.6829    1.8904    1.2796 
 H                     1.4119   -1.185    -1.7702 
 H                     2.667     0.0295   -1.7194 
 H                     2.7052   -1.3011   -0.5559 
 

 GradGradGradGradGradGradGradGradGradGradGradGradGradGradGradGradGradGrad
 Berny optimization.
 Initialization pass.
                           ----------------------------
                           !    Initial Parameters    !
                           ! (Angstroms and Degrees)  !
 --------------------------                            --------------------------
 ! Name  Definition              Value          Derivative Info.                !
 --------------------------------------------------------------------------------
 ! R1    R(1,4)                  1.5308         estimate D2E/DX2                !
 ! R2    R(1,5)                  1.5489         estimate D2E/DX2                !
 ! R3    R(1,6)                  1.5451         estimate D2E/DX2                !
 ! R4    R(1,8)                  1.5135         estimate D2E/DX2                !
 ! R5    R(2,3)                  1.5612         estimate D2E/DX2                !
 ! R6    R(2,4)                  1.5359         estimate D2E/DX2                !
 ! R7    R(2,7)                  1.5401         estimate D2E/DX2                !
 ! R8    R(2,11)                 1.0929         estimate D2E/DX2                !
 ! R9    R(3,5)                  1.5532         estimate D2E/DX2                !
 ! R10   R(3,9)                  1.5345         estimate D2E/DX2                !
 ! R11   R(3,10)                 1.5406         estimate D2E/DX2                !
 ! R12   R(4,12)                 1.0958         estimate D2E/DX2                !
 ! R13   R(4,13)                 1.0945         estimate D2E/DX2                !
 ! R14   R(5,14)                 1.0957         estimate D2E/DX2                !
 ! R15   R(5,15)                 1.0971         estimate D2E/DX2                !
 ! R16   R(6,7)                  1.5356         estimate D2E/DX2                !
 ! R17   R(6,16)                 1.095          estimate D2E/DX2                !
 ! R18   R(6,17)                 1.0962         estimate D2E/DX2                !
 ! R19   R(7,18)                 1.0976         estimate D2E/DX2                !
 ! R20   R(7,19)                 1.0919         estimate D2E/DX2                !
 ! R21   R(8,20)                 1.0953         estimate D2E/DX2                !
 ! R22   R(8,21)                 1.0952         estimate D2E/DX2                !
 ! R23   R(8,22)                 1.0951         estimate D2E/DX2                !
 ! R24   R(9,23)                 1.0955         estimate D2E/DX2                !
 ! R25   R(9,24)                 1.0957         estimate D2E/DX2                !
 ! R26   R(9,25)                 1.0947         estimate D2E/DX2                !
 ! R27   R(10,26)                1.0943         estimate D2E/DX2                !
 ! R28   R(10,27)                1.0967         estimate D2E/DX2                !
 ! R29   R(10,28)                1.0956         estimate D2E/DX2                !
 ! A1    A(4,1,5)              101.9043         estimate D2E/DX2                !
 ! A2    A(4,1,6)              101.7586         estimate D2E/DX2                !
 ! A3    A(4,1,8)              115.4856         estimate D2E/DX2                !
 ! A4    A(5,1,6)              108.9268         estimate D2E/DX2                !
 ! A5    A(5,1,8)              113.6914         estimate D2E/DX2                !
 ! A6    A(6,1,8)              113.8045         estimate D2E/DX2                !
 ! A7    A(3,2,4)              102.4702         estimate D2E/DX2                !
 ! A8    A(3,2,7)              111.5857         estimate D2E/DX2                !
 ! A9    A(3,2,11)             113.7937         estimate D2E/DX2                !
 ! A10   A(4,2,7)              100.0331         estimate D2E/DX2                !
 ! A11   A(4,2,11)             114.5789         estimate D2E/DX2                !
 ! A12   A(7,2,11)             113.1329         estimate D2E/DX2                !
 ! A13   A(2,3,5)              101.8239         estimate D2E/DX2                !
 ! A14   A(2,3,9)              114.1925         estimate D2E/DX2                !
 ! A15   A(2,3,10)             110.6715         estimate D2E/DX2                !
 ! A16   A(5,3,9)              111.6711         estimate D2E/DX2                !
 ! A17   A(5,3,10)             110.836          estimate D2E/DX2                !
 ! A18   A(9,3,10)             107.6299         estimate D2E/DX2                !
 ! A19   A(1,4,2)               93.335          estimate D2E/DX2                !
 ! A20   A(1,4,12)             113.4391         estimate D2E/DX2                !
 ! A21   A(1,4,13)             113.4515         estimate D2E/DX2                !
 ! A22   A(2,4,12)             113.2726         estimate D2E/DX2                !
 ! A23   A(2,4,13)             113.7062         estimate D2E/DX2                !
 ! A24   A(12,4,13)            109.0552         estimate D2E/DX2                !
 ! A25   A(1,5,3)              103.3378         estimate D2E/DX2                !
 ! A26   A(1,5,14)             111.7344         estimate D2E/DX2                !
 ! A27   A(1,5,15)             110.3043         estimate D2E/DX2                !
 ! A28   A(3,5,14)             113.1824         estimate D2E/DX2                !
 ! A29   A(3,5,15)             110.8667         estimate D2E/DX2                !
 ! A30   A(14,5,15)            107.4348         estimate D2E/DX2                !
 ! A31   A(1,6,7)              102.9656         estimate D2E/DX2                !
 ! A32   A(1,6,16)             112.2199         estimate D2E/DX2                !
 ! A33   A(1,6,17)             111.8835         estimate D2E/DX2                !
 ! A34   A(7,6,16)             111.8733         estimate D2E/DX2                !
 ! A35   A(7,6,17)             109.9418         estimate D2E/DX2                !
 ! A36   A(16,6,17)            107.9504         estimate D2E/DX2                !
 ! A37   A(2,7,6)              102.9484         estimate D2E/DX2                !
 ! A38   A(2,7,18)             109.6814         estimate D2E/DX2                !
 ! A39   A(2,7,19)             115.2055         estimate D2E/DX2                !
 ! A40   A(6,7,18)             109.2873         estimate D2E/DX2                !
 ! A41   A(6,7,19)             113.2302         estimate D2E/DX2                !
 ! A42   A(18,7,19)            106.4189         estimate D2E/DX2                !
 ! A43   A(1,8,20)             111.1345         estimate D2E/DX2                !
 ! A44   A(1,8,21)             111.1491         estimate D2E/DX2                !
 ! A45   A(1,8,22)             110.9057         estimate D2E/DX2                !
 ! A46   A(20,8,21)            107.5961         estimate D2E/DX2                !
 ! A47   A(20,8,22)            107.949          estimate D2E/DX2                !
 ! A48   A(21,8,22)            107.9558         estimate D2E/DX2                !
 ! A49   A(3,9,23)             110.8254         estimate D2E/DX2                !
 ! A50   A(3,9,24)             111.2261         estimate D2E/DX2                !
 ! A51   A(3,9,25)             111.6643         estimate D2E/DX2                !
 ! A52   A(23,9,24)            108.0328         estimate D2E/DX2                !
 ! A53   A(23,9,25)            107.4567         estimate D2E/DX2                !
 ! A54   A(24,9,25)            107.454          estimate D2E/DX2                !
 ! A55   A(3,10,26)            113.133          estimate D2E/DX2                !
 ! A56   A(3,10,27)            110.5475         estimate D2E/DX2                !
 ! A57   A(3,10,28)            111.0428         estimate D2E/DX2                !
 ! A58   A(26,10,27)           105.7821         estimate D2E/DX2                !
 ! A59   A(26,10,28)           108.5501         estimate D2E/DX2                !
 ! A60   A(27,10,28)           107.5019         estimate D2E/DX2                !
 ! D1    D(5,1,4,2)            -56.4808         estimate D2E/DX2                !
 ! D2    D(5,1,4,12)          -173.651          estimate D2E/DX2                !
 ! D3    D(5,1,4,13)            61.1822         estimate D2E/DX2                !
 ! D4    D(6,1,4,2)             56.0064         estimate D2E/DX2                !
 ! D5    D(6,1,4,12)           -61.1638         estimate D2E/DX2                !
 ! D6    D(6,1,4,13)           173.6694         estimate D2E/DX2                !
 ! D7    D(8,1,4,2)            179.7813         estimate D2E/DX2                !
 ! D8    D(8,1,4,12)            62.6111         estimate D2E/DX2                !
 ! D9    D(8,1,4,13)           -62.5557         estimate D2E/DX2                !
 ! D10   D(4,1,5,3)             36.5409         estimate D2E/DX2                !
 ! D11   D(4,1,5,14)           158.5495         estimate D2E/DX2                !
 ! D12   D(4,1,5,15)           -82.0168         estimate D2E/DX2                !
 ! D13   D(6,1,5,3)            -70.4644         estimate D2E/DX2                !
 ! D14   D(6,1,5,14)            51.5443         estimate D2E/DX2                !
 ! D15   D(6,1,5,15)           170.978          estimate D2E/DX2                !
 ! D16   D(8,1,5,3)            161.4806         estimate D2E/DX2                !
 ! D17   D(8,1,5,14)           -76.5107         estimate D2E/DX2                !
 ! D18   D(8,1,5,15)            42.923          estimate D2E/DX2                !
 ! D19   D(4,1,6,7)            -32.6366         estimate D2E/DX2                !
 ! D20   D(4,1,6,16)          -153.1022         estimate D2E/DX2                !
 ! D21   D(4,1,6,17)            85.3745         estimate D2E/DX2                !
 ! D22   D(5,1,6,7)             74.4681         estimate D2E/DX2                !
 ! D23   D(5,1,6,16)           -45.9975         estimate D2E/DX2                !
 ! D24   D(5,1,6,17)          -167.5208         estimate D2E/DX2                !
 ! D25   D(8,1,6,7)           -157.5406         estimate D2E/DX2                !
 ! D26   D(8,1,6,16)            81.9939         estimate D2E/DX2                !
 ! D27   D(8,1,6,17)           -39.5295         estimate D2E/DX2                !
 ! D28   D(4,1,8,20)           -59.8717         estimate D2E/DX2                !
 ! D29   D(4,1,8,21)            59.9336         estimate D2E/DX2                !
 ! D30   D(4,1,8,22)          -179.9599         estimate D2E/DX2                !
 ! D31   D(5,1,8,20)          -177.175          estimate D2E/DX2                !
 ! D32   D(5,1,8,21)           -57.3697         estimate D2E/DX2                !
 ! D33   D(5,1,8,22)            62.7368         estimate D2E/DX2                !
 ! D34   D(6,1,8,20)            57.3239         estimate D2E/DX2                !
 ! D35   D(6,1,8,21)           177.1291         estimate D2E/DX2                !
 ! D36   D(6,1,8,22)           -62.7643         estimate D2E/DX2                !
 ! D37   D(4,2,3,5)            -35.1423         estimate D2E/DX2                !
 ! D38   D(4,2,3,9)             85.3657         estimate D2E/DX2                !
 ! D39   D(4,2,3,10)          -153.0077         estimate D2E/DX2                !
 ! D40   D(7,2,3,5)             71.0808         estimate D2E/DX2                !
 ! D41   D(7,2,3,9)           -168.4111         estimate D2E/DX2                !
 ! D42   D(7,2,3,10)           -46.7846         estimate D2E/DX2                !
 ! D43   D(11,2,3,5)          -159.4111         estimate D2E/DX2                !
 ! D44   D(11,2,3,9)           -38.9031         estimate D2E/DX2                !
 ! D45   D(11,2,3,10)           82.7235         estimate D2E/DX2                !
 ! D46   D(3,2,4,1)             56.2703         estimate D2E/DX2                !
 ! D47   D(3,2,4,12)           173.5802         estimate D2E/DX2                !
 ! D48   D(3,2,4,13)           -61.1796         estimate D2E/DX2                !
 ! D49   D(7,2,4,1)            -58.6753         estimate D2E/DX2                !
 ! D50   D(7,2,4,12)            58.6345         estimate D2E/DX2                !
 ! D51   D(7,2,4,13)          -176.1253         estimate D2E/DX2                !
 ! D52   D(11,2,4,1)          -179.9836         estimate D2E/DX2                !
 ! D53   D(11,2,4,12)          -62.6737         estimate D2E/DX2                !
 ! D54   D(11,2,4,13)           62.5665         estimate D2E/DX2                !
 ! D55   D(3,2,7,6)            -67.7071         estimate D2E/DX2                !
 ! D56   D(3,2,7,18)           176.0492         estimate D2E/DX2                !
 ! D57   D(3,2,7,19)            56.0399         estimate D2E/DX2                !
 ! D58   D(4,2,7,6)             40.1005         estimate D2E/DX2                !
 ! D59   D(4,2,7,18)           -76.1432         estimate D2E/DX2                !
 ! D60   D(4,2,7,19)           163.8475         estimate D2E/DX2                !
 ! D61   D(11,2,7,6)           162.4391         estimate D2E/DX2                !
 ! D62   D(11,2,7,18)           46.1954         estimate D2E/DX2                !
 ! D63   D(11,2,7,19)          -73.8139         estimate D2E/DX2                !
 ! D64   D(2,3,5,1)             -0.7812         estimate D2E/DX2                !
 ! D65   D(2,3,5,14)          -121.8139         estimate D2E/DX2                !
 ! D66   D(2,3,5,15)           117.3851         estimate D2E/DX2                !
 ! D67   D(9,3,5,1)           -123.0382         estimate D2E/DX2                !
 ! D68   D(9,3,5,14)           115.9291         estimate D2E/DX2                !
 ! D69   D(9,3,5,15)            -4.8718         estimate D2E/DX2                !
 ! D70   D(10,3,5,1)           116.9661         estimate D2E/DX2                !
 ! D71   D(10,3,5,14)           -4.0666         estimate D2E/DX2                !
 ! D72   D(10,3,5,15)         -124.8676         estimate D2E/DX2                !
 ! D73   D(2,3,9,23)            63.3375         estimate D2E/DX2                !
 ! D74   D(2,3,9,24)          -176.4611         estimate D2E/DX2                !
 ! D75   D(2,3,9,25)           -56.4274         estimate D2E/DX2                !
 ! D76   D(5,3,9,23)           178.1871         estimate D2E/DX2                !
 ! D77   D(5,3,9,24)           -61.6116         estimate D2E/DX2                !
 ! D78   D(5,3,9,25)            58.4221         estimate D2E/DX2                !
 ! D79   D(10,3,9,23)          -59.9501         estimate D2E/DX2                !
 ! D80   D(10,3,9,24)           60.2513         estimate D2E/DX2                !
 ! D81   D(10,3,9,25)         -179.715          estimate D2E/DX2                !
 ! D82   D(2,3,10,26)           68.5816         estimate D2E/DX2                !
 ! D83   D(2,3,10,27)         -172.9947         estimate D2E/DX2                !
 ! D84   D(2,3,10,28)          -53.7642         estimate D2E/DX2                !
 ! D85   D(5,3,10,26)          -43.6234         estimate D2E/DX2                !
 ! D86   D(5,3,10,27)           74.8003         estimate D2E/DX2                !
 ! D87   D(5,3,10,28)         -165.9693         estimate D2E/DX2                !
 ! D88   D(9,3,10,26)         -166.0036         estimate D2E/DX2                !
 ! D89   D(9,3,10,27)          -47.5799         estimate D2E/DX2                !
 ! D90   D(9,3,10,28)           71.6505         estimate D2E/DX2                !
 ! D91   D(1,6,7,2)             -4.6199         estimate D2E/DX2                !
 ! D92   D(1,6,7,18)           111.905          estimate D2E/DX2                !
 ! D93   D(1,6,7,19)          -129.6646         estimate D2E/DX2                !
 ! D94   D(16,6,7,2)           116.0831         estimate D2E/DX2                !
 ! D95   D(16,6,7,18)         -127.392          estimate D2E/DX2                !
 ! D96   D(16,6,7,19)           -8.9616         estimate D2E/DX2                !
 ! D97   D(17,6,7,2)          -123.9869         estimate D2E/DX2                !
 ! D98   D(17,6,7,18)           -7.4621         estimate D2E/DX2                !
 ! D99   D(17,6,7,19)          110.9684         estimate D2E/DX2                !
 --------------------------------------------------------------------------------
 Trust Radius=3.00D-01 FncErr=1.00D-07 GrdErr=1.00D-06 EigMax=2.50D+02 EigMin=1.00D-04
 Number of steps in this run=    168 maximum allowed number of steps=    168.
 GradGradGradGradGradGradGradGradGradGradGradGradGradGradGradGradGradGrad

                          Input orientation:                          
 ---------------------------------------------------------------------
 Center     Atomic      Atomic             Coordinates (Angstroms)
 Number     Number       Type             X           Y           Z
 ---------------------------------------------------------------------
      1          6           0       -1.201300    0.360500   -0.132300
      2          6           0        0.473200   -0.663400    0.927600
      3          6           0        1.229100    0.245500   -0.092200
      4          6           0       -0.732000    0.205600    1.316500
      5          6           0        0.053900    0.961700   -0.812200
      6          6           0       -1.353100   -1.112500   -0.573300
      7          6           0       -0.250500   -1.825800    0.222600
      8          6           0       -2.453400    1.188400   -0.326300
      9          6           0        2.193500    1.248900    0.554200
     10          6           0        2.040700   -0.608800   -1.084600
     11          1           0        1.089500   -0.988800    1.769400
     12          1           0       -1.453800   -0.316000    1.955100
     13          1           0       -0.456700    1.153700    1.788900
     14          1           0        0.046900    0.796700   -1.895400
     15          1           0        0.095300    2.045200   -0.645000
     16          1           0       -1.222200   -1.237000   -1.653300
     17          1           0       -2.333600   -1.521100   -0.302500
     18          1           0       -0.711200   -2.482900    0.971400
     19          1           0        0.385000   -2.461800   -0.396900
     20          1           0       -3.302200    0.752700    0.211600
     21          1           0       -2.314000    2.208900    0.046100
     22          1           0       -2.721100    1.249500   -1.386400
     23          1           0        2.998600    0.728900    1.084800
     24          1           0        2.649600    1.901900   -0.198200
     25          1           0        1.682900    1.890400    1.279600
     26          1           0        1.411900   -1.185000   -1.770200
     27          1           0        2.667000    0.029500   -1.719400
     28          1           0        2.705200   -1.301100   -0.555900
 ---------------------------------------------------------------------
                    Distance matrix (angstroms):
                    1          2          3          4          5
     1  C    0.000000
     2  C    2.230630   0.000000
     3  C    2.433450   1.561242   0.000000
     4  C    1.530770   1.535875   2.414941   0.000000
     5  C    1.548946   2.417368   1.553202   2.391796   0.000000
     6  C    1.545074   2.406193   2.956920   2.386314   2.517743
     7  C    2.410370   1.540111   2.564878   2.356914   2.988917
     8  C    1.513542   3.683262   3.808500   2.574472   2.563990
     9  C    3.575640   2.599183   1.534507   3.198144   2.554882
    10  C    3.515250   2.551271   1.540578   3.757179   2.547164
    11  H    3.268767   1.092858   2.237977   2.224763   3.397290
    12  H    2.208766   2.211283   3.421209   1.095843   3.400533
    13  H    2.207851   2.215492   2.684266   1.094461   2.657687
    14  H    2.203814   3.206704   2.225522   3.357437   1.095717
    15  H    2.186835   3.154741   2.197728   2.813545   1.097106
    16  H    2.205875   3.140771   3.262470   3.337829   2.677716
    17  H    2.202610   3.182282   3.982202   2.857932   3.481989
    18  H    3.089219   2.171475   3.512859   2.710638   3.953717
    19  H    3.248344   2.235245   2.852161   3.361317   3.464456
    20  H    2.164687   4.095319   4.569707   2.850623   3.515004
    21  H    2.164835   4.098248   4.053101   2.851289   2.810540
    22  H    2.161684   4.383758   4.276336   3.514529   2.848361
    23  H    4.388190   2.888054   2.179480   3.774242   3.510564
    24  H    4.148456   3.547521   2.184655   4.075165   2.828185
    25  H    3.557059   2.847661   2.189398   2.944767   2.809226
    26  H    3.449652   2.903679   2.212562   4.007218   2.714820
    27  H    4.194305   3.507061   2.182199   4.560800   2.918955
    28  H    4.266274   2.754861   2.187661   4.194088   3.495046
                    6          7          8          9         10
     6  C    0.000000
     7  C    1.535572   0.000000
     8  C    2.562384   3.773521   0.000000
     9  C    4.407475   3.941684   4.729970   0.000000
    10  C    3.468864   2.905075   4.899172   2.481947   0.000000
    11  H    3.386715   2.211054   4.656640   2.775397   3.032243
    12  H    2.652802   2.594028   2.909846   4.208828   4.640801
    13  H    3.393992   3.372423   2.908966   2.925253   4.195285
    14  H    2.711640   3.384062   2.977751   3.288300   2.570616
    15  H    3.474777   3.982078   2.707683   2.544527   3.319871
    16  H    1.095005   2.193145   3.026441   4.766525   3.371138
    17  H    1.096206   2.169764   2.712252   5.376009   4.536350
    18  H    2.162436   1.097600   4.265880   4.747386   3.913099
    19  H    2.207424   1.091850   4.624441   4.236102   2.578349
    20  H    2.809632   3.995204   1.095277   5.528680   5.663956
    21  H    3.512646   4.535194   1.095233   4.636520   5.308609
    22  H    2.848087   4.260307   1.095084   5.283864   5.120459
    23  H    5.007728   4.222148   5.650367   1.095501   2.722739
    24  H    5.024830   4.741666   5.154231   1.095692   2.731314
    25  H    4.654884   4.320350   4.492293   1.094733   3.458824
    26  H    3.013810   2.673097   4.760086   3.455084   1.094277
    27  H    4.333464   3.965515   5.431599   2.623051   1.096654
    28  H    4.062717   3.101215   5.732493   2.827836   1.095611
                   11         12         13         14         15
    11  H    0.000000
    12  H    2.637332   0.000000
    13  H    2.642238   1.783774   0.000000
    14  H    4.207824   4.279784   3.735656   0.000000
    15  H    4.002864   3.838684   2.650160   1.767652   0.000000
    16  H    4.137685   3.731277   4.260303   2.409391   3.677678
    17  H    4.036549   2.706117   3.879596   3.684604   4.328436
    18  H    2.472177   2.492905   3.736032   4.421429   4.875129
    19  H    2.712730   3.676622   4.307902   3.602449   4.523111
    20  H    4.974595   2.756537   3.278040   3.957001   3.734612
    21  H    4.977837   3.280144   2.756875   3.367132   2.511801
    22  H    5.430445   3.901597   3.901181   2.850602   3.019093
    23  H    2.657787   4.655438   3.551804   4.195083   3.626845
    24  H    3.829035   5.137477   3.762641   3.297878   2.597039
    25  H    2.980238   3.894020   2.319483   3.735412   2.499704
    26  H    3.559664   4.779671   4.650632   2.409572   3.665202
    27  H    3.961965   5.531936   4.830062   2.735781   3.439625
    28  H    2.848691   4.957098   4.639153   3.641646   4.244672
                   16         17         18         19         20
    16  H    0.000000
    17  H    1.772169   0.000000
    18  H    2.949989   2.275975   0.000000
    19  H    2.379447   2.878301   1.753381   0.000000
    20  H    3.429746   2.524411   4.214224   4.929374   0.000000
    21  H    3.994273   3.746306   5.043623   5.412605   1.767611
    22  H    2.915582   3.000203   4.850745   4.939708   1.771466
    23  H    5.401584   5.951425   4.908272   4.382568   6.361063
    24  H    5.192383   6.046494   5.647071   4.920343   6.075567
    25  H    5.179009   5.502149   4.995243   4.841161   5.223620
    26  H    2.637205   4.036815   3.702495   2.137918   5.468542
    27  H    4.090754   5.423833   4.996478   3.628099   6.315309
    28  H    4.078341   5.049962   3.924422   2.599199   6.394998
                   21         22         23         24         25
    21  H    0.000000
    22  H    1.771506   0.000000
    23  H    5.611864   6.252425   0.000000
    24  H    4.979082   5.539121   1.773082   0.000000
    25  H    4.195018   5.187825   1.765813   1.765937   0.000000
    26  H    5.357223   4.812045   3.785717   3.678592   4.339678
    27  H    5.716392   5.534520   2.909065   2.412516   3.664069
    28  H    6.154256   6.053100   2.626572   3.223391   3.820972
                   26         27         28
    26  H    0.000000
    27  H    1.747246   0.000000
    28  H    1.777816   1.767961   0.000000
 Stoichiometry    C10H18
 Framework group  C1[X(C10H18)]
 Deg. of freedom    78
 Full point group                 C1      NOp   1
 Largest Abelian subgroup         C1      NOp   1
 Largest concise Abelian subgroup C1      NOp   1
                         Standard orientation:                         
 ---------------------------------------------------------------------
 Center     Atomic      Atomic             Coordinates (Angstroms)
 Number     Number       Type             X           Y           Z
 ---------------------------------------------------------------------
      1          6           0        1.218990   -0.327270   -0.139269
      2          6           0       -0.457801    0.622215    0.984368
      3          6           0       -1.211997   -0.234930   -0.080510
      4          6           0        0.756477   -0.256964    1.318262
      5          6           0       -0.035077   -0.900233   -0.845147
      6          6           0        1.356504    1.169156   -0.498506
      7          6           0        0.252624    1.827954    0.341382
      8          6           0        2.476613   -1.132660   -0.385322
      9          6           0       -2.164712   -1.280672    0.514023
     10          6           0       -2.035912    0.666358   -1.019778
     11          1           0       -1.072033    0.895229    1.846064
     12          1           0        1.477581    0.234373    1.981187
     13          1           0        0.491423   -1.232091    1.738642
     14          1           0       -0.035392   -0.675295   -1.917527
     15          1           0       -0.066841   -1.991652   -0.738201
     16          1           0        1.218639    1.352331   -1.569242
     17          1           0        2.335171    1.570247   -0.210400
     18          1           0        0.712160    2.446283    1.123189
     19          1           0       -0.391383    2.492051   -0.238589
     20          1           0        3.324844   -0.720439    0.171643
     21          1           0        2.347481   -2.173388   -0.069498
     22          1           0        2.738930   -1.132576   -1.448523
     23          1           0       -2.971020   -0.797661    1.076775
     24          1           0       -2.619701   -1.894669   -0.271174
     25          1           0       -1.644969   -1.957181    1.200058
     26          1           0       -1.415564    1.284954   -1.675484
     27          1           0       -2.660561    0.059091   -1.685878
     28          1           0       -2.703022    1.322675   -0.450063
 ---------------------------------------------------------------------
 Rotational constants (GHZ):           2.0373542           1.2318121           1.0673585
 Standard basis: 6-311++G(d,p) (5D, 7F)
 There are   356 symmetry adapted cartesian basis functions of A   symmetry.
 There are   346 symmetry adapted basis functions of A   symmetry.
   346 basis functions,   522 primitive gaussians,   356 cartesian basis functions
    39 alpha electrons       39 beta electrons
       nuclear repulsion energy       599.9525786461 Hartrees.
 NAtoms=   28 NActive=   28 NUniq=   28 SFac= 1.00D+00 NAtFMM=   60 NAOKFM=F Big=F
 Integral buffers will be    131072 words long.
 Raffenetti 2 integral format.
 Two-electron integral symmetry is turned on.
 R6APFD:  NTU= -4 IXU= 1 FactS= 1.050
 Nuclear repulsion after empirical dispersion term =      599.9271634768 Hartrees.
 One-electron integrals computed using PRISM.
 NBasis=   346 RedAO= T EigKep=  2.07D-06  NBF=   346
 NBsUse=   346 1.00D-06 EigRej= -1.00D+00 NBFU=   346
 ExpMin= 3.60D-02 ExpMax= 4.56D+03 ExpMxC= 6.82D+02 IAcc=3 IRadAn=         5 AccDes= 0.00D+00
 Harris functional with IExCor= 1009 and IRadAn=       5 diagonalized for initial guess.
 HarFok:  IExCor= 1009 AccDes= 0.00D+00 IRadAn=         5 IDoV= 1 UseB2=F ITyADJ=14
 ICtDFT=  3500011 ScaDFX=  1.000000  1.000000  1.000000  1.000000
 FoFCou: FMM=F IPFlag=           0 FMFlag=      100000 FMFlg1=           0
         NFxFlg=           0 DoJE=T BraDBF=F KetDBF=T FulRan=T
         wScrn=  0.000000 ICntrl=       500 IOpCl=  0 I1Cent=   200000004 NGrid=           0
         NMat0=    1 NMatS0=      1 NMatT0=    0 NMatD0=    1 NMtDS0=    0 NMtDT0=    0
 Petite list used in FoFCou.
 Requested convergence on RMS density matrix=1.00D-08 within  32 cycles.
 Requested convergence on MAX density matrix=1.00D-06.
 Requested convergence on             energy=1.00D-06.
 No special actions if energy rises.
 SCF Done:  E(RM08HX) =  -391.955210651     A.U. after   12 cycles
            NFock= 12  Conv=0.86D-08     -V/T= 2.0058
 QCSCF skips out because SCF is already converged.

 **********************************************************************

            Population analysis using the SCF Density.

 **********************************************************************

 Orbital symmetries:
       Occupied  (A) (A) (A) (A) (A) (A) (A) (A) (A) (A) (A) (A)
                 (A) (A) (A) (A) (A) (A) (A) (A) (A) (A) (A) (A)
                 (A) (A) (A) (A) (A) (A) (A) (A) (A) (A) (A) (A)
                 (A) (A) (A)
       Virtual   (A) (A) (A) (A) (A) (A) (A) (A) (A) (A) (A) (A)
                 (A) (A) (A) (A) (A) (A) (A) (A) (A) (A) (A) (A)
                 (A) (A) (A) (A) (A) (A) (A) (A) (A) (A) (A) (A)
                 (A) (A) (A) (A) (A) (A) (A) (A) (A) (A) (A) (A)
                 (A) (A) (A) (A) (A) (A) (A) (A) (A) (A) (A) (A)
                 (A) (A) (A) (A) (A) (A) (A) (A) (A) (A) (A) (A)
                 (A) (A) (A) (A) (A) (A) (A) (A) (A) (A) (A) (A)
                 (A) (A) (A) (A) (A) (A) (A) (A) (A) (A) (A) (A)
                 (A) (A) (A) (A) (A) (A) (A) (A) (A) (A) (A) (A)
                 (A) (A) (A) (A) (A) (A) (A) (A) (A) (A) (A) (A)
                 (A) (A) (A) (A) (A) (A) (A) (A) (A) (A) (A) (A)
                 (A) (A) (A) (A) (A) (A) (A) (A) (A) (A) (A) (A)
                 (A) (A) (A) (A) (A) (A) (A) (A) (A) (A) (A) (A)
                 (A) (A) (A) (A) (A) (A) (A) (A) (A) (A) (A) (A)
                 (A) (A) (A) (A) (A) (A) (A) (A) (A) (A) (A) (A)
                 (A) (A) (A) (A) (A) (A) (A) (A) (A) (A) (A) (A)
                 (A) (A) (A) (A) (A) (A) (A) (A) (A) (A) (A) (A)
                 (A) (A) (A) (A) (A) (A) (A) (A) (A) (A) (A) (A)
                 (A) (A) (A) (A) (A) (A) (A) (A) (A) (A) (A) (A)
                 (A) (A) (A) (A) (A) (A) (A) (A) (A) (A) (A) (A)
                 (A) (A) (A) (A) (A) (A) (A) (A) (A) (A) (A) (A)
                 (A) (A) (A) (A) (A) (A) (A) (A) (A) (A) (A) (A)
                 (A) (A) (A) (A) (A) (A) (A) (A) (A) (A) (A) (A)
                 (A) (A) (A) (A) (A) (A) (A) (A) (A) (A) (A) (A)
                 (A) (A) (A) (A) (A) (A) (A) (A) (A) (A) (A) (A)
                 (A) (A) (A) (A) (A) (A) (A)
 The electronic state is 1-A.
 Alpha  occ. eigenvalues --  -10.53770 -10.53206 -10.52416 -10.51544 -10.51504
 Alpha  occ. eigenvalues --  -10.51454 -10.51344 -10.51232 -10.50945 -10.50808
 Alpha  occ. eigenvalues --   -0.99237  -0.88996  -0.85183  -0.80769  -0.77626
 Alpha  occ. eigenvalues --   -0.77166  -0.73171  -0.66776  -0.61673  -0.59626
 Alpha  occ. eigenvalues --   -0.55943  -0.54712  -0.52681  -0.49562  -0.48650
 Alpha  occ. eigenvalues --   -0.47809  -0.46683  -0.45641  -0.44903  -0.43163
 Alpha  occ. eigenvalues --   -0.42406  -0.40695  -0.40082  -0.39261  -0.38116
 Alpha  occ. eigenvalues --   -0.37281  -0.35607  -0.35123  -0.34497
 Alpha virt. eigenvalues --   -0.02875  -0.01519  -0.01339  -0.01110   0.00516
 Alpha virt. eigenvalues --    0.00658   0.00903   0.00979   0.01164   0.03269
 Alpha virt. eigenvalues --    0.03538   0.03718   0.03942   0.04224   0.04585
 Alpha virt. eigenvalues --    0.04995   0.07179   0.07295   0.07593   0.08112
 Alpha virt. eigenvalues --    0.08435   0.08976   0.09617   0.10471   0.10771
 Alpha virt. eigenvalues --    0.11449   0.11546   0.11948   0.12310   0.12474
 Alpha virt. eigenvalues --    0.13004   0.13597   0.13769   0.13966   0.14281
 Alpha virt. eigenvalues --    0.14556   0.15283   0.15365   0.15849   0.16163
 Alpha virt. eigenvalues --    0.16362   0.16499   0.16751   0.17103   0.17331
 Alpha virt. eigenvalues --    0.17514   0.17842   0.18825   0.19298   0.19698
 Alpha virt. eigenvalues --    0.19858   0.20424   0.20561   0.21072   0.22421
 Alpha virt. eigenvalues --    0.22659   0.23563   0.24668   0.24897   0.25473
 Alpha virt. eigenvalues --    0.25617   0.25999   0.26815   0.27118   0.27861
 Alpha virt. eigenvalues --    0.28955   0.30142   0.30776   0.30830   0.31127
 Alpha virt. eigenvalues --    0.31576   0.32763   0.33900   0.34840   0.35420
 Alpha virt. eigenvalues --    0.35684   0.36232   0.37013   0.37091   0.37511
 Alpha virt. eigenvalues --    0.37755   0.39550   0.40048   0.41749   0.42716
 Alpha virt. eigenvalues --    0.44419   0.44944   0.48815   0.48952   0.50818
 Alpha virt. eigenvalues --    0.51428   0.52709   0.54159   0.55012   0.55996
 Alpha virt. eigenvalues --    0.57270   0.58901   0.60230   0.61684   0.63102
 Alpha virt. eigenvalues --    0.63586   0.63975   0.66149   0.66622   0.68535
 Alpha virt. eigenvalues --    0.68987   0.69390   0.69972   0.70524   0.70833
 Alpha virt. eigenvalues --    0.71778   0.72403   0.72964   0.73113   0.74018
 Alpha virt. eigenvalues --    0.74425   0.74713   0.76116   0.76776   0.78224
 Alpha virt. eigenvalues --    0.78526   0.78850   0.79390   0.80296   0.80803
 Alpha virt. eigenvalues --    0.80913   0.81365   0.82597   0.83011   0.84023
 Alpha virt. eigenvalues --    0.84754   0.85984   0.89498   0.93405   0.94873
 Alpha virt. eigenvalues --    0.97483   0.98918   1.03473   1.04488   1.05667
 Alpha virt. eigenvalues --    1.09705   1.10519   1.13277   1.15662   1.18029
 Alpha virt. eigenvalues --    1.18538   1.23936   1.26934   1.28676   1.29711
 Alpha virt. eigenvalues --    1.36784   1.41773   1.43710   1.45432   1.46134
 Alpha virt. eigenvalues --    1.48111   1.49206   1.50016   1.51359   1.51793
 Alpha virt. eigenvalues --    1.52946   1.53794   1.54829   1.56712   1.58026
 Alpha virt. eigenvalues --    1.58762   1.60342   1.60623   1.62068   1.63590
 Alpha virt. eigenvalues --    1.64683   1.66267   1.66865   1.68180   1.69103
 Alpha virt. eigenvalues --    1.69697   1.71585   1.72257   1.73294   1.74024
 Alpha virt. eigenvalues --    1.75126   1.75585   1.76760   1.77108   1.78078
 Alpha virt. eigenvalues --    1.79459   1.81159   1.81809   1.83216   1.83934
 Alpha virt. eigenvalues --    1.86270   1.86652   1.87826   1.89183   1.89571
 Alpha virt. eigenvalues --    1.92570   1.95226   1.96312   1.97233   1.97263
 Alpha virt. eigenvalues --    1.99624   2.01426   2.03254   2.04061   2.07507
 Alpha virt. eigenvalues --    2.08762   2.10037   2.13998   2.16441   2.19043
 Alpha virt. eigenvalues --    2.19506   2.19695   2.20953   2.22869   2.23505
 Alpha virt. eigenvalues --    2.24320   2.25640   2.27350   2.32442   2.33160
 Alpha virt. eigenvalues --    2.34632   2.38528   2.41756   2.42763   2.48700
 Alpha virt. eigenvalues --    2.50140   2.50521   2.51400   2.52558   2.53670
 Alpha virt. eigenvalues --    2.54709   2.55503   2.57052   2.57531   2.59015
 Alpha virt. eigenvalues --    2.59651   2.60778   2.61396   2.62560   2.63890
 Alpha virt. eigenvalues --    2.64609   2.65626   2.66690   2.67274   2.68209
 Alpha virt. eigenvalues --    2.69670   2.71425   2.72294   2.73633   2.74538
 Alpha virt. eigenvalues --    2.77561   2.79960   2.81202   2.82254   2.86169
 Alpha virt. eigenvalues --    2.88647   2.89921   2.91207   2.91772   2.93852
 Alpha virt. eigenvalues --    2.94034   2.96254   2.99435   3.00870   3.05312
 Alpha virt. eigenvalues --    3.08205   3.10135   3.15182   3.19146   3.22613
 Alpha virt. eigenvalues --    3.27035   3.32054   3.35001   3.37437   3.38516
 Alpha virt. eigenvalues --    3.54396   3.66112   3.70957   3.77899   3.79742
 Alpha virt. eigenvalues --    3.81926   3.82966   3.84579   3.86100   3.87666
 Alpha virt. eigenvalues --    3.88411   3.89806   4.03283   4.11592   4.24550
 Alpha virt. eigenvalues --    4.27576   4.31794   4.35461   4.41157   4.43131
 Alpha virt. eigenvalues --    4.52200   4.58626  23.88224  23.93773  23.97786
 Alpha virt. eigenvalues --   24.01918  24.03422  24.04102  24.04444  24.06883
 Alpha virt. eigenvalues --   24.09053  24.17336
          Condensed to atoms (all electrons):
               1          2          3          4          5          6
     1  C   10.228962  -1.736241   0.815752  -0.525561  -1.644438  -0.650263
     2  C   -1.736241  12.780152  -3.286326  -1.741266   1.961395   0.430430
     3  C    0.815752  -3.286326   9.500919   0.388351  -2.365276   0.578436
     4  C   -0.525561  -1.741266   0.388351   8.167782  -0.374896  -0.275584
     5  C   -1.644438   1.961395  -2.365276  -0.374896  10.382469  -1.182381
     6  C   -0.650263   0.430430   0.578436  -0.275584  -1.182381   8.697427
     7  C    0.531559  -1.736631   0.716181   0.175886   0.250600  -1.389526
     8  C   -1.713707  -1.023954  -0.411818   0.338376  -0.245566  -0.302920
     9  C   -0.037824  -0.704867   0.306596   0.142018  -0.111674   0.101110
    10  C    0.261433   0.292834  -0.427975   0.000578  -0.418475   0.011239
    11  H   -0.083067   0.551864  -0.074117  -0.033674   0.036180   0.021117
    12  H   -0.025956   0.004194   0.004528   0.407490  -0.006729  -0.007672
    13  H   -0.030441  -0.028735   0.076958   0.404638  -0.003789  -0.006642
    14  H   -0.016425  -0.046983  -0.054117   0.017365   0.459395  -0.045692
    15  H   -0.065193   0.059966  -0.122492   0.016627   0.465934  -0.003069
    16  H   -0.052554   0.010845  -0.019427  -0.001180   0.025636   0.447654
    17  H   -0.073363   0.014961   0.048365  -0.014522  -0.022487   0.553342
    18  H    0.067553  -0.117794  -0.044091  -0.035589   0.056861  -0.179219
    19  H   -0.039133  -0.118659   0.039295  -0.000390   0.032414  -0.074048
    20  H   -0.061230  -0.006908  -0.027739  -0.058991   0.104000  -0.107121
    21  H    0.004402  -0.021940   0.015528  -0.083297  -0.102473   0.065713
    22  H   -0.043902  -0.021562  -0.005590   0.084755  -0.060661  -0.012243
    23  H   -0.005028  -0.108058   0.055294   0.006905   0.039317   0.004903
    24  H   -0.028988   0.104811  -0.085462  -0.026423   0.022784  -0.005280
    25  H    0.026112  -0.067807   0.072745   0.035027  -0.115473   0.008542
    26  H    0.079720  -0.219547   0.177081   0.032741  -0.102317   0.008814
    27  H   -0.006661   0.115592  -0.121900  -0.008486   0.005304  -0.002547
    28  H   -0.037042  -0.022530   0.024859   0.007476  -0.003976   0.020016
               7          8          9         10         11         12
     1  C    0.531559  -1.713707  -0.037824   0.261433  -0.083067  -0.025956
     2  C   -1.736631  -1.023954  -0.704867   0.292834   0.551864   0.004194
     3  C    0.716181  -0.411818   0.306596  -0.427975  -0.074117   0.004528
     4  C    0.175886   0.338376   0.142018   0.000578  -0.033674   0.407490
     5  C    0.250600  -0.245566  -0.111674  -0.418475   0.036180  -0.006729
     6  C   -1.389526  -0.302920   0.101110   0.011239   0.021117  -0.007672
     7  C    7.755179  -0.203613   0.101916  -0.216207  -0.080978  -0.034337
     8  C   -0.203613   8.965403  -0.117185   0.124700  -0.035597   0.005720
     9  C    0.101916  -0.117185   6.550688  -0.656713  -0.039736  -0.006250
    10  C   -0.216207   0.124700  -0.656713   6.700184   0.024231   0.009950
    11  H   -0.080978  -0.035597  -0.039736   0.024231   0.357510   0.003782
    12  H   -0.034337   0.005720  -0.006250   0.009950   0.003782   0.380229
    13  H    0.005220  -0.015753  -0.059552   0.011407   0.006288   0.003300
    14  H    0.032921  -0.033451   0.025508  -0.010126  -0.000670  -0.000106
    15  H    0.000966  -0.048918  -0.001651   0.017980   0.003252  -0.001044
    16  H   -0.078163   0.042206  -0.000810  -0.026297  -0.001813  -0.001770
    17  H   -0.088980  -0.057036   0.006017  -0.002722  -0.000169  -0.001063
    18  H    0.580726   0.040333  -0.000972  -0.019409  -0.008452  -0.003731
    19  H    0.567882  -0.035086   0.019775  -0.040895  -0.003227  -0.003419
    20  H    0.030669   0.487765  -0.000999  -0.001051  -0.000523  -0.004920
    21  H   -0.002559   0.479005   0.002675   0.004041  -0.000900   0.002720
    22  H   -0.023775   0.448885   0.000923  -0.000417  -0.000572   0.000293
    23  H    0.018913  -0.006965   0.417808  -0.057231  -0.004184  -0.001543
    24  H   -0.002742  -0.001983   0.440076  -0.047053   0.002224  -0.000227
    25  H   -0.014773   0.008208   0.361402   0.059791  -0.000526   0.003173
    26  H    0.037945   0.014400   0.039910   0.299629  -0.003861   0.000193
    27  H   -0.007778   0.005946  -0.075818   0.479033   0.002313  -0.000086
    28  H   -0.030435  -0.008170   0.001921   0.408563   0.002287   0.000497
              13         14         15         16         17         18
     1  C   -0.030441  -0.016425  -0.065193  -0.052554  -0.073363   0.067553
     2  C   -0.028735  -0.046983   0.059966   0.010845   0.014961  -0.117794
     3  C    0.076958  -0.054117  -0.122492  -0.019427   0.048365  -0.044091
     4  C    0.404638   0.017365   0.016627  -0.001180  -0.014522  -0.035589
     5  C   -0.003789   0.459395   0.465934   0.025636  -0.022487   0.056861
     6  C   -0.006642  -0.045692  -0.003069   0.447654   0.553342  -0.179219
     7  C    0.005220   0.032921   0.000966  -0.078163  -0.088980   0.580726
     8  C   -0.015753  -0.033451  -0.048918   0.042206  -0.057036   0.040333
     9  C   -0.059552   0.025508  -0.001651  -0.000810   0.006017  -0.000972
    10  C    0.011407  -0.010126   0.017980  -0.026297  -0.002722  -0.019409
    11  H    0.006288  -0.000670   0.003252  -0.001813  -0.000169  -0.008452
    12  H    0.003300  -0.000106  -0.001044  -0.001770  -0.001063  -0.003731
    13  H    0.435641  -0.005971   0.001077  -0.001591  -0.002818  -0.002281
    14  H   -0.005971   0.409634   0.004231  -0.003534  -0.001147   0.000309
    15  H    0.001077   0.004231   0.423820  -0.005187   0.000089  -0.001033
    16  H   -0.001591  -0.003534  -0.005187   0.432034  -0.002295   0.002350
    17  H   -0.002818  -0.001147   0.000089  -0.002295   0.413630  -0.004635
    18  H   -0.002281   0.000309  -0.001033   0.002350  -0.004635   0.427896
    19  H   -0.001691   0.005216   0.000050   0.001955  -0.003237   0.003039
    20  H    0.004363  -0.000361  -0.000059   0.003244  -0.006187   0.003526
    21  H   -0.010690   0.004982  -0.008004  -0.000442   0.000310  -0.000266
    22  H    0.000679  -0.004744   0.003960  -0.000303   0.002508  -0.000246
    23  H    0.000917   0.000797   0.000141   0.000442   0.000212   0.000280
    24  H    0.002146  -0.001198   0.000918  -0.000080  -0.000230   0.000703
    25  H   -0.020154   0.003074  -0.004123   0.000015   0.000534  -0.001913
    26  H    0.001497   0.001407   0.001705  -0.019266   0.001286  -0.001455
    27  H   -0.000089  -0.004691   0.000557   0.003226  -0.000271   0.001189
    28  H    0.001536  -0.000979  -0.000972   0.001038   0.000185  -0.003340
              19         20         21         22         23         24
     1  C   -0.039133  -0.061230   0.004402  -0.043902  -0.005028  -0.028988
     2  C   -0.118659  -0.006908  -0.021940  -0.021562  -0.108058   0.104811
     3  C    0.039295  -0.027739   0.015528  -0.005590   0.055294  -0.085462
     4  C   -0.000390  -0.058991  -0.083297   0.084755   0.006905  -0.026423
     5  C    0.032414   0.104000  -0.102473  -0.060661   0.039317   0.022784
     6  C   -0.074048  -0.107121   0.065713  -0.012243   0.004903  -0.005280
     7  C    0.567882   0.030669  -0.002559  -0.023775   0.018913  -0.002742
     8  C   -0.035086   0.487765   0.479005   0.448885  -0.006965  -0.001983
     9  C    0.019775  -0.000999   0.002675   0.000923   0.417808   0.440076
    10  C   -0.040895  -0.001051   0.004041  -0.000417  -0.057231  -0.047053
    11  H   -0.003227  -0.000523  -0.000900  -0.000572  -0.004184   0.002224
    12  H   -0.003419  -0.004920   0.002720   0.000293  -0.001543  -0.000227
    13  H   -0.001691   0.004363  -0.010690   0.000679   0.000917   0.002146
    14  H    0.005216  -0.000361   0.004982  -0.004744   0.000797  -0.001198
    15  H    0.000050  -0.000059  -0.008004   0.003960   0.000141   0.000918
    16  H    0.001955   0.003244  -0.000442  -0.000303   0.000442  -0.000080
    17  H   -0.003237  -0.006187   0.000310   0.002508   0.000212  -0.000230
    18  H    0.003039   0.003526  -0.000266  -0.000246   0.000280   0.000703
    19  H    0.450593  -0.000112   0.000710  -0.001391   0.002027  -0.000179
    20  H   -0.000112   0.526798  -0.036766  -0.039914  -0.000226   0.000326
    21  H    0.000710  -0.036766   0.533135  -0.043662  -0.000317  -0.000003
    22  H   -0.001391  -0.039914  -0.043662   0.512802   0.000290  -0.000672
    23  H    0.002027  -0.000226  -0.000317   0.000290   0.507680  -0.037953
    24  H   -0.000179   0.000326  -0.000003  -0.000672  -0.037953   0.507555
    25  H    0.000765  -0.000549   0.003625  -0.000621  -0.041662  -0.046481
    26  H   -0.018146  -0.000455  -0.000926   0.002390  -0.002477   0.001317
    27  H   -0.001330  -0.000073  -0.000141   0.000299   0.002313  -0.004708
    28  H   -0.001139  -0.000092   0.000097  -0.000220   0.003394   0.002957
              25         26         27         28
     1  C    0.026112   0.079720  -0.006661  -0.037042
     2  C   -0.067807  -0.219547   0.115592  -0.022530
     3  C    0.072745   0.177081  -0.121900   0.024859
     4  C    0.035027   0.032741  -0.008486   0.007476
     5  C   -0.115473  -0.102317   0.005304  -0.003976
     6  C    0.008542   0.008814  -0.002547   0.020016
     7  C   -0.014773   0.037945  -0.007778  -0.030435
     8  C    0.008208   0.014400   0.005946  -0.008170
     9  C    0.361402   0.039910  -0.075818   0.001921
    10  C    0.059791   0.299629   0.479033   0.408563
    11  H   -0.000526  -0.003861   0.002313   0.002287
    12  H    0.003173   0.000193  -0.000086   0.000497
    13  H   -0.020154   0.001497  -0.000089   0.001536
    14  H    0.003074   0.001407  -0.004691  -0.000979
    15  H   -0.004123   0.001705   0.000557  -0.000972
    16  H    0.000015  -0.019266   0.003226   0.001038
    17  H    0.000534   0.001286  -0.000271   0.000185
    18  H   -0.001913  -0.001455   0.001189  -0.003340
    19  H    0.000765  -0.018146  -0.001330  -0.001139
    20  H   -0.000549  -0.000455  -0.000073  -0.000092
    21  H    0.003625  -0.000926  -0.000141   0.000097
    22  H   -0.000621   0.002390   0.000299  -0.000220
    23  H   -0.041662  -0.002477   0.002313   0.003394
    24  H   -0.046481   0.001317  -0.004708   0.002957
    25  H    0.551861  -0.002616   0.000902  -0.002366
    26  H   -0.002616   0.552328  -0.049400  -0.035115
    27  H    0.000902  -0.049400   0.502670  -0.031333
    28  H   -0.002366  -0.035115  -0.031333   0.477669
 Mulliken charges:
               1
     1  C    0.861525
     2  C    0.682761
     3  C    0.225441
     4  C   -1.046154
     5  C   -1.081678
     6  C   -0.704536
     7  C   -0.896067
     8  C   -0.699226
     9  C   -0.704290
    10  C   -0.781023
    11  H    0.361017
    12  H    0.272785
    13  H    0.234529
    14  H    0.265356
    15  H    0.260470
    16  H    0.244065
    17  H    0.239724
    18  H    0.239661
    19  H    0.218361
    20  H    0.193587
    21  H    0.195443
    22  H    0.202710
    23  H    0.204011
    24  H    0.203844
    25  H    0.183289
    26  H    0.203219
    27  H    0.195967
    28  H    0.225210
 Sum of Mulliken charges =  -0.00000
 Mulliken charges with hydrogens summed into heavy atoms:
               1
     1  C    0.861525
     2  C    1.043778
     3  C    0.225441
     4  C   -0.538840
     5  C   -0.555853
     6  C   -0.220747
     7  C   -0.438045
     8  C   -0.107485
     9  C   -0.113147
    10  C   -0.156626
 Electronic spatial extent (au):  <R**2>=           1407.4756
 Charge=             -0.0000 electrons
 Dipole moment (field-independent basis, Debye):
    X=             -0.0008    Y=              0.0444    Z=              0.0821  Tot=              0.0933
 Quadrupole moment (field-independent basis, Debye-Ang):
   XX=            -67.0119   YY=            -66.3527   ZZ=            -66.1448
   XY=              0.6495   XZ=              0.4492   YZ=              0.0996
 Traceless Quadrupole moment (field-independent basis, Debye-Ang):
   XX=             -0.5088   YY=              0.1504   ZZ=              0.3583
   XY=              0.6495   XZ=              0.4492   YZ=              0.0996
 Octapole moment (field-independent basis, Debye-Ang**2):
  XXX=             -0.2207  YYY=             -1.1299  ZZZ=             -0.9291  XYY=             -0.0282
  XXY=              2.4157  XXZ=              2.4018  XZZ=              0.5523  YZZ=              1.0145
  YYZ=              1.0838  XYZ=             -0.4766
 Hexadecapole moment (field-independent basis, Debye-Ang**3):
 XXXX=          -1074.6411 YYYY=           -575.1674 ZZZZ=           -380.4461 XXXY=              7.1183
 XXXZ=              3.6913 YYYX=              0.3900 YYYZ=             -2.0517 ZZZX=             -1.7355
 ZZZY=              1.2237 XXYY=           -276.3555 XXZZ=           -240.1626 YYZZ=           -158.3901
 XXYZ=              7.6927 YYXZ=              4.1560 ZZXY=              2.0727
 N-N= 5.999271634768D+02 E-N=-2.106450201848D+03  KE= 3.896890807948D+02
 R6APFD:  NTU= -4 IXU= 1 FactS= 1.050
 Calling FoFJK, ICntrl=      2127 FMM=F ISym2X=0 I1Cent= 0 IOpClX= 0 NMat=1 NMatS=1 NMatT=0.
 ***** Axes restored to original set *****
 -------------------------------------------------------------------
 Center     Atomic                   Forces (Hartrees/Bohr)
 Number     Number              X              Y              Z
 -------------------------------------------------------------------
      1        6          -0.013520672    0.009828682   -0.005367353
      2        6           0.005533440    0.001824887    0.010612445
      3        6           0.005776053   -0.011597669   -0.012423739
      4        6           0.006564947   -0.001371916   -0.003470291
      5        6          -0.005546434   -0.003487258    0.006347825
      6        6           0.000930416    0.002791182   -0.002783575
      7        6           0.003916303   -0.005446173    0.004190734
      8        6          -0.000743695    0.000483234   -0.001581693
      9        6          -0.006004454   -0.004597129    0.006254250
     10        6           0.001977425    0.004729112   -0.000772833
     11        1           0.005490564   -0.000905812    0.000689953
     12        1          -0.001783749   -0.000992286    0.000340158
     13        1           0.000054201    0.002911556   -0.000032739
     14        1           0.000455746   -0.000846927   -0.001995523
     15        1          -0.001175682    0.002215473    0.001093726
     16        1          -0.001430165    0.002038658   -0.003175124
     17        1          -0.003178960    0.003219732   -0.001451932
     18        1           0.002542423    0.000049467    0.002436385
     19        1           0.003491907   -0.000121911    0.000042023
     20        1          -0.001616330   -0.001538548    0.000651229
     21        1           0.000867139    0.002155490    0.000251885
     22        1          -0.001305594    0.000597671   -0.002218342
     23        1           0.001970190   -0.001307264    0.000368575
     24        1          -0.000723201   -0.000200511   -0.002288710
     25        1          -0.001547777    0.001287391    0.001698961
     26        1          -0.003297430   -0.001787730    0.001286869
     27        1           0.001176509    0.001954360    0.000223721
     28        1           0.001126882   -0.001885762    0.001073115
 -------------------------------------------------------------------
 Cartesian Forces:  Max     0.013520672 RMS     0.003943091

 GradGradGradGradGradGradGradGradGradGradGradGradGradGradGradGradGradGrad
 Berny optimization.
 FormGI is forming the generalized inverse of G from B-inverse, IUseBI=4.
 Internal  Forces:  Max     0.015699363 RMS     0.002277995
 Search for a local minimum.
 Step number   1 out of a maximum of  168
 All quantities printed in internal units (Hartrees-Bohrs-Radians)
 Mixed Optimization -- RFO/linear search
 Second derivative matrix not updated -- first step.
 ITU=  0
     Eigenvalues ---    0.00230   0.00309   0.00316   0.00587   0.00668
     Eigenvalues ---    0.01664   0.02180   0.02634   0.02961   0.03490
     Eigenvalues ---    0.04051   0.04167   0.04309   0.04530   0.04674
     Eigenvalues ---    0.05102   0.05166   0.05285   0.05352   0.05383
     Eigenvalues ---    0.05412   0.05471   0.05479   0.05655   0.05664
     Eigenvalues ---    0.05791   0.05982   0.06444   0.06735   0.06779
     Eigenvalues ---    0.06799   0.07227   0.07504   0.08291   0.08991
     Eigenvalues ---    0.09928   0.10526   0.11081   0.12508   0.16000
     Eigenvalues ---    0.16000   0.16000   0.16000   0.16000   0.16000
     Eigenvalues ---    0.16000   0.16000   0.16000   0.16381   0.22006
     Eigenvalues ---    0.23475   0.24736   0.25282   0.26021   0.27285
     Eigenvalues ---    0.28308   0.28468   0.28602   0.29011   0.30997
     Eigenvalues ---    0.33949   0.34004   0.34055   0.34105   0.34146
     Eigenvalues ---    0.34160   0.34163   0.34172   0.34185   0.34210
     Eigenvalues ---    0.34215   0.34232   0.34241   0.34271   0.34302
     Eigenvalues ---    0.34323   0.34484   0.34600
 RFO step:  Lambda=-7.01452742D-03 EMin= 2.30000000D-03
 Linear search not attempted -- first point.
 Iteration  1 RMS(Cart)=  0.03320346 RMS(Int)=  0.00049965
 Iteration  2 RMS(Cart)=  0.00057783 RMS(Int)=  0.00026205
 Iteration  3 RMS(Cart)=  0.00000025 RMS(Int)=  0.00026205
 Variable       Old X    -DE/DX   Delta X   Delta X   Delta X     New X
                                 (Linear)    (Quad)   (Total)
    R1        2.89274   0.00573   0.00000   0.01770   0.01752   2.91026
    R2        2.92708  -0.00518   0.00000  -0.01832  -0.01850   2.90858
    R3        2.91977  -0.00122   0.00000  -0.00115  -0.00114   2.91862
    R4        2.86018   0.00361   0.00000   0.01140   0.01140   2.87158
    R5        2.95032  -0.00479   0.00000  -0.01780  -0.01745   2.93287
    R6        2.90238   0.00476   0.00000   0.01804   0.01800   2.92038
    R7        2.91039  -0.00058   0.00000  -0.00473  -0.00479   2.90560
    R8        2.06520   0.00390   0.00000   0.01108   0.01108   2.07628
    R9        2.93513   0.00687   0.00000   0.02330   0.02361   2.95874
   R10        2.89980  -0.00457   0.00000  -0.01538  -0.01538   2.88442
   R11        2.91127  -0.00232   0.00000  -0.00796  -0.00796   2.90331
   R12        2.07084   0.00185   0.00000   0.00530   0.00530   2.07614
   R13        2.06823   0.00252   0.00000   0.00720   0.00720   2.07543
   R14        2.07061   0.00210   0.00000   0.00602   0.00602   2.07662
   R15        2.07323   0.00231   0.00000   0.00666   0.00666   2.07989
   R16        2.90181   0.01570   0.00000   0.05368   0.05346   2.95527
   R17        2.06926   0.00273   0.00000   0.00781   0.00781   2.07707
   R18        2.07153   0.00128   0.00000   0.00369   0.00369   2.07522
   R19        2.07416   0.00057   0.00000   0.00163   0.00163   2.07579
   R20        2.06330   0.00208   0.00000   0.00589   0.00589   2.06919
   R21        2.06977   0.00218   0.00000   0.00626   0.00626   2.07603
   R22        2.06969   0.00220   0.00000   0.00631   0.00631   2.07600
   R23        2.06941   0.00250   0.00000   0.00716   0.00716   2.07657
   R24        2.07020   0.00225   0.00000   0.00644   0.00644   2.07664
   R25        2.07056   0.00115   0.00000   0.00330   0.00330   2.07386
   R26        2.06875   0.00260   0.00000   0.00745   0.00745   2.07619
   R27        2.06788   0.00203   0.00000   0.00579   0.00579   2.07367
   R28        2.07238   0.00168   0.00000   0.00483   0.00483   2.07721
   R29        2.07040   0.00239   0.00000   0.00686   0.00686   2.07727
    A1        1.77857  -0.00377   0.00000  -0.03448  -0.03479   1.74377
    A2        1.77602  -0.00074   0.00000  -0.00706  -0.00788   1.76814
    A3        2.01560   0.00292   0.00000   0.03015   0.03017   2.04577
    A4        1.90113  -0.00157   0.00000  -0.02359  -0.02405   1.87708
    A5        1.98429   0.00191   0.00000   0.01244   0.01290   1.99719
    A6        1.98626   0.00048   0.00000   0.01441   0.01437   2.00064
    A7        1.78844  -0.00204   0.00000  -0.01396  -0.01404   1.77440
    A8        1.94754  -0.00141   0.00000  -0.02261  -0.02260   1.92494
    A9        1.98607   0.00004   0.00000  -0.01097  -0.01089   1.97519
   A10        1.74591  -0.00039   0.00000  -0.00373  -0.00409   1.74181
   A11        1.99978   0.00279   0.00000   0.03537   0.03522   2.03500
   A12        1.97454   0.00075   0.00000   0.01484   0.01440   1.98895
   A13        1.77716   0.00099   0.00000   0.00771   0.00688   1.78404
   A14        1.99304  -0.00533   0.00000  -0.06711  -0.06747   1.92556
   A15        1.93158   0.00280   0.00000   0.03427   0.03428   1.96587
   A16        1.94903   0.00022   0.00000  -0.00615  -0.00681   1.94222
   A17        1.93445  -0.00041   0.00000   0.01665   0.01596   1.95041
   A18        1.87850   0.00171   0.00000   0.01561   0.01632   1.89481
   A19        1.62900   0.00416   0.00000   0.03696   0.03705   1.66605
   A20        1.97989  -0.00120   0.00000  -0.01239  -0.01251   1.96738
   A21        1.98010  -0.00230   0.00000  -0.01847  -0.01882   1.96128
   A22        1.97698  -0.00120   0.00000  -0.00514  -0.00507   1.97191
   A23        1.98455  -0.00058   0.00000   0.00222   0.00245   1.98700
   A24        1.90337   0.00118   0.00000  -0.00021  -0.00045   1.90292
   A25        1.80358   0.00292   0.00000   0.02136   0.02185   1.82543
   A26        1.95013   0.00045   0.00000  -0.00152  -0.00190   1.94823
   A27        1.92517  -0.00279   0.00000  -0.01575  -0.01571   1.90946
   A28        1.97541  -0.00199   0.00000  -0.01210  -0.01210   1.96331
   A29        1.93499   0.00047   0.00000   0.00542   0.00524   1.94023
   A30        1.87509   0.00086   0.00000   0.00234   0.00238   1.87747
   A31        1.79709   0.00071   0.00000   0.01680   0.01679   1.81388
   A32        1.95861  -0.00126   0.00000  -0.01989  -0.02015   1.93846
   A33        1.95274  -0.00256   0.00000  -0.03223  -0.03282   1.91992
   A34        1.95256   0.00132   0.00000   0.01937   0.01937   1.97193
   A35        1.91885   0.00222   0.00000   0.02853   0.02892   1.94777
   A36        1.88409  -0.00032   0.00000  -0.01042  -0.01158   1.87251
   A37        1.79679  -0.00053   0.00000  -0.00144  -0.00158   1.79520
   A38        1.91430  -0.00127   0.00000  -0.01557  -0.01547   1.89884
   A39        2.01071  -0.00157   0.00000  -0.02586  -0.02600   1.98471
   A40        1.90742   0.00220   0.00000   0.03169   0.03152   1.93895
   A41        1.97624   0.00123   0.00000   0.01054   0.01055   1.98679
   A42        1.85736   0.00007   0.00000   0.00280   0.00204   1.85940
   A43        1.93966  -0.00064   0.00000  -0.00355  -0.00354   1.93612
   A44        1.93992  -0.00061   0.00000  -0.00323  -0.00323   1.93669
   A45        1.93567   0.00130   0.00000   0.00711   0.00712   1.94279
   A46        1.87791   0.00082   0.00000   0.00616   0.00616   1.88407
   A47        1.88407  -0.00045   0.00000  -0.00344  -0.00343   1.88064
   A48        1.88418  -0.00044   0.00000  -0.00311  -0.00310   1.88108
   A49        1.93427   0.00026   0.00000   0.00271   0.00267   1.93694
   A50        1.94126  -0.00308   0.00000  -0.02125  -0.02129   1.91997
   A51        1.94891   0.00011   0.00000   0.00233   0.00230   1.95121
   A52        1.88553   0.00109   0.00000   0.00339   0.00335   1.88888
   A53        1.87547   0.00047   0.00000   0.00813   0.00811   1.88358
   A54        1.87543   0.00132   0.00000   0.00576   0.00573   1.88116
   A55        1.97454  -0.00350   0.00000  -0.02253  -0.02260   1.95195
   A56        1.92942  -0.00088   0.00000  -0.00102  -0.00100   1.92842
   A57        1.93806   0.00076   0.00000   0.00177   0.00169   1.93976
   A58        1.84625   0.00288   0.00000   0.02224   0.02227   1.86852
   A59        1.89456   0.00061   0.00000  -0.00381  -0.00395   1.89061
   A60        1.87626   0.00041   0.00000   0.00542   0.00542   1.88168
    D1       -0.98578   0.00128   0.00000   0.00288   0.00277  -0.98301
    D2       -3.03078   0.00083   0.00000  -0.00688  -0.00693  -3.03771
    D3        1.06783   0.00212   0.00000   0.01921   0.01893   1.08676
    D4        0.97750  -0.00180   0.00000  -0.03532  -0.03525   0.94224
    D5       -1.06751  -0.00226   0.00000  -0.04508  -0.04495  -1.11246
    D6        3.03110  -0.00096   0.00000  -0.01900  -0.01910   3.01201
    D7        3.13778  -0.00007   0.00000  -0.00525  -0.00516   3.13262
    D8        1.09277  -0.00053   0.00000  -0.01501  -0.01485   1.07792
    D9       -1.09180   0.00077   0.00000   0.01108   0.01100  -1.08080
   D10        0.63776  -0.00090   0.00000   0.01064   0.01066   0.64842
   D11        2.76721  -0.00125   0.00000   0.00853   0.00869   2.77590
   D12       -1.43146  -0.00173   0.00000  -0.00001   0.00012  -1.43134
   D13       -1.22984   0.00202   0.00000   0.04071   0.04029  -1.18955
   D14        0.89962   0.00167   0.00000   0.03860   0.03831   0.93793
   D15        2.98413   0.00119   0.00000   0.03005   0.02975   3.01388
   D16        2.81837   0.00119   0.00000   0.03117   0.03100   2.84937
   D17       -1.33536   0.00084   0.00000   0.02906   0.02902  -1.30634
   D18        0.74915   0.00036   0.00000   0.02051   0.02046   0.76961
   D19       -0.56962   0.00286   0.00000   0.04364   0.04345  -0.52616
   D20       -2.67214   0.00149   0.00000   0.02037   0.02056  -2.65157
   D21        1.49007   0.00467   0.00000   0.07164   0.07112   1.56118
   D22        1.29971  -0.00213   0.00000  -0.00509  -0.00517   1.29454
   D23       -0.80281  -0.00350   0.00000  -0.02835  -0.02806  -0.83087
   D24       -2.92379  -0.00032   0.00000   0.02291   0.02249  -2.90130
   D25       -2.74960  -0.00050   0.00000   0.00333   0.00325  -2.74635
   D26        1.43106  -0.00186   0.00000  -0.01994  -0.01964   1.41143
   D27       -0.68992   0.00132   0.00000   0.03133   0.03092  -0.65900
   D28       -1.04496  -0.00109   0.00000  -0.01422  -0.01423  -1.05919
   D29        1.04604  -0.00088   0.00000  -0.01095  -0.01096   1.03508
   D30       -3.14089  -0.00097   0.00000  -0.01227  -0.01228   3.13001
   D31       -3.09229   0.00031   0.00000  -0.00008  -0.00018  -3.09247
   D32       -1.00129   0.00052   0.00000   0.00318   0.00309  -0.99820
   D33        1.09496   0.00044   0.00000   0.00187   0.00177   1.09673
   D34        1.00049   0.00045   0.00000   0.00970   0.00981   1.01030
   D35        3.09149   0.00066   0.00000   0.01297   0.01308   3.10456
   D36       -1.09544   0.00058   0.00000   0.01165   0.01176  -1.08369
   D37       -0.61335   0.00290   0.00000   0.04276   0.04241  -0.57094
   D38        1.48991   0.00110   0.00000   0.00623   0.00630   1.49622
   D39       -2.67049   0.00163   0.00000   0.00444   0.00389  -2.66660
   D40        1.24059   0.00101   0.00000   0.02409   0.02395   1.26454
   D41       -2.93933  -0.00080   0.00000  -0.01243  -0.01216  -2.95149
   D42       -0.81655  -0.00027   0.00000  -0.01423  -0.01457  -0.83111
   D43       -2.78225   0.00084   0.00000   0.01498   0.01486  -2.76738
   D44       -0.67899  -0.00097   0.00000  -0.02155  -0.02124  -0.70023
   D45        1.44380  -0.00044   0.00000  -0.02334  -0.02365   1.42015
   D46        0.98210  -0.00137   0.00000  -0.01596  -0.01584   0.96626
   D47        3.02955  -0.00092   0.00000  -0.01238  -0.01224   3.01731
   D48       -1.06779  -0.00079   0.00000  -0.01513  -0.01507  -1.08286
   D49       -1.02408   0.00086   0.00000   0.01353   0.01348  -1.01060
   D50        1.02337   0.00131   0.00000   0.01710   0.01708   1.04045
   D51       -3.07397   0.00144   0.00000   0.01435   0.01425  -3.05972
   D52       -3.14131  -0.00115   0.00000  -0.01908  -0.01925   3.12263
   D53       -1.09386  -0.00070   0.00000  -0.01551  -0.01564  -1.10950
   D54        1.09199  -0.00056   0.00000  -0.01825  -0.01848   1.07351
   D55       -1.18171   0.00125   0.00000   0.01851   0.01815  -1.16356
   D56        3.07264  -0.00046   0.00000  -0.01035  -0.01041   3.06223
   D57        0.97808   0.00148   0.00000   0.01540   0.01511   0.99319
   D58        0.69989  -0.00165   0.00000  -0.00596  -0.00612   0.69377
   D59       -1.32895  -0.00336   0.00000  -0.03482  -0.03468  -1.36363
   D60        2.85968  -0.00142   0.00000  -0.00907  -0.00917   2.85051
   D61        2.83510   0.00178   0.00000   0.04090   0.04074   2.87584
   D62        0.80626   0.00007   0.00000   0.01204   0.01218   0.81844
   D63       -1.28830   0.00202   0.00000   0.03780   0.03770  -1.25060
   D64       -0.01363  -0.00153   0.00000  -0.03313  -0.03380  -0.04744
   D65       -2.12605  -0.00288   0.00000  -0.03854  -0.03894  -2.16499
   D66        2.04876  -0.00293   0.00000  -0.03704  -0.03733   2.01142
   D67       -2.14742   0.00409   0.00000   0.04487   0.04468  -2.10274
   D68        2.02335   0.00274   0.00000   0.03946   0.03954   2.06289
   D69       -0.08503   0.00268   0.00000   0.04096   0.04115  -0.04388
   D70        2.04144   0.00206   0.00000   0.01791   0.01753   2.05897
   D71       -0.07098   0.00071   0.00000   0.01250   0.01239  -0.05858
   D72       -2.17935   0.00065   0.00000   0.01400   0.01400  -2.16535
   D73        1.10545   0.00177   0.00000   0.04468   0.04433   1.14978
   D74       -3.07983   0.00127   0.00000   0.03662   0.03628  -3.04355
   D75       -0.98484   0.00093   0.00000   0.03101   0.03067  -0.95418
   D76        3.10995  -0.00027   0.00000   0.00698   0.00745   3.11740
   D77       -1.07532  -0.00077   0.00000  -0.00109  -0.00061  -1.07593
   D78        1.01966  -0.00111   0.00000  -0.00670  -0.00622   1.01344
   D79       -1.04633   0.00049   0.00000   0.03423   0.03409  -1.01224
   D80        1.05158  -0.00001   0.00000   0.02617   0.02604   1.07762
   D81       -3.13662  -0.00035   0.00000   0.02056   0.02042  -3.11619
   D82        1.19698   0.00126   0.00000   0.00028   0.00052   1.19750
   D83       -3.01933   0.00200   0.00000   0.01303   0.01323  -3.00610
   D84       -0.93836   0.00243   0.00000   0.02028   0.02045  -0.91791
   D85       -0.76137  -0.00128   0.00000  -0.03778  -0.03793  -0.79931
   D86        1.30551  -0.00054   0.00000  -0.02503  -0.02523   1.28028
   D87       -2.89671  -0.00011   0.00000  -0.01778  -0.01801  -2.91471
   D88       -2.89731  -0.00241   0.00000  -0.05065  -0.05062  -2.94793
   D89       -0.83043  -0.00167   0.00000  -0.03790  -0.03792  -0.86834
   D90        1.25054  -0.00124   0.00000  -0.03064  -0.03069   1.21985
   D91       -0.08063  -0.00078   0.00000  -0.02346  -0.02375  -0.10438
   D92        1.95311  -0.00155   0.00000  -0.02833  -0.02858   1.92453
   D93       -2.26307   0.00081   0.00000   0.00331   0.00333  -2.25974
   D94        2.02603  -0.00118   0.00000  -0.02719  -0.02741   1.99862
   D95       -2.22341  -0.00195   0.00000  -0.03206  -0.03225  -2.25566
   D96       -0.15641   0.00040   0.00000  -0.00042  -0.00033  -0.15674
   D97       -2.16398   0.00076   0.00000  -0.00853  -0.00870  -2.17268
   D98       -0.13024  -0.00001   0.00000  -0.01340  -0.01354  -0.14377
   D99        1.93676   0.00235   0.00000   0.01824   0.01838   1.95514
         Item               Value     Threshold  Converged?
 Maximum Force            0.015699     0.000450     NO 
 RMS     Force            0.002278     0.000300     NO 
 Maximum Displacement     0.153835     0.001800     NO 
 RMS     Displacement     0.033369     0.001200     NO 
 Predicted change in Energy=-3.795417D-03
 GradGradGradGradGradGradGradGradGradGradGradGradGradGradGradGradGradGrad

                          Input orientation:                          
 ---------------------------------------------------------------------
 Center     Atomic      Atomic             Coordinates (Angstroms)
 Number     Number       Type             X           Y           Z
 ---------------------------------------------------------------------
      1          6           0       -1.221116    0.375197   -0.137912
      2          6           0        0.502014   -0.663938    0.940846
      3          6           0        1.230066    0.215856   -0.110169
      4          6           0       -0.708944    0.223812    1.306556
      5          6           0        0.038270    0.955255   -0.806102
      6          6           0       -1.340848   -1.101843   -0.573112
      7          6           0       -0.226357   -1.828074    0.249179
      8          6           0       -2.479831    1.200697   -0.345992
      9          6           0        2.166269    1.203054    0.581766
     10          6           0        2.047858   -0.614090   -1.111582
     11          1           0        1.152609   -0.974375    1.770026
     12          1           0       -1.430421   -0.283468    1.961660
     13          1           0       -0.433508    1.187504    1.755593
     14          1           0        0.026438    0.802119   -1.894216
     15          1           0        0.082452    2.039756   -0.623652
     16          1           0       -1.209165   -1.205558   -1.659394
     17          1           0       -2.339799   -1.486082   -0.327333
     18          1           0       -0.663426   -2.479102    1.018434
     19          1           0        0.430370   -2.460115   -0.357609
     20          1           0       -3.330131    0.762879    0.194565
     21          1           0       -2.340568    2.228111    0.017167
     22          1           0       -2.750839    1.254613   -1.409557
     23          1           0        2.987105    0.677310    1.089132
     24          1           0        2.601966    1.888008   -0.156731
     25          1           0        1.638607    1.808994    1.331094
     26          1           0        1.403181   -1.202637   -1.776535
     27          1           0        2.655560    0.042727   -1.749984
     28          1           0        2.729388   -1.302813   -0.592436
 ---------------------------------------------------------------------
                    Distance matrix (angstroms):
                    1          2          3          4          5
     1  C    0.000000
     2  C    2.283133   0.000000
     3  C    2.456513   1.552009   0.000000
     4  C    1.540041   1.545401   2.401445   0.000000
     5  C    1.539155   2.426658   1.565698   2.357257   0.000000
     6  C    1.544469   2.424865   2.925790   2.385334   2.487550
     7  C    2.448222   1.537576   2.535340   2.358214   2.988405
     8  C    1.519576   3.744892   3.845629   2.611754   2.571532
     9  C    3.560570   2.526725   1.526371   3.122673   2.552638
    10  C    3.551467   2.569938   1.536366   3.761573   2.567996
    11  H    3.331087   1.098719   2.226608   2.261821   3.406120
    12  H    2.210396   2.218360   3.408811   1.098646   3.369272
    13  H    2.205795   2.228643   2.681911   1.098272   2.615109
    14  H    2.196192   3.226929   2.230527   3.334692   1.098901
    15  H    2.169330   3.151769   2.215242   2.765803   1.100629
    16  H    2.194046   3.159547   3.220306   3.330192   2.636914
    17  H    2.179838   3.218711   3.960769   2.872807   3.441592
    18  H    3.129725   2.158493   3.481646   2.718608   3.951723
    19  H    3.288566   2.217514   2.803848   3.357223   3.466935
    20  H    2.169973   4.156690   4.602988   2.897885   3.519157
    21  H    2.170371   4.159014   4.100587   2.888240   2.820781
    22  H    2.174973   4.448178   4.314515   3.550938   2.869304
    23  H    4.393863   2.827828   2.176797   3.730109   3.516361
    24  H    4.111558   3.482370   2.163416   3.984078   2.804327
    25  H    3.520194   2.749460   2.186832   2.832737   2.803133
    26  H    3.472979   2.913152   2.195191   4.000160   2.731523
    27  H    4.211642   3.518196   2.179678   4.549189   2.928110
    28  H    4.316109   2.778545   2.187899   4.214129   3.519466
                    6          7          8          9         10
     6  C    0.000000
     7  C    1.563862   0.000000
     8  C    2.578868   3.821758   0.000000
     9  C    4.352719   3.875953   4.737825   0.000000
    10  C    3.465715   2.915044   4.937565   2.486656   0.000000
    11  H    3.424013   2.223359   4.733190   2.679676   3.038904
    12  H    2.665113   2.601571   2.937561   4.129169   4.653230
    13  H    3.389284   3.377264   2.933304   2.852534   4.198049
    14  H    2.690699   3.402347   2.972751   3.296985   2.589267
    15  H    3.449346   3.977098   2.710426   2.548606   3.338233
    16  H    1.099139   2.235193   3.021536   4.713572   3.355314
    17  H    1.098157   2.217197   2.690491   5.325651   4.541690
    18  H    2.211054   1.098463   4.324570   4.664346   3.919987
    19  H    2.242444   1.094968   4.676639   4.161079   2.567596
    20  H    2.832625   4.043444   1.098588   5.527575   5.703055
    21  H    3.526537   4.579995   1.098570   4.656295   5.348875
    22  H    2.870645   4.315945   1.098874   5.305278   5.158327
    23  H    4.965845   4.160386   5.676346   1.098908   2.719015
    24  H    4.965719   4.687583   5.131557   1.097438   2.734826
    25  H    4.579970   4.228108   4.488226   1.098673   3.464894
[...]
 918,0.00006435,-0.00026662,0.00043717,0.00010313,-0.00018469,-0.000101
 23,-0.00013180,0.00008642,-0.00001930,0.00005200,-0.00006741,0.0000683
 6,-0.00007635,0.00117360,0.01580123,0.00510534,0.01226361,0.08730054,0
 .07539274,-0.00650471,-0.00035722,-0.02945991,-0.00055833,0.00032500,-
 0.00179195,0.00018068,0.00038894,-0.00017253,-0.00391267,0.00309846,0.
 00166369,0.00172763,-0.00063193,-0.00061454,0.00109421,-0.00095783,0.0
 0014430,-0.00028894,-0.00036462,0.00000354,-0.05930211,0.00157945,-0.0
 5749609,0.00008532,-0.00014552,0.00005294,-0.00003220,-0.00007342,0.00
 008511,-0.00050275,0.00042028,0.00026222,0.00001737,0.00019673,-0.0002
 0406,0.00011017,-0.00012776,0.00020457,-0.00029515,0.00010331,0.000606
 19,-0.00007276,-0.00009919,0.00000202,-0.00003318,0.00039842,0.0003784
 2,-0.00004853,0.00011746,0.00019456,0.00006203,-0.00004075,0.00005449,
 0.00004793,0.00005170,0.00006464,0.00624762,0.00013989,0.02428323,-0.0
 0214565,0.00038048,-0.00371365,0.06408363,0.00326925,-0.00121187,0.019
 37011,0.00068916,0.00018521,0.00108228,-0.00018773,-0.00030531,0.00007
 595,0.00278437,-0.00154953,-0.00090435,-0.00069483,0.00038727,-0.00020
 184,-0.00071126,0.00111260,0.00046587,-0.00004814,0.00020411,0.0000579
 3,0.00164435,-0.04597529,0.00750730,-0.00002354,0.00004720,-0.00005344
 ,0.00003831,0.00005255,-0.00000739,0.00033888,-0.00026899,-0.00016837,
 -0.00016472,0.00008558,-0.00028992,0.00029266,0.00007226,0.00028992,0.
 00015657,0.00018472,-0.00024946,0.00005373,-0.00010327,-0.00021497,0.0
 0018341,-0.00001351,-0.00036299,-0.00024854,-0.00011522,0.00012307,-0.
 00006310,0.00005527,-0.00006374,-0.00004224,-0.00000005,-0.00005485,0.
 00394210,-0.00132827,0.01292893,-0.00670528,0.00212783,-0.02961579,-0.
 00447215,0.04641345,-0.00085386,0.00021966,-0.00441265,0.00012094,-0.0
 0023644,-0.00040132,-0.00013618,0.00034036,-0.00005928,-0.00066582,0.0
 0067898,0.00198434,0.00019002,-0.00001833,0.00067906,0.00007242,-0.000
 17654,0.00071713,-0.00032842,0.00008390,-0.00002750,-0.05731285,0.0073
 8612,-0.29254133,0.00000649,-0.00004097,0.00001359,-0.00003324,-0.0000
 5938,0.00001102,-0.00006964,0.00007966,0.00012816,0.00015438,-0.000111
 25,0.00014866,0.00012850,-0.00007771,0.00008183,-0.00071894,-0.0000677
 2,0.00009416,-0.00010989,0.00004523,-0.00010384,-0.00022966,0.00062361
 ,-0.00003064,-0.00004144,0.00021045,-0.00018226,0.00003191,-0.00001669
 ,0.00001451,0.00001914,0.00004833,0.00004792,-0.00410466,-0.00045798,-
 0.01396135,-0.00144568,0.00117099,-0.00888048,0.06535356,-0.00967208,0
 .31659352,-0.00006570,0.00051451,-0.00079867,0.00036309,0.00145531,-0.
 00101041,-0.01603474,0.01079610,-0.00822527,-0.00007333,0.00021953,0.0
 0037563,-0.00114155,-0.00303036,-0.00168263,0.00005422,0.00016500,0.00
 010346,0.00022832,-0.00027161,0.00018882,-0.00016990,-0.00023263,0.000
 23925,-0.19556883,0.09847075,-0.08135134,0.00058224,0.00089714,0.00093
 021,-0.00024348,-0.00074231,0.00089006,-0.00009369,-0.00013991,-0.0000
 2052,0.00005504,-0.00020327,-0.00014776,-0.00098736,-0.00001085,-0.000
 41406,0.00032561,-0.00041568,0.00007652,0.00003747,0.00002433,0.000035
 33,0.00000820,-0.00008653,0.00005677,-0.00001642,-0.00005817,-0.000001
 00,0.00000885,-0.00003270,-0.00002377,-0.00014289,0.00004208,0.0000303
 1,0.00003552,-0.00000903,-0.00000479,0.00005915,-0.00002342,-0.0000042
 3,0.21308054,-0.00048967,0.00063024,-0.00024083,0.00042685,0.00118103,
 -0.00057517,-0.01635933,0.00977912,-0.00904365,0.00002382,-0.00019683,
 -0.00013999,-0.00205575,-0.00246797,-0.00197613,0.00015178,0.00005784,
 -0.00001179,0.00008182,0.00008928,-0.00016902,-0.00016793,-0.00015471,
 0.00012879,0.09906006,-0.11129120,0.05412455,-0.00064549,0.00120123,0.
 00021175,0.00017656,-0.00010917,0.00026269,0.00003594,0.00009454,0.000
 04835,-0.00000282,0.00007992,0.00014873,-0.00057584,0.00036395,-0.0001
 7869,-0.00021585,0.00037497,-0.00004782,0.00000462,0.00000840,0.000008
 92,0.00002016,0.00004752,-0.00000305,0.00006690,0.00002966,0.00001910,
 -0.00000723,-0.00000793,0.00000910,-0.00006848,0.00005787,0.00001339,-
 0.00000931,0.00002067,0.00000876,0.00003253,-0.00001257,0.00000670,-0.
 10617109,0.11864295,-0.00023425,0.00043981,-0.00093850,0.00086105,0.00
 005344,0.00019143,-0.01104763,0.00806515,-0.00736078,0.00037036,-0.000
 28052,-0.00029816,-0.00201645,-0.00259770,0.00005308,-0.00001895,0.000
 07957,0.00006851,0.00001218,0.00002520,0.00002902,-0.00016130,-0.00021
 467,0.00021302,-0.08116876,0.05345177,-0.09110571,-0.00030978,0.000900
 28,0.00041807,-0.00000715,0.00002604,0.00030072,0.00008158,0.00008727,
 0.00012981,-0.00000674,0.00022513,0.00010463,-0.00031975,0.00019559,-0
 .00020359,0.00020717,-0.00023222,0.00003453,-0.00000136,0.00002713,-0.
 00000666,-0.00001339,-0.00007908,0.00000213,-0.00000085,-0.00004423,-0
 .00001669,-0.00000070,-0.00005460,-0.00001585,-0.00012374,0.00005762,0
 .00002144,0.00000988,0.00002271,-0.00000988,0.00003771,-0.00000464,0.0
 0000972,0.09245022,-0.05739257,0.09639008,0.00010075,0.00016194,0.0004
 1831,-0.00190763,-0.00250616,-0.00346634,-0.00961721,-0.01346954,0.014
 17540,0.00041372,-0.00010519,-0.00006698,0.00140575,-0.00076624,0.0006
 4431,0.00036568,0.00001875,-0.00001851,-0.00051998,-0.00052174,0.00131
 786,0.00001283,0.00003203,-0.00010463,-0.08002605,-0.06132029,0.063805
 89,-0.00001151,0.00111330,0.00053004,0.00014094,0.00001577,0.00013964,
 -0.00007937,0.00000798,-0.00004647,0.00013728,-0.00010157,-0.00006101,
 -0.00005389,0.00004797,-0.00008492,-0.00063324,0.00089432,0.00008939,-
 0.00002582,-0.00002354,-0.00006882,-0.00000467,0.00009808,0.00000559,-
 0.00030452,-0.00038995,-0.00024695,0.00006461,0.00000022,-0.00005757,0
 .00004698,0.00000223,-0.00000349,-0.00002303,0.00002277,0.00003425,-0.
 00004354,0.00000662,-0.00002478,0.00989337,0.01583788,-0.01662522,0.08
 638291,0.00005275,0.00008825,0.00013550,-0.00189072,-0.00244936,-0.003
 54490,-0.00786823,-0.01440729,0.01470509,0.00034486,-0.00028669,-0.000
 11259,0.00131177,0.00055030,-0.00019467,0.00012088,0.00000805,0.000081
 68,-0.00069899,-0.00015643,0.00131441,0.00001262,0.00002655,-0.0000514
 2,-0.06158285,-0.15473386,0.11297230,-0.00029973,0.00036476,0.00157620
 ,0.00017810,0.00021919,-0.00036734,-0.00009866,0.00009518,0.00004021,-
 0.00012064,0.00022630,0.00006351,-0.00023508,0.00006193,-0.00011915,-0
 .00018968,0.00039710,-0.00018623,-0.00003275,0.00002869,-0.00007030,-0
 .00004265,0.00005126,-0.00005053,-0.00029556,-0.00038859,-0.00020449,0
 .00008496,-0.00001810,-0.00002196,0.00001048,-0.00001475,0.00000276,-0
 .00000692,0.00002045,0.00000487,-0.00001897,0.00000622,-0.00001618,-0.
 00645371,-0.01004270,0.00925265,0.07091831,0.16878563,0.00015983,-0.00
 005453,-0.00005795,-0.00154071,-0.00180818,-0.00119522,-0.00611288,-0.
 01053751,0.00906139,0.00003450,-0.00011519,-0.00007098,0.00059140,-0.0
 0013429,0.00105223,0.00009882,-0.00005984,0.00020007,-0.00046802,-0.00
 061497,0.00057661,0.00000702,0.00005048,0.00001817,0.06433115,0.113846
 07,-0.16199602,-0.00050284,-0.00012357,0.00116205,0.00003594,-0.000352
 23,0.00021029,-0.00000241,0.00008236,0.00005681,-0.00019717,0.00024765
 ,0.00004647,0.00019390,-0.00010704,-0.00002679,0.00044446,0.00017430,0
 .00015898,0.00000170,0.00003677,0.00002400,0.00004423,-0.00001588,0.00
 003124,-0.00021157,-0.00019637,-0.00005515,0.00003593,0.00007348,0.000
 07673,0.00001321,-0.00001318,-0.00000994,0.00000066,-0.00001004,-0.000
 02066,0.00001530,-0.00000659,0.00002114,0.00534070,0.00660570,-0.00860
 345,-0.06900282,-0.12218750,0.17380400,-0.00010144,-0.00029483,-0.0000
 1074,0.00090764,0.00047275,0.00039239,0.00967358,-0.00971072,-0.015142
 01,-0.00093165,-0.00050151,-0.00021025,0.00140057,-0.00039699,0.000213
 60,-0.00005787,0.00004166,-0.00002716,0.00006005,0.00022072,-0.0001658
 2,0.00003509,0.00004166,0.00002050,-0.10614640,0.06535067,0.08997551,-
 0.00219527,-0.00255140,-0.00171488,0.00002671,0.00021616,0.00019072,0.
 00015626,0.00019705,0.00004784,-0.00269945,-0.00098185,0.00057532,0.00
 013787,0.00006566,0.00016981,0.00007381,0.00041913,0.00007245,0.000010
 29,0.00001884,0.00002535,-0.00000152,-0.00000648,-0.00000543,0.0000372
 7,0.00006060,0.00001641,0.00002318,0.00007188,0.00000983,0.00002512,-0
 .00000353,-0.00000188,-0.00000801,0.00000943,0.00000357,0.00001379,-0.
 00000321,0.00001522,-0.01081200,0.01041085,0.01759488,-0.00624314,0.00
 626305,0.00662621,0.11587935,-0.00003944,0.00035709,-0.00027844,0.0009
 0184,0.00040985,-0.00078972,0.01111194,-0.01144221,-0.01411120,-0.0002
 5753,-0.00047958,-0.00018736,0.00047526,-0.00005690,0.00112166,0.00005
 214,-0.00002185,0.00015767,0.00010152,-0.00000821,0.00008780,-0.000073
 85,-0.00002171,0.00013405,0.06439539,-0.11433381,-0.09559960,-0.004172
 46,-0.00228569,-0.00176654,0.00016682,-0.00027697,0.00025258,0.0000886
 2,0.00024618,0.00017170,-0.00093730,0.00068306,0.00026035,0.00013769,0
 .00006417,0.00006320,-0.00020096,0.00028517,0.00017053,0.00006363,0.00
 005480,0.00011070,-0.00000057,-0.00000975,0.00002749,-0.00005472,-0.00
 000041,0.00004337,0.00006100,0.00018175,0.00002673,-0.00005037,0.00000
 870,-0.00000877,-0.00000386,0.00000371,-0.00002137,0.00004832,-0.00002
 323,0.00003313,0.00621446,-0.00819777,-0.01140801,-0.01029577,0.011411
 37,0.01509503,-0.06837256,0.12355559,-0.00001327,0.00033792,0.00002004
 ,0.00051303,0.00049817,0.00005798,0.00762396,-0.00651881,-0.01082344,0
 .00037658,-0.00035057,-0.00016262,0.00077436,-0.00099460,0.00041288,0.
 00018827,-0.00006828,0.00003561,-0.00005053,-0.00000836,-0.00004240,-0
 .00005710,-0.00005602,0.00004275,0.08878300,-0.09582984,-0.17938710,-0
 .00295405,-0.00169256,-0.00111280,-0.00029275,-0.00014096,-0.00000366,
 0.00004084,0.00029099,0.00017411,0.00060761,0.00070285,0.00053730,0.00
 018451,0.00031200,0.00019114,-0.00050574,0.00075899,-0.00047091,0.0000
 4043,0.00002450,0.00004292,-0.00001361,0.00005417,0.00000796,-0.000070
 82,-0.00001448,0.00004255,-0.00000521,0.00012741,-0.00000010,-0.000010
 01,0.00003335,-0.00000354,-0.00003518,0.00005551,0.00000356,0.00001747
 ,0.00000551,0.00001981,-0.00690975,0.00765282,0.01068077,0.00910171,-0
 .01160136,-0.01434395,-0.09772224,0.10745906,0.19389563,0.00018810,0.0
 0008738,-0.00002026,0.00057518,-0.00041697,-0.00062561,0.01072594,0.01
 029398,0.00941226,0.00022164,0.00002452,-0.00024735,0.00111095,0.00036
 830,0.00031270,-0.00020840,-0.00027089,0.00066877,-0.00104823,-0.00151
 382,0.00121023,0.00005543,0.00002839,-0.00006026,-0.00147370,0.0017681
 8,0.00236725,-0.14292133,-0.08727754,-0.09370277,-0.00002070,-0.000020
 99,-0.00000859,0.00005292,-0.00006481,-0.00004245,0.00002414,-0.000000
 90,-0.00005750,0.00011571,0.00009177,-0.00024441,0.00003800,-0.0001604
 3,0.00002073,-0.00081604,0.00001406,-0.00030725,0.00010413,-0.00003666
 ,-0.00006525,-0.00015431,0.00030573,0.00012191,-0.00086070,-0.00056881
 ,0.00126811,0.00002731,-0.00002586,0.00000699,0.00000373,-0.00001636,-
 0.00000120,0.00000158,0.00000093,0.00000979,0.00011471,-0.00002826,0.0
 0032238,-0.00008362,0.00016925,-0.00003411,0.00081971,0.00064720,0.000
 56583,0.15505254,0.00028675,-0.00001313,0.00002789,0.00002851,-0.00034
 678,0.00051839,-0.01088633,-0.01083433,-0.00879712,-0.00023514,-0.0000
 4202,-0.00003542,-0.00100894,0.00063203,-0.00104525,0.00005058,-0.0002
 8720,-0.00021330,-0.00095042,-0.00027800,0.00101606,0.00000686,-0.0000
 0080,-0.00000916,0.00326603,-0.00178658,-0.00291427,-0.08643979,-0.123
 12600,-0.08331160,-0.00000388,-0.00000526,0.00001184,0.00010257,0.0000
 1084,0.00003557,-0.00004165,0.00003984,0.00002998,0.00065876,-0.000776
 07,0.00073370,-0.00019369,0.00022953,0.00036671,0.00031368,0.00013350,
 0.00013305,-0.00001910,-0.00001853,0.00020286,-0.00002643,0.00015485,0
 .00021391,-0.00114345,-0.00061147,0.00170553,-0.00000886,-0.00001267,0
 .00000639,-0.00000305,0.00001040,0.00000388,0.00003275,-0.00001323,0.0
 0002169,-0.00013910,0.00015563,0.00001373,0.00018936,0.00042394,0.0001
 7272,-0.00079941,-0.00065684,-0.00096594,0.09557388,0.13595024,0.00002
 743,-0.00029031,-0.00007465,-0.00105145,-0.00057474,0.00032390,-0.0143
 8190,-0.01094981,-0.01191632,0.00008257,0.00019971,0.00023735,-0.00065
 856,0.00127908,0.00032658,0.00027343,-0.00027101,0.00020167,0.00064737
 ,-0.00008803,-0.00091452,0.00008960,0.00016451,0.00002776,0.00348331,-
 0.00173090,-0.00279391,-0.09154112,-0.08292944,-0.13283469,0.00003403,
 0.00001519,0.00019823,0.00008686,0.00004500,-0.00005754,-0.00011481,0.
 00015578,0.00008398,0.00027088,0.00007098,0.00041094,-0.00020752,0.000
 12935,0.00017251,0.00026651,-0.00006772,0.00017155,-0.00014566,0.00010
 912,0.00012726,-0.00033087,0.00022724,0.00040924,0.00081989,0.00176087
 ,-0.00107219,0.00004567,-0.00002653,-0.00001969,-0.00004196,0.00006075
 ,0.00000719,0.00000156,-0.00002165,0.00000200,0.00031456,0.00028433,0.
 00023671,-0.00006134,-0.00021012,0.00018964,-0.00073134,-0.00129874,-0
 .00038373,0.09846321,0.09187528,0.14401314,0.00005108,-0.00036146,-0.0
 0006299,-0.00089199,0.00227848,0.00077753,-0.00983799,-0.01119068,0.01
 066909,-0.00034118,-0.00054774,0.00080113,0.00103294,-0.00043786,0.000
 48241,0.00024496,-0.00006102,-0.00002479,0.00034153,0.00020920,0.00037
 279,0.00002921,0.00006286,-0.00005699,0.00054467,-0.00092199,-0.001126
 99,-0.11770591,-0.08449827,0.08027564,-0.00020101,-0.00008926,0.000419
 63,-0.00029446,0.00030324,0.00000609,0.00001196,0.00008088,0.00002799,
 -0.00045420,-0.00001173,-0.00063491,-0.00005419,0.00007722,-0.00004897
 ,0.00009840,-0.00002647,0.00002455,-0.00004219,0.00004669,0.00003966,-
 0.00014067,0.00004569,0.00011324,-0.00013549,0.00027780,-0.00013219,0.
 00004423,-0.00000444,-0.00000405,-0.00001987,0.00002521,0.00002011,-0.
 00004066,-0.00000043,-0.00002596,-0.00003079,0.00027444,-0.00000088,0.
 00055689,0.00045412,0.00004936,-0.00012342,0.00010070,-0.00034218,-0.0
 1010407,-0.01082441,0.01195516,0.12580392,-0.00027655,0.00004266,-0.00
 018368,0.00157282,-0.00214061,-0.00227536,0.00984727,0.01035543,-0.011
 71723,0.00067133,0.00066388,-0.00077650,-0.00073338,0.00078784,0.00003
 921,0.00002158,-0.00005155,0.00016097,-0.00005337,-0.00090985,-0.00010
 067,0.00001014,0.00003008,0.00006515,0.00072282,0.00122228,-0.00058111
 ,-0.08474313,-0.14414527,0.09602610,0.00012766,0.00007503,-0.00020340,
 0.00035093,-0.00015218,-0.00013678,-0.00005867,0.00006153,0.00002449,-
 0.00030472,0.00005826,0.00025106,-0.00010954,0.00003296,-0.00005220,0.
 00008654,-0.00000480,0.00003034,-0.00005629,0.00002051,0.00001463,-0.0
 0017427,0.00019661,0.00016857,-0.00027396,0.00057341,0.00035446,-0.000
 02328,-0.00000230,-0.00000897,-0.00000667,0.00002586,-0.00000175,0.000
 00668,-0.00001152,-0.00000768,-0.00022064,-0.00004275,0.00017413,0.000
 03430,-0.00036081,0.00001638,0.00006830,0.00022666,0.00015492,-0.00737
 672,-0.01042905,0.01041296,0.09173792,0.15538679,-0.00009082,0.0000592
 3,-0.00026924,0.00214301,-0.00407778,-0.00105653,0.01128882,0.01377912
 ,-0.01494052,0.00062881,0.00114920,-0.00089867,-0.00085581,-0.00022542
 ,0.00021941,0.00001499,-0.00003612,-0.00001166,-0.00050714,-0.00097647
 ,0.00010017,-0.00001871,0.00000012,0.00011664,0.00031490,0.00147984,0.
 00058698,0.08001102,0.09538304,-0.13563001,-0.00015291,0.00009627,0.00
 003664,0.00048665,-0.00031013,-0.00002621,-0.00000655,-0.00008338,-0.0
 0003466,0.00018053,-0.00021404,0.00017754,0.00020615,-0.00012311,0.000
 03888,0.00011319,-0.00000734,0.00008967,0.00002133,-0.00002294,0.00005
 433,-0.00005505,0.00016141,0.00014923,-0.00038824,0.00018038,0.0000946
 0,-0.00002362,0.00000876,-0.00001072,-0.00000259,-0.00000411,-0.000014
 20,0.00003431,-0.00002084,0.00003244,-0.00007510,0.00008906,-0.0001741
 7,-0.00023872,-0.00117943,-0.00020860,-0.00020817,-0.00002669,0.000499
 54,-0.00986717,-0.01166510,0.01158799,-0.09117171,-0.10140800,0.148352
 64,0.00012092,0.00051606,-0.00035097,0.00062779,0.00027813,-0.00070150
 ,-0.01272572,0.01014714,-0.00890888,0.00002763,0.00002484,-0.00000705,
 -0.00015352,0.00234987,0.00279960,0.00003470,-0.00007870,-0.00026382,-
 0.00020526,0.00022729,0.00008625,-0.00019901,-0.00021735,0.00022089,0.
 00006840,-0.00089109,-0.00025684,-0.14958379,0.09990626,-0.07831547,-0
 .00014348,-0.00012464,0.00053746,0.00001098,-0.00006769,0.00007135,0.0
 0005256,-0.00006534,-0.00004675,0.00028792,-0.00020171,0.00037983,-0.0
 0101940,0.00054026,0.00007498,0.00013016,0.00000076,0.00019369,-0.0000
 0776,-0.00007509,0.00014768,0.00011276,-0.00016512,-0.00003939,-0.0005
 2809,-0.00051887,-0.00038583,-0.00014750,0.00000459,-0.00000271,0.0000
 5872,-0.00003778,-0.00001354,0.00005009,-0.00001175,0.00000289,0.00053
 434,0.00019283,0.00010949,0.00005553,-0.00008600,0.00004823,0.00003986
 ,-0.00010713,0.00016485,-0.01154062,0.01221391,-0.00759550,0.01165831,
 -0.01084712,0.00821857,0.16238346,0.00012631,-0.00078849,0.00029847,-0
 .00082067,0.00044410,0.00031425,0.01058691,-0.01060797,0.00910219,-0.0
 0007368,-0.00006861,0.00005170,0.00094980,-0.00044755,-0.00277437,-0.0
 0020645,-0.00015299,-0.00017970,0.00000959,0.00048128,-0.00027755,0.00
 022341,0.00022655,-0.00024277,0.00059307,0.00025068,0.00114578,0.09997
 878,-0.14285724,0.07452943,0.00032730,0.00020433,-0.00047610,-0.000017
 78,0.00003849,-0.00006999,0.00000709,-0.00002671,0.00003393,-0.0002457
 4,0.00014217,-0.00015225,0.00054099,-0.00028106,0.00020757,0.00003341,
 -0.00004705,0.00015111,-0.00004065,0.00011983,0.00007414,0.00010646,-0
 .00000612,-0.00001353,0.00010681,-0.00008487,-0.00014813,0.00014363,-0
 .00004025,0.00001034,-0.00003174,0.00002176,0.00001311,-0.00003105,-0.
 00000237,0.00001016,-0.00055820,-0.00029120,-0.00078900,0.00009817,0.0
 0009344,-0.00006404,-0.00030590,0.00032684,-0.00022637,-0.01159455,0.0
 1149714,-0.00833114,0.01300131,-0.01150908,0.00799447,-0.11290660,0.15
 336493,0.00049101,-0.00026532,0.00043127,-0.00014858,0.00032199,0.0014
 7128,0.01425760,-0.01405065,0.01079392,-0.00035815,-0.00020104,0.00014
 997,0.00130634,-0.00247137,-0.00272939,-0.00006490,-0.00014680,-0.0003
 0128,-0.00006076,0.00034709,0.00016119,0.00016692,0.00011347,-0.000119
 00,0.00064692,0.00055019,0.00104766,-0.07821819,0.07425632,-0.10460138
 ,-0.00049291,0.00008136,-0.00014963,-0.00007805,0.00003949,0.00002195,
 -0.00000531,0.00001026,0.00003073,0.00020894,0.00001304,0.00035967,0.0
 0070385,-0.00032007,0.00043789,0.00008576,0.00001691,0.00010961,-0.000
 02637,0.00003270,0.00008276,-0.00003971,-0.00001457,0.00004156,0.00006
 286,0.00002161,-0.00012189,0.00008693,-0.00001033,0.00001333,-0.000025
 82,0.00002704,0.00000867,-0.00000709,0.00000604,0.00000165,-0.00036252
 ,0.00015599,-0.00015022,-0.00008381,-0.00003100,-0.00010111,-0.0000097
 1,0.00028138,0.00006971,-0.00946598,0.01186799,-0.00866040,-0.01240175
 ,0.00955997,-0.00886151,0.08383248,-0.08019170,0.11056300\\0.00000640,
 -0.00002252,0.00000546,-0.00001740,-0.00000535,0.00000652,-0.00000282,
 0.00001410,0.00002164,0.00000838,0.00002028,0.00001402,0.00000155,0.00
 000306,-0.00000534,-0.00001474,0.00000563,-0.00000289,0.00001002,-0.00
 001357,-0.00000912,-0.00000610,0.00000447,0.00000722,-0.00000573,0.000
 00640,-0.00000333,0.00001714,-0.00001026,-0.00001735,-0.00000465,0.000
 00276,-0.00000208,0.00000299,-0.00000478,-0.00000233,0.00000385,0.0000
 0241,0.00000096,0.00000164,0.00000542,0.00000367,-0.00000531,-0.000004
 19,0.00000568,0.,-0.00000303,-0.00000481,0.00000756,0.00000129,-0.0000
 0641,0.00000132,0.00000253,-0.00000622,-0.00000394,0.00000124,-0.00000
 626,0.00000164,0.00000128,-0.00000716,-0.00000077,-0.00000255,0.000005
 50,0.00000310,0.00000464,0.00000024,-0.00000317,-0.00000441,-0.0000018
 9,-0.00000093,-0.00000255,0.00000629,-0.00001200,-0.00000381,0.0000067
 7,0.00000987,-0.00000134,-0.00000005,0.00000017,0.00000044,-0.00000142
 ,0.00000192,0.00000242,-0.00000732\\\@


 SEEN ON A WALL AT THE UNIVERSITY OF ILLINOIS AT CHICAGO CIRCLE:

 TO DO IS TO BE  -- SOCRATES
 TO BE IS TO DO  -- SARTRE
 OO BE DO BE DO  -- SINATRA
 Job cpu time:       0 days  6 hours 55 minutes 31.3 seconds.
 Elapsed time:       0 days  0 hours 26 minutes 10.0 seconds.
 File lengths (MBytes):  RWF=    277 Int=      0 D2E=      0 Chk=     11 Scr=      1
 Normal termination of Gaussian 16 at Sat Sep 20 01:01:56 2025.
