 Entering Gaussian System, Link 0=g16
 Input=FUCA0116.gjf
 Output=FUCA0116.log
 Initial command:
 /usr/local/g16/l1.exe "/dados_01/scratch/Gau-2091228.inp" -scrdir="/dados_01/scratch/"
 Entering Link 1 = /usr/local/g16/l1.exe PID=   2091229.
  
 Copyright (c) 1988-2017, Gaussian, Inc.  All Rights Reserved.
  
 This is part of the Gaussian(R) 16 program.  It is based on
 the Gaussian(R) 09 system (copyright 2009, Gaussian, Inc.),
 the Gaussian(R) 03 system (copyright 2003, Gaussian, Inc.),
 the Gaussian(R) 98 system (copyright 1998, Gaussian, Inc.),
 the Gaussian(R) 94 system (copyright 1995, Gaussian, Inc.),
 the Gaussian 92(TM) system (copyright 1992, Gaussian, Inc.),
 the Gaussian 90(TM) system (copyright 1990, Gaussian, Inc.),
 the Gaussian 88(TM) system (copyright 1988, Gaussian, Inc.),
 the Gaussian 86(TM) system (copyright 1986, Carnegie Mellon
 University), and the Gaussian 82(TM) system (copyright 1983,
 Carnegie Mellon University). Gaussian is a federally registered
 trademark of Gaussian, Inc.
  
 This software contains proprietary and confidential information,
 including trade secrets, belonging to Gaussian, Inc.
  
 This software is provided under written license and may be
 used, copied, transmitted, or stored only in accord with that
 written license.
  
 The following legend is applicable only to US Government
 contracts under FAR:
  
                    RESTRICTED RIGHTS LEGEND
  
 Use, reproduction and disclosure by the US Government is
 subject to restrictions as set forth in subparagraphs (a)
 and (c) of the Commercial Computer Software - Restricted
 Rights clause in FAR 52.227-19.
  
 Gaussian, Inc.
 340 Quinnipiac St., Bldg. 40, Wallingford CT 06492
  
  
 ---------------------------------------------------------------
 Warning -- This program may not be used in any manner that
 competes with the business of Gaussian, Inc. or will provide
 assistance to any competitor of Gaussian, Inc.  The licensee
 of this program is prohibited from giving any competitor of
 Gaussian, Inc. access to this program.  By using this program,
 the user acknowledges that Gaussian, Inc. is engaged in the
 business of creating and licensing software in the field of
 computational chemistry and represents and warrants to the
 licensee that it is not a competitor of Gaussian, Inc. and that
 it will not use this program in any manner prohibited above.
 ---------------------------------------------------------------
  

 Cite this work as:
 Gaussian 16, Revision B.01,
 M. J. Frisch, G. W. Trucks, H. B. Schlegel, G. E. Scuseria, 
 M. A. Robb, J. R. Cheeseman, G. Scalmani, V. Barone, 
 G. A. Petersson, H. Nakatsuji, X. Li, M. Caricato, A. V. Marenich, 
 J. Bloino, B. G. Janesko, R. Gomperts, B. Mennucci, H. P. Hratchian, 
 J. V. Ortiz, A. F. Izmaylov, J. L. Sonnenberg, D. Williams-Young, 
 F. Ding, F. Lipparini, F. Egidi, J. Goings, B. Peng, A. Petrone, 
 T. Henderson, D. Ranasinghe, V. G. Zakrzewski, J. Gao, N. Rega, 
 G. Zheng, W. Liang, M. Hada, M. Ehara, K. Toyota, R. Fukuda, 
 J. Hasegawa, M. Ishida, T. Nakajima, Y. Honda, O. Kitao, H. Nakai, 
 T. Vreven, K. Throssell, J. A. Montgomery, Jr., J. E. Peralta, 
 F. Ogliaro, M. J. Bearpark, J. J. Heyd, E. N. Brothers, K. N. Kudin, 
 V. N. Staroverov, T. A. Keith, R. Kobayashi, J. Normand, 
 K. Raghavachari, A. P. Rendell, J. C. Burant, S. S. Iyengar, 
 J. Tomasi, M. Cossi, J. M. Millam, M. Klene, C. Adamo, R. Cammi, 
 J. W. Ochterski, R. L. Martin, K. Morokuma, O. Farkas, 
 J. B. Foresman, and D. J. Fox, Gaussian, Inc., Wallingford CT, 2016.
 
 ******************************************
 Gaussian 16:  ES64L-G16RevB.01 20-Dec-2017
                20-Sep-2025 
 ******************************************
 %nprocs=16
 Will use up to   16 processors via shared memory.
 %mem=40GB
 %chk=FUCA0116.chk
 ----------------------------------------------------------------------
 # opt freq=noraman M08HX/6-311++G** scf=xqc Empiricaldispersion=pfd In
 t(Grid=ultraFine)
 ----------------------------------------------------------------------
 1/18=20,19=15,26=4,38=1/1,3;
 2/9=110,12=2,17=6,18=5,40=1/2;
 3/5=4,6=6,7=1111,11=2,25=1,30=1,71=1,74=-74,75=-5,124=11/1,2,3;
 4//1;
 5/5=2,8=3,13=1,38=5/2,8;
 6/7=2,8=2,9=2,10=2,28=1/1;
 7//1,2,3,16;
 1/18=20,19=15,26=4/3(2);
 2/9=110/2;
 99//99;
 2/9=110/2;
 3/5=4,6=6,7=1111,11=2,25=1,30=1,71=1,74=-74,75=-5,124=11/1,2,3;
 4/5=5,16=3,69=1/1;
 5/5=2,8=3,13=1,38=5/2,8;
 7//1,2,3,16;
 1/18=20,19=15,26=4/3(-5);
 2/9=110/2;
 6/7=2,8=2,9=2,10=2,19=2,28=1/1;
 99/9=1/99;
 --------
 FUCA0116
 --------
 Symbolic Z-matrix:
 Charge =  0 Multiplicity = 1
 O                    -0.6263    1.1312    0.0001 
 O                     2.6036   -0.3523    0.0001 
 C                     0.2861    0.1243    0.0001 
 C                    -0.3439   -1.0985    0. 
 C                    -1.7326   -0.8253    0. 
 C                    -1.8522    0.5449   -0.0001 
 C                     1.6652    0.4756   -0.0001 
 H                     0.1331   -2.0684   -0.0001 
 H                    -2.5446   -1.5378    0. 
 H                    -2.6939    1.2219   -0.0001 
 H                     1.8989    1.5538   -0.0003 
 

 GradGradGradGradGradGradGradGradGradGradGradGradGradGradGradGradGradGrad
 Berny optimization.
 Initialization pass.
                           ----------------------------
                           !    Initial Parameters    !
                           ! (Angstroms and Degrees)  !
 --------------------------                            --------------------------
 ! Name  Definition              Value          Derivative Info.                !
 --------------------------------------------------------------------------------
 ! R1    R(1,3)                  1.3588         estimate D2E/DX2                !
 ! R2    R(1,6)                  1.3589         estimate D2E/DX2                !
 ! R3    R(2,7)                  1.2514         estimate D2E/DX2                !
 ! R4    R(3,4)                  1.3756         estimate D2E/DX2                !
 ! R5    R(3,7)                  1.4231         estimate D2E/DX2                !
 ! R6    R(4,5)                  1.4153         estimate D2E/DX2                !
 ! R7    R(4,8)                  1.0808         estimate D2E/DX2                !
 ! R8    R(5,6)                  1.3754         estimate D2E/DX2                !
 ! R9    R(5,9)                  1.0803         estimate D2E/DX2                !
 ! R10   R(6,10)                 1.0802         estimate D2E/DX2                !
 ! R11   R(7,11)                 1.1032         estimate D2E/DX2                !
 ! A1    A(3,1,6)              106.6213         estimate D2E/DX2                !
 ! A2    A(1,3,4)              110.5608         estimate D2E/DX2                !
 ! A3    A(1,3,7)              117.8901         estimate D2E/DX2                !
 ! A4    A(4,3,7)              131.5491         estimate D2E/DX2                !
 ! A5    A(3,4,5)              106.1283         estimate D2E/DX2                !
 ! A6    A(3,4,8)              126.5539         estimate D2E/DX2                !
 ! A7    A(5,4,8)              127.3178         estimate D2E/DX2                !
 ! A8    A(4,5,6)              106.1182         estimate D2E/DX2                !
 ! A9    A(4,5,9)              127.6045         estimate D2E/DX2                !
 ! A10   A(6,5,9)              126.2772         estimate D2E/DX2                !
 ! A11   A(1,6,5)              110.5715         estimate D2E/DX2                !
 ! A12   A(1,6,10)             115.6295         estimate D2E/DX2                !
 ! A13   A(5,6,10)             133.7991         estimate D2E/DX2                !
 ! A14   A(2,7,3)              124.2887         estimate D2E/DX2                !
 ! A15   A(2,7,11)             119.1905         estimate D2E/DX2                !
 ! A16   A(3,7,11)             116.5208         estimate D2E/DX2                !
 ! D1    D(6,1,3,4)             -0.0044         estimate D2E/DX2                !
 ! D2    D(6,1,3,7)            179.9821         estimate D2E/DX2                !
 ! D3    D(3,1,6,5)              0.0101         estimate D2E/DX2                !
 ! D4    D(3,1,6,10)           179.9985         estimate D2E/DX2                !
 ! D5    D(1,3,4,5)             -0.0028         estimate D2E/DX2                !
 ! D6    D(1,3,4,8)            179.9949         estimate D2E/DX2                !
 ! D7    D(7,3,4,5)           -179.9868         estimate D2E/DX2                !
 ! D8    D(7,3,4,8)              0.0109         estimate D2E/DX2                !
 ! D9    D(1,3,7,2)            179.9877         estimate D2E/DX2                !
 ! D10   D(1,3,7,11)            -0.0033         estimate D2E/DX2                !
 ! D11   D(4,3,7,2)             -0.0293         estimate D2E/DX2                !
 ! D12   D(4,3,7,11)           179.9797         estimate D2E/DX2                !
 ! D13   D(3,4,5,6)              0.0087         estimate D2E/DX2                !
 ! D14   D(3,4,5,9)           -179.9957         estimate D2E/DX2                !
 ! D15   D(8,4,5,6)           -179.989          estimate D2E/DX2                !
 ! D16   D(8,4,5,9)              0.0067         estimate D2E/DX2                !
 ! D17   D(4,5,6,1)             -0.0118         estimate D2E/DX2                !
 ! D18   D(4,5,6,10)          -179.9972         estimate D2E/DX2                !
 ! D19   D(9,5,6,1)            179.9925         estimate D2E/DX2                !
 ! D20   D(9,5,6,10)             0.0071         estimate D2E/DX2                !
 --------------------------------------------------------------------------------
 Trust Radius=3.00D-01 FncErr=1.00D-07 GrdErr=1.00D-06 EigMax=2.50D+02 EigMin=1.00D-04
 Number of steps in this run=     57 maximum allowed number of steps=    100.
 GradGradGradGradGradGradGradGradGradGradGradGradGradGradGradGradGradGrad

                          Input orientation:                          
 ---------------------------------------------------------------------
 Center     Atomic      Atomic             Coordinates (Angstroms)
 Number     Number       Type             X           Y           Z
 ---------------------------------------------------------------------
      1          8           0       -0.626300    1.131200    0.000100
      2          8           0        2.603600   -0.352300    0.000100
      3          6           0        0.286100    0.124300    0.000100
      4          6           0       -0.343900   -1.098500    0.000000
      5          6           0       -1.732600   -0.825300    0.000000
      6          6           0       -1.852200    0.544900   -0.000100
      7          6           0        1.665200    0.475600   -0.000100
      8          1           0        0.133100   -2.068400   -0.000100
      9          1           0       -2.544600   -1.537800    0.000000
     10          1           0       -2.693900    1.221900   -0.000100
     11          1           0        1.898900    1.553800   -0.000300
 ---------------------------------------------------------------------
                    Distance matrix (angstroms):
                    1          2          3          4          5
     1  O    0.000000
     2  O    3.554297   0.000000
     3  C    1.358794   2.366000   0.000000
     4  C    2.247512   3.040489   1.375551   0.000000
     5  C    2.247619   4.361922   2.230894   1.415318   0.000000
     6  C    1.358889   4.545231   2.179273   2.230635   1.375410
     7  C    2.383439   1.251404   1.423140   2.552308   3.638322
     8  H    3.288484   3.008051   2.198031   1.080849   2.241904
     9  H    3.286858   5.282932   3.282596   2.244118   1.080278
    10  H    2.069588   5.526447   3.175709   3.302538   2.261664
    11  H    2.560318   2.032196   2.155132   3.473449   4.341418
                    6          7          8          9         10
     6  C    0.000000
     7  C    3.518083   0.000000
     8  H    3.281883   2.969725   0.000000
     9  H    2.194780   4.666497   2.729764   0.000000
    10  H    1.080180   4.422524   4.337972   2.763736   0.000000
    11  H    3.884409   1.103237   4.029688   5.413195   4.604777
                   11
    11  H    0.000000
 Stoichiometry    C5H4O2
 Framework group  C1[X(C5H4O2)]
 Deg. of freedom    27
 Full point group                 C1      NOp   1
 Largest Abelian subgroup         C1      NOp   1
 Largest concise Abelian subgroup C1      NOp   1
                         Standard orientation:                         
 ---------------------------------------------------------------------
 Center     Atomic      Atomic             Coordinates (Angstroms)
 Number     Number       Type             X           Y           Z
 ---------------------------------------------------------------------
      1          8           0       -0.640829   -1.116908   -0.000090
      2          8           0        2.588512    0.367810   -0.000090
      3          6           0        0.271191   -0.109664   -0.000090
      4          6           0       -0.359270    1.112899    0.000010
      5          6           0       -1.747866    0.839175    0.000010
      6          6           0       -1.866950   -0.531070    0.000110
      7          6           0        1.650424   -0.460444    0.000110
      8          1           0        0.117365    2.082978    0.000110
      9          1           0       -2.560135    1.551369    0.000010
     10          1           0       -2.708395   -1.208387    0.000110
     11          1           0        1.884530   -1.538556    0.000310
 ---------------------------------------------------------------------
 Rotational constants (GHZ):           8.1395326           2.0637020           1.6462985
 Standard basis: 6-311++G(d,p) (5D, 7F)
 There are   189 symmetry adapted cartesian basis functions of A   symmetry.
 There are   182 symmetry adapted basis functions of A   symmetry.
   182 basis functions,   288 primitive gaussians,   189 cartesian basis functions
    25 alpha electrons       25 beta electrons
       nuclear repulsion energy       270.7584737415 Hartrees.
 NAtoms=   11 NActive=   11 NUniq=   11 SFac= 1.00D+00 NAtFMM=   60 NAOKFM=F Big=F
 Integral buffers will be    131072 words long.
 Raffenetti 2 integral format.
 Two-electron integral symmetry is turned on.
 R6APFD:  NTU= -4 IXU= 1 FactS= 1.050
 Nuclear repulsion after empirical dispersion term =      270.7543644746 Hartrees.
 One-electron integrals computed using PRISM.
 NBasis=   182 RedAO= T EigKep=  3.93D-06  NBF=   182
 NBsUse=   182 1.00D-06 EigRej= -1.00D+00 NBFU=   182
 ExpMin= 3.60D-02 ExpMax= 8.59D+03 ExpMxC= 1.30D+03 IAcc=3 IRadAn=         5 AccDes= 0.00D+00
 Harris functional with IExCor= 1009 and IRadAn=       5 diagonalized for initial guess.
 HarFok:  IExCor= 1009 AccDes= 0.00D+00 IRadAn=         5 IDoV= 1 UseB2=F ITyADJ=14
 ICtDFT=  3500011 ScaDFX=  1.000000  1.000000  1.000000  1.000000
 FoFCou: FMM=F IPFlag=           0 FMFlag=      100000 FMFlg1=           0
         NFxFlg=           0 DoJE=T BraDBF=F KetDBF=T FulRan=T
         wScrn=  0.000000 ICntrl=       500 IOpCl=  0 I1Cent=   200000004 NGrid=           0
         NMat0=    1 NMatS0=      1 NMatT0=    0 NMatD0=    1 NMtDS0=    0 NMtDT0=    0
 Petite list used in FoFCou.
 Keep R1 ints in memory in canonical form, NReq=154968074.
 Requested convergence on RMS density matrix=1.00D-08 within  32 cycles.
 Requested convergence on MAX density matrix=1.00D-06.
 Requested convergence on             energy=1.00D-06.
 No special actions if energy rises.
 SCF Done:  E(RM08HX) =  -343.322933157     A.U. after   14 cycles
            NFock= 14  Conv=0.96D-08     -V/T= 2.0043
 QCSCF skips out because SCF is already converged.

 **********************************************************************

            Population analysis using the SCF Density.

 **********************************************************************

 Orbital symmetries:
       Occupied  (A) (A) (A) (A) (A) (A) (A) (A) (A) (A) (A) (A)
                 (A) (A) (A) (A) (A) (A) (A) (A) (A) (A) (A) (A)
                 (A)
       Virtual   (A) (A) (A) (A) (A) (A) (A) (A) (A) (A) (A) (A)
                 (A) (A) (A) (A) (A) (A) (A) (A) (A) (A) (A) (A)
                 (A) (A) (A) (A) (A) (A) (A) (A) (A) (A) (A) (A)
                 (A) (A) (A) (A) (A) (A) (A) (A) (A) (A) (A) (A)
                 (A) (A) (A) (A) (A) (A) (A) (A) (A) (A) (A) (A)
                 (A) (A) (A) (A) (A) (A) (A) (A) (A) (A) (A) (A)
                 (A) (A) (A) (A) (A) (A) (A) (A) (A) (A) (A) (A)
                 (A) (A) (A) (A) (A) (A) (A) (A) (A) (A) (A) (A)
                 (A) (A) (A) (A) (A) (A) (A) (A) (A) (A) (A) (A)
                 (A) (A) (A) (A) (A) (A) (A) (A) (A) (A) (A) (A)
                 (A) (A) (A) (A) (A) (A) (A) (A) (A) (A) (A) (A)
                 (A) (A) (A) (A) (A) (A) (A) (A) (A) (A) (A) (A)
                 (A) (A) (A) (A) (A) (A) (A) (A) (A) (A) (A) (A)
                 (A)
 The electronic state is 1-A.
 Alpha  occ. eigenvalues --  -19.71480 -19.61294 -10.63181 -10.61982 -10.60853
 Alpha  occ. eigenvalues --  -10.56537 -10.56127  -1.27319  -1.15374  -0.93916
 Alpha  occ. eigenvalues --   -0.90185  -0.76019  -0.71632  -0.66907  -0.62420
 Alpha  occ. eigenvalues --   -0.57300  -0.56996  -0.51774  -0.50245  -0.50201
 Alpha  occ. eigenvalues --   -0.48018  -0.46106  -0.37521  -0.34813  -0.31232
 Alpha virt. eigenvalues --   -0.05546  -0.02792  -0.01057  -0.00718   0.01194
 Alpha virt. eigenvalues --    0.01925   0.02683   0.02823   0.04150   0.05053
 Alpha virt. eigenvalues --    0.06498   0.06751   0.06796   0.09480   0.09902
 Alpha virt. eigenvalues --    0.10518   0.11188   0.11337   0.11868   0.12007
 Alpha virt. eigenvalues --    0.12987   0.13319   0.13776   0.13949   0.16451
 Alpha virt. eigenvalues --    0.18106   0.20613   0.21045   0.22983   0.23553
 Alpha virt. eigenvalues --    0.24785   0.25469   0.26146   0.27883   0.29531
 Alpha virt. eigenvalues --    0.30445   0.30668   0.33246   0.34149   0.34414
 Alpha virt. eigenvalues --    0.36171   0.37960   0.42320   0.44428   0.47300
 Alpha virt. eigenvalues --    0.48943   0.53088   0.54761   0.56208   0.56384
 Alpha virt. eigenvalues --    0.58804   0.59977   0.61858   0.62321   0.65736
 Alpha virt. eigenvalues --    0.65894   0.69839   0.72105   0.77559   0.78203
 Alpha virt. eigenvalues --    0.79766   0.81706   0.82802   0.85199   0.87860
 Alpha virt. eigenvalues --    0.90916   0.91335   0.96838   0.97285   0.98758
 Alpha virt. eigenvalues --    1.07226   1.07723   1.11082   1.12916   1.13509
 Alpha virt. eigenvalues --    1.17404   1.19353   1.20229   1.22419   1.28410
 Alpha virt. eigenvalues --    1.30417   1.31013   1.38621   1.49373   1.51491
 Alpha virt. eigenvalues --    1.53891   1.55872   1.59363   1.61191   1.66431
 Alpha virt. eigenvalues --    1.67620   1.74307   1.75501   1.77072   1.80218
 Alpha virt. eigenvalues --    1.81030   1.81920   1.88296   1.91075   1.92340
 Alpha virt. eigenvalues --    1.97088   2.00612   2.04380   2.04987   2.07378
 Alpha virt. eigenvalues --    2.18118   2.29703   2.30694   2.35380   2.42481
 Alpha virt. eigenvalues --    2.51665   2.53053   2.60626   2.65336   2.69265
 Alpha virt. eigenvalues --    2.70554   2.71848   2.74088   2.74654   2.80274
 Alpha virt. eigenvalues --    2.82191   2.85196   2.96535   2.99687   3.04176
 Alpha virt. eigenvalues --    3.08669   3.16276   3.20464   3.23071   3.23329
 Alpha virt. eigenvalues --    3.31022   3.36669   3.38906   3.45880   3.49879
 Alpha virt. eigenvalues --    3.59950   3.61998   3.63353   3.97487   4.02417
 Alpha virt. eigenvalues --    4.09620   4.11651   4.29604   4.48767   5.04854
 Alpha virt. eigenvalues --    5.11531   5.27826   5.54524   5.77480   5.91470
 Alpha virt. eigenvalues --   23.73231  23.87019  23.96827  24.13529  24.22780
 Alpha virt. eigenvalues --   49.88720  49.96334
          Condensed to atoms (all electrons):
               1          2          3          4          5          6
     1  O    7.978194   0.014536   0.157609  -0.003423  -0.014851   0.092623
     2  O    0.014536   8.011309  -0.174237  -0.069033   0.082658  -0.033540
     3  C    0.157609  -0.174237   8.921563  -2.210094   2.005117  -0.845916
     4  C   -0.003423  -0.069033  -2.210094  10.849168  -3.456722   1.642675
     5  C   -0.014851   0.082658   2.005117  -3.456722   8.644205  -1.442745
     6  C    0.092623  -0.033540  -0.845916   1.642675  -1.442745   6.477934
     7  C   -0.283850   0.474639  -1.311836  -1.603025   0.352162  -0.146260
     8  H    0.002506  -0.014862  -0.013614   0.412963  -0.093118   0.035635
     9  H    0.009449   0.001130   0.046585  -0.067300   0.384822  -0.062106
    10  H   -0.062440  -0.001134   0.040648  -0.011931  -0.044799   0.385092
    11  H    0.032600  -0.022456  -0.350285  -0.078496   0.051935  -0.016669
               7          8          9         10         11
     1  O   -0.283850   0.002506   0.009449  -0.062440   0.032600
     2  O    0.474639  -0.014862   0.001130  -0.001134  -0.022456
     3  C   -1.311836  -0.013614   0.046585   0.040648  -0.350285
     4  C   -1.603025   0.412963  -0.067300  -0.011931  -0.078496
     5  C    0.352162  -0.093118   0.384822  -0.044799   0.051935
     6  C   -0.146260   0.035635  -0.062106   0.385092  -0.016669
     7  C    8.730779  -0.043953   0.000415   0.000196   0.567258
     8  H   -0.043953   0.369581  -0.000633   0.001112  -0.002767
     9  H    0.000415  -0.000633   0.388216  -0.000571   0.000815
    10  H    0.000196   0.001112  -0.000571   0.379054  -0.000961
    11  H    0.567258  -0.002767   0.000815  -0.000961   0.626892
 Mulliken charges:
               1
     1  O    0.077048
     2  O   -0.269010
     3  C   -0.265538
     4  C    0.595218
     5  C   -0.468663
     6  C   -0.086725
     7  C   -0.736526
     8  H    0.347150
     9  H    0.299178
    10  H    0.315735
    11  H    0.192133
 Sum of Mulliken charges =  -0.00000
 Mulliken charges with hydrogens summed into heavy atoms:
               1
     1  O    0.077048
     2  O   -0.269010
     3  C   -0.265538
     4  C    0.942367
     5  C   -0.169485
     6  C    0.229010
     7  C   -0.544393
 Electronic spatial extent (au):  <R**2>=            689.2126
 Charge=             -0.0000 electrons
 Dipole moment (field-independent basis, Debye):
    X=             -3.9952    Y=             -0.5185    Z=              0.0006  Tot=              4.0287
 Quadrupole moment (field-independent basis, Debye-Ang):
   XX=            -43.7577   YY=            -36.8230   ZZ=            -42.0235
   XY=             -3.5456   XZ=              0.0007   YZ=             -0.0001
 Traceless Quadrupole moment (field-independent basis, Debye-Ang):
   XX=             -2.8896   YY=              4.0450   ZZ=             -1.1554
   XY=             -3.5456   XZ=              0.0007   YZ=             -0.0001
 Octapole moment (field-independent basis, Debye-Ang**2):
  XXX=            -42.5374  YYY=              3.0520  ZZZ=             -0.0008  XYY=             -1.3696
  XXY=            -12.7963  XXZ=              0.0020  XZZ=              5.4109  YZZ=             -2.6521
  YYZ=              0.0010  XYZ=              0.0006
 Hexadecapole moment (field-independent basis, Debye-Ang**3):
 XXXX=           -696.8088 YYYY=           -190.4018 ZZZZ=            -44.6653 XXXY=             -9.6957
 XXXZ=              0.0052 YYYX=              0.1042 YYYZ=              0.0014 ZZZX=              0.0042
 ZZZY=              0.0011 XXYY=           -123.2220 XXZZ=           -122.1491 YYZZ=            -44.1227
 XXYZ=             -0.0009 YYXZ=              0.0021 ZZXY=              3.0238
 N-N= 2.707543644746D+02 E-N=-1.343612391272D+03  KE= 3.418441447950D+02
 R6APFD:  NTU= -4 IXU= 1 FactS= 1.050
 Calling FoFJK, ICntrl=      2127 FMM=F ISym2X=0 I1Cent= 0 IOpClX= 0 NMat=1 NMatS=1 NMatT=0.
 ***** Axes restored to original set *****
 -------------------------------------------------------------------
 Center     Atomic                   Forces (Hartrees/Bohr)
 Number     Number              X              Y              Z
 -------------------------------------------------------------------
      1        8          -0.012936511   -0.012153593   -0.000023676
      2        8          -0.049680278    0.037309265   -0.000018282
      3        6          -0.019337267   -0.013725458   -0.000010197
      4        6           0.002740959    0.006821180    0.000009599
      5        6          -0.003779494    0.012935210   -0.000015728
      6        6           0.014275908   -0.002384889    0.000032502
      7        6           0.069524250   -0.032079614    0.000032554
      8        1           0.002989291    0.000478980    0.000003390
      9        1          -0.001351981   -0.000239693   -0.000003878
     10        1          -0.001036587   -0.000065080   -0.000000639
     11        1          -0.001408290    0.003103693   -0.000005645
 -------------------------------------------------------------------
 Cartesian Forces:  Max     0.069524250 RMS     0.018314673

 GradGradGradGradGradGradGradGradGradGradGradGradGradGradGradGradGradGrad
 Berny optimization.
 FormGI is forming the generalized inverse of G from B-inverse, IUseBI=4.
 Internal  Forces:  Max     0.061938950 RMS     0.010110176
 Search for a local minimum.
 Step number   1 out of a maximum of   57
 All quantities printed in internal units (Hartrees-Bohrs-Radians)
 Mixed Optimization -- RFO/linear search
 Second derivative matrix not updated -- first step.
 ITU=  0
     Eigenvalues ---    0.01783   0.01783   0.02042   0.02124   0.02175
     Eigenvalues ---    0.02234   0.02323   0.02375   0.16000   0.16000
     Eigenvalues ---    0.16000   0.16000   0.22000   0.22195   0.24056
     Eigenvalues ---    0.25000   0.33327   0.35892   0.35961   0.35973
     Eigenvalues ---    0.40883   0.41991   0.43955   0.49230   0.51086
     Eigenvalues ---    0.52470   0.82720
 RFO step:  Lambda=-6.97380455D-03 EMin= 1.78265295D-02
 Linear search not attempted -- first point.
 Iteration  1 RMS(Cart)=  0.01447926 RMS(Int)=  0.00015949
 Iteration  2 RMS(Cart)=  0.00022109 RMS(Int)=  0.00001259
 Iteration  3 RMS(Cart)=  0.00000008 RMS(Int)=  0.00001259
 Variable       Old X    -DE/DX   Delta X   Delta X   Delta X     New X
                                 (Linear)    (Quad)   (Total)
    R1        2.56775  -0.00238   0.00000  -0.00473  -0.00470   2.56305
    R2        2.56793  -0.01430   0.00000  -0.02786  -0.02785   2.54008
    R3        2.36481  -0.06194   0.00000  -0.07425  -0.07425   2.29056
    R4        2.59941  -0.00926   0.00000  -0.01713  -0.01712   2.58229
    R5        2.68935   0.01992   0.00000   0.04667   0.04667   2.73601
    R6        2.67456   0.00422   0.00000   0.01087   0.01085   2.68541
    R7        2.04251   0.00089   0.00000   0.00243   0.00243   2.04494
    R8        2.59915  -0.01060   0.00000  -0.02150  -0.02151   2.57763
    R9        2.04143   0.00117   0.00000   0.00320   0.00320   2.04463
   R10        2.04124   0.00077   0.00000   0.00209   0.00209   2.04333
   R11        2.08482   0.00274   0.00000   0.00804   0.00804   2.09286
    A1        1.86089   0.00495   0.00000   0.01509   0.01514   1.87603
    A2        1.92965  -0.00332   0.00000  -0.01110  -0.01107   1.91858
    A3        2.05757   0.00056   0.00000   0.00129   0.00128   2.05885
    A4        2.29597   0.00275   0.00000   0.00981   0.00979   2.30576
    A5        1.85229  -0.00137   0.00000  -0.00094  -0.00095   1.85133
    A6        2.20878  -0.00227   0.00000  -0.01724  -0.01724   2.19155
    A7        2.22212   0.00364   0.00000   0.01818   0.01819   2.24030
    A8        1.85211  -0.00042   0.00000  -0.00031  -0.00035   1.85176
    A9        2.22712   0.00093   0.00000   0.00449   0.00451   2.23163
   A10        2.20395  -0.00051   0.00000  -0.00417  -0.00415   2.19980
   A11        1.92984   0.00015   0.00000  -0.00275  -0.00276   1.92708
   A12        2.01811   0.00064   0.00000   0.00567   0.00568   2.02379
   A13        2.33523  -0.00080   0.00000  -0.00292  -0.00292   2.33231
   A14        2.16925  -0.00629   0.00000  -0.02771  -0.02771   2.14153
   A15        2.08027   0.00527   0.00000   0.02657   0.02657   2.10683
   A16        2.03367   0.00102   0.00000   0.00115   0.00115   2.03482
    D1       -0.00008   0.00001   0.00000   0.00017   0.00017   0.00009
    D2        3.14128   0.00001   0.00000   0.00024   0.00024   3.14152
    D3        0.00018  -0.00001   0.00000  -0.00035  -0.00035  -0.00017
    D4        3.14157  -0.00000   0.00000  -0.00007  -0.00008   3.14149
    D5       -0.00005   0.00000   0.00000   0.00007   0.00007   0.00002
    D6        3.14150   0.00000   0.00000   0.00002   0.00002   3.14152
    D7       -3.14136  -0.00000   0.00000  -0.00001  -0.00001  -3.14137
    D8        0.00019  -0.00000   0.00000  -0.00006  -0.00006   0.00013
    D9        3.14138   0.00001   0.00000   0.00033   0.00033  -3.14147
   D10       -0.00006  -0.00001   0.00000  -0.00023  -0.00023  -0.00028
   D11       -0.00051   0.00001   0.00000   0.00041   0.00041  -0.00010
   D12        3.14124  -0.00000   0.00000  -0.00015  -0.00015   3.14109
   D13        0.00015  -0.00001   0.00000  -0.00027  -0.00027  -0.00012
   D14       -3.14152  -0.00000   0.00000  -0.00010  -0.00010   3.14157
   D15       -3.14140  -0.00001   0.00000  -0.00022  -0.00022   3.14157
   D16        0.00012  -0.00000   0.00000  -0.00004  -0.00004   0.00007
   D17       -0.00021   0.00001   0.00000   0.00039   0.00039   0.00018
   D18       -3.14154   0.00000   0.00000   0.00004   0.00004  -3.14150
   D19        3.14146   0.00001   0.00000   0.00022   0.00022  -3.14151
   D20        0.00012  -0.00000   0.00000  -0.00013  -0.00013  -0.00000
         Item               Value     Threshold  Converged?
 Maximum Force            0.061939     0.000450     NO 
 RMS     Force            0.010110     0.000300     NO 
 Maximum Displacement     0.049447     0.001800     NO 
 RMS     Displacement     0.014483     0.001200     NO 
 Predicted change in Energy=-3.529139D-03
 GradGradGradGradGradGradGradGradGradGradGradGradGradGradGradGradGradGrad

                          Input orientation:                          
 ---------------------------------------------------------------------
 Center     Atomic      Atomic             Coordinates (Angstroms)
 Number     Number       Type             X           Y           Z
 ---------------------------------------------------------------------
      1          8           0       -0.633356    1.110461   -0.000000
      2          8           0        2.577434   -0.342266   -0.000002
      3          6           0        0.285074    0.112438    0.000111
      4          6           0       -0.344883   -1.100184    0.000068
      5          6           0       -1.738012   -0.819831   -0.000104
      6          6           0       -1.850247    0.539569    0.000005
      7          6           0        1.685786    0.478819    0.000029
      8          1           0        0.146090   -2.064531    0.000071
      9          1           0       -2.557567   -1.526228   -0.000199
     10          1           0       -2.691607    1.218753    0.000021
     11          1           0        1.914687    1.562399   -0.000402
 ---------------------------------------------------------------------
                    Distance matrix (angstroms):
                    1          2          3          4          5
     1  O    0.000000
     2  O    3.524143   0.000000
     3  C    1.356306   2.337021   0.000000
     4  C    2.229388   3.019002   1.366491   0.000000
     5  C    2.224027   4.341790   2.227556   1.421058   0.000000
     6  C    1.344151   4.514641   2.177622   2.225963   1.364026
     7  C    2.403621   1.212112   1.447836   2.572328   3.661815
     8  H    3.269268   2.979535   2.181400   1.082136   2.258123
     9  H    3.264157   5.269725   3.281133   2.253328   1.081974
    10  H    2.061098   5.495414   3.175621   3.299179   2.250593
    11  H    2.587812   2.016676   2.181290   3.492135   4.360876
                    6          7          8          9         10
     6  C    0.000000
     7  C    3.536555   0.000000
     8  H    3.281265   2.973095   0.000000
     9  H    2.183534   4.693215   2.756725   0.000000
    10  H    1.081286   4.439491   4.339641   2.748252   0.000000
    11  H    3.901399   1.107493   4.035165   5.435134   4.619095
                   11
    11  H    0.000000
 Stoichiometry    C5H4O2
 Framework group  C1[X(C5H4O2)]
 Deg. of freedom    27
 Full point group                 C1      NOp   1
 Largest Abelian subgroup         C1      NOp   1
 Largest concise Abelian subgroup C1      NOp   1
                         Standard orientation:                         
 ---------------------------------------------------------------------
 Center     Atomic      Atomic             Coordinates (Angstroms)
 Number     Number       Type             X           Y           Z
 ---------------------------------------------------------------------
      1          8           0       -0.639451   -1.101782    0.000003
      2          8           0        2.563748    0.367607    0.000005
      3          6           0        0.273781   -0.099000   -0.000109
      4          6           0       -0.362467    1.110332   -0.000065
      5          6           0       -1.754121    0.822745    0.000106
      6          6           0       -1.859291   -0.537220   -0.000003
      7          6           0        1.676378   -0.458099   -0.000027
      8          1           0        0.123489    2.077217   -0.000069
      9          1           0       -2.577336    1.524874    0.000202
     10          1           0       -2.697112   -1.220766   -0.000018
     11          1           0        1.910906   -1.540475    0.000404
 ---------------------------------------------------------------------
 Rotational constants (GHZ):           8.2696693           2.0716305           1.6566292
 Standard basis: 6-311++G(d,p) (5D, 7F)
 There are   189 symmetry adapted cartesian basis functions of A   symmetry.
 There are   182 symmetry adapted basis functions of A   symmetry.
   182 basis functions,   288 primitive gaussians,   189 cartesian basis functions
    25 alpha electrons       25 beta electrons
       nuclear repulsion energy       271.9521346465 Hartrees.
 NAtoms=   11 NActive=   11 NUniq=   11 SFac= 1.00D+00 NAtFMM=   60 NAOKFM=F Big=F
 Integral buffers will be    131072 words long.
 Raffenetti 2 integral format.
 Two-electron integral symmetry is turned on.
 R6APFD:  NTU= -4 IXU= 1 FactS= 1.050
 Nuclear repulsion after empirical dispersion term =      271.9479609665 Hartrees.
 One-electron integrals computed using PRISM.
 NBasis=   182 RedAO= T EigKep=  3.84D-06  NBF=   182
 NBsUse=   182 1.00D-06 EigRej= -1.00D+00 NBFU=   182
 Initial guess from the checkpoint file:  "FUCA0116.chk"
 B after Tr=    -0.000000    0.000000    0.000000
         Rot=    0.999998   -0.000002    0.000002   -0.001816 Ang=  -0.21 deg.
 ExpMin= 3.60D-02 ExpMax= 8.59D+03 ExpMxC= 1.30D+03 IAcc=3 IRadAn=         5 AccDes= 0.00D+00
 Harris functional with IExCor= 1009 and IRadAn=       5 diagonalized for initial guess.
 HarFok:  IExCor= 1009 AccDes= 0.00D+00 IRadAn=         5 IDoV= 1 UseB2=F ITyADJ=14
 ICtDFT=  3500011 ScaDFX=  1.000000  1.000000  1.000000  1.000000
 FoFCou: FMM=F IPFlag=           0 FMFlag=      100000 FMFlg1=           0
         NFxFlg=           0 DoJE=T BraDBF=F KetDBF=T FulRan=T
         wScrn=  0.000000 ICntrl=       500 IOpCl=  0 I1Cent=   200000004 NGrid=           0
         NMat0=    1 NMatS0=      1 NMatT0=    0 NMatD0=    1 NMtDS0=    0 NMtDT0=    0
 Petite list used in FoFCou.
 Keep R1 ints in memory in canonical form, NReq=154968074.
 Requested convergence on RMS density matrix=1.00D-08 within  32 cycles.
 Requested convergence on MAX density matrix=1.00D-06.
 Requested convergence on             energy=1.00D-06.
 No special actions if energy rises.
 SCF Done:  E(RM08HX) =  -343.327207454     A.U. after   12 cycles
            NFock= 12  Conv=0.84D-08     -V/T= 2.0039
 QCSCF skips out because SCF is already converged.
 R6APFD:  NTU= -4 IXU= 1 FactS= 1.050
 Calling FoFJK, ICntrl=      2127 FMM=F ISym2X=0 I1Cent= 0 IOpClX= 0 NMat=1 NMatS=1 NMatT=0.
 ***** Axes restored to original set *****
 -------------------------------------------------------------------
 Center     Atomic                   Forces (Hartrees/Bohr)
 Number     Number              X              Y              Z
 -------------------------------------------------------------------
      1        8          -0.003099986    0.001484744    0.000019078
      2        8          -0.008762093    0.006814429    0.000015785
      3        6          -0.010148461   -0.002594398    0.000001672
      4        6           0.001697836   -0.000480350   -0.000008743
      5        6          -0.003375496   -0.000134039    0.000016932
      6        6           0.005157171    0.001187942   -0.000018834
      7        6           0.020179066   -0.008284333   -0.000040915
      8        1           0.000664602    0.000261039    0.000000609
      9        1           0.000172428   -0.000152684    0.000001845
     10        1          -0.000406800   -0.000468768   -0.000002789
     11        1          -0.002078267    0.002366419    0.000015360
 -------------------------------------------------------------------
 Cartesian Forces:  Max     0.020179066 RMS     0.004842913

 GradGradGradGradGradGradGradGradGradGradGradGradGradGradGradGradGradGrad
 Berny optimization.
 Using GEDIIS/GDIIS optimizer.
 FormGI is forming the generalized inverse of G from B-inverse, IUseBI=4.
 Internal  Forces:  Max     0.011063151 RMS     0.002299745
 Search for a local minimum.
 Step number   2 out of a maximum of   57
 All quantities printed in internal units (Hartrees-Bohrs-Radians)
 Mixed Optimization -- RFO/linear search
 Update second derivatives using D2CorX and points    1    2
 DE= -4.27D-03 DEPred=-3.53D-03 R= 1.21D+00
 TightC=F SS=  1.41D+00  RLast= 1.10D-01 DXNew= 5.0454D-01 3.2984D-01
 Trust test= 1.21D+00 RLast= 1.10D-01 DXMaxT set to 3.30D-01
 ITU=  1  0
 Use linear search instead of GDIIS.
     Eigenvalues ---    0.01783   0.01783   0.02039   0.02121   0.02171
     Eigenvalues ---    0.02233   0.02321   0.02374   0.15340   0.16000
     Eigenvalues ---    0.16000   0.16088   0.22017   0.22430   0.24492
     Eigenvalues ---    0.25085   0.32921   0.35886   0.35964   0.35971
     Eigenvalues ---    0.36694   0.40923   0.44055   0.49352   0.51859
     Eigenvalues ---    0.52309   0.76513
 RFO step:  Lambda=-3.63596326D-04 EMin= 1.78265269D-02
 Quartic linear search produced a step of  0.22097.
 Iteration  1 RMS(Cart)=  0.00501745 RMS(Int)=  0.00004970
 Iteration  2 RMS(Cart)=  0.00005600 RMS(Int)=  0.00000301
 Iteration  3 RMS(Cart)=  0.00000000 RMS(Int)=  0.00000301
 Variable       Old X    -DE/DX   Delta X   Delta X   Delta X     New X
                                 (Linear)    (Quad)   (Total)
    R1        2.56305   0.00125  -0.00104   0.00367   0.00264   2.56568
    R2        2.54008  -0.00259  -0.00615  -0.00090  -0.00704   2.53303
    R3        2.29056  -0.01106  -0.01641  -0.00260  -0.01901   2.27155
    R4        2.58229  -0.00067  -0.00378   0.00202  -0.00176   2.58053
    R5        2.73601   0.00926   0.01031   0.01750   0.02781   2.76383
    R6        2.68541   0.00137   0.00240   0.00207   0.00447   2.68988
    R7        2.04494   0.00007   0.00054  -0.00027   0.00027   2.04521
    R8        2.57763   0.00056  -0.00475   0.00546   0.00071   2.57834
    R9        2.04463  -0.00003   0.00071  -0.00077  -0.00006   2.04457
   R10        2.04333   0.00002   0.00046  -0.00036   0.00010   2.04344
   R11        2.09286   0.00189   0.00178   0.00522   0.00699   2.09985
    A1        1.87603  -0.00110   0.00335  -0.01011  -0.00675   1.86928
    A2        1.91858   0.00098  -0.00245   0.00764   0.00519   1.92377
    A3        2.05885  -0.00004   0.00028  -0.00067  -0.00038   2.05847
    A4        2.30576  -0.00094   0.00216  -0.00697  -0.00481   2.30095
    A5        1.85133  -0.00064  -0.00021  -0.00195  -0.00217   1.84916
    A6        2.19155  -0.00041  -0.00381  -0.00003  -0.00383   2.18772
    A7        2.24030   0.00105   0.00402   0.00198   0.00600   2.24631
    A8        1.85176  -0.00100  -0.00008  -0.00496  -0.00505   1.84671
    A9        2.23163   0.00026   0.00100  -0.00042   0.00058   2.23220
   A10        2.19980   0.00073  -0.00092   0.00539   0.00447   2.20427
   A11        1.92708   0.00175  -0.00061   0.00939   0.00878   1.93586
   A12        2.02379  -0.00024   0.00125  -0.00095   0.00030   2.02409
   A13        2.33231  -0.00151  -0.00065  -0.00843  -0.00908   2.32323
   A14        2.14153   0.00036  -0.00612   0.00840   0.00228   2.14381
   A15        2.10683   0.00246   0.00587   0.01265   0.01852   2.12535
   A16        2.03482  -0.00282   0.00025  -0.02105  -0.02080   2.01402
    D1        0.00009  -0.00000   0.00004  -0.00037  -0.00034  -0.00024
    D2        3.14152  -0.00000   0.00005  -0.00032  -0.00026   3.14125
    D3       -0.00017   0.00001  -0.00008   0.00077   0.00069   0.00052
    D4        3.14149   0.00000  -0.00002   0.00025   0.00023  -3.14146
    D5        0.00002  -0.00000   0.00001  -0.00014  -0.00013  -0.00011
    D6        3.14152   0.00000   0.00000   0.00009   0.00009  -3.14157
    D7       -3.14137  -0.00000  -0.00000  -0.00021  -0.00021  -3.14158
    D8        0.00013  -0.00000  -0.00001   0.00002   0.00001   0.00014
    D9       -3.14147  -0.00002   0.00007  -0.00136  -0.00128   3.14043
   D10       -0.00028   0.00001  -0.00005   0.00114   0.00109   0.00081
   D11       -0.00010  -0.00001   0.00009  -0.00128  -0.00119  -0.00129
   D12        3.14109   0.00002  -0.00003   0.00121   0.00118  -3.14091
   D13       -0.00012   0.00001  -0.00006   0.00059   0.00053   0.00041
   D14        3.14157   0.00000  -0.00002   0.00017   0.00015  -3.14146
   D15        3.14157   0.00000  -0.00005   0.00035   0.00030  -3.14132
   D16        0.00007  -0.00000  -0.00001  -0.00007  -0.00008  -0.00000
   D17        0.00018  -0.00001   0.00009  -0.00085  -0.00076  -0.00058
   D18       -3.14150  -0.00000   0.00001  -0.00020  -0.00019   3.14149
   D19       -3.14151  -0.00000   0.00005  -0.00044  -0.00039   3.14128
   D20       -0.00000   0.00000  -0.00003   0.00021   0.00018   0.00017
         Item               Value     Threshold  Converged?
 Maximum Force            0.011063     0.000450     NO 
 RMS     Force            0.002300     0.000300     NO 
 Maximum Displacement     0.021802     0.001800     NO 
 RMS     Displacement     0.005018     0.001200     NO 
 Predicted change in Energy=-3.615432D-04
 GradGradGradGradGradGradGradGradGradGradGradGradGradGradGradGradGradGrad

                          Input orientation:                          
 ---------------------------------------------------------------------
 Center     Atomic      Atomic             Coordinates (Angstroms)
 Number     Number       Type             X           Y           Z
 ---------------------------------------------------------------------
      1          8           0       -0.634315    1.112933   -0.000022
      2          8           0        2.580467   -0.340316    0.000434
      3          6           0        0.281036    0.110195   -0.000223
      4          6           0       -0.347072   -1.102335   -0.000195
      5          6           0       -1.742235   -0.820116    0.000186
      6          6           0       -1.846272    0.540312   -0.000177
      7          6           0        1.697324    0.475154   -0.000550
      8          1           0        0.148783   -2.064341   -0.000310
      9          1           0       -2.562880   -1.525198    0.000429
     10          1           0       -2.689730    1.216977   -0.000173
     11          1           0        1.908296    1.566136    0.000201
 ---------------------------------------------------------------------
                    Distance matrix (angstroms):
                    1          2          3          4          5
     1  O    0.000000
     2  O    3.527997   0.000000
     3  C    1.357700   2.343149   0.000000
     4  C    2.233813   3.025088   1.365558   0.000000
     5  C    2.228041   4.349249   2.226905   1.423421   0.000000
     6  C    1.340423   4.513483   2.170355   2.223936   1.364400
     7  C    2.417293   1.202055   1.462555   2.582252   3.675363
     8  H    3.272355   2.980830   2.178554   1.082279   2.263635
     9  H    3.267889   5.278065   3.280605   2.255797   1.081942
    10  H    2.058046   5.495465   3.170239   3.296552   2.246663
    11  H    2.582685   2.021478   2.183515   3.493912   4.361259
                    6          7          8          9         10
     6  C    0.000000
     7  C    3.544195   0.000000
     8  H    3.280924   2.974392   0.000000
     9  H    2.186289   4.706458   2.764741   0.000000
    10  H    1.081340   4.449330   4.338686   2.745107   0.000000
    11  H    3.892184   1.111194   4.034383   5.435785   4.611264
                   11
    11  H    0.000000
 Stoichiometry    C5H4O2
 Framework group  C1[X(C5H4O2)]
 Deg. of freedom    27
 Full point group                 C1      NOp   1
 Largest Abelian subgroup         C1      NOp   1
 Largest concise Abelian subgroup C1      NOp   1
                         Standard orientation:                         
 ---------------------------------------------------------------------
 Center     Atomic      Atomic             Coordinates (Angstroms)
 Number     Number       Type             X           Y           Z
 ---------------------------------------------------------------------
      1          8           0       -0.640617   -1.104738   -0.000024
      2          8           0        2.565805    0.366866   -0.000480
      3          6           0        0.268986   -0.096784    0.000176
      4          6           0       -0.366043    1.112136    0.000149
      5          6           0       -1.759570    0.821946   -0.000233
      6          6           0       -1.855828   -0.539055    0.000131
      7          6           0        1.687338   -0.453639    0.000504
      8          1           0        0.124304    2.076961    0.000264
      9          1           0       -2.584233    1.522324   -0.000476
     10          1           0       -2.695403   -1.220531    0.000127
     11          1           0        1.904543   -1.543397   -0.000247
 ---------------------------------------------------------------------
 Rotational constants (GHZ):           8.2564943           2.0656030           1.6522456
 Standard basis: 6-311++G(d,p) (5D, 7F)
 There are   189 symmetry adapted cartesian basis functions of A   symmetry.
 There are   182 symmetry adapted basis functions of A   symmetry.
   182 basis functions,   288 primitive gaussians,   189 cartesian basis functions
    25 alpha electrons       25 beta electrons
       nuclear repulsion energy       271.8076554769 Hartrees.
 NAtoms=   11 NActive=   11 NUniq=   11 SFac= 1.00D+00 NAtFMM=   60 NAOKFM=F Big=F
 Integral buffers will be    131072 words long.
 Raffenetti 2 integral format.
 Two-electron integral symmetry is turned on.
 R6APFD:  NTU= -4 IXU= 1 FactS= 1.050
 Nuclear repulsion after empirical dispersion term =      271.8034439992 Hartrees.
 One-electron integrals computed using PRISM.
 NBasis=   182 RedAO= T EigKep=  3.86D-06  NBF=   182
 NBsUse=   182 1.00D-06 EigRej= -1.00D+00 NBFU=   182
 Initial guess from the checkpoint file:  "FUCA0116.chk"
 B after Tr=    -0.000000   -0.000000    0.000000
         Rot=    1.000000    0.000042   -0.000009   -0.000443 Ang=   0.05 deg.
 ExpMin= 3.60D-02 ExpMax= 8.59D+03 ExpMxC= 1.30D+03 IAcc=3 IRadAn=         5 AccDes= 0.00D+00
 Harris functional with IExCor= 1009 and IRadAn=       5 diagonalized for initial guess.
 HarFok:  IExCor= 1009 AccDes= 0.00D+00 IRadAn=         5 IDoV= 1 UseB2=F ITyADJ=14
 ICtDFT=  3500011 ScaDFX=  1.000000  1.000000  1.000000  1.000000
 FoFCou: FMM=F IPFlag=           0 FMFlag=      100000 FMFlg1=           0
         NFxFlg=           0 DoJE=T BraDBF=F KetDBF=T FulRan=T
         wScrn=  0.000000 ICntrl=       500 IOpCl=  0 I1Cent=   200000004 NGrid=           0
         NMat0=    1 NMatS0=      1 NMatT0=    0 NMatD0=    1 NMtDS0=    0 NMtDT0=    0
 Petite list used in FoFCou.
 Keep R1 ints in memory in canonical form, NReq=154968074.
 Requested convergence on RMS density matrix=1.00D-08 within  32 cycles.
 Requested convergence on MAX density matrix=1.00D-06.
 Requested convergence on             energy=1.00D-06.
 No special actions if energy rises.
 SCF Done:  E(RM08HX) =  -343.327561877     A.U. after   12 cycles
            NFock= 12  Conv=0.47D-08     -V/T= 2.0038
 QCSCF skips out because SCF is already converged.
 R6APFD:  NTU= -4 IXU= 1 FactS= 1.050
 Calling FoFJK, ICntrl=      2127 FMM=F ISym2X=0 I1Cent= 0 IOpClX= 0 NMat=1 NMatS=1 NMatT=0.
 ***** Axes restored to original set *****
 -------------------------------------------------------------------
 Center     Atomic                   Forces (Hartrees/Bohr)
 Number     Number              X              Y              Z
 -------------------------------------------------------------------
      1        8           0.000099553   -0.000938694   -0.000067323
      2        8           0.001368829   -0.001458146   -0.000086777
      3        6          -0.000732253   -0.000730477   -0.000058104
      4        6           0.000660332    0.000592851    0.000030339
      5        6          -0.000864401    0.000608277   -0.000049341
      6        6          -0.000612065    0.000404431    0.000073363
      7        6           0.000757965    0.000864288    0.000235021
      8        1           0.000277869    0.000166725    0.000002172
      9        1           0.000040148    0.000140514   -0.000007562
     10        1          -0.000408825   -0.000237720    0.000005254
     11        1          -0.000587152    0.000587952   -0.000077044
 -------------------------------------------------------------------
 Cartesian Forces:  Max     0.001458146 RMS     0.000573427

 GradGradGradGradGradGradGradGradGradGradGradGradGradGradGradGradGradGrad
 Berny optimization.
 Using GEDIIS/GDIIS optimizer.
 FormGI is forming the generalized inverse of G from B-inverse, IUseBI=4.
 Internal  Forces:  Max     0.001994266 RMS     0.000519383
 Search for a local minimum.
 Step number   3 out of a maximum of   57
 All quantities printed in internal units (Hartrees-Bohrs-Radians)
 Mixed Optimization -- En-DIIS/RFO-DIIS
 Update second derivatives using D2CorX and points    1    2    3
 DE= -3.54D-04 DEPred=-3.62D-04 R= 9.80D-01
 TightC=F SS=  1.41D+00  RLast= 4.91D-02 DXNew= 5.5472D-01 1.4725D-01
 Trust test= 9.80D-01 RLast= 4.91D-02 DXMaxT set to 3.30D-01
 ITU=  1  1  0
 Use linear search instead of GDIIS.
     Eigenvalues ---    0.01783   0.01784   0.02039   0.02121   0.02170
     Eigenvalues ---    0.02235   0.02322   0.02374   0.14029   0.16000
     Eigenvalues ---    0.16023   0.16068   0.22255   0.22338   0.24917
     Eigenvalues ---    0.25545   0.32138   0.35408   0.35895   0.35973
     Eigenvalues ---    0.36068   0.41136   0.44042   0.49652   0.51977
     Eigenvalues ---    0.52462   0.87521
 RFO step:  Lambda=-3.81447177D-05 EMin= 1.78265277D-02
 Quartic linear search produced a step of  0.03910.
 Iteration  1 RMS(Cart)=  0.00279722 RMS(Int)=  0.00001002
 Iteration  2 RMS(Cart)=  0.00001009 RMS(Int)=  0.00000311
 Iteration  3 RMS(Cart)=  0.00000000 RMS(Int)=  0.00000311
 Variable       Old X    -DE/DX   Delta X   Delta X   Delta X     New X
                                 (Linear)    (Quad)   (Total)
    R1        2.56568   0.00023   0.00010   0.00038   0.00048   2.56617
    R2        2.53303   0.00037  -0.00028   0.00057   0.00029   2.53333
    R3        2.27155   0.00199  -0.00074   0.00187   0.00113   2.27268
    R4        2.58053  -0.00081  -0.00007  -0.00189  -0.00196   2.57857
    R5        2.76383   0.00149   0.00109   0.00408   0.00517   2.76899
    R6        2.68988   0.00114   0.00017   0.00280   0.00297   2.69285
    R7        2.04521  -0.00002   0.00001  -0.00004  -0.00003   2.04518
    R8        2.57834  -0.00048   0.00003  -0.00106  -0.00103   2.57731
    R9        2.04457  -0.00012  -0.00000  -0.00033  -0.00033   2.04424
   R10        2.04344   0.00017   0.00000   0.00050   0.00051   2.04394
   R11        2.09985   0.00047   0.00027   0.00152   0.00179   2.10165
    A1        1.86928   0.00085  -0.00026   0.00369   0.00343   1.87271
    A2        1.92377  -0.00056   0.00020  -0.00257  -0.00237   1.92140
    A3        2.05847   0.00025  -0.00001   0.00116   0.00114   2.05961
    A4        2.30095   0.00031  -0.00019   0.00141   0.00123   2.30218
    A5        1.84916   0.00026  -0.00009   0.00102   0.00093   1.85009
    A6        2.18772  -0.00046  -0.00015  -0.00275  -0.00290   2.18481
    A7        2.24631   0.00020   0.00023   0.00174   0.00197   2.24828
    A8        1.84671   0.00013  -0.00020   0.00074   0.00054   1.84726
    A9        2.23220   0.00002   0.00002   0.00017   0.00019   2.23240
   A10        2.20427  -0.00015   0.00017  -0.00091  -0.00074   2.20353
   A11        1.93586  -0.00068   0.00034  -0.00288  -0.00253   1.93332
   A12        2.02409   0.00079   0.00001   0.00439   0.00440   2.02849
   A13        2.32323  -0.00011  -0.00036  -0.00151  -0.00187   2.32137
   A14        2.14381   0.00027   0.00009   0.00110   0.00117   2.14499
   A15        2.12535   0.00059   0.00072   0.00424   0.00496   2.13031
   A16        2.01402  -0.00086  -0.00081  -0.00532  -0.00615   2.00787
    D1       -0.00024   0.00002  -0.00001   0.00073   0.00072   0.00048
    D2        3.14125   0.00002  -0.00001   0.00073   0.00072  -3.14122
    D3        0.00052  -0.00003   0.00003  -0.00141  -0.00139  -0.00087
    D4       -3.14146  -0.00001   0.00001  -0.00048  -0.00047   3.14126
    D5       -0.00011   0.00000  -0.00000   0.00018   0.00017   0.00007
    D6       -3.14157  -0.00000   0.00000  -0.00015  -0.00015   3.14146
    D7       -3.14158   0.00000  -0.00001   0.00019   0.00018  -3.14140
    D8        0.00014  -0.00000   0.00000  -0.00015  -0.00014  -0.00001
    D9        3.14043   0.00008  -0.00005   0.00486   0.00481  -3.13795
   D10        0.00081  -0.00007   0.00004  -0.00423  -0.00419  -0.00338
   D11       -0.00129   0.00008  -0.00005   0.00485   0.00480   0.00351
   D12       -3.14091  -0.00007   0.00005  -0.00424  -0.00420   3.13808
   D13        0.00041  -0.00002   0.00002  -0.00100  -0.00098  -0.00057
   D14       -3.14146  -0.00001   0.00001  -0.00025  -0.00025   3.14147
   D15       -3.14132  -0.00001   0.00001  -0.00065  -0.00064   3.14123
   D16       -0.00000   0.00000  -0.00000   0.00009   0.00009   0.00009
   D17       -0.00058   0.00003  -0.00003   0.00151   0.00148   0.00090
   D18        3.14149   0.00001  -0.00001   0.00035   0.00035  -3.14135
   D19        3.14128   0.00002  -0.00002   0.00078   0.00076  -3.14114
   D20        0.00017  -0.00001   0.00001  -0.00038  -0.00037  -0.00020
         Item               Value     Threshold  Converged?
 Maximum Force            0.001994     0.000450     NO 
 RMS     Force            0.000519     0.000300     NO 
 Maximum Displacement     0.009480     0.001800     NO 
 RMS     Displacement     0.002797     0.001200     NO 
 Predicted change in Energy=-1.962898D-05
 GradGradGradGradGradGradGradGradGradGradGradGradGradGradGradGradGradGrad

                          Input orientation:                          
 ---------------------------------------------------------------------
 Center     Atomic      Atomic             Coordinates (Angstroms)
 Number     Number       Type             X           Y           Z
 ---------------------------------------------------------------------
      1          8           0       -0.634396    1.110710    0.000337
      2          8           0        2.585484   -0.340945   -0.001390
      3          6           0        0.282091    0.108665    0.000924
      4          6           0       -0.347245   -1.102058    0.000491
      5          6           0       -1.743815   -0.818860   -0.000514
      6          6           0       -1.847902    0.541014    0.000143
      7          6           0        1.701093    0.474047    0.001729
      8          1           0        0.150039   -2.063307    0.000688
      9          1           0       -2.564800   -1.523277   -0.001193
     10          1           0       -2.692876    1.216214    0.000005
     11          1           0        1.905728    1.567196   -0.001620
 ---------------------------------------------------------------------
                    Distance matrix (angstroms):
                    1          2          3          4          5
     1  O    0.000000
     2  O    3.531988   0.000000
     3  C    1.357956   2.346865   0.000000
     4  C    2.231322   3.029884   1.364519   0.000000
     5  C    2.225770   4.355597   2.228138   1.424994   0.000000
     6  C    1.340578   4.520262   2.173430   2.225232   1.363853
     7  C    2.420713   1.202651   1.465289   2.584530   3.679538
     8  H    3.269514   2.982939   2.175982   1.082262   2.266126
     9  H    3.265632   5.284253   3.281467   2.257206   1.081767
    10  H    2.061182   5.503256   3.174444   3.297934   2.245495
    11  H    2.580817   2.025604   2.182549   3.492966   4.360324
                    6          7          8          9         10
     6  C    0.000000
     7  C    3.549627   0.000000
     8  H    3.282416   2.973875   0.000000
     9  H    2.185233   4.710324   2.768029   0.000000
    10  H    1.081608   4.456206   4.340210   2.742484   0.000000
    11  H    3.891374   1.112143   4.032741   5.434763   4.611979
                   11
    11  H    0.000000
 Stoichiometry    C5H4O2
 Framework group  C1[X(C5H4O2)]
 Deg. of freedom    27
 Full point group                 C1      NOp   1
 Largest Abelian subgroup         C1      NOp   1
 Largest concise Abelian subgroup C1      NOp   1
                         Standard orientation:                         
 ---------------------------------------------------------------------
 Center     Atomic      Atomic             Coordinates (Angstroms)
 Number     Number       Type             X           Y           Z
 ---------------------------------------------------------------------
      1          8           0       -0.642089   -1.102643    0.000131
      2          8           0        2.570166    0.365808    0.001246
      3          6           0        0.269153   -0.095825   -0.000793
      4          6           0       -0.366497    1.111595   -0.000652
      5          6           0       -1.761569    0.821109    0.000522
      6          6           0       -1.858554   -0.539291    0.000248
      7          6           0        1.690043   -0.453792   -0.001591
      8          1           0        0.125760    2.075427   -0.001148
      9          1           0       -2.586222    1.521228    0.001060
     10          1           0       -2.699990   -1.218894    0.000627
     11          1           0        1.900384   -1.545857    0.002048
 ---------------------------------------------------------------------
 Rotational constants (GHZ):           8.2727611           2.0594762           1.6489714
 Standard basis: 6-311++G(d,p) (5D, 7F)
 There are   189 symmetry adapted cartesian basis functions of A   symmetry.
 There are   182 symmetry adapted basis functions of A   symmetry.
   182 basis functions,   288 primitive gaussians,   189 cartesian basis functions
    25 alpha electrons       25 beta electrons
       nuclear repulsion energy       271.6652462899 Hartrees.
 NAtoms=   11 NActive=   11 NUniq=   11 SFac= 1.00D+00 NAtFMM=   60 NAOKFM=F Big=F
 Integral buffers will be    131072 words long.
 Raffenetti 2 integral format.
 Two-electron integral symmetry is turned on.
 R6APFD:  NTU= -4 IXU= 1 FactS= 1.050
 Nuclear repulsion after empirical dispersion term =      271.6610335883 Hartrees.
 One-electron integrals computed using PRISM.
 NBasis=   182 RedAO= T EigKep=  3.86D-06  NBF=   182
 NBsUse=   182 1.00D-06 EigRej= -1.00D+00 NBFU=   182
 Initial guess from the checkpoint file:  "FUCA0116.chk"
 B after Tr=    -0.000000   -0.000000   -0.000000
         Rot=    1.000000   -0.000045    0.000012    0.000157 Ang=  -0.02 deg.
 Keep R1 ints in memory in canonical form, NReq=154968074.
 Requested convergence on RMS density matrix=1.00D-08 within  32 cycles.
 Requested convergence on MAX density matrix=1.00D-06.
 Requested convergence on             energy=1.00D-06.
 No special actions if energy rises.
 SCF Done:  E(RM08HX) =  -343.327574336     A.U. after   11 cycles
            NFock= 11  Conv=0.70D-08     -V/T= 2.0039
 QCSCF skips out because SCF is already converged.
 R6APFD:  NTU= -4 IXU= 1 FactS= 1.050
 Calling FoFJK, ICntrl=      2127 FMM=F ISym2X=0 I1Cent= 0 IOpClX= 0 NMat=1 NMatS=1 NMatT=0.
 ***** Axes restored to original set *****
 -------------------------------------------------------------------
 Center     Atomic                   Forces (Hartrees/Bohr)
 Number     Number              X              Y              Z
 -------------------------------------------------------------------
      1        8           0.000551694    0.000785993    0.000132196
      2        8           0.000063241   -0.000099487    0.000302440
      3        6          -0.000363912   -0.000169838    0.000194308
      4        6          -0.000188047   -0.000253995   -0.000036855
      5        6          -0.000053969   -0.000217293    0.000073998
      6        6           0.000326562   -0.000200620   -0.000114414
      7        6          -0.000408499    0.000390711   -0.000821141
      8        1           0.000012268   -0.000029345   -0.000001338
      9        1           0.000017574   -0.000046207    0.000008442
     10        1           0.000055223   -0.000058315   -0.000015224
     11        1          -0.000012136   -0.000101604    0.000277587
 -------------------------------------------------------------------
 Cartesian Forces:  Max     0.000821141 RMS     0.000283505

 GradGradGradGradGradGradGradGradGradGradGradGradGradGradGradGradGradGrad
 Berny optimization.
 Using GEDIIS/GDIIS optimizer.
 FormGI is forming the generalized inverse of G from B-inverse, IUseBI=4.
 Internal  Forces:  Max     0.000590693 RMS     0.000202979
 Search for a local minimum.
 Step number   4 out of a maximum of   57
 All quantities printed in internal units (Hartrees-Bohrs-Radians)
 Mixed Optimization -- En-DIIS/RFO-DIIS
 Swapping is turned off.
 Update second derivatives using D2CorX and points    1    2    3    4
 DE= -1.25D-05 DEPred=-1.96D-05 R= 6.35D-01
 TightC=F SS=  1.41D+00  RLast= 1.62D-02 DXNew= 5.5472D-01 4.8557D-02
 Trust test= 6.35D-01 RLast= 1.62D-02 DXMaxT set to 3.30D-01
 ITU=  1  1  1  0
     Eigenvalues ---    0.01783   0.02029   0.02053   0.02122   0.02173
     Eigenvalues ---    0.02261   0.02342   0.02374   0.12587   0.16007
     Eigenvalues ---    0.16012   0.16052   0.22134   0.22370   0.25003
     Eigenvalues ---    0.28903   0.33362   0.35868   0.35964   0.36024
     Eigenvalues ---    0.37222   0.41483   0.43996   0.50732   0.52217
     Eigenvalues ---    0.52485   0.83714
 En-DIIS/RFO-DIIS/Sim-DIIS IScMMF=       -3 using points:     4    3
 RFO step:  Lambda=-1.38374808D-05.
 DidBck=T Rises=F RFO-DIIS coefs:    0.33388    0.66612
 Iteration  1 RMS(Cart)=  0.00263386 RMS(Int)=  0.00002319
 Iteration  2 RMS(Cart)=  0.00001972 RMS(Int)=  0.00001404
 Iteration  3 RMS(Cart)=  0.00000000 RMS(Int)=  0.00001404
 Variable       Old X    -DE/DX   Delta X   Delta X   Delta X     New X
                                 (Linear)    (Quad)   (Total)
    R1        2.56617  -0.00019  -0.00032   0.00016  -0.00017   2.56600
    R2        2.53333   0.00016  -0.00020   0.00044   0.00025   2.53357
    R3        2.27268   0.00011  -0.00075   0.00103   0.00028   2.27296
    R4        2.57857   0.00023   0.00131  -0.00147  -0.00017   2.57840
    R5        2.76899  -0.00030  -0.00344   0.00420   0.00076   2.76975
    R6        2.69285  -0.00029  -0.00198   0.00223   0.00025   2.69310
    R7        2.04518   0.00003   0.00002   0.00004   0.00006   2.04524
    R8        2.57731   0.00020   0.00069  -0.00069   0.00000   2.57731
    R9        2.04424   0.00002   0.00022  -0.00026  -0.00004   2.04420
   R10        2.04394  -0.00008  -0.00034   0.00030  -0.00004   2.04391
   R11        2.10165  -0.00010  -0.00120   0.00140   0.00021   2.10186
    A1        1.87271  -0.00059  -0.00228   0.00138  -0.00090   1.87181
    A2        1.92140   0.00049   0.00158  -0.00075   0.00083   1.92223
    A3        2.05961  -0.00058  -0.00076  -0.00067  -0.00143   2.05818
    A4        2.30218   0.00009  -0.00082   0.00142   0.00060   2.30278
    A5        1.85009  -0.00016  -0.00062   0.00034  -0.00028   1.84982
    A6        2.18481   0.00008   0.00193  -0.00239  -0.00046   2.18435
    A7        2.24828   0.00008  -0.00131   0.00205   0.00074   2.24902
    A8        1.84726  -0.00015  -0.00036   0.00003  -0.00033   1.84693
    A9        2.23240   0.00002  -0.00013   0.00020   0.00007   2.23247
   A10        2.20353   0.00012   0.00049  -0.00023   0.00026   2.20379
   A11        1.93332   0.00040   0.00169  -0.00101   0.00068   1.93400
   A12        2.02849  -0.00019  -0.00293   0.00341   0.00048   2.02897
   A13        2.32137  -0.00021   0.00124  -0.00240  -0.00116   2.32021
   A14        2.14499  -0.00005  -0.00078   0.00088   0.00005   2.14503
   A15        2.13031   0.00002  -0.00330   0.00460   0.00124   2.13155
   A16        2.00787   0.00003   0.00410  -0.00539  -0.00135   2.00652
    D1        0.00048  -0.00004  -0.00048  -0.00050  -0.00098  -0.00050
    D2       -3.14122  -0.00003  -0.00048  -0.00039  -0.00087   3.14110
    D3       -0.00087   0.00005   0.00092   0.00052   0.00144   0.00057
    D4        3.14126   0.00002   0.00031   0.00037   0.00067  -3.14125
    D5        0.00007   0.00000  -0.00012   0.00029   0.00017   0.00024
    D6        3.14146   0.00001   0.00010   0.00015   0.00025  -3.14147
    D7       -3.14140   0.00000  -0.00012   0.00016   0.00004  -3.14136
    D8       -0.00001   0.00001   0.00010   0.00003   0.00012   0.00012
    D9       -3.13795  -0.00029  -0.00320  -0.00762  -0.01082   3.13441
   D10       -0.00338   0.00026   0.00279   0.00701   0.00980   0.00642
   D11        0.00351  -0.00029  -0.00320  -0.00748  -0.01068  -0.00717
   D12        3.13808   0.00027   0.00279   0.00715   0.00994  -3.13516
   D13       -0.00057   0.00003   0.00065   0.00002   0.00068   0.00011
   D14        3.14147   0.00000   0.00017  -0.00017  -0.00000   3.14147
   D15        3.14123   0.00002   0.00043   0.00017   0.00059  -3.14137
   D16        0.00009  -0.00000  -0.00006  -0.00003  -0.00009   0.00000
   D17        0.00090  -0.00005  -0.00098  -0.00034  -0.00132  -0.00042
   D18       -3.14135  -0.00001  -0.00023  -0.00015  -0.00038   3.14146
   D19       -3.14114  -0.00003  -0.00051  -0.00015  -0.00065   3.14139
   D20       -0.00020   0.00001   0.00025   0.00004   0.00029   0.00009
         Item               Value     Threshold  Converged?
 Maximum Force            0.000591     0.000450     NO 
 RMS     Force            0.000203     0.000300     YES
 Maximum Displacement     0.010087     0.001800     NO 
 RMS     Displacement     0.002636     0.001200     NO 
 Predicted change in Energy=-6.919592D-06
 GradGradGradGradGradGradGradGradGradGradGradGradGradGradGradGradGradGrad

                          Input orientation:                          
 ---------------------------------------------------------------------
 Center     Atomic      Atomic             Coordinates (Angstroms)
 Number     Number       Type             X           Y           Z
 ---------------------------------------------------------------------
      1          8           0       -0.633454    1.110839   -0.001032
      2          8           0        2.586112   -0.340564    0.002842
      3          6           0        0.281985    0.107954   -0.001808
      4          6           0       -0.347500   -1.102591   -0.000675
      5          6           0       -1.744077   -0.818763    0.000575
      6          6           0       -1.847127    0.541193   -0.000042
      7          6           0        1.701210    0.474070   -0.003608
      8          1           0        0.150090   -2.063718   -0.000856
      9          1           0       -2.565400   -1.522753    0.001578
     10          1           0       -2.692349    1.216050    0.000342
     11          1           0        1.903910    1.567682    0.002285
 ---------------------------------------------------------------------
                    Distance matrix (angstroms):
                    1          2          3          4          5
     1  O    0.000000
     2  O    3.531599   0.000000
     3  C    1.357868   2.347381   0.000000
     4  C    2.231825   3.030970   1.364431   0.000000
     5  C    2.226399   4.356515   2.227945   1.425127   0.000000
     6  C    1.340709   4.520079   2.172743   2.225063   1.363855
     7  C    2.419946   1.202798   1.465690   2.585166   3.679870
     8  H    3.269824   2.983869   2.175674   1.082294   2.266668
     9  H    3.266226   5.285419   3.281283   2.257348   1.081745
    10  H    2.061583   5.503200   3.174042   3.297638   2.244925
    11  H    2.578164   2.026525   2.182078   3.492737   4.359236
                    6          7          8          9         10
     6  C    0.000000
     7  C    3.548974   0.000000
     8  H    3.282443   2.974281   0.000000
     9  H    2.185358   4.710764   2.768851   0.000000
    10  H    1.081589   4.455774   4.340085   2.741744   0.000000
    11  H    3.888954   1.112254   4.032736   5.433739   4.609691
                   11
    11  H    0.000000
 Stoichiometry    C5H4O2
 Framework group  C1[X(C5H4O2)]
 Deg. of freedom    27
 Full point group                 C1      NOp   1
 Largest Abelian subgroup         C1      NOp   1
 Largest concise Abelian subgroup C1      NOp   1
                         Standard orientation:                         
 ---------------------------------------------------------------------
 Center     Atomic      Atomic             Coordinates (Angstroms)
 Number     Number       Type             X           Y           Z
 ---------------------------------------------------------------------
      1          8           0       -0.641217   -1.102893   -0.000094
      2          8           0        2.570492    0.365818   -0.002535
      3          6           0        0.268811   -0.095097    0.001475
      4          6           0       -0.367180    1.112043    0.001038
      5          6           0       -1.762209    0.820705   -0.000608
      6          6           0       -1.857938   -0.539786   -0.000895
      7          6           0        1.689986   -0.453571    0.003250
      8          1           0        0.125231    2.075834    0.001921
      9          1           0       -2.587308    1.520264   -0.001275
     10          1           0       -2.699516   -1.219183   -0.001846
     11          1           0        1.898569   -1.546072   -0.003328
 ---------------------------------------------------------------------
 Rotational constants (GHZ):           8.2706284           2.0594268           1.6488573
 Standard basis: 6-311++G(d,p) (5D, 7F)
 There are   189 symmetry adapted cartesian basis functions of A   symmetry.
 There are   182 symmetry adapted basis functions of A   symmetry.
   182 basis functions,   288 primitive gaussians,   189 cartesian basis functions
    25 alpha electrons       25 beta electrons
       nuclear repulsion energy       271.6536259170 Hartrees.
 NAtoms=   11 NActive=   11 NUniq=   11 SFac= 1.00D+00 NAtFMM=   60 NAOKFM=F Big=F
 Integral buffers will be    131072 words long.
 Raffenetti 2 integral format.
 Two-electron integral symmetry is turned on.
 R6APFD:  NTU= -4 IXU= 1 FactS= 1.050
 Nuclear repulsion after empirical dispersion term =      271.6494164557 Hartrees.
 One-electron integrals computed using PRISM.
 NBasis=   182 RedAO= T EigKep=  3.86D-06  NBF=   182
 NBsUse=   182 1.00D-06 EigRej= -1.00D+00 NBFU=   182
 Initial guess from the checkpoint file:  "FUCA0116.chk"
 B after Tr=     0.000000   -0.000000    0.000000
         Rot=    1.000000    0.000000    0.000000   -0.000099 Ang=   0.01 deg.
 Keep R1 ints in memory in canonical form, NReq=154968074.
 Requested convergence on RMS density matrix=1.00D-08 within  32 cycles.
 Requested convergence on MAX density matrix=1.00D-06.
 Requested convergence on             energy=1.00D-06.
 No special actions if energy rises.
 SCF Done:  E(RM08HX) =  -343.327570079     A.U. after   11 cycles
            NFock= 11  Conv=0.47D-08     -V/T= 2.0039
 QCSCF skips out because SCF is already converged.
 R6APFD:  NTU= -4 IXU= 1 FactS= 1.050
 Calling FoFJK, ICntrl=      2127 FMM=F ISym2X=0 I1Cent= 0 IOpClX= 0 NMat=1 NMatS=1 NMatT=0.
 ***** Axes restored to original set *****
 -------------------------------------------------------------------
 Center     Atomic                   Forces (Hartrees/Bohr)
 Number     Number              X              Y              Z
 -------------------------------------------------------------------
      1        8           0.000215235    0.000435411   -0.000148196
      2        8          -0.000128715    0.000223687   -0.000587119
      3        6           0.000224673    0.000008054   -0.000388660
      4        6          -0.000210128   -0.000200868   -0.000010602
      5        6           0.000164905   -0.000135378   -0.000020811
      6        6           0.000079207   -0.000130060    0.000072641
      7        6          -0.000521117    0.000039649    0.001597650
      8        1          -0.000039205   -0.000028038   -0.000001368
      9        1          -0.000003475   -0.000033962    0.000002324
     10        1           0.000084455    0.000014404    0.000021908
     11        1           0.000134164   -0.000192899   -0.000537766
 -------------------------------------------------------------------
 Cartesian Forces:  Max     0.001597650 RMS     0.000357226

 GradGradGradGradGradGradGradGradGradGradGradGradGradGradGradGradGradGrad
 Berny optimization.
 Using GEDIIS/GDIIS optimizer.
 FormGI is forming the generalized inverse of G from B-inverse, IUseBI=4.
 Internal  Forces:  Max     0.000562230 RMS     0.000207141
 Search for a local minimum.
 Step number   5 out of a maximum of   57
 All quantities printed in internal units (Hartrees-Bohrs-Radians)
 Mixed Optimization -- En-DIIS/RFO-DIIS
 Swapping is turned off.
 Update second derivatives using D2CorX and points    1    2    3    4    5
 DE=  4.26D-06 DEPred=-6.92D-06 R=-6.15D-01
 Trust test=-6.15D-01 RLast= 2.11D-02 DXMaxT set to 1.65D-01
 ITU= -1  1  1  1  0
     Eigenvalues ---    0.01783   0.02039   0.02121   0.02168   0.02234
     Eigenvalues ---    0.02318   0.02373   0.07306   0.08857   0.15995
     Eigenvalues ---    0.16017   0.16054   0.22031   0.22371   0.24624
     Eigenvalues ---    0.28261   0.33512   0.35480   0.35931   0.35966
     Eigenvalues ---    0.36290   0.41623   0.43845   0.50906   0.51916
     Eigenvalues ---    0.52594   0.83470
 En-DIIS/RFO-DIIS/Sim-DIIS IScMMF=       -3 using points:     5    4    3
 RFO step:  Lambda=-1.70158352D-05.
 EnCoef did     3 forward-backward iterations
 DidBck=T Rises=T En-DIIS coefs:    0.32417    0.37895    0.29688
 Iteration  1 RMS(Cart)=  0.00171762 RMS(Int)=  0.00000833
 Iteration  2 RMS(Cart)=  0.00000899 RMS(Int)=  0.00000011
 Iteration  3 RMS(Cart)=  0.00000000 RMS(Int)=  0.00000011
 Variable       Old X    -DE/DX   Delta X   Delta X   Delta X     New X
                                 (Linear)    (Quad)   (Total)
    R1        2.56600  -0.00006  -0.00003  -0.00009  -0.00012   2.56588
    R2        2.53357   0.00005  -0.00025   0.00035   0.00009   2.53366
    R3        2.27296  -0.00025  -0.00052   0.00044  -0.00009   2.27287
    R4        2.57840   0.00022   0.00070  -0.00048   0.00021   2.57861
    R5        2.76975  -0.00048  -0.00205   0.00157  -0.00048   2.76927
    R6        2.69310  -0.00026  -0.00105   0.00075  -0.00031   2.69279
    R7        2.04524   0.00001  -0.00003   0.00006   0.00003   2.04527
    R8        2.57731   0.00014   0.00030  -0.00017   0.00014   2.57745
    R9        2.04420   0.00002   0.00013  -0.00009   0.00003   2.04423
   R10        2.04391  -0.00006  -0.00013   0.00003  -0.00009   2.04381
   R11        2.10186  -0.00017  -0.00067   0.00046  -0.00022   2.10164
    A1        1.87181  -0.00030  -0.00041  -0.00047  -0.00088   1.87093
    A2        1.92223   0.00023   0.00014   0.00056   0.00071   1.92293
    A3        2.05818  -0.00030   0.00063  -0.00156  -0.00093   2.05725
    A4        2.30278   0.00007  -0.00077   0.00100   0.00023   2.30301
    A5        1.84982  -0.00009  -0.00009  -0.00018  -0.00027   1.84954
    A6        2.18435   0.00009   0.00117  -0.00098   0.00019   2.18455
    A7        2.24902  -0.00000  -0.00108   0.00116   0.00008   2.24910
    A8        1.84693  -0.00003   0.00006  -0.00025  -0.00018   1.84674
    A9        2.23247  -0.00001  -0.00011   0.00009  -0.00001   2.23246
   A10        2.20379   0.00004   0.00004   0.00015   0.00020   2.20399
   A11        1.93400   0.00019   0.00029   0.00034   0.00063   1.93463
   A12        2.02897  -0.00016  -0.00163   0.00124  -0.00039   2.02859
   A13        2.32021  -0.00003   0.00133  -0.00158  -0.00024   2.31997
   A14        2.14503   0.00001  -0.00038   0.00035  -0.00003   2.14500
   A15        2.13155  -0.00017  -0.00231   0.00205  -0.00026   2.13129
   A16        2.00652   0.00018   0.00274  -0.00236   0.00038   2.00689
    D1       -0.00050   0.00005   0.00045  -0.00004   0.00040  -0.00010
    D2        3.14110   0.00004   0.00037  -0.00001   0.00036   3.14147
    D3        0.00057  -0.00005  -0.00056   0.00037  -0.00019   0.00038
    D4       -3.14125  -0.00003  -0.00032   0.00005  -0.00027  -3.14153
    D5        0.00024  -0.00003  -0.00017  -0.00028  -0.00045  -0.00021
    D6       -3.14147  -0.00001  -0.00013   0.00003  -0.00010  -3.14157
    D7       -3.14136  -0.00003  -0.00008  -0.00032  -0.00040   3.14142
    D8        0.00012  -0.00001  -0.00004  -0.00001  -0.00005   0.00006
    D9        3.13441   0.00056   0.00588   0.00152   0.00740  -3.14137
   D10        0.00642  -0.00051  -0.00538  -0.00135  -0.00673  -0.00031
   D11       -0.00717   0.00056   0.00579   0.00156   0.00735   0.00019
   D12       -3.13516  -0.00051  -0.00548  -0.00130  -0.00678   3.14124
   D13        0.00011   0.00000  -0.00017   0.00048   0.00032   0.00042
   D14        3.14147   0.00002   0.00008   0.00021   0.00029  -3.14142
   D15       -3.14137  -0.00002  -0.00021   0.00016  -0.00005  -3.14141
   D16        0.00000  -0.00000   0.00003  -0.00011  -0.00008  -0.00008
   D17       -0.00042   0.00003   0.00045  -0.00053  -0.00008  -0.00050
   D18        3.14146   0.00001   0.00015  -0.00014   0.00002   3.14147
   D19        3.14139   0.00001   0.00022  -0.00027  -0.00005   3.14134
   D20        0.00009  -0.00000  -0.00008   0.00013   0.00004   0.00013
         Item               Value     Threshold  Converged?
 Maximum Force            0.000562     0.000450     NO 
 RMS     Force            0.000207     0.000300     YES
 Maximum Displacement     0.007040     0.001800     NO 
 RMS     Displacement     0.001719     0.001200     NO 
 Predicted change in Energy=-8.228016D-06
 GradGradGradGradGradGradGradGradGradGradGradGradGradGradGradGradGradGrad

                          Input orientation:                          
 ---------------------------------------------------------------------
 Center     Atomic      Atomic             Coordinates (Angstroms)
 Number     Number       Type             X           Y           Z
 ---------------------------------------------------------------------
      1          8           0       -0.632961    1.111163    0.000067
[...]
    A2        1.92293  -0.00004   0.00000  -0.00024  -0.00024   1.92270
    A3        2.05725  -0.00003   0.00000  -0.00025  -0.00025   2.05699
    A4        2.30301   0.00008   0.00000   0.00049   0.00049   2.30349
    A5        1.84954   0.00000   0.00000   0.00007   0.00007   1.84961
    A6        2.18455   0.00002   0.00000   0.00025   0.00025   2.18480
    A7        2.24910  -0.00003   0.00000  -0.00032  -0.00032   2.24877
    A8        1.84674   0.00005   0.00000   0.00020   0.00020   1.84694
    A9        2.23246  -0.00002   0.00000  -0.00010  -0.00010   2.23236
   A10        2.20399  -0.00003   0.00000  -0.00010  -0.00010   2.20389
   A11        1.93463  -0.00004   0.00000  -0.00019  -0.00019   1.93444
   A12        2.02859  -0.00002   0.00000  -0.00027  -0.00027   2.02831
   A13        2.31997   0.00006   0.00000   0.00046   0.00046   2.32043
   A14        2.14500   0.00005   0.00000   0.00029   0.00029   2.14530
   A15        2.13129  -0.00015   0.00000  -0.00104  -0.00104   2.13025
   A16        2.00689   0.00010   0.00000   0.00075   0.00075   2.00764
    D1       -0.00010   0.00000   0.00000   0.00009   0.00009  -0.00000
    D2        3.14147   0.00001   0.00000   0.00013   0.00013   3.14159
    D3        0.00038  -0.00002   0.00000  -0.00038  -0.00038   0.00000
    D4       -3.14153  -0.00000   0.00000  -0.00007  -0.00007   3.14159
    D5       -0.00021   0.00001   0.00000   0.00021   0.00021   0.00000
    D6       -3.14157  -0.00000   0.00000  -0.00003  -0.00003   3.14159
    D7        3.14142   0.00001   0.00000   0.00017   0.00017  -3.14159
    D8        0.00006  -0.00000   0.00000  -0.00006  -0.00006   0.00000
    D9       -3.14137  -0.00002   0.00000  -0.00023  -0.00023   3.14159
   D10       -0.00031   0.00002   0.00000   0.00031   0.00031  -0.00000
   D11        0.00019  -0.00002   0.00000  -0.00019  -0.00019  -0.00000
   D12        3.14124   0.00002   0.00000   0.00035   0.00035   3.14159
   D13        0.00042  -0.00002   0.00000  -0.00042  -0.00042   0.00000
   D14       -3.14142  -0.00001   0.00000  -0.00017  -0.00017   3.14159
   D15       -3.14141  -0.00001   0.00000  -0.00018  -0.00018  -3.14159
   D16       -0.00008   0.00000   0.00000   0.00008   0.00008  -0.00000
   D17       -0.00050   0.00003   0.00000   0.00050   0.00050  -0.00000
   D18        3.14147   0.00001   0.00000   0.00012   0.00012  -3.14159
   D19        3.14134   0.00001   0.00000   0.00025   0.00025  -3.14159
   D20        0.00013  -0.00001   0.00000  -0.00013  -0.00013   0.00000
         Item               Value     Threshold  Converged?
 Maximum Force            0.000287     0.000450     YES
 RMS     Force            0.000061     0.000300     YES
 Maximum Displacement     0.001215     0.001800     YES
 RMS     Displacement     0.000337     0.001200     YES
 Predicted change in Energy=-3.994401D-07
 Optimization completed.
    -- Stationary point found.
                           ----------------------------
                           !   Optimized Parameters   !
                           ! (Angstroms and Degrees)  !
 --------------------------                            --------------------------
 ! Name  Definition              Value          Derivative Info.                !
 --------------------------------------------------------------------------------
 ! R1    R(1,3)                  1.3578         -DE/DX =    0.0001              !
 ! R2    R(1,6)                  1.3408         -DE/DX =    0.0                 !
 ! R3    R(2,7)                  1.2028         -DE/DX =   -0.0001              !
 ! R4    R(3,4)                  1.3645         -DE/DX =    0.0001              !
 ! R5    R(3,7)                  1.4654         -DE/DX =   -0.0003              !
 ! R6    R(4,5)                  1.425          -DE/DX =   -0.0001              !
 ! R7    R(4,8)                  1.0823         -DE/DX =    0.0                 !
 ! R8    R(5,6)                  1.3639         -DE/DX =    0.0                 !
 ! R9    R(5,9)                  1.0818         -DE/DX =    0.0                 !
 ! R10   R(6,10)                 1.0815         -DE/DX =    0.0                 !
 ! R11   R(7,11)                 1.1121         -DE/DX =   -0.0001              !
 ! A1    A(3,1,6)              107.1964         -DE/DX =    0.0                 !
 ! A2    A(1,3,4)              110.1759         -DE/DX =    0.0                 !
 ! A3    A(1,3,7)              117.8715         -DE/DX =    0.0                 !
 ! A4    A(4,3,7)              131.9525         -DE/DX =    0.0001              !
 ! A5    A(3,4,5)              105.971          -DE/DX =    0.0                 !
 ! A6    A(3,4,8)              125.1652         -DE/DX =    0.0                 !
 ! A7    A(5,4,8)              128.8638         -DE/DX =    0.0                 !
 ! A8    A(4,5,6)              105.8105         -DE/DX =    0.0001              !
 ! A9    A(4,5,9)              127.9103         -DE/DX =    0.0                 !
 ! A10   A(6,5,9)              126.2792         -DE/DX =    0.0                 !
 ! A11   A(1,6,5)              110.8462         -DE/DX =    0.0                 !
 ! A12   A(1,6,10)             116.2294         -DE/DX =    0.0                 !
 ! A13   A(5,6,10)             132.9244         -DE/DX =    0.0001              !
 ! A14   A(2,7,3)              122.8997         -DE/DX =    0.0001              !
 ! A15   A(2,7,11)             122.1138         -DE/DX =   -0.0002              !
 ! A16   A(3,7,11)             114.9865         -DE/DX =    0.0001              !
 ! D1    D(6,1,3,4)             -0.0054         -DE/DX =    0.0                 !
 ! D2    D(6,1,3,7)            179.9927         -DE/DX =    0.0                 !
 ! D3    D(3,1,6,5)              0.0219         -DE/DX =    0.0                 !
 ! D4    D(3,1,6,10)           180.0039         -DE/DX =    0.0                 !
 ! D5    D(1,3,4,5)             -0.0119         -DE/DX =    0.0                 !
 ! D6    D(1,3,4,8)            180.0015         -DE/DX =    0.0                 !
 ! D7    D(7,3,4,5)           -180.0097         -DE/DX =    0.0                 !
 ! D8    D(7,3,4,8)              0.0037         -DE/DX =    0.0                 !
 ! D9    D(1,3,7,2)            180.013          -DE/DX =    0.0                 !
 ! D10   D(1,3,7,11)            -0.0177         -DE/DX =    0.0                 !
 ! D11   D(4,3,7,2)              0.0107         -DE/DX =    0.0                 !
 ! D12   D(4,3,7,11)           179.98           -DE/DX =    0.0                 !
 ! D13   D(3,4,5,6)              0.0243         -DE/DX =    0.0                 !
 ! D14   D(3,4,5,9)            180.0097         -DE/DX =    0.0                 !
 ! D15   D(8,4,5,6)           -179.9898         -DE/DX =    0.0                 !
 ! D16   D(8,4,5,9)             -0.0044         -DE/DX =    0.0                 !
 ! D17   D(4,5,6,1)             -0.0288         -DE/DX =    0.0                 !
 ! D18   D(4,5,6,10)          -180.0068         -DE/DX =    0.0                 !
 ! D19   D(9,5,6,1)           -180.0145         -DE/DX =    0.0                 !
 ! D20   D(9,5,6,10)             0.0075         -DE/DX =    0.0                 !
 --------------------------------------------------------------------------------
 GradGradGradGradGradGradGradGradGradGradGradGradGradGradGradGradGradGrad


 ----------------------------------------------------------------------

 Electric dipole moment (input orientation):
 (Debye = 10**-18 statcoulomb cm , SI units = C m)
                  (au)            (Debye)         (10**-30 SI)
   Tot        0.135775D+01      0.345106D+01      0.115115D+02
   x         -0.134113D+01     -0.340881D+01     -0.113706D+02
   y          0.211803D+00      0.538349D+00      0.179574D+01
   z          0.543705D-04      0.138196D-03      0.460973D-03

 Dipole polarizability, Alpha (input orientation).
 (esu units = cm**3 , SI units = C**2 m**2 J**-1)
 Alpha(0;0):
               (au)            (10**-24 esu)      (10**-40 SI)
   iso        0.625424D+02      0.926783D+01      0.103119D+02
   aniso      0.453683D+02      0.672289D+01      0.748022D+01
   xx         0.887241D+02      0.131476D+02      0.146286D+02
   yx        -0.144411D+00     -0.213996D-01     -0.238102D-01
   yy         0.625651D+02      0.927119D+01      0.103156D+02
   zx         0.349510D-04      0.517921D-05      0.576265D-05
   zy        -0.159177D-03     -0.235875D-04     -0.262447D-04
   zz         0.363381D+02      0.538475D+01      0.599134D+01

 ----------------------------------------------------------------------

 Dipole orientation:
     8          0.29450587          1.86438064          1.50903786
     8          0.01981900          0.12582404         -4.92685926
     6          0.04442117          0.28072196         -0.49426588
     6         -0.33736540         -2.13472326          0.32372833
     6         -0.31855974         -2.01763512          3.01390952
     6          0.07218208          0.46020675          3.60625551
     6          0.21663809          1.36954850         -3.03467536
     1         -0.59437817         -3.76205187         -0.88823962
     1         -0.56112581         -3.55457880          4.33975242
     1          0.22963704          1.45857006          5.38267022
     1          0.54394151          3.44478450         -3.09075165

 Electric dipole moment (dipole orientation):
 (Debye = 10**-18 statcoulomb cm , SI units = C m)
                  (au)            (Debye)         (10**-30 SI)
   Tot        0.135775D+01      0.345106D+01      0.115115D+02
   x          0.000000D+00      0.000000D+00      0.000000D+00
   y          0.000000D+00      0.000000D+00      0.000000D+00
   z          0.135775D+01      0.345106D+01      0.115115D+02

 Dipole polarizability, Alpha (dipole orientation).
 (esu units = cm**3 , SI units = C**2 m**2 J**-1)
 Alpha(0;0):
               (au)            (10**-24 esu)      (10**-40 SI)
   iso        0.625424D+02      0.926783D+01      0.103119D+02
   aniso      0.453683D+02      0.672289D+01      0.748022D+01
   xx         0.369907D+02      0.548146D+01      0.609895D+01
   yx         0.413243D+01      0.612362D+00      0.681345D+00
   yy         0.625045D+02      0.926221D+01      0.103056D+02
   zx        -0.609450D+00     -0.903111D-01     -0.100485D+00
   zy        -0.384535D+01     -0.569821D+00     -0.634012D+00
   zz         0.881320D+02      0.130598D+02      0.145310D+02

 ----------------------------------------------------------------------
 1\1\GINC-PITOMBA\Freq\RM08HX\6-311++G(d,p)\C5H4O2\VALTER\20-Sep-2025\0
 \\#N Geom=AllCheck Guess=TCheck SCRF=Check GenChk RM08HX/6-311++G(d,p)
  Freq\\FUCA0116\\0,1\O,-0.6329612448,1.1111628935,0.000066975\O,2.5857
 787701,-0.3401287363,-0.0001316927\C,0.281813919,0.1077575798,0.000035
 0868\C,-0.3476189271,-1.1029423154,-0.0001142316\C,-1.7439843869,-0.81
 88843496,0.0001069523\C,-1.8465318279,0.5411834143,-0.0001837288\C,1.7
 00682196,0.474252517,0.0001172228\H,0.1498758731,-2.0641352748,-0.0001
 45739\H,-2.5654447118,-1.5227396668,0.0002193083\H,-2.6916292635,1.216
 1183868,-0.0002585155\H,1.9034196038,1.5677555514,-0.0001116375\\Versi
 on=ES64L-G16RevB.01\State=1-A\HF=-343.3275783\RMSD=1.999e-09\RMSF=1.12
 8e-04\ZeroPoint=0.0800885\Thermal=0.085631\Dipole=-1.3411295,0.2118026
 ,0.0000544\DipoleDeriv=-0.1124798,-0.1536814,0.0000458,-0.1164208,-0.8
 339307,-0.0000221,-0.0000532,-0.0001186,-0.116088,-1.3477482,0.1203824
 ,-0.0000383,0.5539123,-0.6325102,0.0000208,0.0001661,-0.0000689,-0.350
 0046,-0.8753382,-0.2230941,-0.0000786,-0.6533395,0.2533408,0.0000379,-
 0.0000629,0.0000088,0.01989,0.3648707,-0.0924754,0.0000109,0.0932065,-
 0.0285857,0.0000301,-0.0000479,-0.0000222,-0.1396147,-0.1701542,0.1104
 388,-0.0000389,0.302069,-0.1546835,-0.0000271,0.0000052,0.0000096,-0.1
 98919,-0.0699727,0.1882167,0.0000431,-0.0792334,0.4723096,-0.0000272,-
 0.0000927,0.0001262,-0.0528732,2.0262647,0.0684387,0.0000651,-0.051273
 7,0.9007893,-0.0000091,-0.0000247,-0.000003,0.2304483,0.0834191,0.0451
 539,0.0000098,0.0358673,0.0748842,-0.0000029,0.000024,0.0000327,0.1700
 222,0.0167487,-0.0510872,0.0000041,-0.0406872,0.0836822,0.0000061,0.00
 00002,-0.000018,0.1769576,0.0597615,0.0171794,-0.0000106,0.0314445,0.0
 620801,0.0000101,0.0001031,-0.0000301,0.1817932,0.0246287,-0.0294717,-
 0.0000124,-0.075545,-0.1973762,-0.0000168,-0.0000172,0.0000836,0.07838
 83\Polar=88.7240924,-0.1444114,62.5650659,0.000035,-0.0001592,36.33809
 43\Quadrupole=-1.6556444,2.6515633,-0.9959188,2.4408575,0.0006556,-0.0
 005401\PG=C01 [X(C5H4O2)]\NImag=0\\0.52560834,0.01059746,0.48951953,0.
 00003326,0.00002437,0.10279290,-0.00432739,-0.00590328,0.00000030,0.52
 128324,-0.00829563,0.00378350,-0.00000053,-0.40121557,0.44662790,-0.00
 000047,0.00000134,0.00575320,-0.00011468,0.00009991,0.02534531,-0.1403
 7211,0.05944284,-0.00000007,-0.07124001,0.03670339,0.00001079,0.746001
 58,0.11328368,-0.20728000,-0.00000303,0.02834742,0.02490606,-0.0000017
 9,0.10350762,0.68648246,-0.00000254,-0.00000812,-0.06898947,0.00001425
 ,-0.00000289,0.01539633,0.00003535,0.00004618,0.12996451,-0.02743955,-
 0.00812250,-0.00000910,0.01042430,-0.00558442,-0.00000258,-0.14569360,
 -0.11643925,-0.00002178,0.60154747,0.03032470,-0.08798576,-0.00000649,
 0.00539371,-0.00639500,-0.00000195,-0.12578093,-0.35350072,-0.00003457
 ,-0.07478345,0.86911948,0.00000709,-0.00000179,0.01243964,-0.00000173,
 0.00000064,-0.00118934,-0.00001820,-0.00003588,-0.06685632,-0.00002175
 ,0.00004711,0.12857733,-0.02657494,-0.01389178,0.00000713,-0.00357499,
 0.00471141,0.00000172,-0.05721550,-0.06836904,0.00000395,-0.27963391,0
 .05079587,0.00003594,0.69125058,-0.07007528,-0.06872789,0.00000317,0.0
 0587764,-0.00237365,-0.00000088,0.00598186,0.02314643,0.00000246,0.011
 77424,-0.12145827,-0.00001048,0.15325837,0.77543531,-0.00000251,-0.000
 00941,0.01499432,-0.00000111,0.00000140,0.00010403,-0.00001106,-0.0000
 0059,0.01076112,0.00003824,-0.00000056,-0.05959435,-0.00004897,-0.0000
 8114,0.12151402,-0.25614630,-0.06409269,-0.00002871,-0.00706139,0.0016
 0802,0.00000094,-0.12915209,0.02384729,-0.00001314,-0.00164805,0.02374
 810,-0.00000967,-0.11035022,0.03934142,-0.00000209,0.71731387,-0.09895
 159,-0.14109518,-0.00002166,-0.00111062,0.00378577,0.00000041,-0.00311
 080,-0.01754783,0.00000265,0.08881185,-0.01626619,0.00000549,0.0105915
 3,-0.41781865,0.00007253,-0.16109843,0.78852024,-0.00002189,-0.0000119
 2,-0.06847508,-0.00000022,-0.00000040,-0.00086326,-0.00000907,0.000008
 12,0.01557080,0.00000509,-0.00000816,0.01038606,-0.00001172,0.00006746
 ,-0.06585304,0.00005509,-0.00006984,0.13379468,-0.04931298,0.00463945,
 -0.00000408,-0.45355037,0.33223014,0.00010150,-0.20546622,-0.03839519,
 -0.00002002,-0.02554586,-0.01481478,0.00000091,0.01155486,-0.01344085,
 0.00000369,0.01867630,0.01415568,0.00000166,0.78018843,0.04399038,0.00
 559059,0.00000413,0.34880852,-0.43509837,-0.00009572,-0.09169368,-0.13
 144979,-0.00001144,-0.02518275,0.00805709,0.00000148,-0.00536677,-0.00
 686378,-0.00000179,0.00696267,-0.00774618,0.00000074,-0.22004028,0.821
 17620,0.00000173,0.00000058,-0.00998419,0.00009962,-0.00008567,-0.0629
 5321,-0.00001282,-0.00000507,-0.06277664,0.00000266,0.00000445,0.00304
 410,-0.00000203,0.00000073,0.00484583,-0.00000092,-0.00000124,0.003197
 10,-0.00009336,0.00004549,0.18312726,0.00066743,-0.00639628,-0.0000002
 6,-0.00055290,0.00103061,0.00000012,0.01203597,-0.01098452,0.00000036,
 -0.11859205,0.12426598,0.00000781,-0.00133208,0.02326819,-0.00000219,-
 0.00700675,0.00068396,0.00000087,0.00090619,0.00024614,-0.00000028,0.1
 1264539,-0.00036010,-0.00350826,-0.00000096,-0.00018771,0.00111769,0.0
 0000021,0.01549338,-0.01065623,0.00000075,0.12128558,-0.29804048,-0.00
 000777,-0.00278888,0.00472747,-0.00000043,-0.00215269,-0.00043009,-0.0
 0000031,0.00087441,-0.00116034,-0.00000014,-0.13261928,0.30777651,-0.0
 0000196,0.00000115,0.00804949,0.00000054,-0.00000069,-0.00011935,0.000
 00404,-0.00000247,0.00056931,0.00000644,-0.00000355,-0.03348192,-0.000
 00199,-0.00000182,0.00086121,0.00000111,-0.00000114,0.00394495,-0.0000
 0156,0.00000004,-0.00295736,-0.00000618,0.00000864,0.02428149,0.002674
 64,0.00344193,0.00000091,-0.00013007,0.00032368,0.00000007,-0.00577762
 ,0.00195372,0.00000131,-0.00896310,-0.01919273,-0.00000133,-0.23039095
 ,-0.15152846,0.00002561,0.00686104,0.00475377,-0.00000033,0.00071094,-
 0.00146493,0.00000005,0.00061832,0.00044709,-0.00000018,0.23518212,-0.
 00183905,-0.00531139,0.00000284,-0.00005959,-0.00006738,0.00000003,0.0
 0418048,-0.00181245,0.00000067,0.00786174,0.01095353,-0.00000047,-0.14
 869082,-0.18606002,0.00002274,-0.02313423,-0.00536131,-0.00000388,-0.0
 0032603,0.00073662,0.00000018,-0.00076928,-0.00021473,-0.00000020,0.16
 190952,0.18707731,-0.00000481,-0.00000057,0.00883848,0.00000004,0.0000
 0002,0.00003192,0.00000071,-0.00000138,0.00478063,0.00000143,0.0000021
 1,-0.00045399,0.00002143,0.00001854,-0.03113738,0.00000713,0.00000275,
 -0.00145786,0.00000011,0.00000019,0.00086561,-0.00000009,0.00000014,-0
 .00196058,-0.00002590,-0.00002154,0.02368251,-0.02726125,0.01909735,0.
 00000063,-0.00057053,-0.00014912,0.00000038,-0.00075377,-0.00588792,-0
 .00000289,0.00091746,-0.00124583,0.00000056,0.00660464,-0.00272664,0.0
 0000058,-0.23076880,0.14522188,-0.00001914,-0.00028132,0.00124403,-0.0
 0000071,0.00053960,0.00006589,-0.00000037,-0.00030872,0.00063043,-0.00
 000002,0.25188811,-0.01798419,0.01362809,-0.00000201,-0.00056716,0.000
 09085,0.00000010,-0.00387750,-0.00242131,-0.00000026,0.00058907,-0.005
 56817,0.00000141,0.02000558,-0.00050082,-0.00000254,0.15707230,-0.1854
 9326,0.00001854,0.00029107,0.00107312,-0.00000007,0.00118112,0.0003210
 6,-0.00000004,-0.00054650,-0.00008022,-0.00000017,-0.15619665,0.178991
 39,-0.00000931,0.00000496,-0.00478278,0.00000037,-0.00000046,-0.000908
 81,0.00000406,-0.00000349,0.00398995,0.00000144,0.00000232,0.00551396,
 -0.00000518,0.00000189,0.00410658,-0.00000995,0.00001035,-0.03017422,-
 0.00000179,-0.00000029,0.00251097,-0.00000026,-0.00000012,0.00061734,-
 0.00000013,-0.00000027,-0.00273463,0.00002085,-0.00001494,0.02212052,0
 .00248410,0.00118751,0.,0.00930011,0.03863749,0.00000222,-0.00236662,-
 0.03086382,0.00000516,-0.00537312,0.00128936,0.00000037,-0.00033750,-0
 .00173049,-0.00000019,-0.00071763,0.00005276,-0.00000034,-0.07787995,-
 0.05750333,0.00000605,0.00007087,-0.00005769,0.00000012,-0.00047662,0.
 00023683,-0.00000003,-0.00000543,0.00003285,-0.00000009,0.07530178,-0.
 00069037,0.00138679,0.00000017,0.02061663,-0.03637737,-0.00000165,-0.0
 0084666,-0.00986662,0.00000458,-0.00021012,0.00108450,0.00000026,-0.00
 025548,0.00049387,-0.00000022,-0.00210176,-0.00054732,-0.00000036,-0.0
 6517361,-0.25431515,0.00004076,0.00009336,0.00006740,0.00000009,-0.000
 09710,0.00014003,-0.00000008,-0.00005341,-0.00004072,0.00000006,0.0487
 1852,0.29797460,0.00000142,-0.00000060,-0.00063651,0.00000262,-0.00001
 134,0.01940318,-0.00000373,-0.00000059,0.01758978,-0.00000008,-0.00000
 070,0.00161484,-0.00000029,0.00000008,-0.00060234,0.00000022,-0.000000
 28,-0.00007012,0.00001293,0.00005717,-0.05891947,0.00000009,0.,0.00019
 542,-0.00000007,-0.00000012,-0.00045468,0.00000013,-0.00000002,-0.0002
 5887,-0.00001325,-0.00004360,0.02213876\\0.00001462,-0.00002839,0.0000
 3281,0.00000852,-0.00013110,-0.00002153,-0.00040519,-0.00002149,-0.000
 01051,0.00009475,0.00004329,-0.00003929,-0.00013968,-0.00000507,0.0000
 4893,0.00014017,0.00001261,-0.00005563,0.00038248,0.00003082,0.0000624
 0,0.00002686,0.00000191,-0.00000138,0.00000867,0.00000273,0.00000772,-
 0.00003160,-0.00002345,-0.00000150,-0.00009960,0.00011814,-0.00002202\
 \\@


 KNOWLEDGE IS EXPERIMENT'S DAUGHTER.
 -- LEONARDO DA VINCI, IN "PENSIERI" CA. 1492
 Job cpu time:       0 days  0 hours 36 minutes 29.2 seconds.
 Elapsed time:       0 days  0 hours  2 minutes 18.3 seconds.
 File lengths (MBytes):  RWF=     41 Int=      0 D2E=      0 Chk=      4 Scr=      1
 Normal termination of Gaussian 16 at Sat Sep 20 01:06:16 2025.
