 Entering Gaussian System, Link 0=g16
 Input=FURL0117.gjf
 Output=FURL0117.log
 Initial command:
 /usr/local/g16/l1.exe "/dados_01/scratch/Gau-2092752.inp" -scrdir="/dados_01/scratch/"
 Entering Link 1 = /usr/local/g16/l1.exe PID=   2092753.
  
 Copyright (c) 1988-2017, Gaussian, Inc.  All Rights Reserved.
  
 This is part of the Gaussian(R) 16 program.  It is based on
 the Gaussian(R) 09 system (copyright 2009, Gaussian, Inc.),
 the Gaussian(R) 03 system (copyright 2003, Gaussian, Inc.),
 the Gaussian(R) 98 system (copyright 1998, Gaussian, Inc.),
 the Gaussian(R) 94 system (copyright 1995, Gaussian, Inc.),
 the Gaussian 92(TM) system (copyright 1992, Gaussian, Inc.),
 the Gaussian 90(TM) system (copyright 1990, Gaussian, Inc.),
 the Gaussian 88(TM) system (copyright 1988, Gaussian, Inc.),
 the Gaussian 86(TM) system (copyright 1986, Carnegie Mellon
 University), and the Gaussian 82(TM) system (copyright 1983,
 Carnegie Mellon University). Gaussian is a federally registered
 trademark of Gaussian, Inc.
  
 This software contains proprietary and confidential information,
 including trade secrets, belonging to Gaussian, Inc.
  
 This software is provided under written license and may be
 used, copied, transmitted, or stored only in accord with that
 written license.
  
 The following legend is applicable only to US Government
 contracts under FAR:
  
                    RESTRICTED RIGHTS LEGEND
  
 Use, reproduction and disclosure by the US Government is
 subject to restrictions as set forth in subparagraphs (a)
 and (c) of the Commercial Computer Software - Restricted
 Rights clause in FAR 52.227-19.
  
 Gaussian, Inc.
 340 Quinnipiac St., Bldg. 40, Wallingford CT 06492
  
  
 ---------------------------------------------------------------
 Warning -- This program may not be used in any manner that
 competes with the business of Gaussian, Inc. or will provide
 assistance to any competitor of Gaussian, Inc.  The licensee
 of this program is prohibited from giving any competitor of
 Gaussian, Inc. access to this program.  By using this program,
 the user acknowledges that Gaussian, Inc. is engaged in the
 business of creating and licensing software in the field of
 computational chemistry and represents and warrants to the
 licensee that it is not a competitor of Gaussian, Inc. and that
 it will not use this program in any manner prohibited above.
 ---------------------------------------------------------------
  

 Cite this work as:
 Gaussian 16, Revision B.01,
 M. J. Frisch, G. W. Trucks, H. B. Schlegel, G. E. Scuseria, 
 M. A. Robb, J. R. Cheeseman, G. Scalmani, V. Barone, 
 G. A. Petersson, H. Nakatsuji, X. Li, M. Caricato, A. V. Marenich, 
 J. Bloino, B. G. Janesko, R. Gomperts, B. Mennucci, H. P. Hratchian, 
 J. V. Ortiz, A. F. Izmaylov, J. L. Sonnenberg, D. Williams-Young, 
 F. Ding, F. Lipparini, F. Egidi, J. Goings, B. Peng, A. Petrone, 
 T. Henderson, D. Ranasinghe, V. G. Zakrzewski, J. Gao, N. Rega, 
 G. Zheng, W. Liang, M. Hada, M. Ehara, K. Toyota, R. Fukuda, 
 J. Hasegawa, M. Ishida, T. Nakajima, Y. Honda, O. Kitao, H. Nakai, 
 T. Vreven, K. Throssell, J. A. Montgomery, Jr., J. E. Peralta, 
 F. Ogliaro, M. J. Bearpark, J. J. Heyd, E. N. Brothers, K. N. Kudin, 
 V. N. Staroverov, T. A. Keith, R. Kobayashi, J. Normand, 
 K. Raghavachari, A. P. Rendell, J. C. Burant, S. S. Iyengar, 
 J. Tomasi, M. Cossi, J. M. Millam, M. Klene, C. Adamo, R. Cammi, 
 J. W. Ochterski, R. L. Martin, K. Morokuma, O. Farkas, 
 J. B. Foresman, and D. J. Fox, Gaussian, Inc., Wallingford CT, 2016.
 
 ******************************************
 Gaussian 16:  ES64L-G16RevB.01 20-Dec-2017
                20-Sep-2025 
 ******************************************
 %nprocs=16
 Will use up to   16 processors via shared memory.
 %mem=40GB
 %chk=FURL0117.chk
 ----------------------------------------------------------------------
 # opt freq=noraman M08HX/6-311++G** scf=xqc Empiricaldispersion=pfd In
 t(Grid=ultraFine)
 ----------------------------------------------------------------------
 1/18=20,19=15,26=4,38=1/1,3;
 2/9=110,12=2,17=6,18=5,40=1/2;
 3/5=4,6=6,7=1111,11=2,25=1,30=1,71=1,74=-74,75=-5,124=11/1,2,3;
 4//1;
 5/5=2,8=3,13=1,38=5/2,8;
 6/7=2,8=2,9=2,10=2,28=1/1;
 7//1,2,3,16;
 1/18=20,19=15,26=4/3(2);
 2/9=110/2;
 99//99;
 2/9=110/2;
 3/5=4,6=6,7=1111,11=2,25=1,30=1,71=1,74=-74,75=-5,124=11/1,2,3;
 4/5=5,16=3,69=1/1;
 5/5=2,8=3,13=1,38=5/2,8;
 7//1,2,3,16;
 1/18=20,19=15,26=4/3(-5);
 2/9=110/2;
 6/7=2,8=2,9=2,10=2,19=2,28=1/1;
 99/9=1/99;
 --------
 FURL0117
 --------
 Symbolic Z-matrix:
 Charge =  0 Multiplicity = 1
 O                     2.8607    0.1505    0.7958 
 O                    -2.867     0.1652   -0.7737 
 O                     0.6505    1.7606    1.3463 
 O                    -0.7153    1.7542   -1.3318 
 C                     1.7365    0.0985    0.0344 
 C                    -1.7676    0.0651   -0.0265 
 C                     0.6517    0.9478    0.3906 
 C                    -0.6568    0.972    -0.3941 
 C                     1.8841   -0.8154   -0.9831 
 C                    -1.8392   -0.8476    0.9497 
 C                     3.1823   -1.3597   -0.8374 
 C                    -3.1352   -1.4005    0.8164 
 C                     3.7357   -0.7398    0.2588 
 C                    -3.7203   -0.7511   -0.2456 
 H                     1.1528   -1.064    -1.7392 
 H                    -1.0874   -1.1118    1.6792 
 H                     3.6555   -2.1099   -1.454 
 H                    -3.5866   -2.1753    1.4191 
 H                     4.6902   -0.8165    0.7586 
 H                    -4.6858   -0.8216   -0.7252 
 

 GradGradGradGradGradGradGradGradGradGradGradGradGradGradGradGradGradGrad
 Berny optimization.
 Initialization pass.
                           ----------------------------
                           !    Initial Parameters    !
                           ! (Angstroms and Degrees)  !
 --------------------------                            --------------------------
 ! Name  Definition              Value          Derivative Info.                !
 --------------------------------------------------------------------------------
 ! R1    R(1,5)                  1.3588         estimate D2E/DX2                !
 ! R2    R(1,13)                 1.3589         estimate D2E/DX2                !
 ! R3    R(2,6)                  1.333          estimate D2E/DX2                !
 ! R4    R(2,14)                 1.3589         estimate D2E/DX2                !
 ! R5    R(3,7)                  1.2546         estimate D2E/DX2                !
 ! R6    R(4,8)                  1.2225         estimate D2E/DX2                !
 ! R7    R(5,7)                  1.423          estimate D2E/DX2                !
 ! R8    R(5,9)                  1.3756         estimate D2E/DX2                !
 ! R9    R(6,8)                  1.4804         estimate D2E/DX2                !
 ! R10   R(6,10)                 1.3383         estimate D2E/DX2                !
 ! R11   R(7,8)                  1.5259         estimate D2E/DX2                !
 ! R12   R(9,11)                 1.4152         estimate D2E/DX2                !
 ! R13   R(9,15)                 1.0809         estimate D2E/DX2                !
 ! R14   R(10,12)                1.4153         estimate D2E/DX2                !
 ! R15   R(10,16)                1.0804         estimate D2E/DX2                !
 ! R16   R(11,13)                1.3756         estimate D2E/DX2                !
 ! R17   R(11,17)                1.0802         estimate D2E/DX2                !
 ! R18   R(12,14)                1.3755         estimate D2E/DX2                !
 ! R19   R(12,18)                1.0804         estimate D2E/DX2                !
 ! R20   R(13,19)                1.0802         estimate D2E/DX2                !
 ! R21   R(14,20)                1.0804         estimate D2E/DX2                !
 ! A1    A(5,1,13)             106.6324         estimate D2E/DX2                !
 ! A2    A(6,2,14)             104.4426         estimate D2E/DX2                !
 ! A3    A(1,5,7)              117.8795         estimate D2E/DX2                !
 ! A4    A(1,5,9)              110.5566         estimate D2E/DX2                !
 ! A5    A(7,5,9)              131.5639         estimate D2E/DX2                !
 ! A6    A(2,6,8)              115.6995         estimate D2E/DX2                !
 ! A7    A(2,6,10)             114.5787         estimate D2E/DX2                !
 ! A8    A(8,6,10)             129.7218         estimate D2E/DX2                !
 ! A9    A(3,7,5)              125.3149         estimate D2E/DX2                !
 ! A10   A(3,7,8)              112.3728         estimate D2E/DX2                !
 ! A11   A(5,7,8)              122.3058         estimate D2E/DX2                !
 ! A12   A(4,8,6)              123.1294         estimate D2E/DX2                !
 ! A13   A(4,8,7)              116.4627         estimate D2E/DX2                !
 ! A14   A(6,8,7)              120.3992         estimate D2E/DX2                !
 ! A15   A(5,9,11)             106.1285         estimate D2E/DX2                !
 ! A16   A(5,9,15)             126.7001         estimate D2E/DX2                !
 ! A17   A(11,9,15)            127.1714         estimate D2E/DX2                !
 ! A18   A(6,10,12)            104.2828         estimate D2E/DX2                !
 ! A19   A(6,10,16)            128.468          estimate D2E/DX2                !
 ! A20   A(12,10,16)           127.2492         estimate D2E/DX2                !
 ! A21   A(9,11,13)            106.1269         estimate D2E/DX2                !
 ! A22   A(9,11,17)            127.6018         estimate D2E/DX2                !
 ! A23   A(13,11,17)           126.2714         estimate D2E/DX2                !
 ! A24   A(10,12,14)           106.1292         estimate D2E/DX2                !
 ! A25   A(10,12,18)           127.6032         estimate D2E/DX2                !
 ! A26   A(14,12,18)           126.2676         estimate D2E/DX2                !
 ! A27   A(1,13,11)            110.5557         estimate D2E/DX2                !
 ! A28   A(1,13,19)            115.6367         estimate D2E/DX2                !
 ! A29   A(11,13,19)           133.8077         estimate D2E/DX2                !
 ! A30   A(2,14,12)            110.5668         estimate D2E/DX2                !
 ! A31   A(2,14,20)            115.6362         estimate D2E/DX2                !
 ! A32   A(12,14,20)           133.797          estimate D2E/DX2                !
 ! D1    D(13,1,5,7)          -179.9805         estimate D2E/DX2                !
 ! D2    D(13,1,5,9)            -0.001          estimate D2E/DX2                !
 ! D3    D(5,1,13,11)            0.0033         estimate D2E/DX2                !
 ! D4    D(5,1,13,19)         -179.9999         estimate D2E/DX2                !
 ! D5    D(14,2,6,8)          -179.9693         estimate D2E/DX2                !
 ! D6    D(14,2,6,10)           -0.0051         estimate D2E/DX2                !
 ! D7    D(6,2,14,12)           -0.0051         estimate D2E/DX2                !
 ! D8    D(6,2,14,20)          179.9996         estimate D2E/DX2                !
 ! D9    D(1,5,7,3)              0.9717         estimate D2E/DX2                !
 ! D10   D(1,5,7,8)            179.9676         estimate D2E/DX2                !
 ! D11   D(9,5,7,3)           -179.0026         estimate D2E/DX2                !
 ! D12   D(9,5,7,8)             -0.0068         estimate D2E/DX2                !
 ! D13   D(1,5,9,11)            -0.0016         estimate D2E/DX2                !
 ! D14   D(1,5,9,15)          -179.9946         estimate D2E/DX2                !
 ! D15   D(7,5,9,11)           179.9742         estimate D2E/DX2                !
 ! D16   D(7,5,9,15)            -0.0188         estimate D2E/DX2                !
 ! D17   D(2,6,8,4)             -1.1447         estimate D2E/DX2                !
 ! D18   D(2,6,8,7)            179.9699         estimate D2E/DX2                !
 ! D19   D(10,6,8,4)           178.8977         estimate D2E/DX2                !
 ! D20   D(10,6,8,7)             0.0123         estimate D2E/DX2                !
 ! D21   D(2,6,10,12)            0.0127         estimate D2E/DX2                !
 ! D22   D(2,6,10,16)         -179.9874         estimate D2E/DX2                !
 ! D23   D(8,6,10,12)          179.9706         estimate D2E/DX2                !
 ! D24   D(8,6,10,16)           -0.0294         estimate D2E/DX2                !
 ! D25   D(3,7,8,4)             90.0076         estimate D2E/DX2                !
 ! D26   D(3,7,8,6)            -91.035          estimate D2E/DX2                !
 ! D27   D(5,7,8,4)            -89.1063         estimate D2E/DX2                !
 ! D28   D(5,7,8,6)             89.851          estimate D2E/DX2                !
 ! D29   D(5,9,11,13)            0.0034         estimate D2E/DX2                !
 ! D30   D(5,9,11,17)         -179.9998         estimate D2E/DX2                !
 ! D31   D(15,9,11,13)         179.9964         estimate D2E/DX2                !
 ! D32   D(15,9,11,17)          -0.0068         estimate D2E/DX2                !
 ! D33   D(6,10,12,14)          -0.0147         estimate D2E/DX2                !
 ! D34   D(6,10,12,18)         179.9989         estimate D2E/DX2                !
 ! D35   D(16,10,12,14)        179.9854         estimate D2E/DX2                !
 ! D36   D(16,10,12,18)         -0.001          estimate D2E/DX2                !
 ! D37   D(9,11,13,1)           -0.0042         estimate D2E/DX2                !
 ! D38   D(9,11,13,19)         179.9997         estimate D2E/DX2                !
 ! D39   D(17,11,13,1)         179.999          estimate D2E/DX2                !
 ! D40   D(17,11,13,19)          0.0029         estimate D2E/DX2                !
 ! D41   D(10,12,14,2)           0.0126         estimate D2E/DX2                !
 ! D42   D(10,12,14,20)       -179.9932         estimate D2E/DX2                !
 ! D43   D(18,12,14,2)         179.9992         estimate D2E/DX2                !
 ! D44   D(18,12,14,20)         -0.0066         estimate D2E/DX2                !
 --------------------------------------------------------------------------------
 Trust Radius=3.00D-01 FncErr=1.00D-07 GrdErr=1.00D-06 EigMax=2.50D+02 EigMin=1.00D-04
 Number of steps in this run=    107 maximum allowed number of steps=    120.
 GradGradGradGradGradGradGradGradGradGradGradGradGradGradGradGradGradGrad

                          Input orientation:                          
 ---------------------------------------------------------------------
 Center     Atomic      Atomic             Coordinates (Angstroms)
 Number     Number       Type             X           Y           Z
 ---------------------------------------------------------------------
      1          8           0        2.860700    0.150500    0.795800
      2          8           0       -2.867000    0.165200   -0.773700
      3          8           0        0.650500    1.760600    1.346300
      4          8           0       -0.715300    1.754200   -1.331800
      5          6           0        1.736500    0.098500    0.034400
      6          6           0       -1.767600    0.065100   -0.026500
      7          6           0        0.651700    0.947800    0.390600
      8          6           0       -0.656800    0.972000   -0.394100
      9          6           0        1.884100   -0.815400   -0.983100
     10          6           0       -1.839200   -0.847600    0.949700
     11          6           0        3.182300   -1.359700   -0.837400
     12          6           0       -3.135200   -1.400500    0.816400
     13          6           0        3.735700   -0.739800    0.258800
     14          6           0       -3.720300   -0.751100   -0.245600
     15          1           0        1.152800   -1.064000   -1.739200
     16          1           0       -1.087400   -1.111800    1.679200
     17          1           0        3.655500   -2.109900   -1.454000
     18          1           0       -3.586600   -2.175300    1.419100
     19          1           0        4.690200   -0.816500    0.758600
     20          1           0       -4.685800   -0.821600   -0.725200
 ---------------------------------------------------------------------
                    Distance matrix (angstroms):
                    1          2          3          4          5
     1  O    0.000000
     2  O    5.938863   0.000000
     3  O    2.789347   4.405963   0.000000
     4  O    4.459407   2.732437   3.006272   0.000000
     5  C    1.358771   4.674365   2.379717   3.258707   0.000000
     6  C    4.701556   1.333045   3.256763   2.379958   3.504788
     7  C    2.383182   3.788048   1.254595   2.342143   1.423018
     8  C    3.803095   2.383276   2.315149   1.222514   2.583505
     9  C    2.247487   4.855757   3.685600   3.671691   1.375611
    10  C    4.807177   2.247720   3.627479   3.638373   3.810316
    11  C    2.247548   6.238863   4.573273   5.013192   2.230856
    12  C    6.193290   2.247613   4.960330   4.519160   5.156742
    13  C    1.358907   6.743940   4.117416   5.344291   2.179427
    14  C    6.723612   1.358903   5.286461   4.060343   5.529637
    15  H    3.289097   4.312994   4.213191   3.405587   2.199493
    16  H    4.238076   3.288529   3.373692   4.173552   3.484911
    17  H    3.286748   6.941318   5.643800   5.835246   3.282518
    18  H    6.882262   3.286965   5.783565   5.590419   5.951719
    19  H    2.069672   7.773220   4.827630   6.340166   3.175852
    20  H    7.759387   2.069821   6.279727   4.771538   6.532191
                    6          7          8          9         10
     6  C    0.000000
     7  C    2.608859   0.000000
     8  C    1.480363   1.525946   0.000000
     9  C    3.876245   2.552398   3.161944   0.000000
    10  C    1.338325   3.120999   2.552413   4.195201   0.000000
    11  C    5.214319   3.638197   4.513538   1.415208   5.354571
    12  C    2.174579   4.476207   3.638205   5.364132   1.415303
    13  C    5.569163   3.518014   4.759264   2.230797   5.618583
    14  C    2.127728   4.733434   3.517976   5.653082   2.230828
    15  H    3.568886   2.972287   3.037967   1.080874   4.028533
    16  H    2.181096   2.987794   2.970894   4.000688   1.080359
    17  H    6.014848   4.666358   5.405315   2.243955   6.128858
    18  H    3.227679   5.364210   4.666575   6.127679   2.244222
    19  H    6.564814   4.422404   5.754812   3.302683   6.532270
    20  H    3.128947   5.732774   4.422609   6.574963   3.302892
                   11         12         13         14         15
    11  C    0.000000
    12  C    6.530507   0.000000
    13  C    1.375566   6.925078   0.000000
    14  C    6.954603   1.375466   7.473050   0.000000
    15  H    2.240436   5.003126   3.281537   5.106452   0.000000
    16  H    4.962365   2.240816   5.041648   3.281329   4.087327
    17  H    1.080238   7.195246   2.194833   7.596644   2.727408
    18  H    7.181574   1.080428   7.551360   2.194868   5.802737
    19  H    2.261868   7.847374   1.080163   8.470490   4.337449
    20  H    7.887277   2.261861   8.479187   1.080360   5.930953
                   16         17         18         19         20
    16  H    0.000000
    17  H    5.771330   0.000000
    18  H    2.728495   7.791469   0.000000
    19  H    5.857932   2.763890   8.413561   0.000000
    20  H    4.337492   8.471609   2.763832   9.492685   0.000000
 Stoichiometry    C10H6O4
 Framework group  C1[X(C10H6O4)]
 Deg. of freedom    54
 Full point group                 C1      NOp   1
 Largest Abelian subgroup         C1      NOp   1
 Largest concise Abelian subgroup C1      NOp   1
                         Standard orientation:                         
 ---------------------------------------------------------------------
 Center     Atomic      Atomic             Coordinates (Angstroms)
 Number     Number       Type             X           Y           Z
 ---------------------------------------------------------------------
      1          8           0       -2.868877    0.156169   -0.765557
      2          8           0        2.875035    0.168490    0.743554
      3          8           0       -0.663859    1.765168   -1.339557
      4          8           0        0.730056    1.758565    1.324017
      5          6           0       -1.736747    0.103774   -0.016026
      6          6           0        1.767784    0.068776    0.007986
      7          6           0       -0.655369    0.952520   -0.383765
      8          6           0        0.661330    0.976243    0.387112
      9          6           0       -1.874045   -0.809898    1.003120
     10          6           0        1.828686   -0.844111   -0.968765
     11          6           0       -3.173955   -1.353625    0.871183
     12          6           0        3.125765   -1.397584   -0.849026
     13          6           0       -3.738582   -0.733644   -0.219231
     14          6           0        3.722309   -0.748285    0.206650
     15          1           0       -1.134939   -1.058714    1.751520
     16          1           0        1.069127   -1.108081   -1.690267
     17          1           0       -3.640981   -2.103511    1.492853
     18          1           0        3.570440   -2.172687   -1.456319
     19          1           0       -4.698325   -0.809985   -0.708942
     20          1           0        4.692773   -0.819152    0.676070
 ---------------------------------------------------------------------
 Rotational constants (GHZ):           1.4766900           0.4132087           0.3883472
 Standard basis: 6-311++G(d,p) (5D, 7F)
 There are   364 symmetry adapted cartesian basis functions of A   symmetry.
 There are   350 symmetry adapted basis functions of A   symmetry.
   350 basis functions,   558 primitive gaussians,   364 cartesian basis functions
    49 alpha electrons       49 beta electrons
       nuclear repulsion energy       819.9463421748 Hartrees.
 NAtoms=   20 NActive=   20 NUniq=   20 SFac= 1.00D+00 NAtFMM=   60 NAOKFM=F Big=F
 Integral buffers will be    131072 words long.
 Raffenetti 2 integral format.
 Two-electron integral symmetry is turned on.
 R6APFD:  NTU= -4 IXU= 1 FactS= 1.050
 Nuclear repulsion after empirical dispersion term =      819.9324528066 Hartrees.
 One-electron integrals computed using PRISM.
 NBasis=   350 RedAO= T EigKep=  2.05D-06  NBF=   350
 NBsUse=   350 1.00D-06 EigRej= -1.00D+00 NBFU=   350
 ExpMin= 3.60D-02 ExpMax= 8.59D+03 ExpMxC= 1.30D+03 IAcc=3 IRadAn=         5 AccDes= 0.00D+00
 Harris functional with IExCor= 1009 and IRadAn=       5 diagonalized for initial guess.
 HarFok:  IExCor= 1009 AccDes= 0.00D+00 IRadAn=         5 IDoV= 1 UseB2=F ITyADJ=14
 ICtDFT=  3500011 ScaDFX=  1.000000  1.000000  1.000000  1.000000
 FoFCou: FMM=F IPFlag=           0 FMFlag=      100000 FMFlg1=           0
         NFxFlg=           0 DoJE=T BraDBF=F KetDBF=T FulRan=T
         wScrn=  0.000000 ICntrl=       500 IOpCl=  0 I1Cent=   200000004 NGrid=           0
         NMat0=    1 NMatS0=      1 NMatT0=    0 NMatD0=    1 NMtDS0=    0 NMtDT0=    0
 Petite list used in FoFCou.
 Requested convergence on RMS density matrix=1.00D-08 within  32 cycles.
 Requested convergence on MAX density matrix=1.00D-06.
 Requested convergence on             energy=1.00D-06.
 No special actions if energy rises.
 SCF Done:  E(RM08HX) =  -685.453834520     A.U. after   17 cycles
            NFock= 17  Conv=0.95D-08     -V/T= 2.0041
 QCSCF skips out because SCF is already converged.

 **********************************************************************

            Population analysis using the SCF Density.

 **********************************************************************

 Orbital symmetries:
       Occupied  (A) (A) (A) (A) (A) (A) (A) (A) (A) (A) (A) (A)
                 (A) (A) (A) (A) (A) (A) (A) (A) (A) (A) (A) (A)
                 (A) (A) (A) (A) (A) (A) (A) (A) (A) (A) (A) (A)
                 (A) (A) (A) (A) (A) (A) (A) (A) (A) (A) (A) (A)
                 (A)
       Virtual   (A) (A) (A) (A) (A) (A) (A) (A) (A) (A) (A) (A)
                 (A) (A) (A) (A) (A) (A) (A) (A) (A) (A) (A) (A)
                 (A) (A) (A) (A) (A) (A) (A) (A) (A) (A) (A) (A)
                 (A) (A) (A) (A) (A) (A) (A) (A) (A) (A) (A) (A)
                 (A) (A) (A) (A) (A) (A) (A) (A) (A) (A) (A) (A)
                 (A) (A) (A) (A) (A) (A) (A) (A) (A) (A) (A) (A)
                 (A) (A) (A) (A) (A) (A) (A) (A) (A) (A) (A) (A)
                 (A) (A) (A) (A) (A) (A) (A) (A) (A) (A) (A) (A)
                 (A) (A) (A) (A) (A) (A) (A) (A) (A) (A) (A) (A)
                 (A) (A) (A) (A) (A) (A) (A) (A) (A) (A) (A) (A)
                 (A) (A) (A) (A) (A) (A) (A) (A) (A) (A) (A) (A)
                 (A) (A) (A) (A) (A) (A) (A) (A) (A) (A) (A) (A)
                 (A) (A) (A) (A) (A) (A) (A) (A) (A) (A) (A) (A)
                 (A) (A) (A) (A) (A) (A) (A) (A) (A) (A) (A) (A)
                 (A) (A) (A) (A) (A) (A) (A) (A) (A) (A) (A) (A)
                 (A) (A) (A) (A) (A) (A) (A) (A) (A) (A) (A) (A)
                 (A) (A) (A) (A) (A) (A) (A) (A) (A) (A) (A) (A)
                 (A) (A) (A) (A) (A) (A) (A) (A) (A) (A) (A) (A)
                 (A) (A) (A) (A) (A) (A) (A) (A) (A) (A) (A) (A)
                 (A) (A) (A) (A) (A) (A) (A) (A) (A) (A) (A) (A)
                 (A) (A) (A) (A) (A) (A) (A) (A) (A) (A) (A) (A)
                 (A) (A) (A) (A) (A) (A) (A) (A) (A) (A) (A) (A)
                 (A) (A) (A) (A) (A) (A) (A) (A) (A) (A) (A) (A)
                 (A) (A) (A) (A) (A) (A) (A) (A) (A) (A) (A) (A)
                 (A) (A) (A) (A) (A) (A) (A) (A) (A) (A) (A) (A)
                 (A)
 The electronic state is 1-A.
 Alpha  occ. eigenvalues --  -19.71535 -19.71213 -19.62215 -19.62063 -10.64933
 Alpha  occ. eigenvalues --  -10.64822 -10.62547 -10.61971 -10.61580 -10.61235
 Alpha  occ. eigenvalues --  -10.57675 -10.56627 -10.56360 -10.55956  -1.28130
 Alpha  occ. eigenvalues --   -1.27503  -1.19092  -1.15658  -0.95075  -0.94718
 Alpha  occ. eigenvalues --   -0.90979  -0.89562  -0.80086  -0.73722  -0.72492
 Alpha  occ. eigenvalues --   -0.72039  -0.67341  -0.66925  -0.65654  -0.58774
 Alpha  occ. eigenvalues --   -0.57822  -0.57671  -0.56043  -0.54876  -0.54455
 Alpha  occ. eigenvalues --   -0.51469  -0.51210  -0.50806  -0.50281  -0.48456
 Alpha  occ. eigenvalues --   -0.48168  -0.46964  -0.46150  -0.39491  -0.38211
 Alpha  occ. eigenvalues --   -0.37799  -0.33009  -0.32214  -0.31341
 Alpha virt. eigenvalues --   -0.06202  -0.04729  -0.03371  -0.02403  -0.01324
 Alpha virt. eigenvalues --   -0.00991  -0.00167   0.00924   0.01407   0.02057
 Alpha virt. eigenvalues --    0.02691   0.03027   0.03228   0.04062   0.04080
 Alpha virt. eigenvalues --    0.04525   0.05043   0.06600   0.07049   0.07313
 Alpha virt. eigenvalues --    0.07749   0.08848   0.08940   0.09169   0.09411
 Alpha virt. eigenvalues --    0.09574   0.10045   0.10161   0.10787   0.11096
 Alpha virt. eigenvalues --    0.11526   0.12015   0.12131   0.12436   0.13304
 Alpha virt. eigenvalues --    0.13475   0.13727   0.14051   0.14722   0.15216
 Alpha virt. eigenvalues --    0.15541   0.16134   0.17209   0.17901   0.18408
 Alpha virt. eigenvalues --    0.18534   0.19255   0.20245   0.21114   0.21608
 Alpha virt. eigenvalues --    0.21814   0.22361   0.22928   0.23602   0.24422
 Alpha virt. eigenvalues --    0.24565   0.25803   0.27243   0.27582   0.28426
 Alpha virt. eigenvalues --    0.28961   0.29762   0.30000   0.30398   0.31512
 Alpha virt. eigenvalues --    0.32554   0.32629   0.33317   0.33859   0.34858
 Alpha virt. eigenvalues --    0.35414   0.35594   0.36446   0.36734   0.37670
 Alpha virt. eigenvalues --    0.39459   0.39709   0.40201   0.41028   0.42705
 Alpha virt. eigenvalues --    0.43973   0.45694   0.46803   0.47527   0.48824
 Alpha virt. eigenvalues --    0.50475   0.51438   0.52300   0.52846   0.54129
 Alpha virt. eigenvalues --    0.54978   0.56615   0.57286   0.57675   0.59360
 Alpha virt. eigenvalues --    0.60370   0.61265   0.61917   0.61997   0.62972
 Alpha virt. eigenvalues --    0.63774   0.64120   0.65427   0.67509   0.68461
 Alpha virt. eigenvalues --    0.69046   0.69825   0.72102   0.73807   0.76163
 Alpha virt. eigenvalues --    0.76815   0.78237   0.78606   0.79968   0.80100
 Alpha virt. eigenvalues --    0.81306   0.82507   0.82901   0.83837   0.85260
 Alpha virt. eigenvalues --    0.86488   0.87428   0.88908   0.90071   0.91171
 Alpha virt. eigenvalues --    0.92044   0.92703   0.96000   0.96692   0.99573
 Alpha virt. eigenvalues --    0.99718   1.02709   1.03538   1.04534   1.05923
 Alpha virt. eigenvalues --    1.09050   1.09781   1.11268   1.12086   1.13355
 Alpha virt. eigenvalues --    1.13772   1.15840   1.18560   1.20544   1.22107
 Alpha virt. eigenvalues --    1.22462   1.23054   1.25166   1.25499   1.26805
 Alpha virt. eigenvalues --    1.27607   1.28379   1.30440   1.32220   1.33176
 Alpha virt. eigenvalues --    1.35663   1.35824   1.36227   1.37350   1.48815
 Alpha virt. eigenvalues --    1.50404   1.51089   1.52256   1.52548   1.56014
 Alpha virt. eigenvalues --    1.56919   1.59281   1.59551   1.65279   1.66826
 Alpha virt. eigenvalues --    1.68178   1.69218   1.69796   1.71171   1.72140
 Alpha virt. eigenvalues --    1.75876   1.76695   1.77360   1.78183   1.79815
 Alpha virt. eigenvalues --    1.80158   1.81601   1.81745   1.82273   1.85217
 Alpha virt. eigenvalues --    1.86117   1.86906   1.90764   1.92714   1.94342
 Alpha virt. eigenvalues --    1.95580   1.98523   2.01515   2.02882   2.03368
 Alpha virt. eigenvalues --    2.03852   2.04368   2.06741   2.07412   2.10836
 Alpha virt. eigenvalues --    2.15592   2.19208   2.22069   2.29668   2.31148
 Alpha virt. eigenvalues --    2.32430   2.32901   2.35297   2.37864   2.51089
 Alpha virt. eigenvalues --    2.51386   2.51679   2.54119   2.65416   2.66379
 Alpha virt. eigenvalues --    2.68273   2.69139   2.70872   2.71456   2.71943
 Alpha virt. eigenvalues --    2.72413   2.74130   2.74471   2.75293   2.76208
 Alpha virt. eigenvalues --    2.77248   2.79716   2.83115   2.84353   2.90753
 Alpha virt. eigenvalues --    2.92602   2.97847   2.99387   3.00511   3.04193
 Alpha virt. eigenvalues --    3.05200   3.06829   3.09297   3.11743   3.12865
 Alpha virt. eigenvalues --    3.14295   3.17219   3.20980   3.22650   3.23343
 Alpha virt. eigenvalues --    3.24798   3.26395   3.30101   3.34413   3.36542
 Alpha virt. eigenvalues --    3.36828   3.38176   3.40382   3.43786   3.46107
 Alpha virt. eigenvalues --    3.49770   3.51005   3.52610   3.57640   3.63151
 Alpha virt. eigenvalues --    3.65993   3.68513   3.78042   3.92559   4.02069
 Alpha virt. eigenvalues --    4.02512   4.08767   4.10235   4.11176   4.13562
 Alpha virt. eigenvalues --    4.21858   4.31754   4.32826   4.45334   4.57295
 Alpha virt. eigenvalues --    5.06849   5.07205   5.18355   5.19731   5.34223
 Alpha virt. eigenvalues --    5.35477   5.56125   5.60266   5.78651   5.80663
 Alpha virt. eigenvalues --    5.92191   5.95476  23.70640  23.75133  23.85306
 Alpha virt. eigenvalues --   23.88460  23.88939  24.01224  24.12952  24.17053
 Alpha virt. eigenvalues --   24.22098  24.29941  49.88605  49.90786  49.99027
 Alpha virt. eigenvalues --   50.02536
          Condensed to atoms (all electrons):
               1          2          3          4          5          6
     1  O    7.812746   0.000015   0.043916  -0.000545   0.483607   0.010212
     2  O    0.000015   7.820322  -0.000515   0.047702   0.007227   0.403167
     3  O    0.043916  -0.000515   7.726671  -0.020113  -0.107731   0.018085
     4  O   -0.000545   0.047702  -0.020113   7.710947  -0.003219  -0.149148
     5  C    0.483607   0.007227  -0.107731  -0.003219  22.922959  -0.598074
     6  C    0.010212   0.403167   0.018085  -0.149148  -0.598074  18.421592
     7  C   -0.603779   0.009733   0.742922  -0.190628 -15.156465   0.118263
     8  C    0.008411  -0.562591  -0.213747   0.773494  -0.375357  -9.955931
     9  C    0.202434  -0.023136  -0.043334  -0.064664  -2.150775  -0.249930
    10  C   -0.023353   0.237106  -0.067322  -0.031381  -0.288266  -3.183421
    11  C   -0.105048   0.002813   0.001823   0.013009   2.972406   0.197850
    12  C    0.003536  -0.123341   0.016408   0.003819   0.307577   3.171530
    13  C    0.130081  -0.001113   0.019389  -0.000224  -1.332516  -0.033903
    14  C   -0.001112   0.135446  -0.003236   0.016340  -0.098372  -1.502681
    15  H    0.001589  -0.002309  -0.001902  -0.008650  -0.161395   0.025988
    16  H   -0.002644   0.002449  -0.008585  -0.001569   0.033753  -0.147549
    17  H    0.008642   0.000057   0.000308   0.000392   0.077213  -0.000304
    18  H    0.000066   0.008997   0.000511   0.000416   0.002892   0.069384
    19  H   -0.055221  -0.000023  -0.001452  -0.000162   0.011013  -0.004486
    20  H   -0.000022  -0.054837  -0.000246  -0.001733  -0.006267   0.016921
               7          8          9         10         11         12
     1  O   -0.603779   0.008411   0.202434  -0.023353  -0.105048   0.003536
     2  O    0.009733  -0.562591  -0.023136   0.237106   0.002813  -0.123341
     3  O    0.742922  -0.213747  -0.043334  -0.067322   0.001823   0.016408
     4  O   -0.190628   0.773494  -0.064664  -0.031381   0.013009   0.003819
     5  C  -15.156465  -0.375357  -2.150775  -0.288266   2.972406   0.307577
     6  C    0.118263  -9.955931  -0.249930  -3.183421   0.197850   3.171530
     7  C   28.289569  -1.475209  -4.409689  -0.504384   0.297278  -0.418677
     8  C   -1.475209  22.409071  -0.666827  -3.117167  -0.314194   0.100502
     9  C   -4.409689  -0.666827  15.213227  -0.233822  -5.012517   0.160815
    10  C   -0.504384  -3.117167  -0.233822  14.849910   0.166277  -5.144156
    11  C    0.297278  -0.314194  -5.012517   0.166277  10.587752  -0.052840
    12  C   -0.418677   0.100502   0.160815  -5.144156  -0.052840  10.775620
    13  C   -0.276852   0.090721   1.958855  -0.070229  -1.996266   0.049569
    14  C    0.156343  -0.236955  -0.063455   2.072760   0.044075  -2.075213
    15  H    0.130963  -0.034224   0.463498  -0.030812  -0.148841  -0.003749
    16  H   -0.035872   0.123415  -0.034365   0.465434  -0.002315  -0.159098
    17  H   -0.046612   0.000406  -0.040985   0.000837   0.368049  -0.000127
    18  H   -0.002562  -0.041217   0.000407  -0.035905  -0.000202   0.365525
    19  H    0.017007   0.006088  -0.011479  -0.000206  -0.053816   0.001354
    20  H    0.007868   0.017204   0.000010  -0.014619   0.001091  -0.048103
              13         14         15         16         17         18
     1  O    0.130081  -0.001112   0.001589  -0.002644   0.008642   0.000066
     2  O   -0.001113   0.135446  -0.002309   0.002449   0.000057   0.008997
     3  O    0.019389  -0.003236  -0.001902  -0.008585   0.000308   0.000511
     4  O   -0.000224   0.016340  -0.008650  -0.001569   0.000392   0.000416
     5  C   -1.332516  -0.098372  -0.161395   0.033753   0.077213   0.002892
     6  C   -0.033903  -1.502681   0.025988  -0.147549  -0.000304   0.069384
     7  C   -0.276852   0.156343   0.130963  -0.035872  -0.046612  -0.002562
     8  C    0.090721  -0.236955  -0.034224   0.123415   0.000406  -0.041217
     9  C    1.958855  -0.063455   0.463498  -0.034365  -0.040985   0.000407
    10  C   -0.070229   2.072760  -0.030812   0.465434   0.000837  -0.035905
    11  C   -1.996266   0.044075  -0.148841  -0.002315   0.368049  -0.000202
    12  C    0.049569  -2.075213  -0.003749  -0.159098  -0.000127   0.365525
    13  C    6.947344  -0.020005   0.038373  -0.009694  -0.051912   0.000582
    14  C   -0.020005   7.055140  -0.007599   0.040336   0.000483  -0.052407
    15  H    0.038373  -0.007599   0.378482   0.000150  -0.002705  -0.000123
    16  H   -0.009694   0.040336   0.000150   0.382045  -0.000038  -0.002263
    17  H   -0.051912   0.000483  -0.002705  -0.000038   0.377908  -0.000002
    18  H    0.000582  -0.052407  -0.000123  -0.002263  -0.000002   0.380967
    19  H    0.387841  -0.000405   0.001334  -0.000230  -0.001560   0.000012
    20  H   -0.000372   0.384382  -0.000127   0.001126   0.000010  -0.001896
              19         20
     1  O   -0.055221  -0.000022
     2  O   -0.000023  -0.054837
     3  O   -0.001452  -0.000246
     4  O   -0.000162  -0.001733
     5  C    0.011013  -0.006267
     6  C   -0.004486   0.016921
     7  C    0.017007   0.007868
     8  C    0.006088   0.017204
     9  C   -0.011479   0.000010
    10  C   -0.000206  -0.014619
    11  C   -0.053816   0.001091
    12  C    0.001354  -0.048103
    13  C    0.387841  -0.000372
    14  C   -0.000405   0.384382
    15  H    0.001334  -0.000127
    16  H   -0.000230   0.001126
    17  H   -0.001560   0.000010
    18  H    0.000012  -0.001896
    19  H    0.377553  -0.000004
    20  H   -0.000004   0.378847
 Mulliken charges:
               1
     1  O    0.086468
     2  O    0.092830
     3  O   -0.101852
     4  O   -0.094081
     5  C   -0.540209
     6  C   -0.627565
     7  C   -0.649218
     8  C   -0.535892
     9  C    1.005729
    10  C    0.952720
    11  C   -0.966386
    12  C   -0.930949
    13  C    0.170330
    14  C    0.156133
    15  H    0.362060
    16  H    0.355514
    17  H    0.309942
    18  H    0.306816
    19  H    0.326841
    20  H    0.320768
 Sum of Mulliken charges =  -0.00000
 Mulliken charges with hydrogens summed into heavy atoms:
               1
     1  O    0.086468
     2  O    0.092830
     3  O   -0.101852
     4  O   -0.094081
     5  C   -0.540209
     6  C   -0.627565
     7  C   -0.649218
     8  C   -0.535892
     9  C    1.367790
    10  C    1.308235
    11  C   -0.656444
    12  C   -0.624134
    13  C    0.497171
    14  C    0.476901
 Electronic spatial extent (au):  <R**2>=           2899.0503
 Charge=              0.0000 electrons
 Dipole moment (field-independent basis, Debye):
    X=             -0.5271    Y=             -6.3304    Z=              0.2263  Tot=              6.3564
 Quadrupole moment (field-independent basis, Debye-Ang):
   XX=            -57.0998   YY=            -85.6512   ZZ=            -82.9835
   XY=              0.5459   XZ=             -4.4386   YZ=              0.2256
 Traceless Quadrupole moment (field-independent basis, Debye-Ang):
   XX=             18.1450   YY=            -10.4063   ZZ=             -7.7387
   XY=              0.5459   XZ=             -4.4386   YZ=              0.2256
 Octapole moment (field-independent basis, Debye-Ang**2):
  XXX=             -8.4345  YYY=             -5.8142  ZZZ=              1.2837  XYY=             -0.5202
  XXY=            -39.6783  XXZ=              0.3878  XZZ=             -0.8987  YZZ=            -18.8381
  YYZ=              0.0632  XYZ=              2.4900
 Hexadecapole moment (field-independent basis, Debye-Ang**3):
 XXXX=          -2283.5087 YYYY=           -636.2449 ZZZZ=           -411.7180 XXXY=             11.7843
 XXXZ=             96.9802 YYYX=              1.3277 YYYZ=              1.8518 ZZZX=             10.8259
 ZZZY=              0.2372 XXYY=           -541.4495 XXZZ=           -543.1199 YYZZ=           -175.2204
 XXYZ=             -1.0475 YYXZ=            -33.3827 ZZXY=              2.0988
 N-N= 8.199324528066D+02 E-N=-3.241425723953D+03  KE= 6.826748187277D+02
 R6APFD:  NTU= -4 IXU= 1 FactS= 1.050
 Calling FoFJK, ICntrl=      2127 FMM=F ISym2X=0 I1Cent= 0 IOpClX= 0 NMat=1 NMatS=1 NMatT=0.
 ***** Axes restored to original set *****
 -------------------------------------------------------------------
 Center     Atomic                   Forces (Hartrees/Bohr)
 Number     Number              X              Y              Z
 -------------------------------------------------------------------
      1        8           0.005814569   -0.013265885   -0.012997264
      2        8          -0.015070558   -0.018572860    0.012371050
      3        8           0.009219354   -0.041267469   -0.041617445
      4        8          -0.002640668   -0.016776328    0.020569714
      5        6           0.015951668   -0.010596745   -0.005479522
      6        6           0.042126466    0.042602627   -0.016987112
      7        6          -0.029974337    0.053348179    0.062145070
      8        6           0.002962254    0.005374059   -0.037311503
      9        6          -0.001962546    0.004519207    0.006111457
     10        6          -0.006130830   -0.015994758    0.012543022
     11        6           0.008566611    0.003125552    0.009511318
     12        6          -0.016977802   -0.000675030   -0.009767614
     13        6          -0.017297851    0.007446785   -0.001862176
     14        6           0.005480397   -0.000114914    0.003392688
     15        1          -0.002483516    0.001265869   -0.000771714
     16        1           0.002947450    0.002408485    0.000055981
     17        1           0.000818482   -0.000650766   -0.000488517
     18        1          -0.001456455   -0.000722768    0.000099431
     19        1           0.000941543   -0.000535839   -0.000006056
     20        1          -0.000834230   -0.000917401    0.000489189
 -------------------------------------------------------------------
 Cartesian Forces:  Max     0.062145070 RMS     0.018324042

 GradGradGradGradGradGradGradGradGradGradGradGradGradGradGradGradGradGrad
 Berny optimization.
 FormGI is forming the generalized inverse of G from B-inverse, IUseBI=4.
 Internal  Forces:  Max     0.058447429 RMS     0.009247141
 Search for a local minimum.
 Step number   1 out of a maximum of  107
 All quantities printed in internal units (Hartrees-Bohrs-Radians)
 Mixed Optimization -- RFO/linear search
 Second derivative matrix not updated -- first step.
 ITU=  0
     Eigenvalues ---    0.00423   0.00745   0.01026   0.01189   0.01784
     Eigenvalues ---    0.02027   0.02043   0.02121   0.02124   0.02175
     Eigenvalues ---    0.02233   0.02275   0.02322   0.02370   0.02373
     Eigenvalues ---    0.02417   0.02680   0.16000   0.16000   0.16000
     Eigenvalues ---    0.16000   0.16000   0.16000   0.22195   0.22200
     Eigenvalues ---    0.24057   0.24089   0.24997   0.24998   0.25000
     Eigenvalues ---    0.25000   0.25000   0.25000   0.29801   0.34528
     Eigenvalues ---    0.35889   0.35943   0.35951   0.35951   0.35966
     Eigenvalues ---    0.35975   0.40896   0.40977   0.42009   0.43943
     Eigenvalues ---    0.45296   0.49216   0.50759   0.51081   0.52468
     Eigenvalues ---    0.55184   0.57229   0.81562   0.94278
 RFO step:  Lambda=-1.75973029D-02 EMin= 4.22728285D-03
 Linear search not attempted -- first point.
 Iteration  1 RMS(Cart)=  0.05408816 RMS(Int)=  0.00173613
 Iteration  2 RMS(Cart)=  0.00515928 RMS(Int)=  0.00028454
 Iteration  3 RMS(Cart)=  0.00001099 RMS(Int)=  0.00028449
 Iteration  4 RMS(Cart)=  0.00000000 RMS(Int)=  0.00028449
 Variable       Old X    -DE/DX   Delta X   Delta X   Delta X     New X
                                 (Linear)    (Quad)   (Total)
    R1        2.56771  -0.00703   0.00000  -0.01344  -0.01343   2.55428
    R2        2.56796  -0.01561   0.00000  -0.03003  -0.03001   2.53795
    R3        2.51909   0.00846   0.00000   0.01592   0.01629   2.53538
    R4        2.56795  -0.00413   0.00000  -0.01047  -0.01046   2.55749
    R5        2.37084  -0.05845   0.00000  -0.07015  -0.07015   2.30069
    R6        2.31022  -0.02638   0.00000  -0.02747  -0.02747   2.28274
    R7        2.68911   0.01457   0.00000   0.03330   0.03330   2.72241
    R8        2.59953  -0.00785   0.00000  -0.01394  -0.01395   2.58558
    R9        2.79748  -0.01193   0.00000  -0.03287  -0.03287   2.76461
   R10        2.52907   0.02352   0.00000   0.04349   0.04373   2.57280
   R11        2.88362  -0.00150   0.00000  -0.00476  -0.00476   2.87886
   R12        2.67436   0.00299   0.00000   0.00837   0.00835   2.68271
   R13        2.04256   0.00193   0.00000   0.00513   0.00513   2.04768
   R14        2.67454   0.01410   0.00000   0.03211   0.03187   2.70641
   R15        2.04158   0.00150   0.00000   0.00398   0.00398   2.04556
   R16        2.59944  -0.01084   0.00000  -0.02139  -0.02139   2.57805
   R17        2.04135   0.00109   0.00000   0.00289   0.00289   2.04424
   R18        2.59925  -0.01213   0.00000  -0.02752  -0.02789   2.57137
   R19        2.04171   0.00118   0.00000   0.00314   0.00314   2.04485
   R20        2.04121   0.00087   0.00000   0.00230   0.00230   2.04351
   R21        2.04158   0.00059   0.00000   0.00156   0.00156   2.04314
    A1        1.86109   0.00379   0.00000   0.00837   0.00841   1.86950
    A2        1.82287   0.01582   0.00000   0.05624   0.05671   1.87958
    A3        2.05739   0.00492   0.00000   0.01768   0.01768   2.07507
    A4        1.92958  -0.00195   0.00000  -0.00589  -0.00589   1.92368
    A5        2.29622  -0.00297   0.00000  -0.01179  -0.01179   2.28443
    A6        2.01934   0.01520   0.00000   0.05153   0.05127   2.07060
    A7        1.99978  -0.02247   0.00000  -0.07345  -0.07294   1.92683
    A8        2.26407   0.00727   0.00000   0.02192   0.02166   2.28573
    A9        2.18716  -0.00344   0.00000  -0.01286  -0.01287   2.17429
   A10        1.96128   0.02067   0.00000   0.07722   0.07722   2.03849
   A11        2.13464  -0.01724   0.00000  -0.06444  -0.06444   2.07020
   A12        2.14901   0.00386   0.00000   0.01491   0.01364   2.16265
   A13        2.03266   0.01201   0.00000   0.04535   0.04402   2.07668
   A14        2.10136  -0.01584   0.00000  -0.05873  -0.06003   2.04133
   A15        1.85229  -0.00181   0.00000  -0.00153  -0.00157   1.85072
   A16        2.21133  -0.00125   0.00000  -0.01135  -0.01133   2.20000
   A17        2.21956   0.00306   0.00000   0.01288   0.01290   2.23246
   A18        1.82008   0.00451   0.00000   0.02907   0.02905   1.84912
   A19        2.24219  -0.00576   0.00000  -0.03431  -0.03429   2.20790
   A20        2.22092   0.00126   0.00000   0.00523   0.00524   2.22616
   A21        1.85226  -0.00225   0.00000  -0.00671  -0.00673   1.84553
   A22        2.22707   0.00149   0.00000   0.00543   0.00544   2.23251
   A23        2.20385   0.00076   0.00000   0.00128   0.00129   2.20514
   A24        1.85230   0.00032   0.00000  -0.00565  -0.00624   1.84606
   A25        2.22710   0.00098   0.00000   0.00923   0.00953   2.23663
   A26        2.20379  -0.00130   0.00000  -0.00359  -0.00329   2.20049
   A27        1.92956   0.00222   0.00000   0.00576   0.00578   1.93534
   A28        2.01824  -0.00045   0.00000   0.00085   0.00083   2.01908
   A29        2.33538  -0.00177   0.00000  -0.00661  -0.00662   2.32876
   A30        1.92975   0.00182   0.00000  -0.00622  -0.00658   1.92318
   A31        2.01823   0.00031   0.00000   0.01000   0.01018   2.02841
   A32        2.33520  -0.00214   0.00000  -0.00378  -0.00360   2.33160
    D1       -3.14125  -0.00008   0.00000  -0.00207  -0.00211   3.13982
    D2       -0.00002   0.00001   0.00000   0.00035   0.00035   0.00033
    D3        0.00006  -0.00000   0.00000  -0.00019  -0.00019  -0.00013
    D4       -3.14159  -0.00002   0.00000  -0.00054  -0.00054   3.14105
    D5       -3.14106  -0.00030   0.00000  -0.00696  -0.00694   3.13519
    D6       -0.00009  -0.00006   0.00000  -0.00094  -0.00100  -0.00109
    D7       -0.00009   0.00000   0.00000  -0.00029  -0.00024  -0.00032
    D8        3.14158   0.00001   0.00000  -0.00002   0.00000   3.14159
    D9        0.01696  -0.00017   0.00000  -0.00341  -0.00347   0.01349
   D10        3.14103  -0.00024   0.00000  -0.00847  -0.00839   3.13263
   D11       -3.12419  -0.00029   0.00000  -0.00645  -0.00653  -3.13071
   D12       -0.00012  -0.00036   0.00000  -0.01151  -0.01145  -0.01157
   D13       -0.00003  -0.00001   0.00000  -0.00037  -0.00036  -0.00039
   D14       -3.14150   0.00018   0.00000   0.00445   0.00441  -3.13709
   D15        3.14114   0.00010   0.00000   0.00250   0.00249  -3.13955
   D16       -0.00033   0.00029   0.00000   0.00732   0.00727   0.00694
   D17       -0.01998   0.00130   0.00000   0.04952   0.04931   0.02934
   D18        3.14107  -0.00118   0.00000  -0.04798  -0.04751   3.09356
   D19        3.12235   0.00102   0.00000   0.04244   0.04197  -3.11886
   D20        0.00021  -0.00145   0.00000  -0.05506  -0.05485  -0.05464
   D21        0.00022   0.00009   0.00000   0.00172   0.00176   0.00198
   D22       -3.14137   0.00023   0.00000   0.00494   0.00493  -3.13644
   D23        3.14108   0.00038   0.00000   0.00878   0.00867  -3.13343
   D24       -0.00051   0.00051   0.00000   0.01200   0.01184   0.01133
   D25        1.57093  -0.00056   0.00000  -0.01686  -0.01724   1.55369
   D26       -1.58886   0.00169   0.00000   0.07412   0.07436  -1.51451
   D27       -1.55520  -0.00033   0.00000  -0.01176  -0.01200  -1.56720
   D28        1.56820   0.00192   0.00000   0.07921   0.07960   1.64779
   D29        0.00006   0.00001   0.00000   0.00024   0.00024   0.00030
   D30       -3.14159   0.00011   0.00000   0.00267   0.00268  -3.13891
   D31        3.14153  -0.00018   0.00000  -0.00461  -0.00466   3.13687
   D32       -0.00012  -0.00008   0.00000  -0.00218  -0.00221  -0.00233
   D33       -0.00026  -0.00008   0.00000  -0.00176  -0.00183  -0.00209
   D34        3.14157   0.00005   0.00000   0.00134   0.00134  -3.14027
   D35        3.14134  -0.00022   0.00000  -0.00493  -0.00505   3.13629
   D36       -0.00002  -0.00008   0.00000  -0.00183  -0.00188  -0.00190
   D37       -0.00007  -0.00000   0.00000  -0.00003  -0.00003  -0.00011
   D38        3.14159   0.00002   0.00000   0.00040   0.00041  -3.14119
   D39        3.14157  -0.00010   0.00000  -0.00242  -0.00243   3.13915
   D40        0.00005  -0.00008   0.00000  -0.00198  -0.00199  -0.00194
   D41        0.00022   0.00005   0.00000   0.00130   0.00129   0.00150
   D42       -3.14147   0.00005   0.00000   0.00096   0.00099  -3.14048
   D43        3.14158  -0.00008   0.00000  -0.00175  -0.00180   3.13978
   D44       -0.00012  -0.00009   0.00000  -0.00208  -0.00209  -0.00221
         Item               Value     Threshold  Converged?
 Maximum Force            0.058447     0.000450     NO 
 RMS     Force            0.009247     0.000300     NO 
 Maximum Displacement     0.187623     0.001800     NO 
 RMS     Displacement     0.052597     0.001200     NO 
 Predicted change in Energy=-9.384538D-03
 GradGradGradGradGradGradGradGradGradGradGradGradGradGradGradGradGradGrad

                          Input orientation:                          
 ---------------------------------------------------------------------
 Center     Atomic      Atomic             Coordinates (Angstroms)
 Number     Number       Type             X           Y           Z
 ---------------------------------------------------------------------
      1          8           0        2.833105    0.100370    0.822037
      2          8           0       -2.849038    0.109237   -0.783204
      3          8           0        0.624936    1.713596    1.377776
      4          8           0       -0.680036    1.751258   -1.382119
      5          6           0        1.721833    0.104504    0.052585
      6          6           0       -1.715317    0.087657   -0.066069
      7          6           0        0.625349    0.964511    0.418028
      8          6           0       -0.619349    0.972928   -0.460314
      9          6           0        1.865615   -0.769272   -0.990434
     10          6           0       -1.812228   -0.815831    0.947790
     11          6           0        3.155222   -1.344713   -0.845098
     12          6           0       -3.117174   -1.395103    0.835236
     13          6           0        3.690608   -0.775507    0.273175
     14          6           0       -3.699163   -0.790320   -0.235771
     15          1           0        1.132704   -0.964714   -1.764257
     16          1           0       -1.052230   -1.040156    1.685226
     17          1           0        3.630393   -2.080126   -1.480391
     18          1           0       -3.568069   -2.153622    1.461542
     19          1           0        4.636804   -0.888203    0.784442
     20          1           0       -4.665166   -0.885792   -0.711881
 ---------------------------------------------------------------------
                    Distance matrix (angstroms):
                    1          2          3          4          5
     1  O    0.000000
     2  O    5.904543   0.000000
     3  O    2.790583   4.394576   0.000000
     4  O    4.463844   2.785588   3.053096   0.000000
     5  C    1.351665   4.646657   2.355523   3.246406   0.000000
     6  C    4.634332   1.341667   3.194550   2.360372   3.439238
     7  C    2.405027   3.774362   1.217475   2.358714   1.440638
     8  C    3.784867   2.412827   2.339959   1.207976   2.549188
     9  C    2.231001   4.800278   3.648608   3.603724   1.368228
    10  C    4.736492   2.219699   3.538737   3.646955   3.760053
    11  C    2.229655   6.178101   4.549370   4.958087   2.227256
    12  C    6.135343   2.225822   4.895074   4.555863   5.126144
    13  C    1.343027   6.683238   4.100502   5.312915   2.167753
    14  C    6.677036   1.353365   5.250806   4.109605   5.501914
    15  H    3.273330   4.239115   4.159753   3.287637   2.188885
    16  H    4.140256   3.262325   3.238913   4.164027   3.416312
    17  H    3.269772   6.874766   5.620873   5.767926   3.281041
    18  H    6.816485   3.267479   5.704707   5.628075   5.921769
    19  H    2.057187   7.712990   4.818349   6.318982   3.165144
    20  H    7.716832   2.072074   6.253693   4.825403   6.508368
                    6          7          8          9         10
     6  C    0.000000
     7  C    2.545965   0.000000
     8  C    1.462969   1.523426   0.000000
     9  C    3.796294   2.555001   3.080801   0.000000
    10  C    1.361467   3.064644   2.570093   4.157572   0.000000
    11  C    5.136216   3.650789   4.445998   1.419627   5.307515
    12  C    2.230725   4.443908   3.677656   5.343493   1.432169
    13  C    5.484903   3.527671   4.708583   2.219763   5.544180
    14  C    2.176072   4.712566   3.555941   5.615755   2.227552
    15  H    3.478872   2.956635   2.919660   1.083586   4.006243
    16  H    2.186020   2.904953   2.973757   3.968167   1.082465
    17  H    5.939378   4.680182   5.331230   2.252296   6.092342
    18  H    3.284756   5.328829   4.707844   6.119929   2.266407
    19  H    6.482677   4.433800   5.713175   3.292995   6.451506
    20  H    3.172742   5.717505   4.459458   6.537757   3.301312
                   11         12         13         14         15
    11  C    0.000000
    12  C    6.493767   0.000000
    13  C    1.364246   6.858987   0.000000
    14  C    6.903710   1.360710   7.407290   0.000000
    15  H    2.253848   5.000406   3.275638   5.070859   0.000000
    16  H    4.919141   2.261076   4.955647   3.280076   4.083939
    17  H    1.081766   7.166662   2.186470   7.545533   2.750124
    18  H    7.153849   1.082089   7.483301   2.180975   5.823791
    19  H    2.249197   7.770695   1.081379   8.398735   4.333640
    20  H    7.834974   2.247054   8.414360   1.081184   5.893133
                   16         17         18         19         20
    16  H    0.000000
    17  H    5.747141   0.000000
    18  H    2.760305   7.776775   0.000000
    19  H    5.761910   2.750092   8.329446   0.000000
    20  H    4.338578   8.416255   2.744956   9.421551   0.000000
 Stoichiometry    C10H6O4
 Framework group  C1[X(C10H6O4)]
 Deg. of freedom    54
 Full point group                 C1      NOp   1
 Largest Abelian subgroup         C1      NOp   1
 Largest concise Abelian subgroup C1      NOp   1
                         Standard orientation:                         
 ---------------------------------------------------------------------
 Center     Atomic      Atomic             Coordinates (Angstroms)
 Number     Number       Type             X           Y           Z
 ---------------------------------------------------------------------
      1          8           0       -2.842179    0.079010   -0.791664
      2          8           0        2.859789    0.152922    0.739911
      3          8           0       -0.642620    1.670051   -1.438103
      4          8           0        0.697098    1.816333    1.301451
      5          6           0       -1.721274    0.113714   -0.037099
      6          6           0        1.717114    0.102828    0.038588
      7          6           0       -0.630248    0.959153   -0.449814
      8          6           0        0.625444    1.002455    0.411691
      9          6           0       -1.851098   -0.718571    1.041091
     10          6           0        1.801992   -0.839662   -0.940239
     11          6           0       -3.141936   -1.299751    0.934756
     12          6           0        3.108762   -1.413586   -0.821610
     13          6           0       -3.691910   -0.775009   -0.198091
     14          6           0        3.703712   -0.767076    0.217423
     15          1           0       -1.108295   -0.883261    1.812635
     16          1           0        1.032931   -1.093000   -1.658637
     17          1           0       -3.608398   -2.009883    1.604341
     18          1           0        3.552367   -2.195896   -1.423376
     19          1           0       -4.644394   -0.908011   -0.692526
     20          1           0        4.675739   -0.843453    0.684637
 ---------------------------------------------------------------------
 Rotational constants (GHZ):           1.4655143           0.4184386           0.3960541
 Standard basis: 6-311++G(d,p) (5D, 7F)
 There are   364 symmetry adapted cartesian basis functions of A   symmetry.
 There are   350 symmetry adapted basis functions of A   symmetry.
   350 basis functions,   558 primitive gaussians,   364 cartesian basis functions
    49 alpha electrons       49 beta electrons
       nuclear repulsion energy       823.1766573884 Hartrees.
 NAtoms=   20 NActive=   20 NUniq=   20 SFac= 1.00D+00 NAtFMM=   60 NAOKFM=F Big=F
 Integral buffers will be    131072 words long.
 Raffenetti 2 integral format.
 Two-electron integral symmetry is turned on.
 R6APFD:  NTU= -4 IXU= 1 FactS= 1.050
 Nuclear repulsion after empirical dispersion term =      823.1624584039 Hartrees.
 One-electron integrals computed using PRISM.
 NBasis=   350 RedAO= T EigKep=  2.08D-06  NBF=   350
 NBsUse=   350 1.00D-06 EigRej= -1.00D+00 NBFU=   350
 Initial guess from the checkpoint file:  "FURL0117.chk"
 B after Tr=     0.000000    0.000000   -0.000000
         Rot=    0.999813    0.019338    0.000604   -0.000747 Ang=   2.22 deg.
 ExpMin= 3.60D-02 ExpMax= 8.59D+03 ExpMxC= 1.30D+03 IAcc=3 IRadAn=         5 AccDes= 0.00D+00
 Harris functional with IExCor= 1009 and IRadAn=       5 diagonalized for initial guess.
 HarFok:  IExCor= 1009 AccDes= 0.00D+00 IRadAn=         5 IDoV= 1 UseB2=F ITyADJ=14
 ICtDFT=  3500011 ScaDFX=  1.000000  1.000000  1.000000  1.000000
 FoFCou: FMM=F IPFlag=           0 FMFlag=      100000 FMFlg1=           0
         NFxFlg=           0 DoJE=T BraDBF=F KetDBF=T FulRan=T
         wScrn=  0.000000 ICntrl=       500 IOpCl=  0 I1Cent=   200000004 NGrid=           0
         NMat0=    1 NMatS0=      1 NMatT0=    0 NMatD0=    1 NMtDS0=    0 NMtDT0=    0
 Petite list used in FoFCou.
 Requested convergence on RMS density matrix=1.00D-08 within  32 cycles.
 Requested convergence on MAX density matrix=1.00D-06.
 Requested convergence on             energy=1.00D-06.
 No special actions if energy rises.
 SCF Done:  E(RM08HX) =  -685.464342076     A.U. after   16 cycles
            NFock= 16  Conv=0.37D-08     -V/T= 2.0038
 QCSCF skips out because SCF is already converged.
 R6APFD:  NTU= -4 IXU= 1 FactS= 1.050
 Calling FoFJK, ICntrl=      2127 FMM=F ISym2X=0 I1Cent= 0 IOpClX= 0 NMat=1 NMatS=1 NMatT=0.
 ***** Axes restored to original set *****
 -------------------------------------------------------------------
 Center     Atomic                   Forces (Hartrees/Bohr)
 Number     Number              X              Y              Z
 -------------------------------------------------------------------
      1        8           0.002123448   -0.002344055   -0.001526765
      2        8          -0.012320705   -0.003426603   -0.003974140
      3        8           0.002297352   -0.011475297   -0.010520028
      4        8           0.000461729   -0.005587841    0.001720276
      5        6           0.006944418   -0.005374115   -0.004142715
      6        6           0.004099399    0.001166031    0.001296475
      7        6          -0.008142311    0.017833621    0.023678272
      8        6          -0.003168482    0.005945833   -0.011073929
      9        6          -0.002622112    0.000085726   -0.000368489
     10        6          -0.003640843   -0.006890725    0.004069195
     11        6           0.003147402   -0.001973669   -0.000144756
     12        6           0.002642099    0.000094938    0.001715825
     13        6          -0.003399598    0.003279312    0.001799200
     14        6           0.009780705    0.007309338   -0.002738809
     15        1          -0.000428212    0.000611999    0.000017067
     16        1           0.001017058    0.000618182    0.000383283
     17        1          -0.000111161    0.000112978    0.000006100
     18        1           0.000824428    0.000237380    0.000383957
     19        1           0.000383188   -0.000507747   -0.000417884
     20        1           0.000112198    0.000284714   -0.000162136
 -------------------------------------------------------------------
 Cartesian Forces:  Max     0.023678272 RMS     0.005765948

 GradGradGradGradGradGradGradGradGradGradGradGradGradGradGradGradGradGrad
 Berny optimization.
 Using GEDIIS/GDIIS optimizer.
 FormGI is forming the generalized inverse of G from B-inverse, IUseBI=4.
 Internal  Forces:  Max     0.015355357 RMS     0.003101968
 Search for a local minimum.
 Step number   2 out of a maximum of  107
 All quantities printed in internal units (Hartrees-Bohrs-Radians)
 Mixed Optimization -- RFO/linear search
 Update second derivatives using D2CorX and points    1    2
 DE= -1.05D-02 DEPred=-9.38D-03 R= 1.12D+00
 TightC=F SS=  1.41D+00  RLast= 2.59D-01 DXNew= 5.0454D-01 7.7840D-01
 Trust test= 1.12D+00 RLast= 2.59D-01 DXMaxT set to 5.05D-01
 ITU=  1  0
 Use linear search instead of GDIIS.
     Eigenvalues ---    0.00421   0.00830   0.01026   0.01161   0.01784
     Eigenvalues ---    0.01991   0.02041   0.02113   0.02121   0.02173
     Eigenvalues ---    0.02233   0.02271   0.02321   0.02369   0.02373
     Eigenvalues ---    0.02404   0.02670   0.15711   0.16000   0.16000
     Eigenvalues ---    0.16000   0.16000   0.16051   0.18682   0.22199
     Eigenvalues ---    0.22330   0.24057   0.24934   0.24962   0.25000
     Eigenvalues ---    0.25000   0.25000   0.27152   0.30232   0.34586
     Eigenvalues ---    0.35888   0.35940   0.35948   0.35953   0.35971
     Eigenvalues ---    0.35975   0.40082   0.41098   0.42021   0.43945
     Eigenvalues ---    0.45693   0.49242   0.50059   0.52423   0.52976
     Eigenvalues ---    0.54842   0.57938   0.76137   0.93872
 RFO step:  Lambda=-4.53546051D-03 EMin= 4.21144509D-03
 Quartic linear search produced a step of  0.20649.
 Iteration  1 RMS(Cart)=  0.13624925 RMS(Int)=  0.00574723
 Iteration  2 RMS(Cart)=  0.01296475 RMS(Int)=  0.00143436
 Iteration  3 RMS(Cart)=  0.00006004 RMS(Int)=  0.00143383
 Iteration  4 RMS(Cart)=  0.00000023 RMS(Int)=  0.00143383
 Variable       Old X    -DE/DX   Delta X   Delta X   Delta X     New X
                                 (Linear)    (Quad)   (Total)
    R1        2.55428  -0.00013  -0.00277  -0.00162  -0.00439   2.54989
    R2        2.53795  -0.00275  -0.00620  -0.00905  -0.01523   2.52272
    R3        2.53538   0.00542   0.00336   0.01323   0.01666   2.55204
    R4        2.55749  -0.00837  -0.00216  -0.02078  -0.02293   2.53456
    R5        2.30069  -0.01536  -0.01448  -0.02849  -0.04298   2.25772
    R6        2.28274  -0.00494  -0.00567  -0.00861  -0.01429   2.26846
    R7        2.72241   0.00945   0.00688   0.02949   0.03637   2.75878
    R8        2.58558   0.00002  -0.00288  -0.00069  -0.00358   2.58200
    R9        2.76461  -0.00125  -0.00679  -0.00668  -0.01346   2.75115
   R10        2.57280   0.00452   0.00903   0.01436   0.02341   2.59621
   R11        2.87886   0.00499  -0.00098   0.01970   0.01872   2.89757
   R12        2.68271   0.00211   0.00172   0.00709   0.00880   2.69151
   R13        2.04768   0.00017   0.00106   0.00092   0.00198   2.04966
   R14        2.70641  -0.00576   0.00658  -0.01352  -0.00699   2.69942
   R15        2.04556   0.00085   0.00082   0.00311   0.00393   2.04949
   R16        2.57805   0.00033  -0.00442  -0.00089  -0.00531   2.57274
   R17        2.04424  -0.00013   0.00060  -0.00023   0.00037   2.04461
   R18        2.57137   0.00299  -0.00576   0.00343  -0.00237   2.56899
   R19        2.04485  -0.00029   0.00065  -0.00073  -0.00009   2.04476
   R20        2.04351   0.00019   0.00047   0.00080   0.00128   2.04479
   R21        2.04314  -0.00005   0.00032  -0.00007   0.00025   2.04339
    A1        1.86950   0.00033   0.00174   0.00005   0.00181   1.87131
    A2        1.87958  -0.00434   0.01171  -0.01780  -0.00600   1.87358
    A3        2.07507   0.00201   0.00365   0.01061   0.01425   2.08932
    A4        1.92368   0.00020  -0.00122   0.00082  -0.00041   1.92327
    A5        2.28443  -0.00222  -0.00243  -0.01145  -0.01389   2.27054
    A6        2.07060   0.00154   0.01059   0.00847   0.01901   2.08961
    A7        1.92683   0.00147  -0.01506   0.00661  -0.00840   1.91843
    A8        2.28573  -0.00301   0.00447  -0.01512  -0.01069   2.27504
    A9        2.17429   0.00141  -0.00266   0.00617   0.00326   2.17756
   A10        2.03849   0.00859   0.01594   0.04609   0.06177   2.10026
   A11        2.07020  -0.00999  -0.01331  -0.05145  -0.06501   2.00519
   A12        2.16265   0.00292   0.00282   0.02032   0.01513   2.17778
   A13        2.07668   0.00529   0.00909   0.03327   0.03417   2.11085
   A14        2.04133  -0.00808  -0.01240  -0.03698  -0.05744   1.98389
   A15        1.85072  -0.00061  -0.00032  -0.00143  -0.00177   1.84895
   A16        2.20000  -0.00039  -0.00234  -0.00498  -0.00732   2.19268
   A17        2.23246   0.00100   0.00266   0.00639   0.00905   2.24151
   A18        1.84912  -0.00192   0.00600  -0.00516   0.00078   1.84991
   A19        2.20790   0.00007  -0.00708  -0.00498  -0.01207   2.19583
   A20        2.22616   0.00185   0.00108   0.01010   0.01117   2.23733
   A21        1.84553  -0.00101  -0.00139  -0.00467  -0.00606   1.83947
   A22        2.23251   0.00042   0.00112   0.00181   0.00294   2.23544
   A23        2.20514   0.00059   0.00027   0.00285   0.00312   2.20826
   A24        1.84606  -0.00019  -0.00129  -0.00464  -0.00603   1.84003
   A25        2.23663  -0.00082   0.00197  -0.00409  -0.00207   2.23456
   A26        2.20049   0.00100  -0.00068   0.00873   0.00810   2.20859
   A27        1.93534   0.00108   0.00119   0.00523   0.00643   1.94178
   A28        2.01908   0.00021   0.00017   0.00310   0.00327   2.02234
   A29        2.32876  -0.00129  -0.00137  -0.00833  -0.00970   2.31907
   A30        1.92318   0.00497  -0.00136   0.02101   0.01961   1.94279
   A31        2.02841  -0.00283   0.00210  -0.01270  -0.01058   2.01783
   A32        2.33160  -0.00214  -0.00074  -0.00832  -0.00904   2.32256
    D1        3.13982  -0.00011  -0.00044  -0.00451  -0.00506   3.13476
    D2        0.00033   0.00006   0.00007   0.00299   0.00307   0.00340
    D3       -0.00013  -0.00006  -0.00004  -0.00262  -0.00267  -0.00280
    D4        3.14105  -0.00004  -0.00011  -0.00199  -0.00210   3.13895
    D5        3.13519   0.00002  -0.00143   0.00148  -0.00010   3.13509
    D6       -0.00109   0.00020  -0.00021   0.00895   0.00869   0.00760
    D7       -0.00032  -0.00007  -0.00005  -0.00316  -0.00323  -0.00355
    D8        3.14159  -0.00013   0.00000  -0.00565  -0.00568   3.13590
    D9        0.01349  -0.00033  -0.00072  -0.02351  -0.02393  -0.01044
   D10        3.13263   0.00027  -0.00173   0.02133   0.01932  -3.13124
   D11       -3.13071  -0.00054  -0.00135  -0.03280  -0.03387   3.11861
   D12       -0.01157   0.00006  -0.00236   0.01204   0.00937  -0.00219
   D13       -0.00039  -0.00004  -0.00007  -0.00221  -0.00228  -0.00267
   D14       -3.13709   0.00005   0.00091   0.00152   0.00241  -3.13467
   D15       -3.13955   0.00015   0.00051   0.00644   0.00690  -3.13265
   D16        0.00694   0.00025   0.00150   0.01017   0.01159   0.01853
   D17        0.02934  -0.00099   0.01018  -0.12548  -0.11452  -0.08518
   D18        3.09356   0.00111  -0.00981   0.12920   0.11873  -3.07090
   D19       -3.11886  -0.00121   0.00867  -0.13464  -0.12532   3.03901
   D20       -0.05464   0.00090  -0.01133   0.12003   0.10793   0.05329
   D21        0.00198  -0.00024   0.00036  -0.01087  -0.01049  -0.00851
   D22       -3.13644   0.00004   0.00102   0.00063   0.00157  -3.13487
   D23       -3.13343  -0.00005   0.00179  -0.00231  -0.00060  -3.13403
   D24        0.01133   0.00024   0.00245   0.00920   0.01146   0.02279
   D25        1.55369   0.00194  -0.00356   0.22099   0.21791   1.77160
   D26       -1.51451   0.00002   0.01535  -0.02020  -0.00471  -1.51922
   D27       -1.56720   0.00146  -0.00248   0.18002   0.17741  -1.38979
   D28        1.64779  -0.00047   0.01644  -0.06117  -0.04521   1.60258
   D29        0.00030   0.00001   0.00005   0.00058   0.00063   0.00093
   D30       -3.13891   0.00006   0.00055   0.00213   0.00270  -3.13621
   D31        3.13687  -0.00010  -0.00096  -0.00329  -0.00430   3.13257
   D32       -0.00233  -0.00005  -0.00046  -0.00174  -0.00224  -0.00457
   D33       -0.00209   0.00019  -0.00038   0.00859   0.00819   0.00610
   D34       -3.14027   0.00019   0.00028   0.00805   0.00835  -3.13192
   D35        3.13629  -0.00010  -0.00104  -0.00311  -0.00431   3.13197
   D36       -0.00190  -0.00010  -0.00039  -0.00365  -0.00415  -0.00604
   D37       -0.00011   0.00003  -0.00001   0.00125   0.00126   0.00115
   D38       -3.14119   0.00001   0.00008   0.00046   0.00055  -3.14064
   D39        3.13915  -0.00002  -0.00050  -0.00026  -0.00077   3.13838
   D40       -0.00194  -0.00003  -0.00041  -0.00105  -0.00147  -0.00341
   D41        0.00150  -0.00007   0.00027  -0.00342  -0.00317  -0.00166
   D42       -3.14048  -0.00000   0.00020  -0.00034  -0.00013  -3.14061
   D43        3.13978  -0.00007  -0.00037  -0.00293  -0.00335   3.13643
   D44       -0.00221  -0.00001  -0.00043   0.00015  -0.00032  -0.00253
         Item               Value     Threshold  Converged?
 Maximum Force            0.015355     0.000450     NO 
 RMS     Force            0.003102     0.000300     NO 
 Maximum Displacement     0.449323     0.001800     NO 
 RMS     Displacement     0.145382     0.001200     NO 
 Predicted change in Energy=-2.937780D-03
 GradGradGradGradGradGradGradGradGradGradGradGradGradGradGradGradGradGrad

                          Input orientation:                          
 ---------------------------------------------------------------------
 Center     Atomic      Atomic             Coordinates (Angstroms)
 Number     Number       Type             X           Y           Z
 ---------------------------------------------------------------------
      1          8           0        2.774920    0.024675    0.855034
      2          8           0       -2.748050    0.008784   -0.864458
      3          8           0        0.616050    1.720509    1.483656
      4          8           0       -0.584106    1.711108   -1.464351
      5          6           0        1.667931    0.138057    0.091850
      6          6           0       -1.660888    0.141805   -0.074401
      7          6           0        0.600799    1.048726    0.495799
      8          6           0       -0.610756    1.080148   -0.443481
      9          6           0        1.754188   -0.691428   -0.990455
     10          6           0       -1.754798   -0.711179    0.998483
     11          6           0        3.009431   -1.354617   -0.875856
     12          6           0       -2.996912   -1.399984    0.846079
     13          6           0        3.571564   -0.869599    0.265317
     14          6           0       -3.541052   -0.914777   -0.301353
     15          1           0        1.005683   -0.794794   -1.768587
     16          1           0       -1.026112   -0.810975    1.795536
     17          1           0        3.441141   -2.086443   -1.545706
     18          1           0       -3.428583   -2.148214    1.497715
     19          1           0        4.510607   -1.067539    0.765177
     20          1           0       -4.462256   -1.123564   -0.827698
 ---------------------------------------------------------------------
                    Distance matrix (angstroms):
                    1          2          3          4          5
     1  O    0.000000
     2  O    5.784471   0.000000
     3  O    2.816334   4.445313   0.000000
     4  O    4.416635   2.817877   3.182956   0.000000
     5  C    1.349344   4.520191   2.355362   3.157202   0.000000
     6  C    4.533648   1.350484   3.178725   2.356721   3.332970
     7  C    2.429924   3.761193   1.194732   2.384311   1.459885
     8  C    3.776635   2.427564   2.372545   1.200415   2.523199
     9  C    2.227224   4.558104   3.637859   3.385908   1.366335
    10  C    4.591340   2.230570   3.430658   3.647402   3.641189
    11  C    2.225628   5.916720   4.555432   4.760095   2.228038
    12  C    5.945064   2.229910   4.816376   4.564934   4.969426
    13  C    1.334965   6.479620   4.114373   5.188583   2.160852
    14  C    6.489323   1.341233   5.235694   4.122059   5.328843
    15  H    3.268809   3.943818   4.129847   2.983209   2.184035
    16  H    4.003836   3.273018   3.033541   4.145255   3.325819
    17  H    3.265611   6.569639   5.625926   5.534494   3.282417
    18  H    6.604388   3.270417   5.596988   5.635535   5.760030
    19  H    2.052708   7.516800   4.843241   6.216733   3.160322
    20  H    7.518428   2.054767   6.262612   4.845693   6.325856
                    6          7          8          9         10
     6  C    0.000000
     7  C    2.502571   0.000000
     8  C    1.455845   1.533331   0.000000
     9  C    3.632654   2.562692   3.005100   0.000000
    10  C    1.373855   2.983085   2.568451   4.033515   0.000000
    11  C    4.969254   3.668651   4.384151   1.424285   5.159945
    12  C    2.238159   4.366052   3.675291   5.142749   1.428471
    13  C    5.340121   3.543802   4.668588   2.216205   5.378918
    14  C    2.168615   4.652497   3.547754   5.344559   2.218497
    15  H    3.295161   2.947870   2.807880   1.084634   3.909465
    16  H    2.192577   2.791889   2.960078   3.937780   1.084545
    17  H    5.758517   4.697293   5.259284   2.258358   5.946598
    18  H    3.292488   5.240247   4.704329   5.930795   2.261827
    19  H    6.344663   4.453957   5.683465   3.289612   6.279866
    20  H    3.164851   5.666130   4.453989   6.233571   3.291706
                   11         12         13         14         15
    11  C    0.000000
    12  C    6.248462   0.000000
    13  C    1.361438   6.615397   0.000000
    14  C    6.590321   1.359453   7.135297   0.000000
    15  H    2.263929   4.819077   3.275073   4.779118   0.000000
    16  H    4.870060   2.265493   4.845991   3.276072   4.102612
    17  H    1.081962   6.902202   2.185755   7.188340   2.765770
    18  H    6.907363   1.082043   7.221892   2.184184   5.671260
    19  H    2.242528   7.515312   1.082054   8.123425   4.333455
    20  H    7.475414   2.241689   8.111809   1.081318   5.558033
                   16         17         18         19         20
    16  H    0.000000
    17  H    5.722505   0.000000
    18  H    2.765642   7.513942   0.000000
    19  H    5.637616   2.742645   8.045819   0.000000
    20  H    4.334301   7.994145   2.743343   9.113323   0.000000
 Stoichiometry    C10H6O4
 Framework group  C1[X(C10H6O4)]
 Deg. of freedom    54
 Full point group                 C1      NOp   1
 Largest Abelian subgroup         C1      NOp   1
 Largest concise Abelian subgroup C1      NOp   1
                         Standard orientation:                         
 ---------------------------------------------------------------------
 Center     Atomic      Atomic             Coordinates (Angstroms)
 Number     Number       Type             X           Y           Z
 ---------------------------------------------------------------------
      1          8           0       -2.786710    0.045407   -0.788401
      2          8           0        2.774929    0.018381    0.801422
      3          8           0       -0.654584    1.775556   -1.414787
      4          8           0        0.614197    1.685564    1.502969
      5          6           0       -1.662970    0.143791   -0.047956
      6          6           0        1.668725    0.167244    0.041187
      7          6           0       -0.611724    1.074218   -0.448521
      8          6           0        0.621219    1.086111    0.462968
      9          6           0       -1.718320   -0.718795    1.010227
     10          6           0        1.743265   -0.652045   -1.059126
     11          6           0       -2.971408   -1.387515    0.904537
     12          6           0        2.993209   -1.335904   -0.956634
     13          6           0       -3.563316   -0.872261   -0.207970
     14          6           0        3.560747   -0.881732    0.192166
     15          1           0       -0.951150   -0.840174    1.767294
     16          1           0        0.996833   -0.733007   -1.841764
     17          1           0       -3.382407   -2.142535    1.561550
     18          1           0        3.414552   -2.060770   -1.640634
     19          1           0       -4.512434   -1.061909   -0.691756
     20          1           0        4.495388   -1.099549    0.690414
 ---------------------------------------------------------------------
 Rotational constants (GHZ):           1.3866875           0.4411826           0.4201039
 Standard basis: 6-311++G(d,p) (5D, 7F)
 There are   364 symmetry adapted cartesian basis functions of A   symmetry.
 There are   350 symmetry adapted basis functions of A   symmetry.
   350 basis functions,   558 primitive gaussians,   364 cartesian basis functions
    49 alpha electrons       49 beta electrons
       nuclear repulsion energy       829.1729846047 Hartrees.
 NAtoms=   20 NActive=   20 NUniq=   20 SFac= 1.00D+00 NAtFMM=   60 NAOKFM=F Big=F
 Integral buffers will be    131072 words long.
 Raffenetti 2 integral format.
 Two-electron integral symmetry is turned on.
 R6APFD:  NTU= -4 IXU= 1 FactS= 1.050
 Nuclear repulsion after empirical dispersion term =      829.1581127972 Hartrees.
 One-electron integrals computed using PRISM.
 NBasis=   350 RedAO= T EigKep=  2.08D-06  NBF=   350
 NBsUse=   350 1.00D-06 EigRej= -1.00D+00 NBFU=   350
 Initial guess from the checkpoint file:  "FURL0117.chk"
 B after Tr=     0.000000   -0.000000    0.000000
         Rot=    0.999409   -0.034153   -0.002133   -0.003273 Ang=  -3.94 deg.
 ExpMin= 3.60D-02 ExpMax= 8.59D+03 ExpMxC= 1.30D+03 IAcc=3 IRadAn=         5 AccDes= 0.00D+00
 Harris functional with IExCor= 1009 and IRadAn=       5 diagonalized for initial guess.
 HarFok:  IExCor= 1009 AccDes= 0.00D+00 IRadAn=         5 IDoV= 1 UseB2=F ITyADJ=14
 ICtDFT=  3500011 ScaDFX=  1.000000  1.000000  1.000000  1.000000
 FoFCou: FMM=F IPFlag=           0 FMFlag=      100000 FMFlg1=           0
         NFxFlg=           0 DoJE=T BraDBF=F KetDBF=T FulRan=T
         wScrn=  0.000000 ICntrl=       500 IOpCl=  0 I1Cent=   200000004 NGrid=           0
         NMat0=    1 NMatS0=      1 NMatT0=    0 NMatD0=    1 NMtDS0=    0 NMtDT0=    0
 Petite list used in FoFCou.
 Requested convergence on RMS density matrix=1.00D-08 within  32 cycles.
 Requested convergence on MAX density matrix=1.00D-06.
[...]
 .01157508,0.03070130,0.00128599,0.01458563,-0.11468722,-0.01729130,0.0
 8395982,-0.01584449,0.00158050,-0.02619946,-0.22524512,-0.02248491,0.0
 2461714,-0.19182649,-0.00253871,-0.02472971,0.53478634,0.00107915,0.00
 360623,-0.00078609,-0.00147777,-0.00299862,-0.00076515,-0.00336411,0.0
 2001724,-0.00849707,-0.01635556,-0.07719944,0.11030843,0.00357136,0.01
 422286,0.00104571,-0.02425745,-0.06561526,0.00532440,0.00191845,-0.092
 45802,-0.00109527,0.03930783,0.19672405,0.00680847,-0.00113076,-0.0049
 5920,-0.01848039,-0.00481018,0.01067094,-0.01360826,-0.00408185,-0.027
 50138,0.09148144,0.10730529,-0.72112295,0.00783841,0.00021807,0.017494
 93,0.03176309,0.00804261,-0.08997658,-0.02470973,0.00061761,-0.0770150
 0,-0.09620593,-0.11054982,0.91201166,-0.03262451,0.00558285,0.00013483
 ,0.00032338,0.00005003,-0.00001728,-0.00341549,-0.00023616,-0.00739784
 ,-0.00645629,0.00200968,0.00185351,-0.11545233,0.01950178,0.08788437,0
 .00031469,-0.00039569,0.00008125,-0.00805610,0.00551988,0.03120925,-0.
 00330757,0.00090477,-0.00207547,0.61522548,-0.00104523,0.01003098,-0.0
 1501451,-0.00011614,0.00001600,-0.00001871,0.00009429,0.00398839,0.002
 13428,0.00225443,0.00009630,-0.00107083,0.02115164,-0.07355278,-0.0559
 0635,0.00010834,-0.00023196,-0.00020347,0.00215584,-0.00440110,-0.0042
 2849,0.00094504,-0.00057186,0.00078076,-0.04262857,0.14798517,-0.03708
 223,-0.01064798,-0.08372217,-0.00037045,-0.00003559,-0.00011935,-0.004
 81384,0.00137764,0.01231757,0.00108073,-0.00141288,-0.00310280,0.08840
 403,-0.05646125,-0.35877008,0.00019763,0.00051810,-0.00018317,0.014018
 75,-0.00241355,-0.00888599,0.00308540,-0.00039429,0.00174910,0.1192625
 7,0.09153147,0.83233533,0.00032267,-0.00004664,-0.00001820,-0.03257335
 ,-0.00600380,-0.00010334,-0.00641485,-0.00210043,0.00181239,-0.0034170
 3,0.00026709,-0.00737127,0.00031169,0.00039959,0.00008539,-0.11503986,
 -0.02117789,0.08702142,-0.00328835,-0.00090165,-0.00208130,-0.00797710
 ,-0.00600360,0.03108123,-0.00028283,0.00008242,0.00011492,0.61430226,0
 .00012450,0.00001593,0.00002054,0.00115471,0.00959782,0.01636089,-0.00
 233376,0.00001747,0.00113405,-0.00010051,0.00404320,-0.00232728,-0.000
 10588,-0.00022499,0.00020321,-0.02282570,-0.07566828,0.06086660,-0.001
 01685,-0.00058411,-0.00083470,-0.00239703,-0.00458139,0.00460737,-0.00
 008908,0.00023153,-0.00001605,0.04554664,0.15162961,-0.00036904,0.0000
 3393,-0.00011847,-0.03717532,0.01162067,-0.08333795,0.00103480,0.00146
 881,-0.00306449,-0.00480098,-0.00154912,0.01226203,0.00020149,-0.00051
 630,-0.00018824,0.08751257,0.06143342,-0.35708264,0.00306626,0.0003902
 8,0.00174279,0.01395958,0.00261766,-0.00878170,0.00011350,0.00002015,0
 .00002013,0.12084168,-0.10016091,0.82960427,-0.01325505,0.00468750,0.0
 0755796,-0.00026911,-0.00000517,-0.00008305,-0.00449365,0.00125334,0.0
 0748365,-0.00015744,0.00034602,-0.00192080,-0.04997673,0.01807543,0.06
 929699,-0.00018404,-0.00006431,0.00010256,0.01220824,-0.00126922,-0.00
 461789,0.00156898,-0.00032062,0.00182117,-0.28376782,0.02154121,-0.035
 85635,0.00012216,0.00000411,0.00000185,0.65176780,0.01357363,0.0118138
 0,-0.01478730,0.00000100,0.00001657,0.00001322,0.00049296,-0.00161524,
 0.00009156,0.00030568,0.00061399,0.00074582,0.00692925,0.00776018,-0.0
 0822121,0.00002001,0.00027042,-0.00000593,0.00051975,0.00605408,-0.002
 13536,-0.00046981,-0.00082717,-0.00046186,0.02731781,-0.06335872,-0.00
 479918,-0.00004964,-0.00009190,0.00002170,-0.08408593,0.14753141,0.064
 39143,-0.02177492,-0.07371797,0.00001144,0.00003811,0.00002070,0.00041
 261,0.00104100,0.00669444,-0.00156265,0.00041162,0.00028043,-0.0021781
 0,0.00054029,0.01188245,-0.00032921,-0.00032111,0.00054535,0.00828854,
 -0.00382209,-0.01255775,0.00187138,0.00030310,-0.00083000,0.00432894,-
 0.00939538,-0.11750106,0.00020340,0.00008872,-0.00013566,-0.12861802,0
 .11936421,0.79013546,-0.00026902,0.00000347,-0.00008282,-0.01307131,-0
 .00504394,0.00733702,-0.00015129,-0.00032535,-0.00191836,-0.00447537,-
 0.00139186,0.00746382,-0.00018449,0.00005850,0.00010347,-0.04971806,-0
 .01964436,0.06893563,0.00156089,0.00031748,0.00182140,0.01219879,0.001
 39895,-0.00461793,0.00012169,-0.00000206,0.00000199,-0.28323080,-0.023
 21389,-0.03623450,-0.00010404,0.00001291,-0.00018644,0.65000373,-0.000
 00405,0.00001739,-0.00001411,-0.01474344,0.01107324,0.01608545,-0.0002
 9044,0.00062505,-0.00075996,-0.00052681,-0.00161611,-0.00013708,-0.000
 01965,0.00026617,0.00000307,-0.00747369,0.00738443,0.00885042,0.000466
 72,-0.00082233,0.00047976,-0.00057774,0.00597221,0.00235605,0.00004874
 ,-0.00008990,-0.00002098,-0.02956935,-0.06408104,0.00521023,-0.0000113
 4,0.00001396,-0.00001231,0.09093073,0.15287598,0.00001182,-0.00003810,
 0.00001995,0.06396268,0.02363796,-0.07316372,-0.00156344,-0.00042200,0
 .00026352,0.00041607,-0.00115666,0.00667635,-0.00033268,0.00031366,0.0
 0055025,-0.00227757,-0.00062365,0.01200121,0.00188089,-0.00028370,-0.0
 0082761,0.00824114,0.00417157,-0.01246648,0.00020491,-0.00008595,-0.00
 013724,0.00381255,0.01020875,-0.11729007,-0.00018675,0.00001345,-0.000
 19438,-0.12611448,-0.12984273,0.78655026,-0.24151514,0.03267501,0.0762
 8819,-0.00021368,-0.00004735,0.00004696,-0.00155139,0.00126029,0.00937
 771,-0.00112830,0.00008016,-0.00068744,-0.13149084,0.01477488,-0.01561
 956,-0.00024073,-0.00010057,0.00006413,0.01432064,-0.00301569,-0.01369
 284,0.00140345,0.00028186,0.00040675,-0.01176929,-0.00123357,-0.025868
 57,0.00017027,0.00003754,-0.00006241,-0.12211139,-0.00481163,-0.074845
 20,-0.00017800,-0.00001176,-0.00017784,0.75266559,0.03734203,-0.076425
 75,-0.02335694,0.00001481,-0.00000623,0.00001681,0.00088953,-0.0005595
 7,-0.00244623,0.00007433,-0.00014009,0.00031705,0.02049405,0.01293732,
 -0.00228908,0.00002174,-0.00003475,-0.00010471,-0.00433711,0.00266218,
 0.00144305,-0.00063579,0.00015131,0.00000545,-0.01127422,0.01050168,0.
 00091604,-0.00002641,0.00004534,0.00000823,0.00000230,-0.07231255,-0.0
 4314136,0.00002296,-0.00000490,0.00004972,-0.04757464,0.15359624,0.106
 56224,-0.02712337,-0.15994264,-0.00007531,-0.00005340,0.00010930,0.004
 63353,-0.00157481,-0.00836916,0.00044049,-0.00010867,0.00085893,0.0164
 3442,-0.00600051,-0.01084806,-0.00014341,0.00000091,-0.00058489,-0.017
 78227,0.00208302,0.00089814,-0.00250567,0.00033195,0.00077907,-0.09001
 641,0.00848962,-0.00473721,-0.00001351,-0.00001602,-0.00007080,-0.0430
 5898,-0.04683644,-0.40062905,0.00001413,0.00001986,0.00010687,0.169736
 15,0.07427383,0.74368983,-0.00021392,0.00004457,0.00004782,-0.24076868
 ,-0.03540824,0.07553212,-0.00112663,-0.00007988,-0.00068534,-0.0015293
 5,-0.00140641,0.00933229,-0.00024146,0.00009769,0.00006465,-0.13112274
 ,-0.01598489,-0.01587348,0.00139971,-0.00027567,0.00040279,0.01424459,
 0.00333144,-0.01362925,0.00017031,-0.00003539,-0.00006288,-0.01189471,
 0.00138199,-0.02583924,-0.00017789,0.00001263,-0.00017716,-0.12215411,
 0.00539789,-0.07521212,-0.00020361,0.00003594,0.00004086,0.75162815,-0
 .00001579,-0.00000646,-0.00001796,-0.04051016,-0.07791415,0.02529775,-
 0.00009061,-0.00013838,-0.00033816,-0.00096534,-0.00064348,0.00265048,
 -0.00002179,-0.00003539,0.00011316,-0.02216546,0.01244683,0.00246943,0
 .00068410,0.00015980,-0.00001009,0.00470670,0.00279254,-0.00155222,0.0
 0002790,0.00004515,-0.00000728,0.01234564,0.01077373,-0.00095099,-0.00
 002491,-0.00000398,-0.00005306,0.00012756,-0.07361610,0.04711105,-0.00
 003861,0.00000448,0.00000866,0.05109222,0.15681845,-0.00007613,0.00005
 095,0.00010980,0.10569811,0.02936832,-0.15916344,0.00043824,0.00009841
 ,0.00085584,0.00460340,0.00173448,-0.00830617,-0.00014380,0.00000558,-
 0.00058334,0.01605454,0.00649704,-0.01072307,-0.00249252,-0.00036597,0
 .00077368,-0.01769308,-0.00223407,0.00084157,-0.00001324,0.00001760,-0
 .00007065,-0.08975484,-0.00916611,-0.00488452,0.00001397,-0.00002138,0
 .00010584,-0.04353970,0.05112611,-0.39930103,0.00004038,-0.00000789,-0
 .00001963,0.17125017,-0.08103165,0.74148660,0.00197751,0.00189652,0.00
 620248,-0.00024576,-0.00003256,-0.00012680,-0.00048608,0.00002915,0.00
 014795,-0.00448106,0.00111844,-0.00199698,0.00963008,0.00004329,0.0092
 2215,0.00064651,0.00014391,-0.00067570,0.00128405,-0.00044980,-0.00110
 340,-0.00112202,-0.00009345,0.00312638,-0.14438648,-0.00801003,-0.1439
 6711,-0.00021688,-0.00004711,0.00024547,-0.00369258,-0.00243497,-0.021
 17742,0.00023216,0.00000449,0.00016032,-0.00643106,0.00130928,-0.00034
 909,0.00019815,0.00006446,-0.00019002,0.14612347,0.00082362,0.00742213
 ,-0.00267053,0.00010849,-0.00001976,0.00001651,0.00017128,0.00017534,0
 .00017489,0.00055263,-0.00093770,0.00030300,-0.00394044,-0.00060552,-0
 .00267873,-0.00025850,-0.00022145,0.00040570,-0.00058935,-0.00215543,0
 .00044150,0.00077316,0.00091796,-0.00093646,-0.00658257,-0.03532100,-0
 .01552368,0.00010534,0.00000483,-0.00011930,0.00101409,0.00155342,0.00
 301966,-0.00010923,0.00001215,-0.00006754,0.00149535,0.00401486,-0.000
 57882,-0.00009531,-0.00003831,0.00009896,0.00689278,0.02650295,-0.0003
 0596,-0.00168296,-0.00350092,0.00008746,0.00001542,0.00002096,0.000040
 84,-0.00000587,0.00022817,-0.00193368,0.00066485,0.00104541,-0.0173414
 6,0.00092815,-0.00933609,-0.00020600,-0.00027972,0.00032245,0.00040833
 ,0.00030852,-0.00033977,0.00106705,0.00009229,-0.00169584,-0.13833095,
 -0.01769666,-0.27310824,0.00008495,0.00003997,-0.00011377,0.00362792,0
 .00052209,0.00713159,-0.00013188,0.00000973,-0.00008859,0.00278599,-0.
 00099982,-0.00055805,-0.00013166,-0.00003893,0.00011643,0.15089168,0.0
 1783360,0.27968156,-0.00024509,0.00003223,-0.00012616,0.00200564,-0.00
 203932,0.00614693,-0.00446672,-0.00112342,-0.00201136,-0.00048425,-0.0
 0003790,0.00014923,0.00064537,-0.00012557,-0.00067396,0.00958971,-0.00
 007378,0.00919484,-0.00111458,0.00002744,0.00311855,0.00127381,0.00049
 985,-0.00109240,-0.00021630,0.00004137,0.00024502,-0.14452500,0.008997
 60,-0.14400609,0.00023121,-0.00000457,0.00015960,-0.00370658,0.0026870
 0,-0.02110850,0.00019789,-0.00005942,-0.00019002,-0.00640183,-0.001408
 12,-0.00037486,0.00003692,0.00000648,0.00000931,0.14625499,-0.00011191
 ,-0.00002000,-0.00001839,-0.00087323,0.00732877,0.00288883,-0.00055966
 ,-0.00093987,-0.00035144,-0.00017868,0.00017568,-0.00017375,0.00026997
 ,-0.00021809,-0.00042004,0.00429176,-0.00059150,0.00289457,-0.00080848
 ,0.00089766,0.00100488,0.00061859,-0.00213340,-0.00047870,-0.00010868,
 0.00000307,0.00012340,0.00748935,-0.03567349,0.01751373,0.00011326,0.0
 0001232,0.00007051,-0.00111904,0.00162145,-0.00331095,0.00009946,-0.00
 003700,-0.00010302,-0.00163929,0.00396156,0.00064040,-0.00000636,0.000
 01120,-0.00000209,-0.00787621,0.02690026,0.00008598,-0.00001518,0.0000
 2048,-0.00033527,0.00183619,-0.00343484,-0.00193635,-0.00071269,0.0010
 3020,0.00003805,0.00000552,0.00022589,-0.00020491,0.00026972,0.0003205
 5,-0.01727184,-0.00097554,-0.00930977,0.00105633,-0.00004366,-0.001682
 78,0.00042084,-0.00033026,-0.00035129,0.00008374,-0.00003742,-0.000112
 58,-0.13841149,0.01974026,-0.27262102,-0.00013017,-0.00000959,-0.00008
 770,0.00361746,-0.00056550,0.00707758,-0.00013057,0.00003541,0.0001154
 9,0.00275271,0.00109291,-0.00053405,0.00000920,0.00000267,-0.00002334,
 0.15096962,-0.01997336,0.27915775,0.00229024,0.00009465,-0.00428255,-0
 .00003049,-0.00000342,-0.00000488,-0.00079284,0.00009340,0.00074922,-0
 .00018643,0.00002454,-0.00017769,-0.00629466,0.00101399,-0.00154806,-0
 .00005578,-0.00001723,0.00002200,0.00132847,0.00013536,0.00052092,0.00
 028893,-0.00000785,0.00005822,-0.00726890,0.00401007,0.02111720,0.0000
 2480,0.00000323,-0.00001324,-0.19235828,0.04236590,0.14723319,-0.00002
 875,-0.00000135,-0.00003061,0.00879358,-0.00223866,-0.00629877,-0.0000
 3673,-0.00000674,0.00001441,0.00056282,-0.00037305,-0.00052190,0.00001
 962,0.00001212,-0.00001564,0.19410066,0.00082436,0.00836769,-0.0015562
 1,0.00000481,0.00000290,0.00000306,0.00001721,-0.00058941,0.00004120,0
 .00003335,-0.00001509,0.00003418,0.00073231,0.00450577,-0.00069688,-0.
 00001415,0.00001768,0.00000576,0.00007643,0.00127856,-0.00025743,-0.00
 001326,-0.00012322,0.00000082,-0.00003337,-0.00088981,-0.00092285,-0.0
 0000603,0.00000736,0.00000524,0.04188559,-0.04212305,-0.04565681,-0.00
 000152,-0.00001109,-0.00000270,0.00205460,-0.00198543,-0.00009510,-0.0
 0000276,-0.00000193,-0.00000045,-0.00027062,-0.00187197,0.00027546,-0.
 00000136,0.00000778,-0.00000088,-0.04492950,0.03597892,0.00062712,-0.0
 0213575,-0.00467978,-0.00000132,0.00000329,-0.00001041,-0.00015892,0.0
 0014668,0.00030156,-0.00000939,-0.00000879,-0.00007798,-0.00387216,-0.
 00044018,-0.00115352,0.00001679,0.00000242,0.00000028,0.00044637,-0.00
 018454,0.00040544,0.00006677,0.00000370,0.00001598,-0.00573584,0.00226
 391,0.00939651,-0.00000223,-0.00000461,0.00000295,0.14460597,-0.045445
 20,-0.21263410,0.00000145,0.00000260,0.00000002,0.02131365,-0.00334717
 ,-0.00691008,-0.00000037,0.00000015,0.00000313,0.00068381,0.00018217,-
 0.00028989,0.00000235,-0.00000004,-0.00000045,-0.15743987,0.04851263,0
 .21577129,-0.00003047,0.00000315,-0.00000479,0.00230006,-0.00009337,-0
 .00429974,-0.00018584,-0.00002359,-0.00017773,-0.00079177,-0.00010672,
 0.00074813,-0.00005610,0.00001619,0.00002231,-0.00627632,-0.00109947,-
 0.00157096,0.00028872,0.00001099,0.00005839,0.00133058,-0.00014180,0.0
 0051650,0.00002477,-0.00000285,-0.00001324,-0.00722803,-0.00437726,0.0
 2104615,-0.00002878,0.00000161,-0.00003061,-0.19149525,-0.04597032,0.1
 4612133,-0.00003681,0.00000618,0.00001450,0.00879076,0.00243715,-0.006
 26544,0.00001972,-0.00001178,-0.00001582,0.00055611,0.00040480,-0.0005
 1337,-0.00000451,-0.00000044,0.00000054,0.19318045,-0.00000513,0.00000
 296,-0.00000292,-0.00089383,0.00830269,0.00170046,-0.00003492,-0.00001
 528,-0.00003507,-0.00001666,-0.00058773,-0.00004659,0.00001316,0.00001
 810,-0.00000526,-0.00078443,0.00447026,0.00076309,0.00001647,-0.000122
 86,-0.00000228,-0.00008223,0.00126973,0.00027467,0.00000624,0.00000740
 ,-0.00000530,0.00005276,-0.00091087,0.00098518,0.00000132,-0.00001106,
 0.00000223,-0.04545266,-0.04437233,0.04955521,0.00000241,-0.00000184,0
 .00000053,-0.00225335,-0.00203492,0.00010290,0.00000146,0.00000766,0.0
 0000084,0.00028489,-0.00185826,-0.00030329,0.00000037,0.00000177,-0.00
 000009,0.04875867,0.03837521,-0.00000136,-0.00000311,-0.00001050,0.000
 59292,0.00232906,-0.00462421,-0.00000997,0.00000962,-0.00007839,-0.000
 15765,-0.00016126,0.00029871,0.00001701,-0.00000199,0.00000017,-0.0038
 8817,0.00048266,-0.00113669,0.00006706,-0.00000507,0.00001593,0.000443
 34,0.00020165,0.00041210,-0.00000218,0.00000465,0.00000294,-0.00571227
 ,-0.00246966,0.00937700,0.00000149,-0.00000275,0.00000002,0.14350306,0
 .04931748,-0.21124871,-0.00000033,-0.00000022,0.00000313,0.02124862,0.
 00363054,-0.00685772,0.00000237,0.00000018,-0.00000044,0.00068971,-0.0
 0019792,-0.00029682,0.00000054,0.00000012,0.00000025,-0.15625951,-0.05
 264508,0.21429582,-0.02715545,0.00048142,-0.01458760,-0.00005049,-0.00
 001186,0.00003430,0.00016325,-0.00001437,-0.00013529,0.00011043,-0.000
 01889,-0.00002556,0.00064564,0.00123129,0.00522528,-0.00004975,0.00002
 300,-0.00012457,-0.00095326,0.00019872,-0.00089165,-0.00032782,-0.0000
 6034,0.00041188,0.00081478,0.00068873,0.00051538,0.00000876,-0.0000000
 8,-0.00000892,0.00468960,0.00030035,0.00220332,-0.00001109,-0.00000312
 ,0.00000095,-0.26066844,0.00593396,-0.13743222,-0.00001266,0.00000093,
 -0.00001070,0.00035826,0.00001769,-0.00008271,-0.00000773,0.00000044,-
 0.00000149,-0.00034932,-0.00035538,-0.00054413,-0.00000242,0.00000021,
 -0.00000060,0.28280140,0.00612231,-0.00449649,0.00437807,0.00000325,0.
 00002556,0.00001237,-0.00007783,0.00010813,-0.00003882,-0.00005958,0.0
 0006787,0.00015536,0.00098708,0.00379508,-0.00167468,-0.00000579,0.000
 02634,0.00000577,0.00054770,0.00161955,0.00006565,-0.00006180,-0.00077
 658,-0.00013784,0.00038277,0.00552851,-0.00180681,0.00000442,-0.000017
 01,-0.00000131,-0.00314682,0.00471047,-0.00070861,-0.00000423,-0.00000
 695,-0.00000633,0.00406583,-0.03240427,-0.00271451,-0.00000671,-0.0000
 0108,0.00000336,-0.00016040,0.00053178,0.00001490,-0.00000165,0.000016
 96,-0.00000010,-0.00017665,-0.00256015,0.00044922,-0.00000090,0.000002
 69,0.00000042,-0.00841182,0.02383094,0.02175204,0.00012208,0.01305703,
 0.00006666,0.00001479,-0.00001410,-0.00006146,-0.00003160,-0.00019958,
 -0.00021932,0.00005585,0.00025636,0.00363943,-0.00150641,-0.00288997,0
 .00002074,-0.00002997,0.00012136,0.00018298,-0.00013358,0.00127264,0.0
 0023679,0.00011153,-0.00054857,-0.00156335,-0.00158157,-0.00536831,-0.
 00000429,0.00000283,-0.00000268,-0.02004286,0.00195477,0.00148942,0.00
 000129,0.00000051,0.00000190,-0.14898543,-0.00137486,-0.15390809,0.000
 01020,-0.00000284,0.00001693,-0.00109692,0.00008935,0.00050107,-0.0000
 0831,-0.00000682,0.00000723,0.00061540,0.00031124,-0.00014165,0.000002
 09,0.00000045,0.00000048,0.14545076,0.00200405,0.14635092,-0.00005056,
 0.00001060,0.00003458,-0.02708634,-0.00049798,-0.01455131,0.00010965,0
 .00001966,-0.00002376,0.00016232,0.00001683,-0.00013541,-0.00004959,-0
 .00002190,-0.00012484,0.00066780,-0.00133811,0.00518945,-0.00032900,0.
 00005873,0.00041144,-0.00094551,-0.00021110,-0.00089415,0.00000881,0.0
 0000048,-0.00000893,0.00082620,-0.00074315,0.00048638,-0.00001117,0.00
 000305,0.00000093,0.00466092,-0.00033249,0.00219134,-0.00001272,-0.000
 00089,-0.00001067,-0.26054734,-0.00623913,-0.13755889,-0.00000774,-0.0
 0000067,-0.00000150,0.00035681,-0.00001821,-0.00008285,-0.00000242,-0.
 00000026,-0.00000060,-0.00035487,0.00038524,-0.00053410,-0.00000369,0.
 00000080,0.00000357,0.28260843,-0.00000498,0.00002602,-0.00001144,-0.0
 0666098,-0.00449731,-0.00477766,0.00006309,0.00007179,-0.00015809,0.00
 007925,0.00010799,0.00004176,0.00000471,0.00002583,-0.00000838,-0.0010
 6955,0.00372377,0.00182193,0.00006272,-0.00077571,0.00013830,-0.000576
 21,0.00161084,-0.00006901,-0.00000411,-0.00001706,0.00000101,-0.000407
 81,0.00546627,0.00196871,0.00000415,-0.00000695,0.00000620,0.00343558,
 0.00475872,0.00077892,0.00000643,-0.00000101,-0.00000372,-0.00420646,-
 0.03256836,0.00308341,0.00000152,0.00001687,0.00000022,0.00017445,0.00
 053490,-0.00001522,0.00000081,0.00000270,-0.00000040,0.00018976,-0.002
 54333,-0.00048932,-0.00000088,-0.00000136,0.00000020,0.00890850,0.0240
 6539,0.00006674,-0.00001354,-0.00001448,0.02165875,-0.00015692,0.01298
 899,-0.00021794,-0.00006073,0.00025328,-0.00006066,0.00003541,-0.00019
 852,0.00002052,0.00002875,0.00012169,0.00360926,0.00163825,-0.00284167
 ,0.00023876,-0.00011223,-0.00054827,0.00017342,0.00014003,0.00127365,-
 0.00000432,-0.00000310,-0.00000271,-0.00158522,0.00172215,-0.00531716,
 0.00000135,-0.00000062,0.00000198,-0.01997460,-0.00210862,0.00146993,0
 .00001026,0.00000269,0.00001692,-0.14907073,0.00162907,-0.15386619,-0.
 00000836,0.00000688,0.00000733,-0.00109350,-0.00009981,0.00049947,0.00
 000211,-0.00000040,0.00000047,0.00062129,-0.00033967,-0.00015308,0.000
 00356,-0.00000015,-0.00000239,0.14560931,-0.00230744,0.14631075\\-0.00
 000124,0.00000816,-0.00000298,0.00001214,0.00000574,0.00000338,0.00000
 070,-0.00000128,-0.00000017,-0.00000244,-0.00000194,0.00000561,0.00000
 012,0.00000606,0.00000417,-0.00001712,-0.00000199,-0.00001060,0.000011
 42,-0.00000539,0.00000933,-0.00000338,0.00000635,-0.00001110,0.0000037
 8,-0.00000782,-0.00000318,0.00000983,-0.00000271,0.00000439,-0.0000060
 0,0.00000616,-0.00000613,-0.00000067,0.00000775,-0.00000198,0.00000069
 ,-0.00000993,0.00000271,-0.00000801,-0.00000992,0.00000738,-0.00000074
 ,-0.00000035,0.00000034,0.00000015,-0.00000125,-0.00000030,0.00000118,
 0.00000129,-0.00000036,-0.00000077,0.00000096,0.00000029,0.00000007,0.
 00000025,-0.00000165,0.00000027,-0.00000015,0.00000086\\\@


 I WISH TO HAVE NO CONNECTION WITH ANY SHIP THAT DOES NOT SAIL FAST,
 FOR I INTEND TO GO IN HARM'S WAY.
     -- JOHN PAUL JONES, USN 1747-1792
 Job cpu time:       0 days  3 hours 36 minutes 18.6 seconds.
 Elapsed time:       0 days  0 hours 13 minutes 35.5 seconds.
 File lengths (MBytes):  RWF=    237 Int=      0 D2E=      0 Chk=     11 Scr=      1
 Normal termination of Gaussian 16 at Sat Sep 20 01:51:08 2025.
