 Entering Gaussian System, Link 0=g16
 Input=GAAC0052.gjf
 Output=GAAC0052.log
 Initial command:
 /usr/local/g16/l1.exe "/dados_01/scratch/Gau-2486142.inp" -scrdir="/dados_01/scratch/"
 Entering Link 1 = /usr/local/g16/l1.exe PID=   2486143.
  
 Copyright (c) 1988-2017, Gaussian, Inc.  All Rights Reserved.
  
 This is part of the Gaussian(R) 16 program.  It is based on
 the Gaussian(R) 09 system (copyright 2009, Gaussian, Inc.),
 the Gaussian(R) 03 system (copyright 2003, Gaussian, Inc.),
 the Gaussian(R) 98 system (copyright 1998, Gaussian, Inc.),
 the Gaussian(R) 94 system (copyright 1995, Gaussian, Inc.),
 the Gaussian 92(TM) system (copyright 1992, Gaussian, Inc.),
 the Gaussian 90(TM) system (copyright 1990, Gaussian, Inc.),
 the Gaussian 88(TM) system (copyright 1988, Gaussian, Inc.),
 the Gaussian 86(TM) system (copyright 1986, Carnegie Mellon
 University), and the Gaussian 82(TM) system (copyright 1983,
 Carnegie Mellon University). Gaussian is a federally registered
 trademark of Gaussian, Inc.
  
 This software contains proprietary and confidential information,
 including trade secrets, belonging to Gaussian, Inc.
  
 This software is provided under written license and may be
 used, copied, transmitted, or stored only in accord with that
 written license.
  
 The following legend is applicable only to US Government
 contracts under FAR:
  
                    RESTRICTED RIGHTS LEGEND
  
 Use, reproduction and disclosure by the US Government is
 subject to restrictions as set forth in subparagraphs (a)
 and (c) of the Commercial Computer Software - Restricted
 Rights clause in FAR 52.227-19.
  
 Gaussian, Inc.
 340 Quinnipiac St., Bldg. 40, Wallingford CT 06492
  
  
 ---------------------------------------------------------------
 Warning -- This program may not be used in any manner that
 competes with the business of Gaussian, Inc. or will provide
 assistance to any competitor of Gaussian, Inc.  The licensee
 of this program is prohibited from giving any competitor of
 Gaussian, Inc. access to this program.  By using this program,
 the user acknowledges that Gaussian, Inc. is engaged in the
 business of creating and licensing software in the field of
 computational chemistry and represents and warrants to the
 licensee that it is not a competitor of Gaussian, Inc. and that
 it will not use this program in any manner prohibited above.
 ---------------------------------------------------------------
  

 Cite this work as:
 Gaussian 16, Revision B.01,
 M. J. Frisch, G. W. Trucks, H. B. Schlegel, G. E. Scuseria, 
 M. A. Robb, J. R. Cheeseman, G. Scalmani, V. Barone, 
 G. A. Petersson, H. Nakatsuji, X. Li, M. Caricato, A. V. Marenich, 
 J. Bloino, B. G. Janesko, R. Gomperts, B. Mennucci, H. P. Hratchian, 
 J. V. Ortiz, A. F. Izmaylov, J. L. Sonnenberg, D. Williams-Young, 
 F. Ding, F. Lipparini, F. Egidi, J. Goings, B. Peng, A. Petrone, 
 T. Henderson, D. Ranasinghe, V. G. Zakrzewski, J. Gao, N. Rega, 
 G. Zheng, W. Liang, M. Hada, M. Ehara, K. Toyota, R. Fukuda, 
 J. Hasegawa, M. Ishida, T. Nakajima, Y. Honda, O. Kitao, H. Nakai, 
 T. Vreven, K. Throssell, J. A. Montgomery, Jr., J. E. Peralta, 
 F. Ogliaro, M. J. Bearpark, J. J. Heyd, E. N. Brothers, K. N. Kudin, 
 V. N. Staroverov, T. A. Keith, R. Kobayashi, J. Normand, 
 K. Raghavachari, A. P. Rendell, J. C. Burant, S. S. Iyengar, 
 J. Tomasi, M. Cossi, J. M. Millam, M. Klene, C. Adamo, R. Cammi, 
 J. W. Ochterski, R. L. Martin, K. Morokuma, O. Farkas, 
 J. B. Foresman, and D. J. Fox, Gaussian, Inc., Wallingford CT, 2016.
 
 ******************************************
 Gaussian 16:  ES64L-G16RevB.01 20-Dec-2017
                 7-Oct-2025 
 ******************************************
 %nprocs=16
 Will use up to   16 processors via shared memory.
 %mem=40GB
 %chk=GAAC0052.chk
 ----------------------------------------------------------------------
 # opt freq=noraman M08HX/6-311++G** scf=xqc Empiricaldispersion=pfd In
 t(Grid=ultraFine)
 ----------------------------------------------------------------------
 1/18=20,19=15,26=4,38=1/1,3;
 2/9=110,12=2,17=6,18=5,40=1/2;
 3/5=4,6=6,7=1111,11=2,25=1,30=1,71=1,74=-74,75=-5,124=11/1,2,3;
 4//1;
 5/5=2,8=3,13=1,38=5/2,8;
 6/7=2,8=2,9=2,10=2,28=1/1;
 7//1,2,3,16;
 1/18=20,19=15,26=4/3(2);
 2/9=110/2;
 99//99;
 2/9=110/2;
 3/5=4,6=6,7=1111,11=2,25=1,30=1,71=1,74=-74,75=-5,124=11/1,2,3;
 4/5=5,16=3,69=1/1;
 5/5=2,8=3,13=1,38=5/2,8;
 7//1,2,3,16;
 1/18=20,19=15,26=4/3(-5);
 2/9=110/2;
 6/7=2,8=2,9=2,10=2,19=2,28=1/1;
 99/9=1/99;
 --------
 GAAC0052
 --------
 Symbolic Z-matrix:
 Charge =  0 Multiplicity = 1
 O                     3.1158   -0.0411   -0.0006 
 O                     1.7728    2.3803   -0.0004 
 O                     1.677    -2.4076   -0.0008 
 O                    -3.0362   -1.1764   -0.0008 
 O                    -3.1863    1.0917   -0.0004 
 C                    -1.0366    0.0417    0.0005 
 C                     1.7526   -0.0142    0.0004 
 C                     1.0793    1.2075    0.0001 
 C                     1.0312   -1.2081    0.0008 
 C                    -0.3153    1.2354    0.0002 
 C                    -0.3635   -1.1801    0.0008 
 C                    -2.4908    0.0708    0.0002 
 H                    -0.8342    2.1912   -0.0001 
 H                    -0.8919   -2.1299    0.0007 
 H                     3.441     0.876    -0.001 
 H                     1.1431    3.1216   -0.0006 
 H                     2.6353   -2.239    -0.0011 
 H                    -4.0167   -1.146    -0.0016 
 

 GradGradGradGradGradGradGradGradGradGradGradGradGradGradGradGradGradGrad
 Berny optimization.
 Initialization pass.
                           ----------------------------
                           !    Initial Parameters    !
                           ! (Angstroms and Degrees)  !
 --------------------------                            --------------------------
 ! Name  Definition              Value          Derivative Info.                !
 --------------------------------------------------------------------------------
 ! R1    R(1,7)                  1.3635         estimate D2E/DX2                !
 ! R2    R(1,15)                 0.9731         estimate D2E/DX2                !
 ! R3    R(2,8)                  1.3625         estimate D2E/DX2                !
 ! R4    R(2,16)                 0.9726         estimate D2E/DX2                !
 ! R5    R(3,9)                  1.3623         estimate D2E/DX2                !
 ! R6    R(3,17)                 0.973          estimate D2E/DX2                !
 ! R7    R(4,12)                 1.3612         estimate D2E/DX2                !
 ! R8    R(4,18)                 0.981          estimate D2E/DX2                !
 ! R9    R(5,12)                 1.2353         estimate D2E/DX2                !
 ! R10   R(6,10)                 1.3947         estimate D2E/DX2                !
 ! R11   R(6,11)                 1.3949         estimate D2E/DX2                !
 ! R12   R(6,12)                 1.4545         estimate D2E/DX2                !
 ! R13   R(7,8)                  1.3949         estimate D2E/DX2                !
 ! R14   R(7,9)                  1.3949         estimate D2E/DX2                !
 ! R15   R(8,10)                 1.3949         estimate D2E/DX2                !
 ! R16   R(9,11)                 1.395          estimate D2E/DX2                !
 ! R17   R(10,13)                1.0876         estimate D2E/DX2                !
 ! R18   R(11,14)                1.0869         estimate D2E/DX2                !
 ! A1    A(7,1,15)             108.3938         estimate D2E/DX2                !
 ! A2    A(8,2,16)             109.057          estimate D2E/DX2                !
 ! A3    A(9,3,17)             108.3193         estimate D2E/DX2                !
 ! A4    A(12,4,18)            111.8439         estimate D2E/DX2                !
 ! A5    A(10,6,11)            120.0066         estimate D2E/DX2                !
 ! A6    A(10,6,12)            119.9963         estimate D2E/DX2                !
 ! A7    A(11,6,12)            119.9971         estimate D2E/DX2                !
 ! A8    A(1,7,8)              119.9904         estimate D2E/DX2                !
 ! A9    A(1,7,9)              120.0115         estimate D2E/DX2                !
 ! A10   A(8,7,9)              119.9981         estimate D2E/DX2                !
 ! A11   A(2,8,7)              120.5434         estimate D2E/DX2                !
 ! A12   A(2,8,10)             119.4506         estimate D2E/DX2                !
 ! A13   A(7,8,10)             120.006          estimate D2E/DX2                !
 ! A14   A(3,9,7)              120.5604         estimate D2E/DX2                !
 ! A15   A(3,9,11)             119.4477         estimate D2E/DX2                !
 ! A16   A(7,9,11)             119.9919         estimate D2E/DX2                !
 ! A17   A(6,10,8)             119.9966         estimate D2E/DX2                !
 ! A18   A(6,10,13)            120.3599         estimate D2E/DX2                !
 ! A19   A(8,10,13)            119.6434         estimate D2E/DX2                !
 ! A20   A(6,11,9)             120.0009         estimate D2E/DX2                !
 ! A21   A(6,11,14)            122.0609         estimate D2E/DX2                !
 ! A22   A(9,11,14)            117.9383         estimate D2E/DX2                !
 ! A23   A(4,12,5)             122.1151         estimate D2E/DX2                !
 ! A24   A(4,12,6)             112.4733         estimate D2E/DX2                !
 ! A25   A(5,12,6)             125.4115         estimate D2E/DX2                !
 ! D1    D(15,1,7,8)             0.0276         estimate D2E/DX2                !
 ! D2    D(15,1,7,9)           179.9839         estimate D2E/DX2                !
 ! D3    D(16,2,8,7)           179.9967         estimate D2E/DX2                !
 ! D4    D(16,2,8,10)            0.002          estimate D2E/DX2                !
 ! D5    D(17,3,9,7)             0.0625         estimate D2E/DX2                !
 ! D6    D(17,3,9,11)          179.9657         estimate D2E/DX2                !
 ! D7    D(18,4,12,5)           -0.0258         estimate D2E/DX2                !
 ! D8    D(18,4,12,6)         -179.9619         estimate D2E/DX2                !
 ! D9    D(11,6,10,8)            0.0047         estimate D2E/DX2                !
 ! D10   D(11,6,10,13)         179.996          estimate D2E/DX2                !
 ! D11   D(12,6,10,8)         -179.9816         estimate D2E/DX2                !
 ! D12   D(12,6,10,13)           0.0097         estimate D2E/DX2                !
 ! D13   D(10,6,11,9)            0.0            estimate D2E/DX2                !
 ! D14   D(10,6,11,14)        -179.9789         estimate D2E/DX2                !
 ! D15   D(12,6,11,9)          179.9864         estimate D2E/DX2                !
 ! D16   D(12,6,11,14)           0.0074         estimate D2E/DX2                !
 ! D17   D(10,6,12,4)          179.9383         estimate D2E/DX2                !
 ! D18   D(10,6,12,5)            0.0047         estimate D2E/DX2                !
 ! D19   D(11,6,12,4)           -0.0481         estimate D2E/DX2                !
 ! D20   D(11,6,12,5)         -179.9817         estimate D2E/DX2                !
 ! D21   D(1,7,8,2)             -0.0385         estimate D2E/DX2                !
 ! D22   D(1,7,8,10)           179.9562         estimate D2E/DX2                !
 ! D23   D(9,7,8,2)           -179.9947         estimate D2E/DX2                !
 ! D24   D(9,7,8,10)             0.0            estimate D2E/DX2                !
 ! D25   D(1,7,9,3)             -0.0488         estimate D2E/DX2                !
 ! D26   D(1,7,9,11)          -179.9515         estimate D2E/DX2                !
 ! D27   D(8,7,9,3)            179.9074         estimate D2E/DX2                !
 ! D28   D(8,7,9,11)             0.0047         estimate D2E/DX2                !
 ! D29   D(2,8,10,6)           179.99           estimate D2E/DX2                !
 ! D30   D(2,8,10,13)           -0.0013         estimate D2E/DX2                !
 ! D31   D(7,8,10,6)            -0.0047         estimate D2E/DX2                !
 ! D32   D(7,8,10,13)         -179.9961         estimate D2E/DX2                !
 ! D33   D(3,9,11,6)          -179.9085         estimate D2E/DX2                !
 ! D34   D(3,9,11,14)            0.0713         estimate D2E/DX2                !
 ! D35   D(7,9,11,6)            -0.0047         estimate D2E/DX2                !
 ! D36   D(7,9,11,14)          179.9751         estimate D2E/DX2                !
 --------------------------------------------------------------------------------
 Trust Radius=3.00D-01 FncErr=1.00D-07 GrdErr=1.00D-06 EigMax=2.50D+02 EigMin=1.00D-04
 Number of steps in this run=     89 maximum allowed number of steps=    108.
 GradGradGradGradGradGradGradGradGradGradGradGradGradGradGradGradGradGrad

                          Input orientation:                          
 ---------------------------------------------------------------------
 Center     Atomic      Atomic             Coordinates (Angstroms)
 Number     Number       Type             X           Y           Z
 ---------------------------------------------------------------------
      1          8           0        3.115800   -0.041100   -0.000600
      2          8           0        1.772800    2.380300   -0.000400
      3          8           0        1.677000   -2.407600   -0.000800
      4          8           0       -3.036200   -1.176400   -0.000800
      5          8           0       -3.186300    1.091700   -0.000400
      6          6           0       -1.036600    0.041700    0.000500
      7          6           0        1.752600   -0.014200    0.000400
      8          6           0        1.079300    1.207500    0.000100
      9          6           0        1.031200   -1.208100    0.000800
     10          6           0       -0.315300    1.235400    0.000200
     11          6           0       -0.363500   -1.180100    0.000800
     12          6           0       -2.490800    0.070800    0.000200
     13          1           0       -0.834200    2.191200   -0.000100
     14          1           0       -0.891900   -2.129900    0.000700
     15          1           0        3.441000    0.876000   -0.001000
     16          1           0        1.143100    3.121600   -0.000600
     17          1           0        2.635300   -2.239000   -0.001100
     18          1           0       -4.016700   -1.146000   -0.001600
 ---------------------------------------------------------------------
                    Distance matrix (angstroms):
                    1          2          3          4          5
     1  O    0.000000
     2  O    2.768904   0.000000
     3  O    2.769561   4.788858   0.000000
     4  O    6.255878   5.981354   4.871356   0.000000
     5  O    6.403101   5.123784   5.991393   2.273061   0.000000
     6  C    4.153226   3.655377   3.655502   2.341403   2.392428
     7  C    1.363466   2.394585   2.394594   4.927810   5.061200
     8  C    2.388794   1.362499   3.664177   4.756082   4.267172
     9  C    2.389027   3.664231   1.362300   4.067524   4.803789
    10  C    3.660861   2.381377   4.152193   3.635942   2.874594
    11  C    3.660991   4.152135   2.381260   2.672703   3.623434
    12  C    5.607717   4.848925   4.849023   1.361238   1.235296
    13  H    4.537143   2.613849   5.239760   4.023622   2.596396
    14  H    4.519375   5.238562   2.583867   2.346740   3.955121
    15  H    0.973051   2.246288   3.727429   6.794591   6.630809
    16  H    3.727495   0.972650   5.554917   5.994944   4.781652
    17  H    2.249810   4.699132   0.973018   5.770185   6.707055
    18  H    7.217573   6.778872   5.831797   0.980971   2.386811
                    6          7          8          9         10
     6  C    0.000000
     7  C    2.789760   0.000000
     8  C    2.415807   1.394949   0.000000
     9  C    2.416153   1.394925   2.416079   0.000000
    10  C    1.394702   2.416135   1.394879   2.789938   0.000000
    11  C    1.394940   2.416030   2.789678   1.394981   2.415981
    12  C    1.454491   4.244251   3.746692   3.747008   2.467609
    13  H    2.159008   3.399312   2.151545   3.877494   1.087571
    14  H    2.176416   3.386675   3.876064   2.132611   3.414339
    15  H    4.554664   1.908704   2.384852   3.186003   3.773455
    16  H    3.773179   3.194485   1.915163   4.331146   2.384257
    17  H    4.322551   2.393511   3.781468   1.906802   4.558234
    18  H    3.208057   5.879268   5.613215   5.048283   4.401299
                   11         12         13         14         15
    11  C    0.000000
    12  C    2.467824   0.000000
    13  H    3.404001   2.690803   0.000000
    14  H    1.086888   2.720214   4.321485   0.000000
    15  H    4.324554   5.986201   4.472928   5.273468   0.000000
    16  H    4.557902   4.744746   2.185260   5.632005   3.212953
    17  H    3.180263   5.622462   5.627087   3.528887   3.217511
    18  H    3.653360   1.951660   4.611422   3.276040   7.726951
                   16         17         18
    16  H    0.000000
    17  H    5.564413   0.000000
    18  H    6.695965   6.741198   0.000000
 Stoichiometry    C7H6O5
 Framework group  C1[X(C7H6O5)]
 Deg. of freedom    48
 Full point group                 C1      NOp   1
 Largest Abelian subgroup         C1      NOp   1
 Largest concise Abelian subgroup C1      NOp   1
                         Standard orientation:                         
 ---------------------------------------------------------------------
 Center     Atomic      Atomic             Coordinates (Angstroms)
 Number     Number       Type             X           Y           Z
 ---------------------------------------------------------------------
      1          8           0       -3.089066   -0.124019    0.000490
      2          8           0       -1.808197    2.330814    0.000290
      3          8           0       -1.590436   -2.453091    0.000690
      4          8           0        3.089864   -1.102202    0.000690
      5          8           0        3.182126    1.168986    0.000290
      6          6           0        1.059877    0.064554   -0.000610
      7          6           0       -1.726994   -0.062394   -0.000510
      8          6           0       -1.085040    1.176064   -0.000210
      9          6           0       -0.975408   -1.237526   -0.000910
     10          6           0        0.308396    1.239488   -0.000310
     11          6           0        0.418126   -1.173999   -0.000910
     12          6           0        2.512863    0.130697   -0.000310
     13          1           0        0.802775    2.208199   -0.000010
     14          1           0        0.970554   -2.110028   -0.000810
     15          1           0       -3.437527    0.784498    0.000890
     16          1           0       -1.197589    3.087917    0.000490
     17          1           0       -2.552721   -2.308962    0.000990
     18          1           0        4.069271   -1.046830    0.001490
 ---------------------------------------------------------------------
 Rotational constants (GHZ):           1.5744717           0.6719216           0.4709423
 Standard basis: 6-311++G(d,p) (5D, 7F)
 There are   318 symmetry adapted cartesian basis functions of A   symmetry.
 There are   306 symmetry adapted basis functions of A   symmetry.
   306 basis functions,   486 primitive gaussians,   318 cartesian basis functions
    44 alpha electrons       44 beta electrons
       nuclear repulsion energy       688.7792785601 Hartrees.
 NAtoms=   18 NActive=   18 NUniq=   18 SFac= 1.00D+00 NAtFMM=   60 NAOKFM=F Big=F
 Integral buffers will be    131072 words long.
 Raffenetti 2 integral format.
 Two-electron integral symmetry is turned on.
 R6APFD:  NTU= -4 IXU= 1 FactS= 1.050
 Nuclear repulsion after empirical dispersion term =      688.7670632242 Hartrees.
 One-electron integrals computed using PRISM.
 NBasis=   306 RedAO= T EigKep=  1.61D-06  NBF=   306
 NBsUse=   305 1.00D-06 EigRej=  8.05D-07 NBFU=   305
 ExpMin= 3.60D-02 ExpMax= 8.59D+03 ExpMxC= 1.30D+03 IAcc=3 IRadAn=         5 AccDes= 0.00D+00
 Harris functional with IExCor= 1009 and IRadAn=       5 diagonalized for initial guess.
 HarFok:  IExCor= 1009 AccDes= 0.00D+00 IRadAn=         5 IDoV= 1 UseB2=F ITyADJ=14
 ICtDFT=  3500011 ScaDFX=  1.000000  1.000000  1.000000  1.000000
 FoFCou: FMM=F IPFlag=           0 FMFlag=      100000 FMFlg1=           0
         NFxFlg=           0 DoJE=T BraDBF=F KetDBF=T FulRan=T
         wScrn=  0.000000 ICntrl=       500 IOpCl=  0 I1Cent=   200000004 NGrid=           0
         NMat0=    1 NMatS0=      1 NMatT0=    0 NMatD0=    1 NMtDS0=    0 NMtDT0=    0
 Petite list used in FoFCou.
 Requested convergence on RMS density matrix=1.00D-08 within  32 cycles.
 Requested convergence on MAX density matrix=1.00D-06.
 Requested convergence on             energy=1.00D-06.
 No special actions if energy rises.
 SCF Done:  E(RM08HX) =  -646.467966594     A.U. after   15 cycles
            NFock= 15  Conv=0.98D-08     -V/T= 2.0039
 QCSCF skips out because SCF is already converged.

 **********************************************************************

            Population analysis using the SCF Density.

 **********************************************************************

 Orbital symmetries:
       Occupied  (A) (A) (A) (A) (A) (A) (A) (A) (A) (A) (A) (A)
                 (A) (A) (A) (A) (A) (A) (A) (A) (A) (A) (A) (A)
                 (A) (A) (A) (A) (A) (A) (A) (A) (A) (A) (A) (A)
                 (A) (A) (A) (A) (A) (A) (A) (A)
       Virtual   (A) (A) (A) (A) (A) (A) (A) (A) (A) (A) (A) (A)
                 (A) (A) (A) (A) (A) (A) (A) (A) (A) (A) (A) (A)
                 (A) (A) (A) (A) (A) (A) (A) (A) (A) (A) (A) (A)
                 (A) (A) (A) (A) (A) (A) (A) (A) (A) (A) (A) (A)
                 (A) (A) (A) (A) (A) (A) (A) (A) (A) (A) (A) (A)
                 (A) (A) (A) (A) (A) (A) (A) (A) (A) (A) (A) (A)
                 (A) (A) (A) (A) (A) (A) (A) (A) (A) (A) (A) (A)
                 (A) (A) (A) (A) (A) (A) (A) (A) (A) (A) (A) (A)
                 (A) (A) (A) (A) (A) (A) (A) (A) (A) (A) (A) (A)
                 (A) (A) (A) (A) (A) (A) (A) (A) (A) (A) (A) (A)
                 (A) (A) (A) (A) (A) (A) (A) (A) (A) (A) (A) (A)
                 (A) (A) (A) (A) (A) (A) (A) (A) (A) (A) (A) (A)
                 (A) (A) (A) (A) (A) (A) (A) (A) (A) (A) (A) (A)
                 (A) (A) (A) (A) (A) (A) (A) (A) (A) (A) (A) (A)
                 (A) (A) (A) (A) (A) (A) (A) (A) (A) (A) (A) (A)
                 (A) (A) (A) (A) (A) (A) (A) (A) (A) (A) (A) (A)
                 (A) (A) (A) (A) (A) (A) (A) (A) (A) (A) (A) (A)
                 (A) (A) (A) (A) (A) (A) (A) (A) (A) (A) (A) (A)
                 (A) (A) (A) (A) (A) (A) (A) (A) (A) (A) (A) (A)
                 (A) (A) (A) (A) (A) (A) (A) (A) (A) (A) (A) (A)
                 (A) (A) (A) (A) (A) (A) (A) (A) (A) (A) (A) (A)
                 (A) (A) (A) (A) (A) (A) (A) (A) (A)
 The electronic state is 1-A.
 Alpha  occ. eigenvalues --  -19.67277 -19.66987 -19.66378 -19.65336 -19.60600
 Alpha  occ. eigenvalues --  -10.68151 -10.62236 -10.62072 -10.61685 -10.56447
 Alpha  occ. eigenvalues --  -10.55575 -10.55007  -1.23156  -1.23006  -1.20735
 Alpha  occ. eigenvalues --   -1.18737  -1.13181  -0.98877  -0.88836  -0.86431
 Alpha  occ. eigenvalues --   -0.78342  -0.75820  -0.70731  -0.67476  -0.66069
 Alpha  occ. eigenvalues --   -0.62098  -0.59088  -0.57834  -0.57421  -0.55421
 Alpha  occ. eigenvalues --   -0.53529  -0.52905  -0.51802  -0.49853  -0.49030
 Alpha  occ. eigenvalues --   -0.47703  -0.47055  -0.45933  -0.44677  -0.41589
 Alpha  occ. eigenvalues --   -0.39475  -0.36735  -0.29967  -0.29427
 Alpha virt. eigenvalues --   -0.04018  -0.03500  -0.02386  -0.02101  -0.00160
 Alpha virt. eigenvalues --    0.00958   0.01372   0.01855   0.01956   0.03739
 Alpha virt. eigenvalues --    0.04789   0.04901   0.06045   0.06280   0.07659
 Alpha virt. eigenvalues --    0.08085   0.08159   0.08946   0.09166   0.09730
 Alpha virt. eigenvalues --    0.10323   0.10932   0.11701   0.12129   0.12667
 Alpha virt. eigenvalues --    0.13073   0.13193   0.13844   0.14570   0.15339
 Alpha virt. eigenvalues --    0.16335   0.17400   0.18007   0.19154   0.19956
 Alpha virt. eigenvalues --    0.20532   0.21233   0.21885   0.21978   0.22611
 Alpha virt. eigenvalues --    0.23014   0.23498   0.24637   0.25142   0.25378
 Alpha virt. eigenvalues --    0.26893   0.27120   0.27426   0.28438   0.28637
 Alpha virt. eigenvalues --    0.29077   0.30386   0.30824   0.30950   0.31926
 Alpha virt. eigenvalues --    0.32349   0.32665   0.34116   0.34522   0.35890
 Alpha virt. eigenvalues --    0.36818   0.37720   0.38357   0.38797   0.40897
 Alpha virt. eigenvalues --    0.41819   0.42301   0.44146   0.44183   0.45482
 Alpha virt. eigenvalues --    0.48199   0.48870   0.53363   0.53699   0.54321
 Alpha virt. eigenvalues --    0.57653   0.58714   0.59197   0.59410   0.59524
 Alpha virt. eigenvalues --    0.60469   0.61982   0.62496   0.63271   0.63635
 Alpha virt. eigenvalues --    0.66603   0.67485   0.69404   0.73002   0.73252
 Alpha virt. eigenvalues --    0.73979   0.76343   0.77364   0.80186   0.82254
 Alpha virt. eigenvalues --    0.84614   0.88253   0.89449   0.90587   0.91781
 Alpha virt. eigenvalues --    0.93449   0.94388   0.96148   0.99211   1.00927
 Alpha virt. eigenvalues --    1.01808   1.02285   1.02869   1.05544   1.07199
 Alpha virt. eigenvalues --    1.07671   1.09222   1.10920   1.12585   1.13235
 Alpha virt. eigenvalues --    1.15299   1.17637   1.18403   1.19000   1.19772
 Alpha virt. eigenvalues --    1.20224   1.23141   1.23523   1.24261   1.24597
 Alpha virt. eigenvalues --    1.25097   1.26619   1.28340   1.30377   1.30879
 Alpha virt. eigenvalues --    1.34859   1.41186   1.43019   1.44289   1.44700
 Alpha virt. eigenvalues --    1.49517   1.50995   1.54866   1.55435   1.57410
 Alpha virt. eigenvalues --    1.58715   1.59627   1.60733   1.62775   1.63496
 Alpha virt. eigenvalues --    1.65497   1.68908   1.69910   1.74192   1.77818
 Alpha virt. eigenvalues --    1.78205   1.81016   1.83212   1.83784   1.87887
 Alpha virt. eigenvalues --    1.92322   1.93746   1.94008   1.94721   1.95763
 Alpha virt. eigenvalues --    1.97091   1.98520   2.02798   2.05658   2.06175
 Alpha virt. eigenvalues --    2.08263   2.12585   2.14276   2.14905   2.20385
 Alpha virt. eigenvalues --    2.22141   2.24868   2.28315   2.34397   2.35456
 Alpha virt. eigenvalues --    2.37711   2.43625   2.55476   2.57093   2.61412
 Alpha virt. eigenvalues --    2.64801   2.64927   2.67157   2.71045   2.71285
 Alpha virt. eigenvalues --    2.72427   2.74711   2.76721   2.76753   2.79792
 Alpha virt. eigenvalues --    2.81208   2.89564   2.92791   2.98092   2.99060
 Alpha virt. eigenvalues --    3.09253   3.11339   3.12502   3.12590   3.13181
 Alpha virt. eigenvalues --    3.14043   3.14351   3.15157   3.15634   3.20633
 Alpha virt. eigenvalues --    3.24258   3.25188   3.26861   3.27800   3.28599
 Alpha virt. eigenvalues --    3.35776   3.39356   3.42120   3.43822   3.48058
 Alpha virt. eigenvalues --    3.51585   3.53305   3.58561   3.66204   3.67620
 Alpha virt. eigenvalues --    3.70888   3.78778   3.83269   3.91957   3.92921
 Alpha virt. eigenvalues --    3.95384   3.96638   4.13229   4.18017   4.20986
 Alpha virt. eigenvalues --    4.24749   4.25733   4.41464   4.92208   5.06016
 Alpha virt. eigenvalues --    5.06833   5.11181   5.13997   5.16328   5.31455
 Alpha virt. eigenvalues --    5.49617   5.51122   5.56323   5.56582   5.73218
 Alpha virt. eigenvalues --    5.75696   5.85390   5.91201   5.95126  23.59413
 Alpha virt. eigenvalues --   23.86506  23.95024  23.96814  24.07430  24.11564
 Alpha virt. eigenvalues --   24.20480  49.88152  49.88840  49.95002  49.99472
 Alpha virt. eigenvalues --   50.03731
          Condensed to atoms (all electrons):
               1          2          3          4          5          6
     1  O    7.971486   0.017710   0.015674   0.000135  -0.000077   0.018599
     2  O    0.017710   8.021438  -0.000367   0.000086  -0.000247   0.056678
     3  O    0.015674  -0.000367   7.947605  -0.000508   0.000207  -0.024160
     4  O    0.000135   0.000086  -0.000508   8.086519  -0.101125  -0.511145
     5  O   -0.000077  -0.000247   0.000207  -0.101125   8.029554  -0.183760
     6  C    0.018599   0.056678  -0.024160  -0.511145  -0.183760  16.137254
     7  C    0.813091  -0.915666   0.229697  -0.025933   0.040694  -1.077623
     8  C    0.310444   0.432370  -0.091982   0.067063   0.039208  -1.320432
     9  C   -0.924874  -0.119936   0.554762  -0.007585   0.061555  -2.281233
    10  C   -0.112616   0.459703   0.028551   0.057565  -0.120693  -3.284487
    11  C   -0.120518   0.003510  -0.698337  -0.005190   0.185593   2.293551
    12  C   -0.004511   0.023638   0.013153   0.448491   0.349847  -4.850071
    13  H   -0.002583  -0.019235   0.000784  -0.002338  -0.001001   0.157900
    14  H   -0.000567   0.000005  -0.031685  -0.019743  -0.001079   0.031944
    15  H    0.263680   0.021126   0.002253  -0.000030   0.000094  -0.006246
    16  H    0.002107   0.257467  -0.000382  -0.000007  -0.000144  -0.075717
    17  H    0.022014  -0.000335   0.262629  -0.000324   0.000055  -0.011676
    18  H   -0.000022   0.000043   0.000044   0.215685  -0.032065  -0.118634
               7          8          9         10         11         12
     1  O    0.813091   0.310444  -0.924874  -0.112616  -0.120518  -0.004511
     2  O   -0.915666   0.432370  -0.119936   0.459703   0.003510   0.023638
     3  O    0.229697  -0.091982   0.554762   0.028551  -0.698337   0.013153
     4  O   -0.025933   0.067063  -0.007585   0.057565  -0.005190   0.448491
     5  O    0.040694   0.039208   0.061555  -0.120693   0.185593   0.349847
     6  C   -1.077623  -1.320432  -2.281233  -3.284487   2.293551  -4.850071
     7  C   29.400225  -4.234562  -0.737415  -4.447904 -13.647627   0.600038
     8  C   -4.234562  25.250562  -7.638093  -7.836401   0.930924   1.250152
     9  C   -0.737415  -7.638093  18.372666   0.030384   0.226397  -1.306675
    10  C   -4.447904  -7.836401   0.030384  26.643787  -2.794399  -2.701833
    11  C  -13.647627   0.930924   0.226397  -2.794399  21.904187  -2.362525
    12  C    0.600038   1.250152  -1.306675  -2.701833  -2.362525  14.338710
    13  H    0.006603  -0.351941   0.049591   0.664915  -0.000916  -0.195226
    14  H   -0.324387   0.107069  -0.193249   0.027821   0.835815  -0.169720
    15  H    0.213605  -0.406303   0.250762  -0.064704   0.019299   0.001566
    16  H    0.221554   0.142102   0.037913  -0.327510   0.008977   0.006497
    17  H   -0.305063  -0.028035   0.177285   0.026808   0.145142  -0.010795
    18  H   -0.010221   0.032849  -0.062319   0.024873  -0.106908   0.257261
              13         14         15         16         17         18
     1  O   -0.002583  -0.000567   0.263680   0.002107   0.022014  -0.000022
     2  O   -0.019235   0.000005   0.021126   0.257467  -0.000335   0.000043
     3  O    0.000784  -0.031685   0.002253  -0.000382   0.262629   0.000044
     4  O   -0.002338  -0.019743  -0.000030  -0.000007  -0.000324   0.215685
     5  O   -0.001001  -0.001079   0.000094  -0.000144   0.000055  -0.032065
     6  C    0.157900   0.031944  -0.006246  -0.075717  -0.011676  -0.118634
     7  C    0.006603  -0.324387   0.213605   0.221554  -0.305063  -0.010221
     8  C   -0.351941   0.107069  -0.406303   0.142102  -0.028035   0.032849
     9  C    0.049591  -0.193249   0.250762   0.037913   0.177285  -0.062319
    10  C    0.664915   0.027821  -0.064704  -0.327510   0.026808   0.024873
    11  C   -0.000916   0.835815   0.019299   0.008977   0.145142  -0.106908
    12  C   -0.195226  -0.169720   0.001566   0.006497  -0.010795   0.257261
    13  H    0.450901   0.000194   0.000440  -0.006925   0.000687  -0.002322
    14  H    0.000194   0.413398  -0.000527   0.000910   0.004498   0.001702
    15  H    0.000440  -0.000527   0.382353  -0.000423   0.000479   0.000002
    16  H   -0.006925   0.000910  -0.000423   0.418546  -0.000043   0.000029
    17  H    0.000687   0.004498   0.000479  -0.000043   0.403718  -0.000118
    18  H   -0.002322   0.001702   0.000002   0.000029  -0.000118   0.461955
 Mulliken charges:
               1
     1  O   -0.269171
     2  O   -0.237987
     3  O   -0.207936
     4  O   -0.201617
     5  O   -0.266614
     6  C    1.049258
     7  C    0.200893
     8  C   -0.654995
     9  C   -0.489935
    10  C   -0.273861
    11  C   -0.816974
    12  C    0.312004
    13  H    0.250473
    14  H    0.317603
    15  H    0.322573
    16  H    0.315047
    17  H    0.313074
    18  H    0.338166
 Sum of Mulliken charges =  -0.00000
 Mulliken charges with hydrogens summed into heavy atoms:
               1
     1  O    0.053402
     2  O    0.077060
     3  O    0.105138
     4  O    0.136548
     5  O   -0.266614
     6  C    1.049258
     7  C    0.200893
     8  C   -0.654995
     9  C   -0.489935
    10  C   -0.023388
    11  C   -0.499372
    12  C    0.312004
 Electronic spatial extent (au):  <R**2>=           2178.2357
 Charge=             -0.0000 electrons
 Dipole moment (field-independent basis, Debye):
    X=             -1.6134    Y=              1.1885    Z=              0.0014  Tot=              2.0039
 Quadrupole moment (field-independent basis, Debye-Ang):
   XX=            -62.9940   YY=            -65.4516   ZZ=            -71.4438
   XY=             -9.2460   XZ=             -0.0002   YZ=              0.0021
 Traceless Quadrupole moment (field-independent basis, Debye-Ang):
   XX=              3.6358   YY=              1.1782   ZZ=             -4.8140
   XY=             -9.2460   XZ=             -0.0002   YZ=              0.0021
 Octapole moment (field-independent basis, Debye-Ang**2):
  XXX=             -1.0157  YYY=             38.7699  ZZZ=              0.0195  XYY=            -14.2085
  XXY=            -40.7935  XXZ=              0.0472  XZZ=              0.7898  YZZ=              0.0455
  YYZ=              0.0128  XYZ=             -0.0103
 Hexadecapole moment (field-independent basis, Debye-Ang**3):
 XXXX=          -1501.1294 YYYY=           -734.6953 ZZZZ=            -72.6620 XXXY=           -158.2786
 XXXZ=              0.0680 YYYX=            -26.8420 YYYZ=              0.0238 ZZZX=              0.0027
 ZZZY=             -0.0012 XXYY=           -431.7821 XXZZ=           -313.3591 YYZZ=           -156.6960
 XXYZ=             -0.0506 YYXZ=             -0.0144 ZZXY=             -0.6913
 N-N= 6.887670632242D+02 E-N=-2.893080062639D+03  KE= 6.439336599162D+02
 R6APFD:  NTU= -4 IXU= 1 FactS= 1.050
 Calling FoFJK, ICntrl=      2127 FMM=F ISym2X=0 I1Cent= 0 IOpClX= 0 NMat=1 NMatS=1 NMatT=0.
 ***** Axes restored to original set *****
 -------------------------------------------------------------------
 Center     Atomic                   Forces (Hartrees/Bohr)
 Number     Number              X              Y              Z
 -------------------------------------------------------------------
      1        8          -0.000435086    0.004544306    0.000018747
      2        8           0.004507398    0.002494640   -0.000006720
      3        8           0.009210863    0.010519998    0.000075705
      4        8          -0.009609328    0.007080333    0.000041102
      5        8           0.027647906   -0.038304478    0.000078760
      6        6           0.019696740   -0.005370221    0.000065694
      7        6           0.009088814    0.014566971   -0.000030185
      8        6          -0.029936407    0.004601558    0.000035918
      9        6          -0.002481951   -0.005594100   -0.000144966
     10        6           0.003139686   -0.003846812    0.000007507
     11        6           0.008590486   -0.003682013    0.000021029
     12        6          -0.053326623    0.027914156   -0.000192989
     13        1          -0.003423531    0.000035058    0.000001212
     14        1          -0.000737309    0.001535118   -0.000002143
     15        1          -0.001692678   -0.010496684    0.000003653
     16        1           0.010668048   -0.009937237    0.000000714
     17        1          -0.009784725   -0.003241732    0.000003839
     18        1           0.018877698    0.007181139    0.000023122
 -------------------------------------------------------------------
 Cartesian Forces:  Max     0.053326623 RMS     0.012818425

 GradGradGradGradGradGradGradGradGradGradGradGradGradGradGradGradGradGrad
 Berny optimization.
 FormGI is forming the generalized inverse of G from B-inverse, IUseBI=4.
 Internal  Forces:  Max     0.047221219 RMS     0.008346301
 Search for a local minimum.
 Step number   1 out of a maximum of   89
 All quantities printed in internal units (Hartrees-Bohrs-Radians)
 Mixed Optimization -- RFO/linear search
 Second derivative matrix not updated -- first step.
 ITU=  0
     Eigenvalues ---    0.01368   0.01633   0.01915   0.02155   0.02156
     Eigenvalues ---    0.02156   0.02157   0.02158   0.02159   0.02162
     Eigenvalues ---    0.02162   0.02175   0.02188   0.02190   0.02205
     Eigenvalues ---    0.16000   0.16000   0.16000   0.16000   0.16000
     Eigenvalues ---    0.16000   0.23479   0.23493   0.25000   0.25000
     Eigenvalues ---    0.25000   0.25000   0.25000   0.25000   0.25000
     Eigenvalues ---    0.35095   0.35175   0.37663   0.42416   0.42584
     Eigenvalues ---    0.46467   0.46469   0.46475   0.46497   0.51197
     Eigenvalues ---    0.52253   0.52446   0.52485   0.52698   0.52758
     Eigenvalues ---    0.52765   0.52839   0.88915
 RFO step:  Lambda=-1.28465154D-02 EMin= 1.36794221D-02
 Linear search not attempted -- first point.
 Iteration  1 RMS(Cart)=  0.05544103 RMS(Int)=  0.00186272
 Iteration  2 RMS(Cart)=  0.00241542 RMS(Int)=  0.00000330
 Iteration  3 RMS(Cart)=  0.00000242 RMS(Int)=  0.00000294
 Iteration  4 RMS(Cart)=  0.00000000 RMS(Int)=  0.00000294
 Variable       Old X    -DE/DX   Delta X   Delta X   Delta X     New X
                                 (Linear)    (Quad)   (Total)
    R1        2.57658  -0.00201   0.00000  -0.00375  -0.00375   2.57282
    R2        1.83880  -0.01046   0.00000  -0.01936  -0.01936   1.81944
    R3        2.57475   0.00132   0.00000   0.00245   0.00245   2.57720
    R4        1.83804  -0.01448   0.00000  -0.02676  -0.02676   1.81128
    R5        2.57437  -0.00668   0.00000  -0.01242  -0.01242   2.56195
    R6        1.83874  -0.01020   0.00000  -0.01887  -0.01887   1.81987
    R7        2.57237  -0.01678   0.00000  -0.03109  -0.03109   2.54128
    R8        1.85377  -0.01865   0.00000  -0.03553  -0.03553   1.81824
    R9        2.33437  -0.04722   0.00000  -0.05235  -0.05235   2.28202
   R10        2.63560  -0.00103   0.00000  -0.00189  -0.00189   2.63371
   R11        2.63606   0.00131   0.00000   0.00306   0.00306   2.63912
   R12        2.74859   0.01649   0.00000   0.04233   0.04233   2.79092
   R13        2.63607  -0.00277   0.00000  -0.00612  -0.00612   2.62995
   R14        2.63603  -0.00147   0.00000  -0.00335  -0.00335   2.63268
   R15        2.63594  -0.00502   0.00000  -0.01057  -0.01057   2.62537
   R16        2.63613  -0.00598   0.00000  -0.01246  -0.01246   2.62367
   R17        2.05521   0.00166   0.00000   0.00457   0.00457   2.05979
   R18        2.05392  -0.00098   0.00000  -0.00270  -0.00270   2.05123
    A1        1.89183   0.00352   0.00000   0.02036   0.02036   1.91219
    A2        1.90340   0.00312   0.00000   0.01806   0.01806   1.92146
    A3        1.89053   0.00276   0.00000   0.01595   0.01595   1.90647
    A4        1.95204  -0.01440   0.00000  -0.08329  -0.08329   1.86876
    A5        2.09451   0.00251   0.00000   0.01099   0.01099   2.10550
    A6        2.09433  -0.01127   0.00000  -0.04359  -0.04359   2.05075
    A7        2.09435   0.00876   0.00000   0.03259   0.03259   2.12694
    A8        2.09423   0.00923   0.00000   0.03549   0.03549   2.12972
    A9        2.09460  -0.00974   0.00000  -0.03670  -0.03670   2.05790
   A10        2.09436   0.00051   0.00000   0.00121   0.00121   2.09557
   A11        2.10388  -0.02382   0.00000  -0.09045  -0.09045   2.01343
   A12        2.08481   0.02270   0.00000   0.08654   0.08654   2.17135
   A13        2.09450   0.00111   0.00000   0.00390   0.00390   2.09840
   A14        2.10418  -0.00284   0.00000  -0.01079  -0.01080   2.09338
   A15        2.08476   0.00197   0.00000   0.00752   0.00752   2.09227
   A16        2.09425   0.00087   0.00000   0.00328   0.00328   2.09754
   A17        2.09434  -0.00243   0.00000  -0.00957  -0.00958   2.08476
   A18        2.10068  -0.00186   0.00000  -0.01299  -0.01299   2.08769
   A19        2.08817   0.00429   0.00000   0.02256   0.02257   2.11074
   A20        2.09441  -0.00256   0.00000  -0.00981  -0.00981   2.08460
   A21        2.13036  -0.00015   0.00000  -0.00337  -0.00337   2.12700
   A22        2.05841   0.00271   0.00000   0.01318   0.01318   2.07159
   A23        2.13131  -0.00142   0.00000  -0.00540  -0.00540   2.12591
   A24        1.96303   0.00584   0.00000   0.02222   0.02222   1.98525
   A25        2.18884  -0.00442   0.00000  -0.01682  -0.01682   2.17203
    D1        0.00048  -0.00001   0.00000  -0.00024  -0.00024   0.00024
    D2        3.14131   0.00001   0.00000   0.00027   0.00027   3.14158
    D3        3.14154  -0.00000   0.00000  -0.00004  -0.00004   3.14150
    D4        0.00003  -0.00000   0.00000  -0.00005  -0.00005  -0.00002
    D5        0.00109  -0.00002   0.00000  -0.00061  -0.00060   0.00049
    D6        3.14099   0.00003   0.00000   0.00073   0.00073  -3.14146
    D7       -0.00045   0.00003   0.00000   0.00119   0.00120   0.00075
    D8       -3.14093  -0.00004   0.00000  -0.00141  -0.00141   3.14084
    D9        0.00008  -0.00000   0.00000  -0.00009  -0.00009  -0.00000
   D10        3.14152   0.00000   0.00000   0.00004   0.00004   3.14157
   D11       -3.14127  -0.00001   0.00000  -0.00021  -0.00020  -3.14148
   D12        0.00017  -0.00000   0.00000  -0.00008  -0.00007   0.00009
   D13        0.00000   0.00000   0.00000  -0.00001  -0.00001  -0.00001
   D14       -3.14123  -0.00001   0.00000  -0.00027  -0.00028  -3.14150
   D15        3.14135   0.00000   0.00000   0.00010   0.00010   3.14145
   D16        0.00013  -0.00001   0.00000  -0.00017  -0.00016  -0.00004
   D17        3.14052   0.00004   0.00000   0.00149   0.00149  -3.14118
   D18        0.00008  -0.00004   0.00000  -0.00122  -0.00122  -0.00113
   D19       -0.00084   0.00004   0.00000   0.00138   0.00138   0.00054
   D20       -3.14127  -0.00004   0.00000  -0.00133  -0.00133   3.14058
   D21       -0.00067   0.00001   0.00000   0.00051   0.00051  -0.00016
   D22        3.14083   0.00002   0.00000   0.00053   0.00053   3.14136
   D23       -3.14150   0.00000   0.00000   0.00001   0.00001  -3.14149
   D24        0.00000   0.00000   0.00000   0.00003   0.00003   0.00003
   D25       -0.00085   0.00002   0.00000   0.00069   0.00070  -0.00016
   D26       -3.14075  -0.00003   0.00000  -0.00065  -0.00064  -3.14139
   D27        3.13998   0.00004   0.00000   0.00122   0.00121   3.14119
   D28        0.00008  -0.00000   0.00000  -0.00013  -0.00013  -0.00005
   D29        3.14142   0.00000   0.00000   0.00009   0.00009   3.14151
   D30       -0.00002  -0.00000   0.00000  -0.00004  -0.00004  -0.00006
   D31       -0.00008   0.00000   0.00000   0.00008   0.00008  -0.00000
   D32       -3.14152  -0.00000   0.00000  -0.00005  -0.00005  -3.14157
   D33       -3.14000  -0.00004   0.00000  -0.00120  -0.00120  -3.14120
   D34        0.00124  -0.00003   0.00000  -0.00094  -0.00095   0.00030
   D35       -0.00008   0.00000   0.00000   0.00012   0.00012   0.00004
   D36        3.14116   0.00001   0.00000   0.00037   0.00037   3.14153
         Item               Value     Threshold  Converged?
 Maximum Force            0.047221     0.000450     NO 
 RMS     Force            0.008346     0.000300     NO 
 Maximum Displacement     0.238137     0.001800     NO 
 RMS     Displacement     0.054952     0.001200     NO 
 Predicted change in Energy=-6.680868D-03
 GradGradGradGradGradGradGradGradGradGradGradGradGradGradGradGradGradGrad

                          Input orientation:                          
 ---------------------------------------------------------------------
 Center     Atomic      Atomic             Coordinates (Angstroms)
 Number     Number       Type             X           Y           Z
 ---------------------------------------------------------------------
      1          8           0        3.096083   -0.031116   -0.000128
      2          8           0        1.804272    2.338591   -0.000194
      3          8           0        1.731073   -2.369032   -0.000443
      4          8           0       -3.098520   -1.163851   -0.000182
      5          8           0       -3.165204    1.066407    0.000218
      6          6           0       -1.039895   -0.001408   -0.000349
      7          6           0        1.735253    0.010937   -0.000021
      8          6           0        1.034066    1.213102   -0.000149
      9          6           0        1.045450   -1.199453   -0.000091
     10          6           0       -0.355217    1.212519   -0.000310
     11          6           0       -0.342883   -1.211596   -0.000232
     12          6           0       -2.515952    0.048197   -0.000676
     13          1           0       -0.915959    2.147211   -0.000429
     14          1           0       -0.855689   -2.168287   -0.000343
     15          1           0        3.446303    0.865736   -0.000076
     16          1           0        1.247358    3.118687   -0.000367
     17          1           0        2.675938   -2.182860   -0.000167
     18          1           0       -4.049875   -1.019983    0.000240
 ---------------------------------------------------------------------
                    Distance matrix (angstroms):
                    1          2          3          4          5
     1  O    0.000000
     2  O    2.698942   0.000000
     3  O    2.707232   4.708192   0.000000
     4  O    6.297317   6.025319   4.977693   0.000000
     5  O    6.356749   5.129731   5.981284   2.231255   0.000000
     6  C    4.136084   3.683052   3.644709   2.364152   2.378480
     7  C    1.361480   2.328677   2.379973   4.974484   5.012832
     8  C    2.408317   1.363797   3.649315   4.767408   4.201831
     9  C    2.360107   3.618503   1.355726   4.144123   4.781603
    10  C    3.668528   2.435453   4.144890   3.629442   2.813782
    11  C    3.635934   4.148988   2.375068   2.756051   3.626953
    12  C    5.612595   4.889809   4.886738   1.344785   1.207593
    13  H    4.565259   2.726955   5.234810   3.965691   2.495444
    14  H    4.492660   5.233291   2.594539   2.457475   3.974557
    15  H    0.962807   2.205804   3.661385   6.852295   6.614552
    16  H    3.652266   0.958490   5.508996   6.101376   4.866472
    17  H    2.192379   4.604706   0.963032   5.863680   6.684061
    18  H    7.214054   6.749152   5.936269   0.962171   2.266201
                    6          7          8          9         10
     6  C    0.000000
     7  C    2.775175   0.000000
     8  C    2.403403   1.391712   0.000000
     9  C    2.404989   1.393152   2.412582   0.000000
    10  C    1.393700   2.411195   1.389284   2.789172   0.000000
    11  C    1.396560   2.411065   2.788395   1.388386   2.424146
    12  C    1.476890   4.251368   3.736259   3.773620   2.454469
    13  H    2.152191   3.404790   2.162212   3.879084   1.089992
    14  H    2.174695   3.385557   3.873624   2.133768   3.417648
    15  H    4.569235   1.912688   2.437120   3.166876   3.817305
    16  H    3.868658   3.145815   1.917485   4.322858   2.490326
    17  H    4.308845   2.386972   3.772042   1.904096   4.551538
    18  H    3.177653   5.876266   5.552759   5.098484   4.316777
                   11         12         13         14         15
    11  C    0.000000
    12  C    2.511833   0.000000
    13  H    3.407345   2.639288   0.000000
    14  H    1.085462   2.769345   4.315919   0.000000
    15  H    4.321254   6.018044   4.546594   5.264260   0.000000
    16  H    4.613048   4.856996   2.371435   5.689894   3.148198
    17  H    3.171219   5.650958   5.625944   3.531656   3.144424
    18  H    3.711941   1.869206   4.455620   3.394323   7.729724
                   16         17         18
    16  H    0.000000
    17  H    5.490651   0.000000
    18  H    6.722296   6.825602   0.000000
 Stoichiometry    C7H6O5
 Framework group  C1[X(C7H6O5)]
 Deg. of freedom    48
 Full point group                 C1      NOp   1
 Largest Abelian subgroup         C1      NOp   1
 Largest concise Abelian subgroup C1      NOp   1
                         Standard orientation:                         
 ---------------------------------------------------------------------
 Center     Atomic      Atomic             Coordinates (Angstroms)
 Number     Number       Type             X           Y           Z
 ---------------------------------------------------------------------
      1          8           0       -3.072986   -0.115519   -0.000076
      2          8           0       -1.847405    2.289110   -0.000010
      3          8           0       -1.643649   -2.414671    0.000239
      4          8           0        3.150655   -1.075986   -0.000022
      5          8           0        3.155447    1.155263   -0.000422
      6          6           0        1.060576    0.028906    0.000145
      7          6           0       -1.713846   -0.035734   -0.000183
      8          6           0       -1.046276    1.185419   -0.000055
      9          6           0       -0.990733   -1.226524   -0.000113
     10          6           0        0.342489    1.223373    0.000107
     11          6           0        0.397402   -1.200151    0.000028
     12          6           0        2.534689    0.119435    0.000472
     13          1           0        0.877088    2.173260    0.000225
     14          1           0        0.936548   -2.142249    0.000139
     15          1           0       -3.447949    0.771273   -0.000128
     16          1           0       -1.312344    3.084354    0.000163
     17          1           0       -2.593315   -2.254781   -0.000037
     18          1           0        4.097653   -0.905784   -0.000444
 ---------------------------------------------------------------------
 Rotational constants (GHZ):           1.6147302           0.6649286           0.4709829
 Standard basis: 6-311++G(d,p) (5D, 7F)
 There are   318 symmetry adapted cartesian basis functions of A   symmetry.
 There are   306 symmetry adapted basis functions of A   symmetry.
   306 basis functions,   486 primitive gaussians,   318 cartesian basis functions
    44 alpha electrons       44 beta electrons
       nuclear repulsion energy       690.8003614619 Hartrees.
 NAtoms=   18 NActive=   18 NUniq=   18 SFac= 1.00D+00 NAtFMM=   60 NAOKFM=F Big=F
 Integral buffers will be    131072 words long.
 Raffenetti 2 integral format.
 Two-electron integral symmetry is turned on.
 R6APFD:  NTU= -4 IXU= 1 FactS= 1.050
 Nuclear repulsion after empirical dispersion term =      690.7880112177 Hartrees.
 One-electron integrals computed using PRISM.
 NBasis=   306 RedAO= T EigKep=  1.57D-06  NBF=   306
 NBsUse=   305 1.00D-06 EigRej=  7.81D-07 NBFU=   305
 Initial guess from the checkpoint file:  "GAAC0052.chk"
 B after Tr=     0.000000   -0.000000   -0.000000
         Rot=    1.000000    0.000011   -0.000001    0.000451 Ang=   0.05 deg.
 ExpMin= 3.60D-02 ExpMax= 8.59D+03 ExpMxC= 1.30D+03 IAcc=3 IRadAn=         5 AccDes= 0.00D+00
 Harris functional with IExCor= 1009 and IRadAn=       5 diagonalized for initial guess.
 HarFok:  IExCor= 1009 AccDes= 0.00D+00 IRadAn=         5 IDoV= 1 UseB2=F ITyADJ=14
 ICtDFT=  3500011 ScaDFX=  1.000000  1.000000  1.000000  1.000000
 FoFCou: FMM=F IPFlag=           0 FMFlag=      100000 FMFlg1=           0
         NFxFlg=           0 DoJE=T BraDBF=F KetDBF=T FulRan=T
         wScrn=  0.000000 ICntrl=       500 IOpCl=  0 I1Cent=   200000004 NGrid=           0
         NMat0=    1 NMatS0=      1 NMatT0=    0 NMatD0=    1 NMtDS0=    0 NMtDT0=    0
 Petite list used in FoFCou.
 Requested convergence on RMS density matrix=1.00D-08 within  32 cycles.
 Requested convergence on MAX density matrix=1.00D-06.
 Requested convergence on             energy=1.00D-06.
 No special actions if energy rises.
 SCF Done:  E(RM08HX) =  -646.475092467     A.U. after   14 cycles
            NFock= 14  Conv=0.66D-08     -V/T= 2.0035
 QCSCF skips out because SCF is already converged.
 R6APFD:  NTU= -4 IXU= 1 FactS= 1.050
 Calling FoFJK, ICntrl=      2127 FMM=F ISym2X=0 I1Cent= 0 IOpClX= 0 NMat=1 NMatS=1 NMatT=0.
 ***** Axes restored to original set *****
 -------------------------------------------------------------------
 Center     Atomic                   Forces (Hartrees/Bohr)
 Number     Number              X              Y              Z
 -------------------------------------------------------------------
      1        8          -0.002299405   -0.001327615    0.000007252
      2        8           0.001643005   -0.000391430    0.000002058
      3        8          -0.000542967    0.002904515    0.000019241
      4        8           0.003641185   -0.001281022   -0.000071089
      5        8           0.003882932   -0.002807936   -0.000093729
      6        6           0.007152332   -0.004382630   -0.000065757
      7        6           0.004331955    0.002373378   -0.000011853
      8        6          -0.007878607    0.000440574    0.000005088
      9        6           0.002182603   -0.004270436   -0.000022343
     10        6           0.001761318    0.003187596    0.000001744
     11        6          -0.001464056    0.000604497   -0.000002595
     12        6          -0.008606819    0.005538509    0.000234116
     13        1          -0.000566059   -0.000788348   -0.000000549
     14        1          -0.001397217    0.000089876   -0.000002270
     15        1          -0.000299321   -0.000415324   -0.000000287
     16        1           0.000819530    0.000913506   -0.000000053
     17        1          -0.000725836   -0.000058656   -0.000001456
     18        1          -0.001634571   -0.000329054    0.000002481
 -------------------------------------------------------------------
 Cartesian Forces:  Max     0.008606819 RMS     0.002600223

 GradGradGradGradGradGradGradGradGradGradGradGradGradGradGradGradGradGrad
 Berny optimization.
 Using GEDIIS/GDIIS optimizer.
 FormGI is forming the generalized inverse of G from B-inverse, IUseBI=4.
 Internal  Forces:  Max     0.004452487 RMS     0.001455577
 Search for a local minimum.
 Step number   2 out of a maximum of   89
 All quantities printed in internal units (Hartrees-Bohrs-Radians)
 Mixed Optimization -- RFO/linear search
 Update second derivatives using D2CorX and points    1    2
 DE= -7.13D-03 DEPred=-6.68D-03 R= 1.07D+00
 TightC=F SS=  1.41D+00  RLast= 2.00D-01 DXNew= 5.0454D-01 6.0079D-01
 Trust test= 1.07D+00 RLast= 2.00D-01 DXMaxT set to 5.05D-01
 ITU=  1  0
 Use linear search instead of GDIIS.
     Eigenvalues ---    0.01368   0.01636   0.01918   0.02155   0.02156
     Eigenvalues ---    0.02156   0.02157   0.02158   0.02159   0.02162
     Eigenvalues ---    0.02162   0.02175   0.02188   0.02190   0.02205
     Eigenvalues ---    0.15607   0.16000   0.16000   0.16000   0.16000
     Eigenvalues ---    0.16539   0.21600   0.23489   0.23922   0.25000
     Eigenvalues ---    0.25000   0.25000   0.25000   0.25000   0.26823
     Eigenvalues ---    0.35107   0.35190   0.37242   0.42431   0.42672
     Eigenvalues ---    0.46219   0.46469   0.46477   0.46689   0.51564
     Eigenvalues ---    0.51820   0.52337   0.52459   0.52726   0.52761
     Eigenvalues ---    0.52802   0.54561   0.87252
 RFO step:  Lambda=-5.27098675D-04 EMin= 1.36794211D-02
 Quartic linear search produced a step of  0.08459.
 Iteration  1 RMS(Cart)=  0.01457003 RMS(Int)=  0.00013849
 Iteration  2 RMS(Cart)=  0.00016993 RMS(Int)=  0.00000631
 Iteration  3 RMS(Cart)=  0.00000001 RMS(Int)=  0.00000631
 Variable       Old X    -DE/DX   Delta X   Delta X   Delta X     New X
                                 (Linear)    (Quad)   (Total)
    R1        2.57282  -0.00254  -0.00032  -0.00509  -0.00540   2.56742
    R2        1.81944  -0.00050  -0.00164  -0.00007  -0.00171   1.81774
    R3        2.57720   0.00182   0.00021   0.00364   0.00385   2.58105
    R4        1.81128   0.00026  -0.00226   0.00186  -0.00040   1.81088
    R5        2.56195  -0.00310  -0.00105  -0.00577  -0.00683   2.55513
    R6        1.81987  -0.00073  -0.00160  -0.00056  -0.00216   1.81771
    R7        2.54128   0.00057  -0.00263   0.00272   0.00009   2.54136
    R8        1.81824   0.00157  -0.00301   0.00508   0.00208   1.82032
    R9        2.28202  -0.00445  -0.00443  -0.00297  -0.00740   2.27462
   R10        2.63371   0.00118  -0.00016   0.00267   0.00251   2.63623
   R11        2.63912  -0.00231   0.00026  -0.00571  -0.00545   2.63367
   R12        2.79092   0.00276   0.00358   0.00573   0.00931   2.80022
   R13        2.62995   0.00231  -0.00052   0.00586   0.00534   2.63529
   R14        2.63268   0.00107  -0.00028   0.00282   0.00253   2.63521
   R15        2.62537  -0.00276  -0.00089  -0.00590  -0.00679   2.61857
   R16        2.62367  -0.00000  -0.00105   0.00062  -0.00044   2.62323
   R17        2.05979  -0.00039   0.00039  -0.00143  -0.00104   2.05874
   R18        2.05123   0.00058  -0.00023   0.00193   0.00170   2.05293
    A1        1.91219  -0.00023   0.00172  -0.00284  -0.00111   1.91108
    A2        1.92146   0.00217   0.00153   0.01353   0.01506   1.93653
    A3        1.90647  -0.00015   0.00135  -0.00200  -0.00065   1.90582
    A4        1.86876   0.00103  -0.00705   0.01225   0.00520   1.87396
    A5        2.10550   0.00318   0.00093   0.01281   0.01375   2.11925
    A6        2.05075  -0.00138  -0.00369  -0.00333  -0.00703   2.04372
    A7        2.12694  -0.00181   0.00276  -0.00948  -0.00672   2.12022
    A8        2.12972   0.00188   0.00300   0.00566   0.00867   2.13838
    A9        2.05790  -0.00261  -0.00310  -0.00967  -0.01277   2.04512
   A10        2.09557   0.00073   0.00010   0.00401   0.00411   2.09968
   A11        2.01343  -0.00335  -0.00765  -0.00970  -0.01736   1.99608
   A12        2.17135   0.00333   0.00732   0.00920   0.01652   2.18787
   A13        2.09840   0.00002   0.00033   0.00050   0.00083   2.09924
   A14        2.09338   0.00000  -0.00091   0.00034  -0.00057   2.09281
   A15        2.09227   0.00101   0.00064   0.00368   0.00432   2.09659
   A16        2.09754  -0.00102   0.00028  -0.00402  -0.00375   2.09379
   A17        2.08476  -0.00189  -0.00081  -0.00873  -0.00953   2.07523
   A18        2.08769   0.00003  -0.00110  -0.00068  -0.00179   2.08590
   A19        2.11074   0.00186   0.00191   0.00941   0.01131   2.12205
   A20        2.08460  -0.00103  -0.00083  -0.00458  -0.00541   2.07919
   A21        2.12700  -0.00079  -0.00028  -0.00603  -0.00632   2.12068
   A22        2.07159   0.00183   0.00111   0.01061   0.01173   2.08332
   A23        2.12591   0.00380  -0.00046   0.01678   0.01631   2.14222
   A24        1.98525  -0.00357   0.00188  -0.01672  -0.01485   1.97040
   A25        2.17203  -0.00023  -0.00142  -0.00004  -0.00147   2.17055
    D1        0.00024  -0.00000  -0.00002  -0.00012  -0.00014   0.00010
    D2        3.14158   0.00000   0.00002   0.00009   0.00011  -3.14149
    D3        3.14150   0.00000  -0.00000   0.00006   0.00006   3.14156
    D4       -0.00002  -0.00000  -0.00000  -0.00005  -0.00005  -0.00007
    D5        0.00049  -0.00001  -0.00005  -0.00017  -0.00022   0.00026
    D6       -3.14146   0.00000   0.00006   0.00004   0.00010  -3.14136
    D7        0.00075  -0.00005   0.00010  -0.00378  -0.00370  -0.00295
    D8        3.14084   0.00005  -0.00012   0.00368   0.00359  -3.13875
    D9       -0.00000  -0.00000  -0.00001  -0.00008  -0.00009  -0.00009
   D10        3.14157   0.00000   0.00000   0.00003   0.00004  -3.14158
   D11       -3.14148  -0.00001  -0.00002  -0.00026  -0.00027   3.14144
   D12        0.00009  -0.00000  -0.00001  -0.00014  -0.00015  -0.00005
   D13       -0.00001   0.00000  -0.00000   0.00012   0.00011   0.00010
   D14       -3.14150  -0.00000  -0.00002  -0.00005  -0.00008  -3.14158
   D15        3.14145   0.00001   0.00001   0.00030   0.00031  -3.14142
   D16       -0.00004   0.00000  -0.00001   0.00013   0.00012   0.00008
   D17       -3.14118  -0.00005   0.00013  -0.00361  -0.00347   3.13854
   D18       -0.00113   0.00006  -0.00010   0.00410   0.00398   0.00285
   D19        0.00054  -0.00006   0.00012  -0.00379  -0.00366  -0.00312
   D20        3.14058   0.00006  -0.00011   0.00392   0.00379  -3.13881
   D21       -0.00016   0.00000   0.00004   0.00009   0.00013  -0.00003
   D22        3.14136   0.00001   0.00005   0.00020   0.00024  -3.14158
   D23       -3.14149  -0.00000   0.00000  -0.00013  -0.00013   3.14157
   D24        0.00003  -0.00000   0.00000  -0.00002  -0.00002   0.00001
   D25       -0.00016   0.00000   0.00006   0.00006   0.00012  -0.00004
   D26       -3.14139  -0.00001  -0.00005  -0.00015  -0.00021   3.14159
   D27        3.14119   0.00001   0.00010   0.00027   0.00037   3.14155
   D28       -0.00005   0.00000  -0.00001   0.00005   0.00004  -0.00000
   D29        3.14151   0.00000   0.00001   0.00015   0.00016  -3.14152
   D30       -0.00006   0.00000  -0.00000   0.00003   0.00003  -0.00003
   D31       -0.00000   0.00000   0.00001   0.00003   0.00004   0.00003
   D32       -3.14157  -0.00000  -0.00000  -0.00008  -0.00009   3.14152
   D33       -3.14120  -0.00001  -0.00010  -0.00031  -0.00042   3.14157
   D34        0.00030  -0.00001  -0.00008  -0.00015  -0.00023   0.00007
   D35        0.00004  -0.00000   0.00001  -0.00010  -0.00009  -0.00005
   D36        3.14153   0.00000   0.00003   0.00006   0.00010  -3.14156
         Item               Value     Threshold  Converged?
 Maximum Force            0.004452     0.000450     NO 
 RMS     Force            0.001456     0.000300     NO 
 Maximum Displacement     0.072465     0.001800     NO 
 RMS     Displacement     0.014582     0.001200     NO 
 Predicted change in Energy=-3.172719D-04
 GradGradGradGradGradGradGradGradGradGradGradGradGradGradGradGradGradGrad

                          Input orientation:                          
 ---------------------------------------------------------------------
 Center     Atomic      Atomic             Coordinates (Angstroms)
 Number     Number       Type             X           Y           Z
 ---------------------------------------------------------------------
      1          8           0        3.084326   -0.039488   -0.001056
      2          8           0        1.816430    2.333249   -0.000693
      3          8           0        1.729083   -2.362549   -0.000165
      4          8           0       -3.080521   -1.172006   -0.001382
      5          8           0       -3.163994    1.064367   -0.000561
      6          6           0       -1.036246    0.000974    0.001010
      7          6           0        1.726802    0.015086   -0.000403
      8          6           0        1.024939    1.220125   -0.000207
      9          6           0        1.040564   -1.198868    0.000074
     10          6           0       -0.360751    1.221554    0.000480
     11          6           0       -0.347538   -1.210643    0.000752
     12          6           0       -2.517276    0.049188    0.001943
     13          1           0       -0.930395    2.150202    0.000711
     14          1           0       -0.872212   -2.161906    0.001151
     15          1           0        3.441529    0.853634   -0.001244
     16          1           0        1.285704    3.131139   -0.000562
     17          1           0        2.671943   -2.172160   -0.000432
     18          1           0       -4.035788   -1.048096   -0.003114
 ---------------------------------------------------------------------
                    Distance matrix (angstroms):
                    1          2          3          4          5
     1  O    0.000000
     2  O    2.690249   0.000000
     3  O    2.689480   4.696611   0.000000
     4  O    6.268009   6.022204   4.954764   0.000000
     5  O    6.345076   5.139521   5.973772   2.237930   0.000000
     6  C    4.120771   3.684735   3.637759   2.356894   2.378679
     7  C    1.358620   2.319895   2.377637   4.951722   5.002087
     8  C    2.414063   1.365835   3.651215   4.751536   4.191827
     9  C    2.349708   3.616326   1.352114   4.121173   4.774991
    10  C    3.668621   2.444582   4.148880   3.623022   2.807647
    11  C    3.626196   4.152340   2.374709   2.733257   3.620510
    12  C    5.602305   4.898770   4.883446   1.344832   1.203676
    13  H    4.573043   2.752917   5.238105   3.957286   2.483546
    14  H    4.489862   5.237864   2.609021   2.420029   3.957411
    15  H    0.961905   2.197773   3.643667   6.829374   6.608883
    16  H    3.645259   0.958278   5.511551   6.130333   4.906257
    17  H    2.172177   4.585915   0.961891   5.838763   6.673324
    18  H    7.191197   6.758842   5.912827   0.963271   2.285286
                    6          7          8          9         10
     6  C    0.000000
     7  C    2.763085   0.000000
     8  C    2.394747   1.394536   0.000000
     9  C    2.398492   1.394492   2.419043   0.000000
    10  C    1.395031   2.411108   1.385690   2.796807   0.000000
    11  C    1.393677   2.409419   2.791473   1.388152   2.432234
    12  C    1.481815   4.244216   3.730735   3.770395   2.454597
    13  H    2.151833   3.408726   2.165265   3.885994   1.089440
    14  H    2.169091   3.390306   3.877798   2.141531   3.421900
    15  H    4.558235   1.908783   2.444223   3.158702   3.820039
    16  H    3.897357   3.147118   1.928723   4.336940   2.521374
    17  H    4.298044   2.382716   3.770970   1.899656   4.551322
    18  H    3.177706   5.859847   5.545790   5.078591   4.319401
                   11         12         13         14         15
    11  C    0.000000
    12  C    2.508972   0.000000
    13  H    3.411012   2.632955   0.000000
    14  H    1.086363   2.755935   4.312501   0.000000
    15  H    4.314889   6.012861   4.560132   5.263254   0.000000
    16  H    4.638809   4.895006   2.423496   5.716024   3.136018
    17  H    3.168877   5.644678   5.626691   3.544170   3.122130
    18  H    3.691832   1.873482   4.457868   3.353924   7.715364
                   16         17         18
    16  H    0.000000
    17  H    5.481481   0.000000
    18  H    6.766409   6.801263   0.000000
 Stoichiometry    C7H6O5
 Framework group  C1[X(C7H6O5)]
 Deg. of freedom    48
 Full point group                 C1      NOp   1
 Largest Abelian subgroup         C1      NOp   1
 Largest concise Abelian subgroup C1      NOp   1
                         Standard orientation:                         
 ---------------------------------------------------------------------
 Center     Atomic      Atomic             Coordinates (Angstroms)
 Number     Number       Type             X           Y           Z
 ---------------------------------------------------------------------
      1          8           0       -3.061082   -0.129399    0.000915
      2          8           0       -1.864044    2.279862    0.000551
      3          8           0       -1.637604   -2.411286    0.000024
      4          8           0        3.134614   -1.078762    0.001241
      5          8           0        3.151788    1.159102    0.000419
      6          6           0        1.056482    0.033133   -0.001152
      7          6           0       -1.705771   -0.034627    0.000261
      8          6           0       -1.039920    1.190678    0.000065
      9          6           0       -0.983866   -1.227716   -0.000215
     10          6           0        0.345119    1.233164   -0.000621
     11          6           0        0.403975   -1.198358   -0.000893
     12          6           0        2.535433    0.125208   -0.002084
     13          1           0        0.886998    2.178281   -0.000853
     14          1           0        0.956604   -2.133658   -0.001293
     15          1           0       -3.444590    0.752747    0.001102
     16          1           0       -1.357193    3.093127    0.000420
     17          1           0       -2.585691   -2.248917    0.000291
     18          1           0        4.085790   -0.926603    0.002973
 ---------------------------------------------------------------------
 Rotational constants (GHZ):           1.6156853           0.6676396           0.4724232
 Standard basis: 6-311++G(d,p) (5D, 7F)
 There are   318 symmetry adapted cartesian basis functions of A   symmetry.
 There are   306 symmetry adapted basis functions of A   symmetry.
   306 basis functions,   486 primitive gaussians,   318 cartesian basis functions
    44 alpha electrons       44 beta electrons
       nuclear repulsion energy       691.4541914815 Hartrees.
 NAtoms=   18 NActive=   18 NUniq=   18 SFac= 1.00D+00 NAtFMM=   60 NAOKFM=F Big=F
 Integral buffers will be    131072 words long.
 Raffenetti 2 integral format.
 Two-electron integral symmetry is turned on.
 R6APFD:  NTU= -4 IXU= 1 FactS= 1.050
 Nuclear repulsion after empirical dispersion term =      691.4417422496 Hartrees.
 One-electron integrals computed using PRISM.
 NBasis=   306 RedAO= T EigKep=  1.54D-06  NBF=   306
 NBsUse=   305 1.00D-06 EigRej=  7.77D-07 NBFU=   305
 Initial guess from the checkpoint file:  "GAAC0052.chk"
 B after Tr=    -0.000000   -0.000000   -0.000000
         Rot=    1.000000   -0.000029   -0.000033   -0.000928 Ang=  -0.11 deg.
 ExpMin= 3.60D-02 ExpMax= 8.59D+03 ExpMxC= 1.30D+03 IAcc=3 IRadAn=         5 AccDes= 0.00D+00
 Harris functional with IExCor= 1009 and IRadAn=       5 diagonalized for initial guess.
 HarFok:  IExCor= 1009 AccDes= 0.00D+00 IRadAn=         5 IDoV= 1 UseB2=F ITyADJ=14
 ICtDFT=  3500011 ScaDFX=  1.000000  1.000000  1.000000  1.000000
 FoFCou: FMM=F IPFlag=           0 FMFlag=      100000 FMFlg1=           0
         NFxFlg=           0 DoJE=T BraDBF=F KetDBF=T FulRan=T
         wScrn=  0.000000 ICntrl=       500 IOpCl=  0 I1Cent=   200000004 NGrid=           0
         NMat0=    1 NMatS0=      1 NMatT0=    0 NMatD0=    1 NMtDS0=    0 NMtDT0=    0
 Petite list used in FoFCou.
 Requested convergence on RMS density matrix=1.00D-08 within  32 cycles.
 Requested convergence on MAX density matrix=1.00D-06.
 Requested convergence on             energy=1.00D-06.
 No special actions if energy rises.
 SCF Done:  E(RM08HX) =  -646.475407731     A.U. after   12 cycles
            NFock= 12  Conv=0.74D-08     -V/T= 2.0035
 QCSCF skips out because SCF is already converged.
 R6APFD:  NTU= -4 IXU= 1 FactS= 1.050
 Calling FoFJK, ICntrl=      2127 FMM=F ISym2X=0 I1Cent= 0 IOpClX= 0 NMat=1 NMatS=1 NMatT=0.
 ***** Axes restored to original set *****
 -------------------------------------------------------------------
 Center     Atomic                   Forces (Hartrees/Bohr)
 Number     Number              X              Y              Z
 -------------------------------------------------------------------
      1        8          -0.000304459    0.000003219   -0.000000054
      2        8           0.000643491   -0.000061064   -0.000005643
      3        8          -0.000629830    0.000651290    0.000002175
      4        8          -0.000808884    0.000099505    0.000266772
      5        8          -0.000744145   -0.000252690    0.000332537
      6        6           0.001657239   -0.001374102    0.000249198
      7        6           0.000309569   -0.000680037    0.000000618
      8        6          -0.000984254   -0.000078091   -0.000001849
      9        6           0.001152177   -0.001057427   -0.000016336
     10        6           0.000694314    0.001475276    0.000017311
     11        6          -0.000869448    0.000105870    0.000019965
     12        6           0.000148226    0.000890033   -0.000860217
     13        1          -0.000124767   -0.000434074    0.000000844
     14        1          -0.000187922    0.000430344    0.000002742
     15        1           0.000380749    0.000483648   -0.000000697
     16        1          -0.000298911    0.000208808    0.000000496
     17        1           0.000537446    0.000028840   -0.000002658
     18        1          -0.000570592   -0.000439350   -0.000005204
 -------------------------------------------------------------------
 Cartesian Forces:  Max     0.001657239 RMS     0.000580483

 GradGradGradGradGradGradGradGradGradGradGradGradGradGradGradGradGradGrad
 Berny optimization.
 Using GEDIIS/GDIIS optimizer.
 FormGI is forming the generalized inverse of G from B-inverse, IUseBI=4.
 Internal  Forces:  Max     0.001985681 RMS     0.000425068
 Search for a local minimum.
 Step number   3 out of a maximum of   89
 All quantities printed in internal units (Hartrees-Bohrs-Radians)
 Mixed Optimization -- En-DIIS/RFO-DIIS
 Update second derivatives using D2CorX and points    1    2    3
 DE= -3.15D-04 DEPred=-3.17D-04 R= 9.94D-01
 TightC=F SS=  1.41D+00  RLast= 5.26D-02 DXNew= 8.4853D-01 1.5784D-01
 Trust test= 9.94D-01 RLast= 5.26D-02 DXMaxT set to 5.05D-01
 ITU=  1  1  0
 Use linear search instead of GDIIS.
     Eigenvalues ---    0.01368   0.01659   0.01921   0.02155   0.02156
     Eigenvalues ---    0.02156   0.02157   0.02158   0.02159   0.02162
     Eigenvalues ---    0.02162   0.02175   0.02188   0.02190   0.02205
     Eigenvalues ---    0.14401   0.16000   0.16000   0.16000   0.16192
     Eigenvalues ---    0.16459   0.21156   0.23534   0.24252   0.25000
     Eigenvalues ---    0.25000   0.25000   0.25000   0.25606   0.28480
     Eigenvalues ---    0.35096   0.35232   0.36586   0.42383   0.42867
     Eigenvalues ---    0.45867   0.46469   0.46478   0.46967   0.51584
     Eigenvalues ---    0.51812   0.52408   0.52488   0.52736   0.52761
     Eigenvalues ---    0.53023   0.54410   0.88006
 RFO step:  Lambda=-6.19478652D-05 EMin= 1.36794601D-02
 Quartic linear search produced a step of  0.01428.
 Iteration  1 RMS(Cart)=  0.00513943 RMS(Int)=  0.00003122
 Iteration  2 RMS(Cart)=  0.00003712 RMS(Int)=  0.00001947
 Iteration  3 RMS(Cart)=  0.00000000 RMS(Int)=  0.00001947
 Variable       Old X    -DE/DX   Delta X   Delta X   Delta X     New X
                                 (Linear)    (Quad)   (Total)
    R1        2.56742   0.00006  -0.00008  -0.00032  -0.00040   2.56702
    R2        1.81774   0.00059  -0.00002   0.00090   0.00087   1.81861
    R3        2.58105   0.00032   0.00005   0.00093   0.00098   2.58204
    R4        1.81088   0.00034  -0.00001   0.00048   0.00047   1.81136
    R5        2.55513  -0.00063  -0.00010  -0.00180  -0.00190   2.55322
    R6        1.81771   0.00053  -0.00003   0.00076   0.00072   1.81843
    R7        2.54136   0.00088   0.00000   0.00154   0.00154   2.54291
    R8        1.82032   0.00051   0.00003   0.00099   0.00102   1.82134
    R9        2.27462   0.00019  -0.00011  -0.00062  -0.00072   2.27390
   R10        2.63623   0.00072   0.00004   0.00171   0.00175   2.63797
   R11        2.63367  -0.00023  -0.00008  -0.00089  -0.00097   2.63270
   R12        2.80022   0.00199   0.00013   0.00626   0.00640   2.80662
   R13        2.63529   0.00046   0.00008   0.00136   0.00144   2.63673
   R14        2.63521   0.00023   0.00004   0.00072   0.00076   2.63597
   R15        2.61857  -0.00039  -0.00010  -0.00147  -0.00157   2.61700
   R16        2.62323   0.00120  -0.00001   0.00256   0.00255   2.62578
   R17        2.05874  -0.00031  -0.00001  -0.00094  -0.00095   2.05779
   R18        2.05293  -0.00029   0.00002  -0.00070  -0.00068   2.05225
    A1        1.91108   0.00032  -0.00002   0.00204   0.00202   1.91310
    A2        1.93653  -0.00024   0.00022  -0.00025  -0.00004   1.93649
    A3        1.90582   0.00015  -0.00001   0.00095   0.00094   1.90677
    A4        1.87396   0.00092   0.00007   0.00580   0.00587   1.87983
    A5        2.11925   0.00011   0.00020   0.00155   0.00175   2.12100
    A6        2.04372  -0.00050  -0.00010  -0.00276  -0.00286   2.04086
    A7        2.12022   0.00038  -0.00010   0.00120   0.00111   2.12132
    A8        2.13838  -0.00048   0.00012  -0.00114  -0.00101   2.13737
    A9        2.04512   0.00043  -0.00018   0.00057   0.00039   2.04552
   A10        2.09968   0.00005   0.00006   0.00056   0.00062   2.10030
   A11        1.99608  -0.00028  -0.00025  -0.00288  -0.00312   1.99295
   A12        2.18787  -0.00000   0.00024   0.00176   0.00199   2.18986
   A13        2.09924   0.00029   0.00001   0.00112   0.00113   2.10037
   A14        2.09281  -0.00007  -0.00001  -0.00048  -0.00049   2.09233
   A15        2.09659   0.00045   0.00006   0.00209   0.00215   2.09874
   A16        2.09379  -0.00037  -0.00005  -0.00161  -0.00166   2.09212
   A17        2.07523  -0.00015  -0.00014  -0.00164  -0.00177   2.07346
   A18        2.08590  -0.00027  -0.00003  -0.00193  -0.00195   2.08395
   A19        2.12205   0.00041   0.00016   0.00356   0.00373   2.12578
   A20        2.07919   0.00007  -0.00008   0.00001  -0.00006   2.07913
   A21        2.12068  -0.00042  -0.00009  -0.00318  -0.00327   2.11741
   A22        2.08332   0.00035   0.00017   0.00316   0.00333   2.08664
   A23        2.14222  -0.00122   0.00023  -0.00365  -0.00351   2.13871
   A24        1.97040   0.00070  -0.00021   0.00185   0.00155   1.97194
   A25        2.17055   0.00052  -0.00002   0.00193   0.00181   2.17236
    D1        0.00010  -0.00000  -0.00000  -0.00002  -0.00002   0.00008
    D2       -3.14149  -0.00000   0.00000  -0.00002  -0.00002  -3.14151
    D3        3.14156  -0.00000   0.00000  -0.00007  -0.00006   3.14150
    D4       -0.00007   0.00000  -0.00000   0.00009   0.00009   0.00002
    D5        0.00026  -0.00000  -0.00000  -0.00011  -0.00012   0.00015
    D6       -3.14136  -0.00000   0.00000  -0.00009  -0.00009  -3.14145
    D7       -0.00295   0.00021  -0.00005   0.01254   0.01245   0.00950
    D8       -3.13875  -0.00021   0.00005  -0.01229  -0.01221   3.13222
    D9       -0.00009   0.00001  -0.00000   0.00042   0.00042   0.00032
   D10       -3.14158   0.00000   0.00000   0.00004   0.00004  -3.14154
   D11        3.14144   0.00001  -0.00000   0.00069   0.00069  -3.14106
   D12       -0.00005   0.00001  -0.00000   0.00032   0.00031   0.00026
   D13        0.00010  -0.00001   0.00000  -0.00046  -0.00046  -0.00036
   D14       -3.14158  -0.00000  -0.00000  -0.00009  -0.00010   3.14151
   D15       -3.14142  -0.00002   0.00000  -0.00075  -0.00074   3.14102
   D16        0.00008  -0.00001   0.00000  -0.00038  -0.00038  -0.00030
   D17        3.13854   0.00020  -0.00005   0.01240   0.01237  -3.13228
   D18        0.00285  -0.00021   0.00006  -0.01287  -0.01283  -0.00998
   D19       -0.00312   0.00021  -0.00005   0.01268   0.01264   0.00952
   D20       -3.13881  -0.00021   0.00005  -0.01260  -0.01256   3.13182
   D21       -0.00003   0.00000   0.00000   0.00008   0.00009   0.00006
   D22       -3.14158  -0.00000   0.00000  -0.00006  -0.00006   3.14155
   D23        3.14157   0.00000  -0.00000   0.00009   0.00008  -3.14153
   D24        0.00001  -0.00000  -0.00000  -0.00006  -0.00006  -0.00005
   D25       -0.00004   0.00000   0.00000   0.00004   0.00004   0.00001
   D26        3.14159   0.00000  -0.00000   0.00002   0.00002  -3.14158
   D27        3.14155   0.00000   0.00001   0.00004   0.00005  -3.14159
   D28       -0.00000   0.00000   0.00000   0.00002   0.00002   0.00001
   D29       -3.14152  -0.00001   0.00000  -0.00032  -0.00032   3.14135
   D30       -0.00003   0.00000   0.00000   0.00007   0.00007   0.00004
   D31        0.00003  -0.00000   0.00000  -0.00015  -0.00015  -0.00012
   D32        3.14152   0.00000  -0.00000   0.00023   0.00023  -3.14143
   D33        3.14157   0.00001  -0.00001   0.00022   0.00021  -3.14140
[...]
 034,-0.1029191,-0.291251,0.0000136,0.0000576,0.000026,-0.3649457,-0.59
 30611,-0.5507301,0.0000109,-0.5906712,-1.2482886,0.0000154,0.0000046,0
 .0000107,-0.3803126,-0.704431,0.665127,0.000015,0.6577633,-1.1606905,0
 .0000045,0.0000404,-0.0000114,-0.3744887,-0.9323913,-0.5169914,-0.0000
 351,-0.5562497,-1.088592,-0.0000488,-0.0000715,-0.0000887,-0.3844001,-
 1.2429307,0.3782096,0.0000471,0.3917621,-1.0143889,-0.0000668,0.000001
 6,-0.0000179,-0.3751322,-0.7783898,-0.0147295,0.0000141,0.0262841,0.16
 39194,-0.0000089,0.000012,-0.0000102,-0.0474814,1.4969082,0.0464267,-0
 .0000416,0.113799,-0.3007934,-0.0000032,-0.0000349,0.0000032,0.0599985
 ,0.284794,0.5333906,-0.0000068,0.7520734,1.1008803,-0.0000213,0.,-0.00
 00218,0.0641366,0.3446001,-0.6858862,-0.0000085,-0.8781897,1.1340103,0
 .00001,-0.0000144,0.0000014,0.0719192,-0.0840149,-0.2249521,-0.0000049
 ,0.1229406,-0.2296096,0.0000014,0.0000119,0.0000132,-0.1634334,0.00552
 94,0.2641395,-0.0000051,-0.13066,-0.1564464,0.0000047,-0.0000029,0.000
 0114,-0.1489324,2.3536953,0.0510667,-0.0000281,0.0533477,1.7396233,0.0
 001263,0.0000171,0.000112,0.3309377,0.1159634,0.0266901,0.0000014,0.00
 45686,-0.000051,-0.0000002,-0.0000006,-0.0000046,0.1628068,0.1101525,-
 0.0182636,0.000003,-0.0205709,0.0476457,0.0000021,0.0000062,-0.0000009
 ,0.159891,0.4449906,0.0650422,0.0000026,0.0851175,0.2760286,-0.000008,
 -0.0000148,-0.0000168,0.3441807,0.2085256,0.0917566,-0.000001,0.061059
 6,0.4181768,-0.0000023,0.0000003,0.0000024,0.3510194,0.3480236,-0.1001
 256,-0.0000033,-0.1173098,0.3225833,-0.0000116,-0.0000278,-0.0000059,0
 .3409314,0.3439706,0.0740969,0.0000064,0.1278544,0.2872438,-0.000007,0
 .0000149,-0.000002,0.3533053\Polar=133.0494982,-1.7354478,111.1025705,
 -0.0014856,0.0003277,53.5701896\Quadrupole=2.8636064,1.0814927,-3.9450
 991,6.7433942,0.0006777,-0.0006631\PG=C01 [X(C7H6O5)]\NImag=0\\0.50005
 520,0.15411574,0.58555789,-0.00000259,0.00002448,0.02622992,0.01186941
 ,0.00586342,-0.00000069,0.40794525,0.00285936,0.00289238,-0.00000034,-
 0.10823520,0.68312806,-0.00000034,-0.00000008,-0.00357775,0.00000183,-
 0.00001205,0.02361777,0.01021665,-0.00752305,-0.00000045,0.00196336,0.
 00000047,0.,0.68301837,-0.00485877,0.00625562,-0.00000021,0.00043765,-
 0.00448968,0.00000006,-0.02025779,0.38929950,-0.00000109,0.00000029,-0
 .00442860,-0.00000011,0.00000010,-0.00025822,0.00003932,0.00001323,0.0
 2698923,-0.00366444,-0.00002558,0.00000013,-0.00205924,-0.00207834,0.0
 0000006,-0.00134529,0.00195570,0.00000001,0.68596723,-0.00308611,0.000
 33199,0.00000013,-0.00049099,-0.00052316,0.00000002,-0.00095573,0.0017
 5104,-0.00000002,0.01178656,0.41672842,-0.00000035,0.00000003,-0.00000
 274,-0.00000013,-0.00000014,-0.00020483,-0.00000012,0.00000018,0.00004
 026,0.00000583,0.00003343,0.03689761,-0.00554006,-0.00031830,0.0000002
 4,-0.00131981,-0.00250256,0.00000001,-0.00240122,0.00213274,-0.0000000
 4,0.03858052,-0.00202119,0.00000005,0.30425364,0.00322341,0.00062445,-
 0.00000012,0.00062967,0.00197325,0.00000005,0.00033143,0.00003905,0.00
 000007,0.01203216,-0.11741821,-0.00000927,-0.32930759,0.66263372,0.000
 00004,0.00000001,0.00002969,-0.00000001,0.,0.00010308,0.00000001,-0.00
 000006,-0.00023910,0.00000092,-0.00001100,0.02988916,-0.00000799,0.000
 02068,0.03489042,-0.01447273,-0.00003617,0.00000061,-0.00289686,0.0005
 2024,0.00000040,-0.00266761,-0.00412483,-0.00000054,-0.02942893,-0.015
 00720,0.00000006,-0.01840942,0.02011031,0.00000220,0.64801507,0.002517
 80,0.00197746,-0.00000033,0.00602627,-0.00480019,-0.00000017,-0.007378
 24,-0.00325277,0.00000036,-0.04318648,-0.00520325,-0.00000120,0.037072
 73,-0.00357915,-0.00000097,0.00182308,0.73215616,0.00000003,-0.0000000
 7,-0.00106587,0.00000051,0.00000003,0.00825562,0.00000028,0.00000050,0
 .00469587,-0.00000418,-0.00000223,0.01279530,0.00000075,-0.00000042,0.
 02158447,-0.00001346,0.00000161,0.12538310,-0.32028031,-0.01403265,0.0
 0000666,0.00282490,-0.03360406,0.00000024,-0.00204777,0.03543117,0.000
 00118,0.00296003,0.00275806,0.00000031,0.00449668,-0.00362528,0.000000
 01,0.00447086,-0.00059828,0.00000046,0.73560971,0.03466104,-0.11193809
 ,-0.00000330,0.00853562,-0.06780215,-0.00000035,-0.00140411,-0.0517196
 1,0.00000045,-0.00141445,-0.00034365,-0.00000012,0.00128431,0.00073151
 ,-0.00000012,-0.00357252,-0.07475283,0.00000020,0.00755124,0.75551537,
 0.00000937,-0.00000142,-0.03870898,0.00000010,0.00000090,0.00878299,0.
 00000026,-0.00000085,0.00876023,-0.00000015,-0.00000016,-0.00009309,-0
 .00000028,0.00000015,-0.00003532,-0.00000025,0.00000068,0.00359957,-0.
 00001670,-0.00000080,0.12778052,-0.04973750,0.03465373,0.00000142,-0.1
 7828674,-0.11628664,0.00000289,-0.00389919,-0.01273814,0.00000065,-0.0
 0157009,-0.00108659,-0.00000008,0.00051773,0.00293207,-0.00000015,-0.0
 3712165,-0.08082667,0.00000080,-0.16564312,0.03964699,0.00000354,0.748
 92370,-0.00340143,-0.00073535,0.00000045,-0.07058701,-0.24108182,0.000
 00347,-0.00570768,0.00960488,0.00000041,0.00105455,0.00246970,0.000000
 32,0.00437652,-0.00162278,-0.00000005,-0.02130134,0.04229413,0.0000012
 2,0.14445427,-0.26044520,-0.00000358,-0.00683504,0.70077063,0.00000151
 ,-0.00000115,0.00694424,0.00000191,0.00000323,-0.03970820,0.00000030,0
 .00000015,0.00762696,0.00000032,0.00000014,-0.00030748,0.,-0.00000023,
 -0.00034949,0.00000119,0.00000245,-0.00114477,0.00000264,-0.00000052,-
 0.06044437,-0.00001649,-0.00000174,0.13559311,-0.05650926,-0.04373754,
 0.00000169,-0.00489145,0.01219856,0.00000028,-0.16391855,0.06775387,-0
 .00000280,0.00158730,-0.00083925,0.00000005,-0.00218101,0.00152707,0.0
 0000004,-0.03236879,0.08131547,0.00000044,-0.15896545,-0.03879938,0.00
 000253,0.07709547,-0.02965172,-0.00000244,0.76839291,-0.00364403,-0.00
 358635,0.00000077,0.00605536,0.00829220,0.00000005,0.12172453,-0.27776
 580,-0.00000270,-0.00295806,-0.00163829,-0.00000022,-0.00200335,0.0015
 8498,0.00000009,0.02553461,0.04303488,-0.00000136,-0.13909031,-0.26749
 436,0.00000490,0.03122953,-0.06399973,-0.00000032,-0.00923385,0.706939
 26,0.00000184,0.00000120,0.00832420,0.00000043,-0.00000031,0.00500736,
 0.00000046,-0.00000575,-0.04038962,0.00000007,0.00000024,-0.00039095,0
 .00000011,-0.00000001,-0.00119063,0.00000093,-0.00000297,-0.00162712,0
 .00000321,0.00000257,-0.06035260,-0.00000303,0.00000101,-0.00468797,-0
 .00001263,-0.00000232,0.13899127,0.00656364,-0.00144177,0.00000019,-0.
 02782292,-0.00884913,0.00000087,-0.00126335,0.00838629,0.00000015,-0.0
 0521258,0.00150425,0.00000008,-0.00091292,-0.00670227,0.00000008,-0.15
 936574,-0.05874906,0.00000453,-0.02818627,0.08165237,0.00000035,-0.348
 53881,-0.03078446,0.00000860,-0.05112070,-0.03608143,0.00000179,0.7208
 6020,0.00203785,-0.00694728,0.00000029,-0.04997521,-0.00314722,0.00000
 141,0.00524598,-0.00259992,-0.00000051,0.00520634,0.00280320,0.0000004
 1,0.00370663,-0.00567827,0.00000009,-0.11902776,-0.29132812,0.00000341
 ,0.02728225,0.04263466,-0.00000132,0.05510453,-0.13688895,-0.00000163,
 -0.03993141,-0.01882004,0.00000148,-0.02742183,0.72830721,0.00000037,0
 .00000009,0.00613717,0.00000068,-0.00000005,0.00548858,-0.00000013,-0.
 00000017,-0.00153800,0.00000012,-0.00000004,0.00135455,0.00000026,-0.0
 0000002,0.00001098,0.00000432,0.00000122,-0.05184621,0.00000044,-0.000
 00224,-0.00011786,0.00000947,0.00000080,-0.05296030,0.00000181,0.00000
 123,0.00200668,-0.00001937,0.00000188,0.11208870,0.01197539,0.00100863
 ,-0.00000064,-0.00207626,-0.00873562,-0.00000020,-0.02332748,0.0095908
 5,0.00000092,-0.00588786,0.00193824,-0.00000007,-0.00470320,-0.0013260
 7,0.00000003,-0.16905688,0.06263807,0.00000355,-0.02871472,-0.07612746
 ,0.00000153,-0.04906821,0.03170829,0.00000172,-0.33803434,0.02297848,0
 .00000740,0.05652554,0.02669143,-0.00000194,0.69744279,-0.00298553,-0.
 00815775,-0.00000011,-0.00332551,-0.00053380,0.00000003,0.04695690,0.0
 0545654,-0.00000041,-0.00141602,-0.00363430,-0.00000031,-0.00718937,0.
 00373451,0.00000007,0.12148884,-0.29885686,-0.00000197,-0.02629086,0.0
 4282381,0.00000036,0.03738376,-0.01899703,-0.00000119,-0.05653817,-0.1
 3319709,0.00000273,-0.02323375,-0.05829812,0.00000108,0.02810313,0.747
 97868,0.00000012,0.00000015,0.00482008,0.00000007,0.00000028,-0.001872
 83,0.00000076,-0.00000008,0.00581441,-0.00000034,0.00000006,0.00008404
 ,0.00000021,0.00000002,0.00254418,0.00000299,-0.00000029,-0.04899059,0
 .00000084,0.00000208,-0.00174149,0.00000112,-0.00000091,0.00240763,0.0
 0000794,0.00000030,-0.05570351,-0.00000139,-0.00000040,0.00313120,-0.0
 0001699,-0.00000578,0.11610512,0.01417028,0.00043757,-0.00000055,0.002
 13590,0.00539338,0.00000002,0.00252950,-0.00440025,0.00000008,-0.16874
 654,-0.04769557,-0.00000679,-0.31360627,0.29219546,0.00000445,-0.21306
 571,0.00129271,0.00000769,-0.01257731,0.00184915,0.00000052,0.00759870
 ,-0.01158585,-0.00000042,0.00487653,0.00915223,-0.00000033,-0.02935706
 ,-0.01545473,0.00000034,-0.01968223,0.01383857,0.00000088,0.75566181,0
 .00019137,-0.00039501,-0.00000005,-0.00241375,-0.00221191,-0.00000006,
 0.00228079,-0.00146433,0.00000003,-0.07886809,-0.23731649,-0.00001881,
 0.28615400,-0.54641814,-0.00000959,-0.00969043,-0.09569913,0.00000039,
 0.00060715,-0.00516993,0.00000008,-0.00605777,-0.00396202,0.00000047,0
 .00411102,-0.00369370,-0.00000036,-0.02632549,0.00843860,0.00000114,0.
 02792715,0.00745761,-0.00000105,-0.18780309,0.87728275,-0.00000012,-0.
 00000005,-0.00022441,0.00000011,0.,0.00084539,0.00000010,-0.00000002,0
 .00050283,-0.00000903,-0.00001602,-0.06696283,0.00000573,-0.00001127,-
 0.08132601,0.00000184,0.00000018,-0.07749459,-0.00000008,-0.00000004,-
 0.00176319,0.00000003,0.00000009,0.00563221,0.00000012,-0.00000008,0.0
 0779838,0.00000089,-0.00000018,0.00099376,0.00000015,0.00000033,-0.001
 82207,0.00000103,0.00002797,0.21669899,-0.00122855,0.00131104,-0.00000
 002,0.00320203,0.00036014,-0.00000025,0.00044702,-0.00014571,-0.000000
 03,0.00052422,0.00169086,0.00000019,-0.00223963,0.00081933,-0.00000001
 ,0.01306042,-0.01070378,-0.00000051,-0.00423998,-0.00157724,0.00000034
 ,-0.00996422,0.02634034,0.00000052,-0.00174413,-0.00085373,0.00000002,
 -0.13365271,0.12655693,0.00000361,-0.00095350,-0.00374433,0.00000023,0
 .00059216,-0.00277888,-0.00000026,0.13712460,-0.00011215,0.00041433,0.
 ,0.00040445,0.00229448,-0.00000003,0.00001297,0.00030221,0.00000003,-0
 .00007623,0.00080816,0.00000007,0.00001716,0.00205874,-0.00000002,0.01
 615697,-0.01873018,-0.00000052,-0.00119287,0.00070884,0.,-0.00409866,0
 .00306123,0.00000015,-0.00046377,0.00009602,0.,0.12483947,-0.26014262,
 -0.00000492,-0.00448399,-0.00264121,0.00000013,0.00226826,-0.00276920,
 -0.00000013,-0.13526322,0.27558493,0.00000003,0.,-0.00006114,-0.000000
 21,-0.00000009,-0.00425937,0.00000003,-0.00000003,0.00000333,-0.000000
 14,-0.00000015,0.00013114,0.00000005,0.00000005,-0.00051197,-0.0000007
 2,0.00000011,0.00191144,0.00000030,-0.00000013,0.00585150,0.00000034,-
 0.00000065,0.00333628,0.,0.00000006,-0.00152676,0.00000380,-0.00000483
 ,-0.03056001,0.00000021,0.00000024,0.00528431,0.00000022,0.00000003,-0
 .00391957,-0.00000404,0.00000528,0.02262448,-0.00081981,-0.00163535,-0
 .00000006,0.00035982,-0.00005054,-0.00000002,0.00272968,0.00019170,-0.
 00000015,-0.00420988,0.00025940,-0.00000028,0.00018540,-0.00098814,-0.
 00000007,0.01255422,0.01255200,-0.00000045,-0.00439234,0.00147186,0.00
 000018,-0.00170310,0.00104270,0.00000007,-0.00907029,-0.02837534,0.000
 00074,-0.00094254,0.00384314,0.00000014,-0.12612512,-0.12431139,0.0000
 0378,0.00173877,0.00142727,0.00000009,0.00062309,0.00084607,0.,0.12948
 623,0.00015697,0.00038500,0.,0.00004423,0.00038222,0.,-0.00067095,-0.0
 0004058,-0.00000004,-0.00027352,0.00093491,0.00000008,0.00010790,0.000
 86578,0.00000005,-0.01446996,-0.01695870,0.00000039,0.00085603,0.00009
 383,0.00000002,0.00008024,0.00029775,-0.00000001,0.00244489,0.00427745
 ,-0.00000013,0.00419210,-0.00206925,-0.00000006,-0.12417679,-0.2770815
 0,0.00000559,-0.00164326,-0.00213465,-0.00000016,-0.00075517,-0.000857
 00,0.00000004,0.13379386,0.29116681,0.00000004,0.00000005,-0.00011193,
 -0.00000001,-0.00000002,-0.00038630,-0.00000011,0.,-0.00367859,-0.0000
 0025,0.,0.00031275,0.00000005,-0.00000013,0.00065632,-0.00000026,0.000
 00016,0.00058067,0.00000023,0.00000002,0.00601702,0.00000009,-0.000000
 06,-0.00124806,0.00000046,0.00000067,0.00481416,0.00000009,-0.00000011
 ,0.00616658,0.00000364,0.00000520,-0.03260960,0.00000002,0.,-0.0041558
 0,0.00000005,-0.00000001,0.00091483,-0.00000403,-0.00000577,0.02367315
 ,-0.10196164,-0.13068196,-0.00000598,0.00043125,-0.00026637,-0.0000000
 3,0.00092308,0.00186589,-0.00000019,0.00043255,0.00035791,0.00000003,0
 .00050861,-0.00010603,0.,0.00067454,0.00022585,-0.00000006,-0.02519913
 ,-0.04511432,-0.00000162,-0.00267195,-0.00270308,-0.00000004,-0.006919
 74,0.00276698,0.00000017,0.00003193,-0.00090982,0.00000009,0.00004030,
 -0.00182245,0.00000013,-0.00111361,-0.00009928,-0.00000001,0.00015066,
 0.00008033,0.,-0.00042365,0.00010823,0.00000001,0.13395336,-0.17906845
 ,-0.46914199,-0.00002227,-0.00222973,-0.00177045,0.00000005,-0.0008534
 4,0.00047932,0.00000003,0.00030224,0.00023614,0.00000001,0.00063663,-0
 .00050001,0.,0.00167536,-0.00028928,0.00000003,-0.00478858,0.00321100,
 0.00000046,0.00729752,0.00552139,-0.00000008,0.00487091,0.00064658,-0.
 00000014,-0.00114405,-0.00133985,-0.00000004,-0.00154687,0.00031469,-0
 .00000006,-0.00162101,0.00008078,0.00000003,0.00034675,0.00003128,-0.0
 0000002,0.00015890,0.00007972,0.,0.17730344,0.46275598,-0.00000940,-0.
 00002338,-0.00348127,0.00000023,0.00000022,-0.00134597,0.00000032,-0.0
 0000001,0.00052098,-0.00000002,-0.00000004,-0.00001387,-0.00000005,0.0
 0000003,-0.00003115,-0.00000026,0.00000008,-0.00038151,0.00000128,0.00
 000155,-0.00175773,-0.00000018,-0.00000018,0.00237954,0.00000034,0.000
 00007,0.00037521,0.00000009,-0.00000013,-0.00064238,0.00000035,0.00000
 020,0.00142855,0.00000016,0.00000001,0.00010711,0.00000002,0.,0.000121
 48,0.00000005,-0.00000001,-0.00017851,0.00000727,0.00002211,0.00476651
 ,0.00058702,0.00160093,0.,-0.21125503,0.26010010,-0.00000577,-0.000450
 59,-0.00002376,0.00000003,0.00015054,0.00035116,0.00000003,0.00012970,
 0.00044254,-0.00000001,-0.00069792,-0.00071214,-0.00000004,-0.00486983
 ,-0.00521303,0.00000024,0.01584136,-0.02709976,0.00000047,0.00212461,-
 0.00003074,-0.00000012,0.00225899,-0.00256610,-0.00000008,-0.00096233,
 0.00043686,0.00000006,-0.00003827,-0.00074864,-0.00000003,-0.00156213,
 0.00115205,0.00000009,-0.00008532,0.00012436,0.,0.00147091,-0.00119398
 ,0.,0.19740613,-0.00144787,0.00129613,0.00000008,0.20962893,-0.3734022
 4,0.00000758,-0.00063847,0.00022230,0.00000004,0.00058577,0.00021312,0
 .00000003,0.00069408,-0.00033627,0.,0.00077191,-0.00076451,-0.00000017
 ,-0.00409240,-0.00220744,0.00000017,0.01992827,-0.03615023,0.00000049,
 0.00182918,-0.00129196,-0.00000010,0.00124794,0.00483282,-0.00000005,0
 .00003776,0.00074507,-0.00000001,-0.00124948,0.00042451,0.,-0.00141902
 ,-0.00013886,0.00000013,-0.00007376,0.00001093,0.00000001,0.00081310,-
 0.00068891,-0.00000002,-0.22656348,0.40735584,0.00000001,-0.00000006,0
 .00004587,-0.00000472,0.00000825,-0.00028617,0.00000002,-0.00000002,-0
 .00048026,-0.00000003,-0.00000003,0.00000260,0.,-0.00000004,-0.0001302
 0,-0.00000006,0.00000010,-0.00147012,0.00000006,0.00000019,0.00139183,
 -0.00000048,0.,-0.00194305,-0.00000007,-0.00000019,0.00135715,-0.00000
 013,-0.00000004,-0.00004032,0.00000017,-0.00000001,0.00035408,0.,0.000
 00007,0.00007742,0.00000012,0.,0.00052972,0.,-0.00000001,0.00008872,-0
 .00000004,-0.00000004,-0.00080701,0.00000516,-0.00000817,0.00112037,-0
 .00183012,0.00040732,0.00000007,-0.00023175,-0.00117146,0.,-0.50072710
 ,-0.08092126,-0.00003738,0.00024469,0.00009037,0.,0.00026509,-0.000093
 31,-0.00000001,-0.00103541,-0.00042553,0.00000004,0.00523731,-0.003573
 73,0.00000006,-0.00197563,0.00154217,0.00000016,-0.02827701,0.00238272
 ,-0.00000111,0.00086532,-0.00059211,-0.00000002,0.00180840,0.00270358,
 -0.00000036,-0.00049560,0.00016547,0.00000005,-0.00005564,0.00002329,0
 .00000001,0.00012787,-0.00003157,-0.00000004,-0.00025507,-0.00008054,-
 0.00000017,-0.00001250,0.00000999,-0.00000001,0.52640836,-0.00153251,0
 .00110619,0.00000054,-0.00031996,0.00065024,-0.00000001,-0.13135843,-0
 .07177424,-0.00001136,-0.00030954,-0.00028223,-0.00000001,-0.00020892,
 0.00012215,0.00000002,0.00021611,0.00117280,-0.00000027,0.00854906,-0.
 00370372,0.00000041,-0.00018324,0.00050151,-0.00000021,0.04318846,0.00
 592453,0.00000287,0.00016342,-0.00019365,0.00000010,0.00291613,-0.0067
 5121,-0.00000003,0.00107958,-0.00025006,-0.00000003,-0.00010342,-0.000
 01537,0.,0.00006841,0.00002728,0.00000004,-0.00178703,0.00040803,-0.00
 000050,-0.00002416,-0.00011014,0.00000002,0.07959674,0.07313620,0.0000
 0043,-0.00000010,-0.00077407,0.00000008,-0.00000006,-0.00001508,-0.000
 04105,-0.00000690,-0.00390537,0.00000002,0.00000002,0.00001344,0.00000
 005,-0.00000004,-0.00011883,0.00000053,-0.00000010,0.00145242,-0.00000
 100,0.00000041,0.00260548,-0.00000010,-0.00000032,-0.00118672,0.000002
 36,-0.00000098,-0.00272074,-0.00000019,0.00000021,0.00021773,0.,-0.000
 00049,0.00084763,-0.00000009,-0.00000001,0.00018733,0.00000001,-0.0000
 0002,-0.00010377,-0.00000002,0.00000002,-0.00056885,0.00000026,-0.0000
 0006,-0.00106375,-0.00000002,-0.00000001,0.00013693,0.00003872,0.00000
 842,0.00495372,0.00060684,0.00003398,-0.00000001,0.00010814,0.00034770
 ,0.00000003,0.00022050,-0.00027536,0.,-0.50832222,0.05044583,0.0000012
 1,0.00237616,0.00790522,0.00000046,0.00181254,-0.00288380,-0.00000038,
 -0.00048327,0.00014365,-0.00000002,0.00020325,-0.00086147,0.,-0.000076
 10,0.00044641,0.00000006,-0.00073000,0.00020390,-0.00000012,0.00079972
 ,-0.00005425,-0.00000006,-0.03062104,-0.00807880,-0.00000059,-0.000083
 71,-0.00011014,0.,-0.00003303,0.00011242,0.00000003,-0.00007240,-0.000
 06510,0.,-0.00003536,-0.00006244,0.,-0.00006120,0.00004929,0.,0.534391
 18,0.00037330,0.00006039,-0.00000001,-0.00004822,0.00014982,0.00000002
 ,0.00019482,-0.00030354,0.,0.09768298,-0.05991710,-0.00000449,0.007368
 59,0.00118468,0.00000082,-0.00106723,-0.00642045,-0.00000078,-0.000173
 93,-0.00014204,0.,-0.00014390,-0.00063809,0.,-0.00004432,0.00069140,0.
 ,-0.00125261,0.00043680,0.00000005,0.00085863,-0.00036204,0.00000001,-
 0.05605365,0.00780032,-0.00000062,-0.00008090,-0.00006579,-0.00000004,
 -0.00022079,0.00062002,-0.00000004,-0.00003140,-0.00003444,0.,-0.00003
 222,-0.00001019,0.,-0.00003213,0.00003169,0.,-0.04729704,0.05691855,0.
 00000011,0.,-0.00009441,-0.00000003,0.00000005,-0.00018608,0.,-0.00000
 001,-0.00003635,0.00000666,-0.00000435,-0.01354507,0.00000086,0.000000
 50,-0.00577559,0.00000049,-0.00000091,0.00376231,-0.00000009,0.0000001
 4,0.00022550,0.00000016,-0.00000027,0.00006046,-0.00000012,0.00000002,
 -0.00008453,-0.00000043,-0.00000002,0.00010916,0.00000018,0.00000003,-
 0.00008114,-0.00000724,-0.00000024,0.00482506,0.,-0.00000001,0.0002341
 1,0.00000004,0.,-0.00028655,0.,0.,0.00000377,0.,0.,0.00005242,0.,0.,0.
 00004251,-0.00000061,0.00000505,0.01077442\\-0.00005828,-0.00003009,-0
 .00000032,-0.00003141,-0.00004151,0.00000033,-0.00001724,-0.00003212,-
 0.00000111,0.00002452,-0.00000272,-0.00000627,-0.00007917,0.00013447,-
 0.00000700,0.00003899,0.00013874,-0.00000583,0.00010046,0.00009350,-0.
 00000068,0.00010292,0.00002782,-0.00000016,-0.00011203,-0.00007898,0.0
 0000120,-0.00007889,-0.00010445,-0.00000042,0.00004166,-0.00007797,0.0
 0000018,0.00002392,-0.00010039,0.00001883,0.00003049,0.00000339,0.0000
 0004,0.00000182,0.00001244,-0.00000004,0.00002328,0.00003039,0.0000003
 3,-0.00000791,0.00003564,-0.00000012,0.00003290,0.00000707,0.00000079,
 -0.00003603,-0.00001524,0.00000024\\\@


 IN THE FIGHT BETWEEN YOU AND THE WORLD, BACK THE WORLD

                                        -- FRANZ KAFKA
 Job cpu time:       0 days  1 hours 39 minutes  7.6 seconds.
 Elapsed time:       0 days  0 hours  6 minutes 13.4 seconds.
 File lengths (MBytes):  RWF=    169 Int=      0 D2E=      0 Chk=      9 Scr=      1
 Normal termination of Gaussian 16 at Tue Oct  7 00:41:13 2025.
