 Entering Gaussian System, Link 0=g16
 Input=GCEL0118.gjf
 Output=GCEL0118.log
 Initial command:
 /usr/local/g16/l1.exe "/dados_01/scratch/Gau-2096308.inp" -scrdir="/dados_01/scratch/"
 Entering Link 1 = /usr/local/g16/l1.exe PID=   2096309.
  
 Copyright (c) 1988-2017, Gaussian, Inc.  All Rights Reserved.
  
 This is part of the Gaussian(R) 16 program.  It is based on
 the Gaussian(R) 09 system (copyright 2009, Gaussian, Inc.),
 the Gaussian(R) 03 system (copyright 2003, Gaussian, Inc.),
 the Gaussian(R) 98 system (copyright 1998, Gaussian, Inc.),
 the Gaussian(R) 94 system (copyright 1995, Gaussian, Inc.),
 the Gaussian 92(TM) system (copyright 1992, Gaussian, Inc.),
 the Gaussian 90(TM) system (copyright 1990, Gaussian, Inc.),
 the Gaussian 88(TM) system (copyright 1988, Gaussian, Inc.),
 the Gaussian 86(TM) system (copyright 1986, Carnegie Mellon
 University), and the Gaussian 82(TM) system (copyright 1983,
 Carnegie Mellon University). Gaussian is a federally registered
 trademark of Gaussian, Inc.
  
 This software contains proprietary and confidential information,
 including trade secrets, belonging to Gaussian, Inc.
  
 This software is provided under written license and may be
 used, copied, transmitted, or stored only in accord with that
 written license.
  
 The following legend is applicable only to US Government
 contracts under FAR:
  
                    RESTRICTED RIGHTS LEGEND
  
 Use, reproduction and disclosure by the US Government is
 subject to restrictions as set forth in subparagraphs (a)
 and (c) of the Commercial Computer Software - Restricted
 Rights clause in FAR 52.227-19.
  
 Gaussian, Inc.
 340 Quinnipiac St., Bldg. 40, Wallingford CT 06492
  
  
 ---------------------------------------------------------------
 Warning -- This program may not be used in any manner that
 competes with the business of Gaussian, Inc. or will provide
 assistance to any competitor of Gaussian, Inc.  The licensee
 of this program is prohibited from giving any competitor of
 Gaussian, Inc. access to this program.  By using this program,
 the user acknowledges that Gaussian, Inc. is engaged in the
 business of creating and licensing software in the field of
 computational chemistry and represents and warrants to the
 licensee that it is not a competitor of Gaussian, Inc. and that
 it will not use this program in any manner prohibited above.
 ---------------------------------------------------------------
  

 Cite this work as:
 Gaussian 16, Revision B.01,
 M. J. Frisch, G. W. Trucks, H. B. Schlegel, G. E. Scuseria, 
 M. A. Robb, J. R. Cheeseman, G. Scalmani, V. Barone, 
 G. A. Petersson, H. Nakatsuji, X. Li, M. Caricato, A. V. Marenich, 
 J. Bloino, B. G. Janesko, R. Gomperts, B. Mennucci, H. P. Hratchian, 
 J. V. Ortiz, A. F. Izmaylov, J. L. Sonnenberg, D. Williams-Young, 
 F. Ding, F. Lipparini, F. Egidi, J. Goings, B. Peng, A. Petrone, 
 T. Henderson, D. Ranasinghe, V. G. Zakrzewski, J. Gao, N. Rega, 
 G. Zheng, W. Liang, M. Hada, M. Ehara, K. Toyota, R. Fukuda, 
 J. Hasegawa, M. Ishida, T. Nakajima, Y. Honda, O. Kitao, H. Nakai, 
 T. Vreven, K. Throssell, J. A. Montgomery, Jr., J. E. Peralta, 
 F. Ogliaro, M. J. Bearpark, J. J. Heyd, E. N. Brothers, K. N. Kudin, 
 V. N. Staroverov, T. A. Keith, R. Kobayashi, J. Normand, 
 K. Raghavachari, A. P. Rendell, J. C. Burant, S. S. Iyengar, 
 J. Tomasi, M. Cossi, J. M. Millam, M. Klene, C. Adamo, R. Cammi, 
 J. W. Ochterski, R. L. Martin, K. Morokuma, O. Farkas, 
 J. B. Foresman, and D. J. Fox, Gaussian, Inc., Wallingford CT, 2016.
 
 ******************************************
 Gaussian 16:  ES64L-G16RevB.01 20-Dec-2017
                20-Sep-2025 
 ******************************************
 %nprocs=16
 Will use up to   16 processors via shared memory.
 %mem=40GB
 %chk=GCEL0118.chk
 ----------------------------------------------------------------------
 # opt freq=noraman M08HX/6-311++G** scf=xqc Empiricaldispersion=pfd In
 t(Grid=ultraFine)
 ----------------------------------------------------------------------
 1/18=20,19=15,26=4,38=1/1,3;
 2/9=110,12=2,17=6,18=5,40=1/2;
 3/5=4,6=6,7=1111,11=2,25=1,30=1,71=1,74=-74,75=-5,124=11/1,2,3;
 4//1;
 5/5=2,8=3,13=1,38=5/2,8;
 6/7=2,8=2,9=2,10=2,28=1/1;
 7//1,2,3,16;
 1/18=20,19=15,26=4/3(2);
 2/9=110/2;
 99//99;
 2/9=110/2;
 3/5=4,6=6,7=1111,11=2,25=1,30=1,71=1,74=-74,75=-5,124=11/1,2,3;
 4/5=5,16=3,69=1/1;
 5/5=2,8=3,13=1,38=5/2,8;
 7//1,2,3,16;
 1/18=20,19=15,26=4/3(-5);
 2/9=110/2;
 6/7=2,8=2,9=2,10=2,19=2,28=1/1;
 99/9=1/99;
 --------
 GCEL0118
 --------
 Symbolic Z-matrix:
 Charge =  0 Multiplicity = 1
 O                     0.0235   -1.3493    0.2499 
 O                     2.3988   -0.0044   -0.2369 
 O                    -2.4131   -0.0097   -0.2384 
 C                     0.0001   -0.0124   -0.2555 
 C                     1.2544    0.698     0.2362 
 C                    -1.2637    0.6778    0.2447 
 H                    -0.0033   -0.0966   -1.3473 
 H                     1.3076    0.7187    1.3298 
 H                     1.3018    1.7246   -0.1387 
 H                    -1.307     1.7136   -0.1066 
 H                    -1.31      0.667     1.3389 
 H                     0.0214   -1.3033    1.2213 
 H                     2.3408   -0.9155    0.0984 
 H                    -3.1917    0.4634    0.1016 
 

 GradGradGradGradGradGradGradGradGradGradGradGradGradGradGradGradGradGrad
 Berny optimization.
 Initialization pass.
                           ----------------------------
                           !    Initial Parameters    !
                           ! (Angstroms and Degrees)  !
 --------------------------                            --------------------------
 ! Name  Definition              Value          Derivative Info.                !
 --------------------------------------------------------------------------------
 ! R1    R(1,4)                  1.4294         estimate D2E/DX2                !
 ! R2    R(1,12)                 0.9725         estimate D2E/DX2                !
 ! R3    R(2,5)                  1.4237         estimate D2E/DX2                !
 ! R4    R(2,13)                 0.9726         estimate D2E/DX2                !
 ! R5    R(3,6)                  1.4238         estimate D2E/DX2                !
 ! R6    R(3,14)                 0.9724         estimate D2E/DX2                !
 ! R7    R(4,5)                  1.5231         estimate D2E/DX2                !
 ! R8    R(4,6)                  1.5244         estimate D2E/DX2                !
 ! R9    R(4,7)                  1.095          estimate D2E/DX2                !
 ! R10   R(5,8)                  1.0951         estimate D2E/DX2                !
 ! R11   R(5,9)                  1.0939         estimate D2E/DX2                !
 ! R12   R(6,10)                 1.0946         estimate D2E/DX2                !
 ! R13   R(6,11)                 1.0952         estimate D2E/DX2                !
 ! A1    A(4,1,12)             107.9927         estimate D2E/DX2                !
 ! A2    A(5,2,13)             107.4387         estimate D2E/DX2                !
 ! A3    A(6,3,14)             107.0264         estimate D2E/DX2                !
 ! A4    A(1,4,5)              107.9755         estimate D2E/DX2                !
 ! A5    A(1,4,6)              108.7244         estimate D2E/DX2                !
 ! A6    A(1,4,7)              106.2993         estimate D2E/DX2                !
 ! A7    A(5,4,6)              111.4469         estimate D2E/DX2                !
 ! A8    A(5,4,7)              111.1187         estimate D2E/DX2                !
 ! A9    A(6,4,7)              111.0632         estimate D2E/DX2                !
 ! A10   A(2,5,4)              108.9405         estimate D2E/DX2                !
 ! A11   A(2,5,8)              107.5858         estimate D2E/DX2                !
 ! A12   A(2,5,9)              108.3178         estimate D2E/DX2                !
 ! A13   A(4,5,8)              111.7911         estimate D2E/DX2                !
 ! A14   A(4,5,9)              111.27           estimate D2E/DX2                !
 ! A15   A(8,5,9)              108.8079         estimate D2E/DX2                !
 ! A16   A(3,6,4)              109.8352         estimate D2E/DX2                !
 ! A17   A(3,6,10)             108.427          estimate D2E/DX2                !
 ! A18   A(3,6,11)             107.4635         estimate D2E/DX2                !
 ! A19   A(4,6,10)             110.8506         estimate D2E/DX2                !
 ! A20   A(4,6,11)             111.0022         estimate D2E/DX2                !
 ! A21   A(10,6,11)            109.1652         estimate D2E/DX2                !
 ! D1    D(12,1,4,5)            61.0366         estimate D2E/DX2                !
 ! D2    D(12,1,4,6)           -60.0182         estimate D2E/DX2                !
 ! D3    D(12,1,4,7)          -179.6542         estimate D2E/DX2                !
 ! D4    D(13,2,5,4)           -58.4596         estimate D2E/DX2                !
 ! D5    D(13,2,5,8)            62.9048         estimate D2E/DX2                !
 ! D6    D(13,2,5,9)          -179.6317         estimate D2E/DX2                !
 ! D7    D(14,3,6,4)          -179.884          estimate D2E/DX2                !
 ! D8    D(14,3,6,10)          -58.618          estimate D2E/DX2                !
 ! D9    D(14,3,6,11)           59.2588         estimate D2E/DX2                !
 ! D10   D(1,4,5,2)             59.4524         estimate D2E/DX2                !
 ! D11   D(1,4,5,8)            -59.3118         estimate D2E/DX2                !
 ! D12   D(1,4,5,9)            178.8031         estimate D2E/DX2                !
 ! D13   D(6,4,5,2)            178.7965         estimate D2E/DX2                !
 ! D14   D(6,4,5,8)             60.0323         estimate D2E/DX2                !
 ! D15   D(6,4,5,9)            -61.8527         estimate D2E/DX2                !
 ! D16   D(7,4,5,2)            -56.7547         estimate D2E/DX2                !
 ! D17   D(7,4,5,8)           -175.5189         estimate D2E/DX2                !
 ! D18   D(7,4,5,9)             62.5961         estimate D2E/DX2                !
 ! D19   D(1,4,6,3)            -61.3345         estimate D2E/DX2                !
 ! D20   D(1,4,6,10)           178.8659         estimate D2E/DX2                !
 ! D21   D(1,4,6,11)            57.3646         estimate D2E/DX2                !
 ! D22   D(5,4,6,3)            179.7673         estimate D2E/DX2                !
 ! D23   D(5,4,6,10)            59.9677         estimate D2E/DX2                !
 ! D24   D(5,4,6,11)           -61.5336         estimate D2E/DX2                !
 ! D25   D(7,4,6,3)             55.2873         estimate D2E/DX2                !
 ! D26   D(7,4,6,10)           -64.5122         estimate D2E/DX2                !
 ! D27   D(7,4,6,11)           173.9864         estimate D2E/DX2                !
 --------------------------------------------------------------------------------
 Trust Radius=3.00D-01 FncErr=1.00D-07 GrdErr=1.00D-06 EigMax=2.50D+02 EigMin=1.00D-04
 Number of steps in this run=     71 maximum allowed number of steps=    100.
 GradGradGradGradGradGradGradGradGradGradGradGradGradGradGradGradGradGrad

                          Input orientation:                          
 ---------------------------------------------------------------------
 Center     Atomic      Atomic             Coordinates (Angstroms)
 Number     Number       Type             X           Y           Z
 ---------------------------------------------------------------------
      1          8           0        0.023500   -1.349300    0.249900
      2          8           0        2.398800   -0.004400   -0.236900
      3          8           0       -2.413100   -0.009700   -0.238400
      4          6           0        0.000100   -0.012400   -0.255500
      5          6           0        1.254400    0.698000    0.236200
      6          6           0       -1.263700    0.677800    0.244700
      7          1           0       -0.003300   -0.096600   -1.347300
      8          1           0        1.307600    0.718700    1.329800
      9          1           0        1.301800    1.724600   -0.138700
     10          1           0       -1.307000    1.713600   -0.106600
     11          1           0       -1.310000    0.667000    1.338900
     12          1           0        0.021400   -1.303300    1.221300
     13          1           0        2.340800   -0.915500    0.098400
     14          1           0       -3.191700    0.463400    0.101600
 ---------------------------------------------------------------------
                    Distance matrix (angstroms):
                    1          2          3          4          5
     1  O    0.000000
     2  O    2.772685   0.000000
     3  O    2.823116   4.811903   0.000000
     4  C    1.429433   2.398785   2.413262   0.000000
     5  C    2.388878   1.423672   3.765188   1.523058   0.000000
     6  C    2.401259   3.756493   1.423784   1.524391   2.518195
     7  H    2.030030   2.647938   2.654119   1.095047   2.172710
     8  H    2.663029   2.041602   4.102856   2.181110   1.095089
     9  H    3.351704   2.049998   4.101002   2.173760   1.093940
    10  H    3.358374   4.086741   2.051973   2.170198   2.776639
    11  H    2.651341   4.085232   2.040252   2.172569   2.791604
    12  H    0.972491   3.076608   3.119442   1.961585   2.548708
    13  H    2.362417   0.972570   4.851131   2.533715   1.950035
    14  H    3.693966   5.620241   0.972441   3.246767   4.454319
                    6          7          8          9         10
     6  C    0.000000
     7  H    2.173193   0.000000
     8  H    2.791182   3.090313   0.000000
     9  H    2.797244   2.545736   1.779989   0.000000
    10  H    1.094609   2.552605   3.144711   2.609021   0.000000
    11  H    1.095232   3.083216   2.618126   3.181716   1.784615
    12  H    2.555384   2.838035   2.398868   3.557696   3.553822
    13  H    3.943657   2.873230   2.292260   2.847080   4.501182
    14  H    1.945155   3.546661   4.670905   4.673319   2.271220
                   11         12         13         14
    11  H    0.000000
    12  H    2.380869   0.000000
    13  H    4.167912   2.605937   0.000000
    14  H    2.261230   3.833923   5.701748   0.000000
 Stoichiometry    C3H8O3
 Framework group  C1[X(C3H8O3)]
 Deg. of freedom    36
 Full point group                 C1      NOp   1
 Largest Abelian subgroup         C1      NOp   1
 Largest concise Abelian subgroup C1      NOp   1
                         Standard orientation:                         
 ---------------------------------------------------------------------
 Center     Atomic      Atomic             Coordinates (Angstroms)
 Number     Number       Type             X           Y           Z
 ---------------------------------------------------------------------
      1          8           0       -0.086676    1.358813    0.158876
      2          8           0       -2.414195   -0.084397   -0.274230
      3          8           0        2.394645    0.087035   -0.283407
      4          6           0       -0.017211    0.005752   -0.296843
      5          6           0       -1.246064   -0.728886    0.222707
      6          6           0        1.269834   -0.621427    0.226540
      7          1           0       -0.017026    0.049606   -1.391011
      8          1           0       -1.298213   -0.710975    1.316407
      9          1           0       -1.258048   -1.769665   -0.113950
     10          1           0        1.348821   -1.667390   -0.086335
     11          1           0        1.316037   -0.568597    1.319521
     12          1           0       -0.082717    1.348849    1.131307
     13          1           0       -2.387635    0.839933    0.027103
     14          1           0        3.189230   -0.346001    0.072622
 ---------------------------------------------------------------------
 Rotational constants (GHZ):           8.1541988           1.9600591           1.7069447
 Standard basis: 6-311++G(d,p) (5D, 7F)
 There are   194 symmetry adapted cartesian basis functions of A   symmetry.
 There are   188 symmetry adapted basis functions of A   symmetry.
   188 basis functions,   288 primitive gaussians,   194 cartesian basis functions
    25 alpha electrons       25 beta electrons
       nuclear repulsion energy       260.9366295102 Hartrees.
 NAtoms=   14 NActive=   14 NUniq=   14 SFac= 1.00D+00 NAtFMM=   60 NAOKFM=F Big=F
 Integral buffers will be    131072 words long.
 Raffenetti 2 integral format.
 Two-electron integral symmetry is turned on.
 R6APFD:  NTU= -4 IXU= 1 FactS= 1.050
 Nuclear repulsion after empirical dispersion term =      260.9290347096 Hartrees.
 One-electron integrals computed using PRISM.
 NBasis=   188 RedAO= T EigKep=  3.20D-05  NBF=   188
 NBsUse=   188 1.00D-06 EigRej= -1.00D+00 NBFU=   188
 ExpMin= 3.60D-02 ExpMax= 8.59D+03 ExpMxC= 1.30D+03 IAcc=3 IRadAn=         5 AccDes= 0.00D+00
 Harris functional with IExCor= 1009 and IRadAn=       5 diagonalized for initial guess.
 HarFok:  IExCor= 1009 AccDes= 0.00D+00 IRadAn=         5 IDoV= 1 UseB2=F ITyADJ=14
 ICtDFT=  3500011 ScaDFX=  1.000000  1.000000  1.000000  1.000000
 FoFCou: FMM=F IPFlag=           0 FMFlag=      100000 FMFlg1=           0
         NFxFlg=           0 DoJE=T BraDBF=F KetDBF=T FulRan=T
         wScrn=  0.000000 ICntrl=       500 IOpCl=  0 I1Cent=   200000004 NGrid=           0
         NMat0=    1 NMatS0=      1 NMatT0=    0 NMatD0=    1 NMtDS0=    0 NMtDT0=    0
 Petite list used in FoFCou.
 Requested convergence on RMS density matrix=1.00D-08 within  32 cycles.
 Requested convergence on MAX density matrix=1.00D-06.
 Requested convergence on             energy=1.00D-06.
 No special actions if energy rises.
 SCF Done:  E(RM08HX) =  -344.774130100     A.U. after   13 cycles
            NFock= 13  Conv=0.36D-08     -V/T= 2.0039
 QCSCF skips out because SCF is already converged.

 **********************************************************************

            Population analysis using the SCF Density.

 **********************************************************************

 Orbital symmetries:
       Occupied  (A) (A) (A) (A) (A) (A) (A) (A) (A) (A) (A) (A)
                 (A) (A) (A) (A) (A) (A) (A) (A) (A) (A) (A) (A)
                 (A)
       Virtual   (A) (A) (A) (A) (A) (A) (A) (A) (A) (A) (A) (A)
                 (A) (A) (A) (A) (A) (A) (A) (A) (A) (A) (A) (A)
                 (A) (A) (A) (A) (A) (A) (A) (A) (A) (A) (A) (A)
                 (A) (A) (A) (A) (A) (A) (A) (A) (A) (A) (A) (A)
                 (A) (A) (A) (A) (A) (A) (A) (A) (A) (A) (A) (A)
                 (A) (A) (A) (A) (A) (A) (A) (A) (A) (A) (A) (A)
                 (A) (A) (A) (A) (A) (A) (A) (A) (A) (A) (A) (A)
                 (A) (A) (A) (A) (A) (A) (A) (A) (A) (A) (A) (A)
                 (A) (A) (A) (A) (A) (A) (A) (A) (A) (A) (A) (A)
                 (A) (A) (A) (A) (A) (A) (A) (A) (A) (A) (A) (A)
                 (A) (A) (A) (A) (A) (A) (A) (A) (A) (A) (A) (A)
                 (A) (A) (A) (A) (A) (A) (A) (A) (A) (A) (A) (A)
                 (A) (A) (A) (A) (A) (A) (A) (A) (A) (A) (A) (A)
                 (A) (A) (A) (A) (A) (A) (A)
 The electronic state is 1-A.
 Alpha  occ. eigenvalues --  -19.62004 -19.61790 -19.60904 -10.59319 -10.59031
 Alpha  occ. eigenvalues --  -10.58610  -1.16942  -1.14744  -1.13025  -0.87810
 Alpha  occ. eigenvalues --   -0.77868  -0.71264  -0.62025  -0.59314  -0.58040
 Alpha  occ. eigenvalues --   -0.55541  -0.53803  -0.51217  -0.47746  -0.45736
 Alpha  occ. eigenvalues --   -0.42130  -0.40637  -0.38007  -0.36502  -0.34930
 Alpha virt. eigenvalues --   -0.03907  -0.02369  -0.01347  -0.00855   0.01082
 Alpha virt. eigenvalues --    0.02091   0.02501   0.02929   0.04573   0.06744
 Alpha virt. eigenvalues --    0.07128   0.08961   0.09208   0.10047   0.10194
 Alpha virt. eigenvalues --    0.10850   0.11136   0.11744   0.13069   0.14576
 Alpha virt. eigenvalues --    0.16937   0.18264   0.19282   0.19501   0.20585
 Alpha virt. eigenvalues --    0.21072   0.21946   0.22737   0.23884   0.24682
 Alpha virt. eigenvalues --    0.26097   0.27027   0.27586   0.28001   0.29808
 Alpha virt. eigenvalues --    0.30295   0.30953   0.32326   0.32990   0.35178
 Alpha virt. eigenvalues --    0.36310   0.37135   0.38075   0.39287   0.42347
 Alpha virt. eigenvalues --    0.45916   0.50427   0.54283   0.54782   0.55880
 Alpha virt. eigenvalues --    0.56828   0.58079   0.62485   0.64522   0.65249
 Alpha virt. eigenvalues --    0.67383   0.68960   0.70769   0.71779   0.73628
 Alpha virt. eigenvalues --    0.74387   0.77164   0.92745   0.93908   1.00445
 Alpha virt. eigenvalues --    1.01586   1.02041   1.10223   1.12010   1.15058
 Alpha virt. eigenvalues --    1.15872   1.17275   1.21809   1.23082   1.24859
 Alpha virt. eigenvalues --    1.28632   1.31948   1.33842   1.35508   1.42257
 Alpha virt. eigenvalues --    1.47034   1.47975   1.50732   1.53782   1.54701
 Alpha virt. eigenvalues --    1.55779   1.57212   1.59390   1.62480   1.64313
 Alpha virt. eigenvalues --    1.66913   1.69540   1.71217   1.72887   1.75147
 Alpha virt. eigenvalues --    1.77716   1.81654   1.85393   1.88264   1.92993
 Alpha virt. eigenvalues --    1.98863   2.03666   2.06682   2.09898   2.10699
 Alpha virt. eigenvalues --    2.15019   2.16589   2.18445   2.19734   2.31953
 Alpha virt. eigenvalues --    2.37555   2.46103   2.48894   2.50082   2.52283
 Alpha virt. eigenvalues --    2.53142   2.59936   2.62125   2.64136   2.67627
 Alpha virt. eigenvalues --    2.72420   2.80212   2.82518   2.85505   2.96780
 Alpha virt. eigenvalues --    2.99300   3.06490   3.14142   3.14423   3.18237
 Alpha virt. eigenvalues --    3.19548   3.21555   3.25165   3.28452   3.31968
 Alpha virt. eigenvalues --    3.38111   3.39949   3.55175   3.78358   3.83864
 Alpha virt. eigenvalues --    3.88972   3.91999   3.94254   4.03075   4.05273
 Alpha virt. eigenvalues --    4.07675   4.25617   4.34082   5.17457   5.20899
 Alpha virt. eigenvalues --    5.24981   5.49040   5.50606   5.51604   5.71175
 Alpha virt. eigenvalues --    5.72103   5.73892  23.85217  23.88169  23.90360
 Alpha virt. eigenvalues --   49.92274  49.93189  49.96291
          Condensed to atoms (all electrons):
               1          2          3          4          5          6
     1  O    8.067274  -0.045649   0.006708  -0.093375   0.101047   0.023096
     2  O   -0.045649   7.980661  -0.001372  -0.090047   0.200103   0.032345
     3  O    0.006708  -0.001372   8.047873  -0.278838   0.069187   0.306486
     4  C   -0.093375  -0.090047  -0.278838   8.338622  -1.221275  -1.195822
     5  C    0.101047   0.200103   0.069187  -1.221275   6.575034   0.323922
     6  C    0.023096   0.032345   0.306486  -1.195822   0.323922   6.595381
     7  H   -0.129469   0.018191  -0.013048   0.779786  -0.224167  -0.252266
     8  H   -0.062276  -0.024716  -0.004226   0.346195   0.037919  -0.053870
     9  H    0.041854  -0.104310  -0.000584  -0.248290   0.589992   0.030863
    10  H    0.014625   0.001232  -0.071064  -0.264289   0.072926   0.538367
    11  H   -0.015427  -0.003392  -0.068240   0.266524  -0.081149   0.162551
    12  H    0.264105  -0.009423   0.011595  -0.052981   0.060786   0.014449
    13  H    0.045410   0.241782  -0.000172  -0.053881   0.037851   0.009831
    14  H   -0.003345  -0.000042   0.222917  -0.006555  -0.005842   0.027818
               7          8          9         10         11         12
     1  O   -0.129469  -0.062276   0.041854   0.014625  -0.015427   0.264105
     2  O    0.018191  -0.024716  -0.104310   0.001232  -0.003392  -0.009423
     3  O   -0.013048  -0.004226  -0.000584  -0.071064  -0.068240   0.011595
     4  C    0.779786   0.346195  -0.248290  -0.264289   0.266524  -0.052981
     5  C   -0.224167   0.037919   0.589992   0.072926  -0.081149   0.060786
     6  C   -0.252266  -0.053870   0.030863   0.538367   0.162551   0.014449
     7  H    0.579122   0.031808  -0.053265  -0.057585   0.035721  -0.001801
     8  H    0.031808   0.724545  -0.148212  -0.004097  -0.006610  -0.033241
     9  H   -0.053265  -0.148212   0.630042   0.013225  -0.002491   0.009740
    10  H   -0.057585  -0.004097   0.013225   0.718495  -0.170397   0.016314
    11  H    0.035721  -0.006610  -0.002491  -0.170397   0.726971  -0.039388
    12  H   -0.001801  -0.033241   0.009740   0.016314  -0.039388   0.490628
    13  H   -0.020411  -0.034757   0.030256  -0.000421   0.000591  -0.000508
    14  H    0.000469   0.000794  -0.000228  -0.005361  -0.014756   0.000328
              13         14
     1  O    0.045410  -0.003345
     2  O    0.241782  -0.000042
     3  O   -0.000172   0.222917
     4  C   -0.053881  -0.006555
     5  C    0.037851  -0.005842
     6  C    0.009831   0.027818
     7  H   -0.020411   0.000469
     8  H   -0.034757   0.000794
     9  H    0.030256  -0.000228
    10  H   -0.000421  -0.005361
    11  H    0.000591  -0.014756
    12  H   -0.000508   0.000328
    13  H    0.479057  -0.000082
    14  H   -0.000082   0.512905
 Mulliken charges:
               1
     1  O   -0.214578
     2  O   -0.195363
     3  O   -0.227220
     4  C   -0.225773
     5  C   -0.536337
     6  C   -0.563151
     7  H    0.306915
     8  H    0.230744
     9  H    0.211409
    10  H    0.198030
    11  H    0.209491
    12  H    0.269397
    13  H    0.265454
    14  H    0.270980
 Sum of Mulliken charges =  -0.00000
 Mulliken charges with hydrogens summed into heavy atoms:
               1
     1  O    0.054819
     2  O    0.070092
     3  O    0.043760
     4  C    0.081142
     5  C   -0.094183
     6  C   -0.155630
 Electronic spatial extent (au):  <R**2>=            703.3369
 Charge=             -0.0000 electrons
 Dipole moment (field-independent basis, Debye):
    X=              1.6428    Y=             -2.1100    Z=              2.9272  Tot=              3.9648
 Quadrupole moment (field-independent basis, Debye-Ang):
   XX=            -40.0631   YY=            -37.8555   ZZ=            -35.5575
   XY=             -6.5867   XZ=              0.4183   YZ=              2.2272
 Traceless Quadrupole moment (field-independent basis, Debye-Ang):
   XX=             -2.2378   YY=             -0.0302   ZZ=              2.2679
   XY=             -6.5867   XZ=              0.4183   YZ=              2.2272
 Octapole moment (field-independent basis, Debye-Ang**2):
  XXX=             41.1039  YYY=             -1.7713  ZZZ=              2.8788  XYY=             -4.0203
  XXY=             -0.4262  XXZ=             13.4737  XZZ=             -0.0770  YZZ=              5.0638
  YYZ=              2.1600  XYZ=             -0.3955
 Hexadecapole moment (field-independent basis, Debye-Ang**3):
 XXXX=           -572.4696 YYYY=           -171.7826 ZZZZ=            -72.9244 XXXY=            -57.8222
 XXXZ=              6.6410 YYYX=             -4.4341 YYYZ=              9.6021 ZZZX=              0.0392
 ZZZY=              5.7778 XXYY=           -119.4512 XXZZ=           -123.0349 YYZZ=            -37.4970
 XXYZ=             -0.1805 YYXZ=             -0.1318 ZZXY=             -0.8836
 N-N= 2.609290347096D+02 E-N=-1.331311733305D+03  KE= 3.434328713145D+02
 R6APFD:  NTU= -4 IXU= 1 FactS= 1.050
 Calling FoFJK, ICntrl=      2127 FMM=F ISym2X=0 I1Cent= 0 IOpClX= 0 NMat=1 NMatS=1 NMatT=0.
 ***** Axes restored to original set *****
 -------------------------------------------------------------------
 Center     Atomic                   Forces (Hartrees/Bohr)
 Number     Number              X              Y              Z
 -------------------------------------------------------------------
      1        8           0.005591823   -0.000958980    0.005302996
      2        8          -0.000478070   -0.002100708    0.004627276
      3        8          -0.007610406    0.007232892    0.003932893
      4        6          -0.010219592   -0.005399549    0.021629893
      5        6           0.011691836   -0.010496368   -0.013080735
      6        6          -0.013274415   -0.001993268   -0.010375156
      7        1           0.000436873   -0.000009918   -0.000350239
      8        1          -0.007269466    0.003230113    0.006779000
      9        1           0.002504325    0.000969089   -0.001022727
     10        1           0.005481493    0.006255662    0.000587211
     11        1           0.007595709    0.002417936    0.006718846
     12        1          -0.002906037   -0.000694557   -0.011503802
     13        1          -0.001813306    0.010768442   -0.006640880
     14        1           0.010269233   -0.009220786   -0.006604577
 -------------------------------------------------------------------
 Cartesian Forces:  Max     0.021629893 RMS     0.007486565

 GradGradGradGradGradGradGradGradGradGradGradGradGradGradGradGradGradGrad
 Berny optimization.
 FormGI is forming the generalized inverse of G from B-inverse, IUseBI=4.
 Internal  Forces:  Max     0.015017267 RMS     0.004616963
 Search for a local minimum.
 Step number   1 out of a maximum of   71
 All quantities printed in internal units (Hartrees-Bohrs-Radians)
 Mixed Optimization -- RFO/linear search
 Second derivative matrix not updated -- first step.
 ITU=  0
     Eigenvalues ---    0.00443   0.00461   0.01302   0.01377   0.01379
     Eigenvalues ---    0.04235   0.05086   0.05179   0.05255   0.05628
     Eigenvalues ---    0.05693   0.07534   0.11477   0.11509   0.13714
     Eigenvalues ---    0.13769   0.16000   0.16000   0.16000   0.16395
     Eigenvalues ---    0.19460   0.22003   0.22043   0.29948   0.30074
     Eigenvalues ---    0.34215   0.34231   0.34236   0.34285   0.34361
     Eigenvalues ---    0.41071   0.41895   0.41912   0.52855   0.52871
     Eigenvalues ---    0.52881
 RFO step:  Lambda=-8.05208565D-03 EMin= 4.43307435D-03
 Linear search not attempted -- first point.
 Iteration  1 RMS(Cart)=  0.05965426 RMS(Int)=  0.00183728
 Iteration  2 RMS(Cart)=  0.00229137 RMS(Int)=  0.00068054
 Iteration  3 RMS(Cart)=  0.00000135 RMS(Int)=  0.00068053
 Iteration  4 RMS(Cart)=  0.00000000 RMS(Int)=  0.00068053
 Variable       Old X    -DE/DX   Delta X   Delta X   Delta X     New X
                                 (Linear)    (Quad)   (Total)
    R1        2.70124  -0.00060   0.00000  -0.00144  -0.00144   2.69980
    R2        1.83774  -0.01152   0.00000  -0.02145  -0.02145   1.81629
    R3        2.69035  -0.00545   0.00000  -0.01276  -0.01276   2.67759
    R4        1.83789  -0.01226   0.00000  -0.02286  -0.02286   1.81504
    R5        2.69056  -0.00028   0.00000  -0.00066  -0.00066   2.68990
    R6        1.83765  -0.01502   0.00000  -0.02797  -0.02797   1.80968
    R7        2.87816   0.00191   0.00000   0.00618   0.00618   2.88434
    R8        2.88068  -0.00180   0.00000  -0.00586  -0.00586   2.87482
    R9        2.06934   0.00035   0.00000   0.00099   0.00099   2.07033
   R10        2.06942   0.00648   0.00000   0.01849   0.01849   2.08791
   R11        2.06725   0.00137   0.00000   0.00389   0.00389   2.07113
   R12        2.06851   0.00552   0.00000   0.01572   0.01572   2.08423
   R13        2.06969   0.00637   0.00000   0.01818   0.01818   2.08787
    A1        1.88483   0.00018   0.00000   0.00105   0.00105   1.88587
    A2        1.87516  -0.00171   0.00000  -0.01019  -0.01019   1.86497
    A3        1.86796   0.00538   0.00000   0.03202   0.03202   1.89998
    A4        1.88453   0.00152   0.00000   0.03134   0.03012   1.91465
    A5        1.89760   0.00516   0.00000   0.05590   0.05513   1.95273
    A6        1.85527  -0.00268   0.00000  -0.02686  -0.02602   1.82926
    A7        1.94512  -0.00222   0.00000   0.00178  -0.00006   1.94506
    A8        1.93939  -0.00095   0.00000  -0.03634  -0.03652   1.90287
    A9        1.93842  -0.00060   0.00000  -0.02297  -0.02311   1.91531
   A10        1.90137   0.00649   0.00000   0.03493   0.03491   1.93628
   A11        1.87773   0.00517   0.00000   0.06484   0.06548   1.94321
   A12        1.89050  -0.00598   0.00000  -0.03974  -0.03949   1.85101
   A13        1.95112  -0.00835   0.00000  -0.04919  -0.05016   1.90096
   A14        1.94203   0.00217   0.00000   0.00543   0.00526   1.94729
   A15        1.89906   0.00060   0.00000  -0.01427  -0.01452   1.88453
   A16        1.91699  -0.00724   0.00000  -0.02476  -0.02435   1.89264
   A17        1.89241   0.00603   0.00000   0.04866   0.04809   1.94050
   A18        1.87559   0.00802   0.00000   0.06495   0.06437   1.93996
   A19        1.93471  -0.00174   0.00000  -0.02675  -0.02705   1.90766
   A20        1.93735  -0.00425   0.00000  -0.04227  -0.04250   1.89485
   A21        1.90529  -0.00025   0.00000  -0.01489  -0.01771   1.88758
    D1        1.06529   0.00271   0.00000   0.11250   0.11341   1.17870
    D2       -1.04752   0.00148   0.00000   0.05926   0.05826  -0.98925
    D3       -3.13556   0.00094   0.00000   0.07174   0.07182  -3.06374
    D4       -1.02031   0.00406   0.00000   0.09378   0.09266  -0.92766
    D5        1.09790   0.00084   0.00000   0.09331   0.09462   1.19252
    D6       -3.13516   0.00116   0.00000   0.09032   0.09013  -3.04504
    D7       -3.13957  -0.00057   0.00000  -0.00271  -0.00281   3.14081
    D8       -1.02308  -0.00335   0.00000  -0.02018  -0.02158  -1.04466
    D9        1.03426   0.00392   0.00000   0.02342   0.02492   1.05918
   D10        1.03764  -0.00022   0.00000   0.01141   0.01101   1.04865
   D11       -1.03519  -0.00571   0.00000  -0.06133  -0.06095  -1.09613
   D12        3.12070  -0.00212   0.00000  -0.01204  -0.01229   3.10841
   D13        3.12059   0.00575   0.00000   0.10090   0.10047  -3.06212
   D14        1.04776   0.00027   0.00000   0.02816   0.02852   1.07628
   D15       -1.07953   0.00385   0.00000   0.07746   0.07718  -1.00236
   D16       -0.99056   0.00263   0.00000   0.04534   0.04523  -0.94533
   D17       -3.06338  -0.00285   0.00000  -0.02740  -0.02672  -3.09010
   D18        1.09251   0.00073   0.00000   0.02190   0.02193   1.11444
   D19       -1.07049   0.00104   0.00000   0.01978   0.02007  -1.05042
   D20        3.12180  -0.00068   0.00000  -0.00780  -0.00710   3.11470
   D21        1.00120   0.00373   0.00000   0.05822   0.05814   1.05935
   D22        3.13753  -0.00277   0.00000  -0.05546  -0.05563   3.08190
   D23        1.04663  -0.00449   0.00000  -0.08304  -0.08279   0.96384
   D24       -1.07396  -0.00008   0.00000  -0.01702  -0.01755  -1.09151
   D25        0.96495   0.00055   0.00000   0.00759   0.00742   0.97237
   D26       -1.12595  -0.00117   0.00000  -0.01999  -0.01974  -1.14569
   D27        3.03664   0.00323   0.00000   0.04603   0.04550   3.08214
         Item               Value     Threshold  Converged?
 Maximum Force            0.015017     0.000450     NO 
 RMS     Force            0.004617     0.000300     NO 
 Maximum Displacement     0.219011     0.001800     NO 
 RMS     Displacement     0.059671     0.001200     NO 
 Predicted change in Energy=-4.511472D-03
 GradGradGradGradGradGradGradGradGradGradGradGradGradGradGradGradGradGrad

                          Input orientation:                          
 ---------------------------------------------------------------------
 Center     Atomic      Atomic             Coordinates (Angstroms)
 Number     Number       Type             X           Y           Z
 ---------------------------------------------------------------------
      1          8           0        0.021174   -1.389777    0.282542
      2          8           0        2.411440    0.055277   -0.270048
      3          8           0       -2.399526   -0.002495   -0.252878
      4          6           0       -0.010922   -0.043840   -0.195503
      5          6           0        1.253471    0.688940    0.244969
      6          6           0       -1.264785    0.688986    0.257400
      7          1           0       -0.009261   -0.134357   -1.287329
      8          1           0        1.276207    0.732320    1.348756
      9          1           0        1.276336    1.716902   -0.134477
     10          1           0       -1.232638    1.728205   -0.110623
     11          1           0       -1.277340    0.715231    1.361868
     12          1           0       -0.050028   -1.367290    1.240776
     13          1           0        2.358269   -0.869873   -0.017496
     14          1           0       -3.192797    0.453672    0.029443
 ---------------------------------------------------------------------
                    Distance matrix (angstroms):
                    1          2          3          4          5
     1  O    0.000000
     2  O    2.847264   0.000000
     3  O    2.840954   4.811344   0.000000
     4  C    1.428673   2.425535   2.389651   0.000000
     5  C    2.416823   1.416921   3.751043   1.526326   0.000000
     6  C    2.444500   3.767548   1.423436   1.521291   2.518286
     7  H    2.010349   2.632607   2.607843   1.095573   2.149476
     8  H    2.686116   2.089897   4.076298   2.154962   1.104874
     9  H    3.376507   2.016889   4.059841   2.181965   1.095997
    10  H    3.383554   4.012905   2.092173   2.154051   2.717950
    11  H    2.698544   4.087271   2.093285   2.146021   2.766434
    12  H    0.961139   3.219490   3.100615   1.953445   2.630366
    13  H    2.412952   0.960475   4.841939   2.515370   1.928566
    14  H    3.713754   5.626357   0.957639   3.228381   4.457701
                    6          7          8          9         10
     6  C    0.000000
     7  H    2.154164   0.000000
     8  H    2.765786   3.058187   0.000000
     9  H    2.769020   2.531599   1.780276   0.000000
    10  H    1.102928   2.520005   3.068530   2.509112   0.000000
    11  H    1.104851   3.057461   2.553637   3.124684   1.787832
    12  H    2.582816   2.813024   2.485744   3.628058   3.578678
    13  H    3.953749   2.785438   2.367388   2.806363   4.433204
    14  H    1.955650   3.494935   4.668000   4.647125   2.342281
                   11         12         13         14
    11  H    0.000000
    12  H    2.420300   0.000000
    13  H    4.199149   2.762348   0.000000
    14  H    2.347924   3.828867   5.706865   0.000000
 Stoichiometry    C3H8O3
 Framework group  C1[X(C3H8O3)]
 Deg. of freedom    36
 Full point group                 C1      NOp   1
 Largest Abelian subgroup         C1      NOp   1
 Largest concise Abelian subgroup C1      NOp   1
                         Standard orientation:                         
 ---------------------------------------------------------------------
 Center     Atomic      Atomic             Coordinates (Angstroms)
 Number     Number       Type             X           Y           Z
 ---------------------------------------------------------------------
      1          8           0       -0.068434    1.404478    0.163645
      2          8           0       -2.425375   -0.124287   -0.299628
      3          8           0        2.382787    0.050101   -0.314057
      4          6           0       -0.005820    0.036833   -0.244685
      5          6           0       -1.249913   -0.702474    0.240422
      6          6           0        1.267627   -0.641252    0.237867
      7          1           0       -0.014813    0.070836   -1.339694
      8          1           0       -1.266402   -0.689386    1.345096
      9          1           0       -1.249523   -1.748895   -0.085477
     10          1           0        1.259066   -1.698546   -0.075990
     11          1           0        1.286005   -0.610172    1.342128
     12          1           0        0.007794    1.433177    1.121326
     13          1           0       -2.393561    0.813673   -0.095340
     14          1           0        3.188246   -0.371663   -0.013355
 ---------------------------------------------------------------------
 Rotational constants (GHZ):           7.8322630           1.9608181           1.6968842
 Standard basis: 6-311++G(d,p) (5D, 7F)
 There are   194 symmetry adapted cartesian basis functions of A   symmetry.
 There are   188 symmetry adapted basis functions of A   symmetry.
   188 basis functions,   288 primitive gaussians,   194 cartesian basis functions
    25 alpha electrons       25 beta electrons
       nuclear repulsion energy       260.3421952801 Hartrees.
 NAtoms=   14 NActive=   14 NUniq=   14 SFac= 1.00D+00 NAtFMM=   60 NAOKFM=F Big=F
 Integral buffers will be    131072 words long.
 Raffenetti 2 integral format.
 Two-electron integral symmetry is turned on.
 R6APFD:  NTU= -4 IXU= 1 FactS= 1.050
 Nuclear repulsion after empirical dispersion term =      260.3343623316 Hartrees.
 One-electron integrals computed using PRISM.
 NBasis=   188 RedAO= T EigKep=  3.21D-05  NBF=   188
 NBsUse=   188 1.00D-06 EigRej= -1.00D+00 NBFU=   188
 Initial guess from the checkpoint file:  "GCEL0118.chk"
 B after Tr=    -0.000000   -0.000000    0.000000
         Rot=    0.999977    0.005976   -0.001106    0.002943 Ang=   0.77 deg.
 ExpMin= 3.60D-02 ExpMax= 8.59D+03 ExpMxC= 1.30D+03 IAcc=3 IRadAn=         5 AccDes= 0.00D+00
 Harris functional with IExCor= 1009 and IRadAn=       5 diagonalized for initial guess.
 HarFok:  IExCor= 1009 AccDes= 0.00D+00 IRadAn=         5 IDoV= 1 UseB2=F ITyADJ=14
 ICtDFT=  3500011 ScaDFX=  1.000000  1.000000  1.000000  1.000000
 FoFCou: FMM=F IPFlag=           0 FMFlag=      100000 FMFlg1=           0
         NFxFlg=           0 DoJE=T BraDBF=F KetDBF=T FulRan=T
         wScrn=  0.000000 ICntrl=       500 IOpCl=  0 I1Cent=   200000004 NGrid=           0
         NMat0=    1 NMatS0=      1 NMatT0=    0 NMatD0=    1 NMtDS0=    0 NMtDT0=    0
 Petite list used in FoFCou.
 Requested convergence on RMS density matrix=1.00D-08 within  32 cycles.
 Requested convergence on MAX density matrix=1.00D-06.
 Requested convergence on             energy=1.00D-06.
 No special actions if energy rises.
 SCF Done:  E(RM08HX) =  -344.778351311     A.U. after   11 cycles
            NFock= 11  Conv=0.54D-08     -V/T= 2.0039
 QCSCF skips out because SCF is already converged.
 R6APFD:  NTU= -4 IXU= 1 FactS= 1.050
 Calling FoFJK, ICntrl=      2127 FMM=F ISym2X=0 I1Cent= 0 IOpClX= 0 NMat=1 NMatS=1 NMatT=0.
 ***** Axes restored to original set *****
 -------------------------------------------------------------------
 Center     Atomic                   Forces (Hartrees/Bohr)
 Number     Number              X              Y              Z
 -------------------------------------------------------------------
      1        8           0.003218172    0.004961247   -0.000466114
      2        8          -0.003459523    0.001840610    0.005263581
      3        8           0.006268212    0.004075228    0.003325343
      4        6          -0.002222947   -0.003697313    0.001024850
      5        6           0.005251938   -0.001550025   -0.005248963
      6        6          -0.004925221   -0.004490942   -0.003645882
      7        1          -0.000817620   -0.000055628   -0.001576735
      8        1           0.000968985    0.000611761    0.001694419
      9        1          -0.001808847    0.000570605    0.000118416
     10        1           0.000855841    0.000077509    0.000351989
     11        1          -0.001006570    0.000785483    0.001326145
     12        1          -0.001881662   -0.001044270   -0.000159832
     13        1          -0.000324521   -0.001574751   -0.001767010
     14        1          -0.000116237   -0.000509515   -0.000240210
 -------------------------------------------------------------------
 Cartesian Forces:  Max     0.006268212 RMS     0.002699306

 GradGradGradGradGradGradGradGradGradGradGradGradGradGradGradGradGradGrad
 Berny optimization.
 Using GEDIIS/GDIIS optimizer.
 FormGI is forming the generalized inverse of G from B-inverse, IUseBI=4.
 Internal  Forces:  Max     0.007743395 RMS     0.001490259
 Search for a local minimum.
 Step number   2 out of a maximum of   71
 All quantities printed in internal units (Hartrees-Bohrs-Radians)
 Mixed Optimization -- RFO/linear search
 Update second derivatives using D2CorX and points    1    2
 DE= -4.22D-03 DEPred=-4.51D-03 R= 9.36D-01
 TightC=F SS=  1.41D+00  RLast= 3.45D-01 DXNew= 5.0454D-01 1.0355D+00
 Trust test= 9.36D-01 RLast= 3.45D-01 DXMaxT set to 5.05D-01
 ITU=  1  0
 Use linear search instead of GDIIS.
     Eigenvalues ---    0.00443   0.00467   0.01236   0.01353   0.01377
     Eigenvalues ---    0.04436   0.04815   0.05297   0.05337   0.05775
     Eigenvalues ---    0.06068   0.07428   0.11108   0.11489   0.13611
     Eigenvalues ---    0.14606   0.15808   0.16000   0.16290   0.16803
     Eigenvalues ---    0.19996   0.21867   0.22123   0.29911   0.30051
     Eigenvalues ---    0.33489   0.34223   0.34252   0.34349   0.34367
     Eigenvalues ---    0.41117   0.41481   0.42544   0.52772   0.52875
     Eigenvalues ---    0.53834
 RFO step:  Lambda=-1.06681422D-03 EMin= 4.43399482D-03
 Quartic linear search produced a step of  0.05640.
 Iteration  1 RMS(Cart)=  0.02281787 RMS(Int)=  0.00100588
 Iteration  2 RMS(Cart)=  0.00099904 RMS(Int)=  0.00004235
 Iteration  3 RMS(Cart)=  0.00000169 RMS(Int)=  0.00004234
 Iteration  4 RMS(Cart)=  0.00000000 RMS(Int)=  0.00004234
 Variable       Old X    -DE/DX   Delta X   Delta X   Delta X     New X
                                 (Linear)    (Quad)   (Total)
    R1        2.69980  -0.00387  -0.00008  -0.00994  -0.01002   2.68978
    R2        1.81629  -0.00005  -0.00121  -0.00116  -0.00237   1.81392
    R3        2.67759  -0.00448  -0.00072  -0.01183  -0.01255   2.66504
    R4        1.81504   0.00107  -0.00129   0.00099  -0.00030   1.81474
    R5        2.68990  -0.00774  -0.00004  -0.01940  -0.01944   2.67047
    R6        1.80968  -0.00022  -0.00158  -0.00181  -0.00339   1.80629
    R7        2.88434   0.00049   0.00035   0.00200   0.00235   2.88669
    R8        2.87482  -0.00058  -0.00033  -0.00232  -0.00265   2.87217
    R9        2.07033   0.00158   0.00006   0.00487   0.00492   2.07526
   R10        2.08791   0.00174   0.00104   0.00622   0.00726   2.09517
   R11        2.07113   0.00046   0.00022   0.00158   0.00180   2.07293
   R12        2.08423  -0.00002   0.00089   0.00071   0.00160   2.08583
   R13        2.08787   0.00136   0.00103   0.00504   0.00607   2.09394
    A1        1.88587   0.00173   0.00006   0.01131   0.01137   1.89725
    A2        1.86497   0.00146  -0.00057   0.00907   0.00849   1.87346
    A3        1.89998   0.00095   0.00181   0.00771   0.00951   1.90949
    A4        1.91465  -0.00094   0.00170  -0.00604  -0.00441   1.91024
    A5        1.95273   0.00093   0.00311   0.00719   0.01027   1.96300
    A6        1.82926  -0.00001  -0.00147  -0.00026  -0.00168   1.82757
    A7        1.94506  -0.00015  -0.00000  -0.00189  -0.00200   1.94306
    A8        1.90287   0.00040  -0.00206   0.00145  -0.00063   1.90224
    A9        1.91531  -0.00022  -0.00130  -0.00043  -0.00175   1.91356
   A10        1.93628  -0.00058   0.00197  -0.00013   0.00181   1.93809
   A11        1.94321  -0.00081   0.00369  -0.00839  -0.00466   1.93855
   A12        1.85101   0.00181  -0.00223   0.01901   0.01680   1.86781
   A13        1.90096   0.00076  -0.00283  -0.00231  -0.00522   1.89574
   A14        1.94729  -0.00097   0.00030  -0.00394  -0.00371   1.94358
   A15        1.88453  -0.00023  -0.00082  -0.00414  -0.00499   1.87954
   A16        1.89264  -0.00077  -0.00137  -0.00400  -0.00535   1.88729
   A17        1.94050   0.00092   0.00271   0.00797   0.01062   1.95112
   A18        1.93996  -0.00046   0.00363   0.00004   0.00364   1.94360
   A19        1.90766  -0.00078  -0.00153  -0.00836  -0.00989   1.89777
   A20        1.89485   0.00159  -0.00240   0.01024   0.00784   1.90269
   A21        1.88758  -0.00050  -0.00100  -0.00590  -0.00706   1.88052
    D1        1.17870   0.00104   0.00640   0.08469   0.09114   1.26984
    D2       -0.98925   0.00126   0.00329   0.08645   0.08969  -0.89956
    D3       -3.06374   0.00105   0.00405   0.08336   0.08742  -2.97632
    D4       -0.92766   0.00102   0.00523   0.08842   0.09361  -0.83404
    D5        1.19252   0.00103   0.00534   0.07961   0.08503   1.27755
    D6       -3.04504   0.00139   0.00508   0.08143   0.08646  -2.95858
    D7        3.14081   0.00064  -0.00016   0.00232   0.00217  -3.14020
    D8       -1.04466  -0.00024  -0.00122  -0.00570  -0.00703  -1.05168
    D9        1.05918  -0.00056   0.00141  -0.00776  -0.00626   1.05292
   D10        1.04865  -0.00108   0.00062  -0.03885  -0.03824   1.01040
   D11       -1.09613  -0.00020  -0.00344  -0.02667  -0.03007  -1.12621
   D12        3.10841   0.00018  -0.00069  -0.01765  -0.01836   3.09005
   D13       -3.06212  -0.00068   0.00567  -0.03530  -0.02965  -3.09178
   D14        1.07628   0.00020   0.00161  -0.02312  -0.02148   1.05480
   D15       -1.00236   0.00058   0.00435  -0.01409  -0.00977  -1.01213
   D16       -0.94533  -0.00079   0.00255  -0.03608  -0.03353  -0.97886
   D17       -3.09010   0.00009  -0.00151  -0.02390  -0.02536  -3.11547
   D18        1.11444   0.00048   0.00124  -0.01488  -0.01365   1.10079
   D19       -1.05042  -0.00029   0.00113  -0.00663  -0.00548  -1.05590
   D20        3.11470  -0.00048  -0.00040  -0.00885  -0.00922   3.10548
   D21        1.05935  -0.00036   0.00328  -0.00291   0.00037   1.05971
   D22        3.08190   0.00037  -0.00314  -0.00265  -0.00578   3.07612
   D23        0.96384   0.00018  -0.00467  -0.00486  -0.00953   0.95431
   D24       -1.09151   0.00030  -0.00099   0.00108   0.00006  -1.09145
   D25        0.97237   0.00011   0.00042  -0.00294  -0.00253   0.96984
   D26       -1.14569  -0.00007  -0.00111  -0.00516  -0.00627  -1.15196
   D27        3.08214   0.00005   0.00257   0.00078   0.00332   3.08546
         Item               Value     Threshold  Converged?
 Maximum Force            0.007743     0.000450     NO 
 RMS     Force            0.001490     0.000300     NO 
 Maximum Displacement     0.090005     0.001800     NO 
 RMS     Displacement     0.022730     0.001200     NO 
 Predicted change in Energy=-5.705796D-04
 GradGradGradGradGradGradGradGradGradGradGradGradGradGradGradGradGradGrad

                          Input orientation:                          
 ---------------------------------------------------------------------
 Center     Atomic      Atomic             Coordinates (Angstroms)
 Number     Number       Type             X           Y           Z
 ---------------------------------------------------------------------
      1          8           0        0.046335   -1.384487    0.279990
      2          8           0        2.414613    0.052680   -0.240951
      3          8           0       -2.380603   -0.007312   -0.245350
      4          6           0       -0.005738   -0.043008   -0.192979
      5          6           0        1.257266    0.698660    0.240865
      6          6           0       -1.259041    0.685666    0.263447
      7          1           0       -0.009099   -0.133096   -1.287451
      8          1           0        1.267830    0.762245    1.347708
      9          1           0        1.274088    1.722703   -0.152008
     10          1           0       -1.218363    1.725524   -0.104458
     11          1           0       -1.273865    0.719575    1.370892
     12          1           0       -0.097656   -1.382085    1.229013
     13          1           0        2.324394   -0.882413   -0.041775
     14          1           0       -3.180561    0.437250    0.030459
 ---------------------------------------------------------------------
                    Distance matrix (angstroms):
                    1          2          3          4          5
     1  O    0.000000
     2  O    2.818788   0.000000
     3  O    2.839475   4.795593   0.000000
     4  C    1.423369   2.422716   2.375711   0.000000
     5  C    2.409852   1.410279   3.737499   1.527570   0.000000
     6  C    2.447409   3.761757   1.413151   1.519888   2.516442
     7  H    2.006471   2.646517   2.593420   1.098178   2.152034
     8  H    2.690823   2.083850   4.054765   2.155023   1.108718
     9  H    3.368773   2.024274   4.044556   2.181139   1.096949
    10  H    3.379264   4.001943   2.091261   2.146159   2.702303
    11  H    2.712945   4.080153   2.089371   2.152991   2.772007
    12  H    0.959887   3.245126   3.045585   1.955413   2.672406
    13  H    2.354817   0.960318   4.790014   2.481326   1.928326
    14  H    3.714008   5.614938   0.955845   3.218708   4.450497
                    6          7          8          9         10
     6  C    0.000000
     7  H    2.153604   0.000000
     8  H    2.750738   3.062065   0.000000
     9  H    2.768536   2.525824   1.780917   0.000000
    10  H    1.103772   2.513217   3.036091   2.492907   0.000000
    11  H    1.108063   3.064876   2.542159   3.133298   1.786525
    12  H    2.560611   2.810766   2.544955   3.664507   3.562494
    13  H    3.923396   2.749250   2.398310   2.811036   4.399590
    14  H    1.951470   3.481430   4.650694   4.639999   2.351185
                   11         12         13         14
    11  H    0.000000
    12  H    2.412586   0.000000
    13  H    4.184430   2.780450   0.000000
    14  H    2.347756   3.775025   5.661383   0.000000
 Stoichiometry    C3H8O3
 Framework group  C1[X(C3H8O3)]
 Deg. of freedom    36
 Full point group                 C1      NOp   1
 Largest Abelian subgroup         C1      NOp   1
 Largest concise Abelian subgroup C1      NOp   1
                         Standard orientation:                         
 ---------------------------------------------------------------------
 Center     Atomic      Atomic             Coordinates (Angstroms)
 Number     Number       Type             X           Y           Z
 ---------------------------------------------------------------------
      1          8           0       -0.084932    1.397777    0.165469
      2          8           0       -2.420094   -0.116826   -0.280133
      3          8           0        2.372299    0.056060   -0.308273
      4          6           0       -0.002556    0.038013   -0.247126
      5          6           0       -1.246120   -0.713023    0.225064
      6          6           0        1.269228   -0.639646    0.235991
      7          1           0       -0.004980    0.078913   -1.344540
      8          1           0       -1.251486   -0.727067    1.333680
      9          1           0       -1.239900   -1.753788   -0.121441
     10          1           0        1.252059   -1.695647   -0.084758
     11          1           0        1.288539   -0.623426    1.343767
     12          1           0        0.062234    1.441397    1.113004
     13          1           0       -2.351469    0.828137   -0.123464
     14          1           0        3.183514   -0.356665   -0.016332
 ---------------------------------------------------------------------
 Rotational constants (GHZ):           7.8771621           1.9750902           1.7059505
 Standard basis: 6-311++G(d,p) (5D, 7F)
 There are   194 symmetry adapted cartesian basis functions of A   symmetry.
 There are   188 symmetry adapted basis functions of A   symmetry.
   188 basis functions,   288 primitive gaussians,   194 cartesian basis functions
    25 alpha electrons       25 beta electrons
       nuclear repulsion energy       261.0090330947 Hartrees.
 NAtoms=   14 NActive=   14 NUniq=   14 SFac= 1.00D+00 NAtFMM=   60 NAOKFM=F Big=F
 Integral buffers will be    131072 words long.
 Raffenetti 2 integral format.
 Two-electron integral symmetry is turned on.
 R6APFD:  NTU= -4 IXU= 1 FactS= 1.050
 Nuclear repulsion after empirical dispersion term =      261.0012043523 Hartrees.
 One-electron integrals computed using PRISM.
 NBasis=   188 RedAO= T EigKep=  3.26D-05  NBF=   188
 NBsUse=   188 1.00D-06 EigRej= -1.00D+00 NBFU=   188
 Initial guess from the checkpoint file:  "GCEL0118.chk"
 B after Tr=    -0.000000   -0.000000    0.000000
         Rot=    0.999995   -0.003135   -0.000427   -0.000717 Ang=  -0.37 deg.
 ExpMin= 3.60D-02 ExpMax= 8.59D+03 ExpMxC= 1.30D+03 IAcc=3 IRadAn=         5 AccDes= 0.00D+00
 Harris functional with IExCor= 1009 and IRadAn=       5 diagonalized for initial guess.
 HarFok:  IExCor= 1009 AccDes= 0.00D+00 IRadAn=         5 IDoV= 1 UseB2=F ITyADJ=14
 ICtDFT=  3500011 ScaDFX=  1.000000  1.000000  1.000000  1.000000
 FoFCou: FMM=F IPFlag=           0 FMFlag=      100000 FMFlg1=           0
         NFxFlg=           0 DoJE=T BraDBF=F KetDBF=T FulRan=T
         wScrn=  0.000000 ICntrl=       500 IOpCl=  0 I1Cent=   200000004 NGrid=           0
         NMat0=    1 NMatS0=      1 NMatT0=    0 NMatD0=    1 NMtDS0=    0 NMtDT0=    0
 Petite list used in FoFCou.
 Requested convergence on RMS density matrix=1.00D-08 within  32 cycles.
 Requested convergence on MAX density matrix=1.00D-06.
 Requested convergence on             energy=1.00D-06.
 No special actions if energy rises.
 SCF Done:  E(RM08HX) =  -344.779143465     A.U. after   11 cycles
            NFock= 11  Conv=0.25D-08     -V/T= 2.0038
 QCSCF skips out because SCF is already converged.
 R6APFD:  NTU= -4 IXU= 1 FactS= 1.050
 Calling FoFJK, ICntrl=      2127 FMM=F ISym2X=0 I1Cent= 0 IOpClX= 0 NMat=1 NMatS=1 NMatT=0.
 ***** Axes restored to original set *****
 -------------------------------------------------------------------
 Center     Atomic                   Forces (Hartrees/Bohr)
 Number     Number              X              Y              Z
 -------------------------------------------------------------------
      1        8           0.001890191    0.001419288   -0.000669898
      2        8          -0.000309373    0.002139485    0.001720299
      3        8           0.002800544    0.000827434    0.000873452
      4        6          -0.000234570   -0.000968060   -0.000746508
      5        6           0.001899178   -0.000792821    0.000073821
      6        6          -0.000745583   -0.001824988   -0.000754723
      7        1          -0.000994732    0.000360436   -0.000249410
      8        1           0.000679303    0.000478545   -0.000292944
      9        1          -0.000566164   -0.000214063   -0.000427762
     10        1          -0.000035726   -0.000131619    0.000176872
     11        1          -0.000399213    0.000145622   -0.000372705
     12        1          -0.001445201   -0.000409549    0.000773657
     13        1          -0.001013712   -0.001537987   -0.000458373
     14        1          -0.001524943    0.000508277    0.000354223
 -------------------------------------------------------------------
 Cartesian Forces:  Max     0.002800544 RMS     0.001037963

 GradGradGradGradGradGradGradGradGradGradGradGradGradGradGradGradGradGrad
 Berny optimization.
 Using GEDIIS/GDIIS optimizer.
 FormGI is forming the generalized inverse of G from B-inverse, IUseBI=4.
 Internal  Forces:  Max     0.002109131 RMS     0.000620148
 Search for a local minimum.
 Step number   3 out of a maximum of   71
 All quantities printed in internal units (Hartrees-Bohrs-Radians)
 Mixed Optimization -- En-DIIS/RFO-DIIS
 Update second derivatives using D2CorX and points    1    2    3
 DE= -7.92D-04 DEPred=-5.71D-04 R= 1.39D+00
 TightC=F SS=  1.41D+00  RLast= 2.36D-01 DXNew= 8.4853D-01 7.0925D-01
 Trust test= 1.39D+00 RLast= 2.36D-01 DXMaxT set to 7.09D-01
 ITU=  1  1  0
 Use linear search instead of GDIIS.
     Eigenvalues ---    0.00391   0.00445   0.00776   0.01356   0.01377
     Eigenvalues ---    0.04499   0.04829   0.05280   0.05378   0.05907
     Eigenvalues ---    0.06090   0.07512   0.11251   0.11495   0.13709
     Eigenvalues ---    0.14554   0.15590   0.16040   0.16505   0.16986
     Eigenvalues ---    0.20165   0.22093   0.22538   0.29821   0.30021
     Eigenvalues ---    0.34219   0.34236   0.34324   0.34356   0.34741
     Eigenvalues ---    0.40439   0.41213   0.42656   0.52850   0.52911
     Eigenvalues ---    0.54988
 RFO step:  Lambda=-3.06692277D-04 EMin= 3.90631428D-03
 Quartic linear search produced a step of  0.76566.
 Iteration  1 RMS(Cart)=  0.03849380 RMS(Int)=  0.00184214
 Iteration  2 RMS(Cart)=  0.00170605 RMS(Int)=  0.00001184
 Iteration  3 RMS(Cart)=  0.00000452 RMS(Int)=  0.00001145
 Iteration  4 RMS(Cart)=  0.00000000 RMS(Int)=  0.00001145
 Variable       Old X    -DE/DX   Delta X   Delta X   Delta X     New X
                                 (Linear)    (Quad)   (Total)
    R1        2.68978  -0.00090  -0.00767   0.00101  -0.00666   2.68311
    R2        1.81392   0.00098  -0.00181   0.00220   0.00039   1.81431
    R3        2.66504  -0.00179  -0.00961  -0.00242  -0.01203   2.65301
    R4        1.81474   0.00150  -0.00023   0.00273   0.00250   1.81723
    R5        2.67047  -0.00211  -0.01488   0.00084  -0.01404   2.65643
    R6        1.80629   0.00161  -0.00260   0.00410   0.00151   1.80779
    R7        2.88669   0.00078   0.00180   0.00388   0.00568   2.89237
    R8        2.87217  -0.00022  -0.00203  -0.00055  -0.00258   2.86959
    R9        2.07526   0.00022   0.00377  -0.00120   0.00257   2.07782
   R10        2.09517  -0.00026   0.00556  -0.00301   0.00255   2.09773
   R11        2.07293  -0.00006   0.00138  -0.00077   0.00061   2.07354
   R12        2.08583  -0.00018   0.00122  -0.00015   0.00107   2.08690
   R13        2.09394  -0.00036   0.00465  -0.00298   0.00167   2.09560
    A1        1.89725   0.00053   0.00871   0.00014   0.00885   1.90609
    A2        1.87346  -0.00079   0.00650  -0.01362  -0.00712   1.86634
    A3        1.90949   0.00057   0.00728   0.00454   0.01182   1.92132
    A4        1.91024  -0.00042  -0.00337  -0.00031  -0.00369   1.90656
    A5        1.96300  -0.00002   0.00786  -0.00257   0.00529   1.96829
    A6        1.82757   0.00022  -0.00129   0.00255   0.00126   1.82883
    A7        1.94306   0.00029  -0.00153   0.00180   0.00028   1.94334
    A8        1.90224   0.00028  -0.00048   0.00429   0.00380   1.90605
    A9        1.91356  -0.00035  -0.00134  -0.00554  -0.00688   1.90669
   A10        1.93809  -0.00036   0.00139  -0.00055   0.00083   1.93892
   A11        1.93855  -0.00049  -0.00357   0.00038  -0.00319   1.93536
   A12        1.86781   0.00062   0.01286  -0.00420   0.00866   1.87647
   A13        1.89574   0.00078  -0.00400   0.00592   0.00190   1.89764
   A14        1.94358  -0.00051  -0.00284  -0.00321  -0.00610   1.93749
   A15        1.87954  -0.00006  -0.00382   0.00153  -0.00231   1.87723
   A16        1.88729   0.00063  -0.00410   0.00578   0.00168   1.88897
   A17        1.95112  -0.00013   0.00813  -0.00057   0.00755   1.95867
   A18        1.94360  -0.00052   0.00279  -0.00202   0.00076   1.94437
   A19        1.89777  -0.00014  -0.00757   0.00239  -0.00517   1.89260
   A20        1.90269   0.00026   0.00600  -0.00396   0.00205   1.90474
   A21        1.88052  -0.00010  -0.00541  -0.00168  -0.00710   1.87342
    D1        1.26984   0.00070   0.06978   0.05402   0.12379   1.39363
    D2       -0.89956   0.00065   0.06867   0.05374   0.12242  -0.77714
    D3       -2.97632   0.00095   0.06693   0.06020   0.12713  -2.84920
    D4       -0.83404   0.00034   0.07168   0.03039   0.10210  -0.73194
    D5        1.27755   0.00075   0.06511   0.03779   0.10291   1.38046
    D6       -2.95858   0.00078   0.06620   0.03736   0.10351  -2.85506
    D7       -3.14020   0.00006   0.00166  -0.00409  -0.00242   3.14056
    D8       -1.05168   0.00022  -0.00538   0.00226  -0.00314  -1.05482
    D9        1.05292  -0.00036  -0.00479  -0.00169  -0.00648   1.04645
   D10        1.01040  -0.00026  -0.02928  -0.03645  -0.06572   0.94468
   D11       -1.12621   0.00007  -0.02303  -0.04053  -0.06355  -1.18975
   D12        3.09005  -0.00004  -0.01406  -0.04422  -0.05829   3.03176
   D13       -3.09178  -0.00038  -0.02270  -0.03871  -0.06141   3.13000
   D14        1.05480  -0.00006  -0.01645  -0.04279  -0.05923   0.99557
   D15       -1.01213  -0.00017  -0.00748  -0.04648  -0.05397  -1.06611
   D16       -0.97886  -0.00045  -0.02568  -0.04162  -0.06730  -1.04616
   D17       -3.11547  -0.00013  -0.01942  -0.04571  -0.06512   3.10260
   D18        1.10079  -0.00023  -0.01045  -0.04939  -0.05986   1.04092
   D19       -1.05590  -0.00002  -0.00419   0.01446   0.01028  -1.04562
   D20        3.10548  -0.00016  -0.00706   0.01027   0.00321   3.10869
   D21        1.05971  -0.00011   0.00028   0.01315   0.01344   1.07315
   D22        3.07612   0.00032  -0.00443   0.01541   0.01099   3.08711
   D23        0.95431   0.00018  -0.00730   0.01122   0.00392   0.95823
   D24       -1.09145   0.00023   0.00005   0.01410   0.01415  -1.07730
   D25        0.96984   0.00002  -0.00193   0.01255   0.01062   0.98046
   D26       -1.15196  -0.00013  -0.00480   0.00836   0.00355  -1.14842
   D27        3.08546  -0.00008   0.00254   0.01124   0.01378   3.09923
         Item               Value     Threshold  Converged?
 Maximum Force            0.002109     0.000450     NO 
 RMS     Force            0.000620     0.000300     NO 
 Maximum Displacement     0.134499     0.001800     NO 
 RMS     Displacement     0.038477     0.001200     NO 
 Predicted change in Energy=-3.775826D-04
 GradGradGradGradGradGradGradGradGradGradGradGradGradGradGradGradGradGrad

                          Input orientation:                          
 ---------------------------------------------------------------------
 Center     Atomic      Atomic             Coordinates (Angstroms)
 Number     Number       Type             X           Y           Z
 ---------------------------------------------------------------------
      1          8           0        0.075711   -1.377556    0.259059
      2          8           0        2.424452    0.039456   -0.186408
      3          8           0       -2.365085   -0.020124   -0.223960
      4          6           0        0.004856   -0.035376   -0.198636
      5          6           0        1.267311    0.712958    0.235957
      6          6           0       -1.250290    0.679804    0.269375
      7          1           0       -0.010005   -0.113315   -1.295307
      8          1           0        1.254136    0.822652    1.340514
      9          1           0        1.295581    1.721029   -0.196471
     10          1           0       -1.215733    1.721304   -0.096209
     11          1           0       -1.254733    0.718534    1.377635
     12          1           0       -0.168830   -1.408234    1.186979
     13          1           0        2.275045   -0.897880   -0.032044
     14          1           0       -3.172816    0.408649    0.056917
 ---------------------------------------------------------------------
                    Distance matrix (angstroms):
                    1          2          3          4          5
     1  O    0.000000
     2  O    2.779019   0.000000
     3  O    2.834328   4.790055   0.000000
     4  C    1.419843   2.420784   2.370126   0.000000
     5  C    2.406386   1.403914   3.734064   1.530578   0.000000
     6  C    2.447676   3.757860   1.405720   1.518522   2.518041
     7  H    2.005420   2.679473   2.588991   1.099538   2.158480
     8  H    2.720137   2.077144   4.031949   2.160069   1.110069
     9  H    3.361074   2.025374   4.053745   2.179663   1.097269
    10  H    3.375941   4.010947   2.090431   2.141554   2.700482
    11  H    2.723029   4.055093   2.084131   2.153967   2.768423
    12  H    0.960092   3.272172   2.956541   1.958273   2.732471
    13  H    2.269779   0.961639   4.726319   2.434219   1.918894
    14  H    3.712724   5.614705   0.956644   3.218705   4.454142
                    6          7          8          9         10
     6  C    0.000000
     7  H    2.148389   0.000000
     8  H    2.727617   3.069469   0.000000
     9  H    2.789734   2.505357   1.780764   0.000000
    10  H    1.104340   2.501488   2.995330   2.513315   0.000000
    11  H    1.108945   3.063648   2.511303   3.160206   1.783055
    12  H    2.524174   2.804244   2.650520   3.721655   3.540704
    13  H    3.874007   2.726322   2.426191   2.800905   4.364605
    14  H    1.953143   3.479128   4.627842   4.664023   2.361500
                   11         12         13         14
    11  H    0.000000
    12  H    2.395553   0.000000
    13  H    4.130293   2.778309   0.000000
    14  H    2.349332   3.688093   5.603045   0.000000
 Stoichiometry    C3H8O3
 Framework group  C1[X(C3H8O3)]
 Deg. of freedom    36
 Full point group                 C1      NOp   1
 Largest Abelian subgroup         C1      NOp   1
 Largest concise Abelian subgroup C1      NOp   1
                         Standard orientation:                         
 ---------------------------------------------------------------------
 Center     Atomic      Atomic             Coordinates (Angstroms)
 Number     Number       Type             X           Y           Z
 ---------------------------------------------------------------------
      1          8           0       -0.101306    1.385798    0.160569
      2          8           0       -2.418998   -0.093861   -0.241748
      3          8           0        2.368090    0.068520   -0.286951
      4          6           0       -0.001607    0.033066   -0.259108
      5          6           0       -1.247234   -0.729891    0.198033
      6          6           0        1.269074   -0.641198    0.227356
      7          1           0        0.010861    0.080269   -1.357561
      8          1           0       -1.230978   -0.807997    1.305231
      9          1           0       -1.253877   -1.750162   -0.205704
     10          1           0        1.256914   -1.693123   -0.108611
     11          1           0        1.275061   -0.648470    1.336261
     12          1           0        0.143100    1.447999    1.086945
     13          1           0       -2.289887    0.850485   -0.114117
     14          1           0        3.185121   -0.334517    0.004920
 ---------------------------------------------------------------------
 Rotational constants (GHZ):           7.9811991           1.9857983           1.7101539
 Standard basis: 6-311++G(d,p) (5D, 7F)
 There are   194 symmetry adapted cartesian basis functions of A   symmetry.
 There are   188 symmetry adapted basis functions of A   symmetry.
   188 basis functions,   288 primitive gaussians,   194 cartesian basis functions
    25 alpha electrons       25 beta electrons
       nuclear repulsion energy       261.5835932734 Hartrees.
 NAtoms=   14 NActive=   14 NUniq=   14 SFac= 1.00D+00 NAtFMM=   60 NAOKFM=F Big=F
 Integral buffers will be    131072 words long.
 Raffenetti 2 integral format.
 Two-electron integral symmetry is turned on.
 R6APFD:  NTU= -4 IXU= 1 FactS= 1.050
 Nuclear repulsion after empirical dispersion term =      261.5757813700 Hartrees.
 One-electron integrals computed using PRISM.
 NBasis=   188 RedAO= T EigKep=  3.36D-05  NBF=   188
 NBsUse=   188 1.00D-06 EigRej= -1.00D+00 NBFU=   188
 Initial guess from the checkpoint file:  "GCEL0118.chk"
 B after Tr=    -0.000000   -0.000000   -0.000000
         Rot=    0.999981   -0.006178   -0.000383   -0.000009 Ang=  -0.71 deg.
 ExpMin= 3.60D-02 ExpMax= 8.59D+03 ExpMxC= 1.30D+03 IAcc=3 IRadAn=         5 AccDes= 0.00D+00
 Harris functional with IExCor= 1009 and IRadAn=       5 diagonalized for initial guess.
 HarFok:  IExCor= 1009 AccDes= 0.00D+00 IRadAn=         5 IDoV= 1 UseB2=F ITyADJ=14
 ICtDFT=  3500011 ScaDFX=  1.000000  1.000000  1.000000  1.000000
 FoFCou: FMM=F IPFlag=           0 FMFlag=      100000 FMFlg1=           0
         NFxFlg=           0 DoJE=T BraDBF=F KetDBF=T FulRan=T
         wScrn=  0.000000 ICntrl=       500 IOpCl=  0 I1Cent=   200000004 NGrid=           0
         NMat0=    1 NMatS0=      1 NMatT0=    0 NMatD0=    1 NMtDS0=    0 NMtDT0=    0
 Petite list used in FoFCou.
 Requested convergence on RMS density matrix=1.00D-08 within  32 cycles.
 Requested convergence on MAX density matrix=1.00D-06.
 Requested convergence on             energy=1.00D-06.
 No special actions if energy rises.
 SCF Done:  E(RM08HX) =  -344.779574650     A.U. after   11 cycles
            NFock= 11  Conv=0.38D-08     -V/T= 2.0037
 QCSCF skips out because SCF is already converged.
 R6APFD:  NTU= -4 IXU= 1 FactS= 1.050
 Calling FoFJK, ICntrl=      2127 FMM=F ISym2X=0 I1Cent= 0 IOpClX= 0 NMat=1 NMatS=1 NMatT=0.
 ***** Axes restored to original set *****
 -------------------------------------------------------------------
 Center     Atomic                   Forces (Hartrees/Bohr)
 Number     Number              X              Y              Z
 -------------------------------------------------------------------
      1        8           0.000875527   -0.001001455    0.000719623
      2        8           0.001607110   -0.000538788   -0.000542500
      3        8          -0.001448661   -0.001547643   -0.001074248
      4        6           0.000757076    0.000991401   -0.002251449
      5        6          -0.001798050    0.001415164    0.002429641
      6        6           0.002158202    0.001389560    0.002053564
      7        1          -0.000310877    0.000323275    0.000263555
      8        1           0.000224824   -0.000007407   -0.001032267
      9        1          -0.000299680   -0.000068536   -0.000418418
     10        1          -0.000400977   -0.000316130   -0.000105353
     11        1          -0.000121357   -0.000256730   -0.000641203
     12        1          -0.000920716   -0.000134873    0.000184253
     13        1          -0.000024054   -0.000839880    0.000043941
     14        1          -0.000298368    0.000592042    0.000370860
 -------------------------------------------------------------------
 Cartesian Forces:  Max     0.002429641 RMS     0.001026750

 GradGradGradGradGradGradGradGradGradGradGradGradGradGradGradGradGradGrad
 Berny optimization.
 Using GEDIIS/GDIIS optimizer.
 FormGI is forming the generalized inverse of G from B-inverse, IUseBI=4.
 Internal  Forces:  Max     0.002116134 RMS     0.000541425
 Search for a local minimum.
 Step number   4 out of a maximum of   71
 All quantities printed in internal units (Hartrees-Bohrs-Radians)
 Mixed Optimization -- En-DIIS/RFO-DIIS
 Swapping is turned off.
 Update second derivatives using D2CorX and points    2    3    4
 DE= -4.31D-04 DEPred=-3.78D-04 R= 1.14D+00
 TightC=F SS=  1.41D+00  RLast= 3.39D-01 DXNew= 1.1928D+00 1.0156D+00
 Trust test= 1.14D+00 RLast= 3.39D-01 DXMaxT set to 1.02D+00
 ITU=  1  1  1  0
     Eigenvalues ---    0.00305   0.00445   0.00690   0.01377   0.01419
     Eigenvalues ---    0.04518   0.04856   0.05278   0.05358   0.05940
     Eigenvalues ---    0.06153   0.07500   0.11256   0.11480   0.13807
     Eigenvalues ---    0.14371   0.15938   0.16093   0.16623   0.17051
     Eigenvalues ---    0.20215   0.22073   0.22556   0.29938   0.30067
     Eigenvalues ---    0.34228   0.34238   0.34325   0.34366   0.34947
     Eigenvalues ---    0.41209   0.42088   0.48981   0.52844   0.52901
     Eigenvalues ---    0.54707
 En-DIIS/RFO-DIIS/Sim-DIIS IScMMF=       -3 using points:     4    3
 RFO step:  Lambda=-1.89558343D-04.
 DidBck=F Rises=F RFO-DIIS coefs:    1.57964   -0.57964
 Iteration  1 RMS(Cart)=  0.02548139 RMS(Int)=  0.00078287
 Iteration  2 RMS(Cart)=  0.00072679 RMS(Int)=  0.00000324
 Iteration  3 RMS(Cart)=  0.00000084 RMS(Int)=  0.00000320
 Variable       Old X    -DE/DX   Delta X   Delta X   Delta X     New X
                                 (Linear)    (Quad)   (Total)
    R1        2.68311   0.00136  -0.00386   0.00498   0.00112   2.68423
    R2        1.81431   0.00041   0.00022  -0.00002   0.00021   1.81452
    R3        2.65301   0.00212  -0.00697   0.00865   0.00168   2.65469
    R4        1.81723   0.00083   0.00145   0.00046   0.00191   1.81914
    R5        2.65643   0.00211  -0.00814   0.00840   0.00026   2.65669
    R6        1.80779   0.00063   0.00087  -0.00029   0.00059   1.80838
    R7        2.89237  -0.00012   0.00329  -0.00227   0.00103   2.89340
    R8        2.86959   0.00021  -0.00150   0.00134  -0.00016   2.86943
    R9        2.07782  -0.00028   0.00149  -0.00114   0.00035   2.07817
   R10        2.09773  -0.00103   0.00148  -0.00310  -0.00162   2.09611
   R11        2.07354   0.00009   0.00035   0.00050   0.00085   2.07439
   R12        2.08690  -0.00028   0.00062  -0.00085  -0.00023   2.08668
   R13        2.09560  -0.00065   0.00097  -0.00158  -0.00061   2.09499
    A1        1.90609   0.00001   0.00513  -0.00141   0.00372   1.90981
    A2        1.86634   0.00024  -0.00413   0.00617   0.00204   1.86838
    A3        1.92132  -0.00078   0.00685  -0.00847  -0.00162   1.91970
    A4        1.90656   0.00027  -0.00214   0.00103  -0.00112   1.90544
    A5        1.96829  -0.00045   0.00307  -0.00492  -0.00186   1.96643
    A6        1.82883   0.00018   0.00073   0.00357   0.00431   1.83315
    A7        1.94334  -0.00020   0.00016  -0.00364  -0.00349   1.93985
    A8        1.90605   0.00003   0.00220  -0.00012   0.00209   1.90813
    A9        1.90669   0.00020  -0.00399   0.00464   0.00066   1.90735
   A10        1.93892  -0.00038   0.00048  -0.00200  -0.00152   1.93740
   A11        1.93536  -0.00011  -0.00185   0.00088  -0.00096   1.93440
   A12        1.87647   0.00039   0.00502   0.00059   0.00561   1.88208
   A13        1.89764   0.00046   0.00110   0.00165   0.00276   1.90040
   A14        1.93749  -0.00045  -0.00353  -0.00303  -0.00656   1.93093
   A15        1.87723   0.00009  -0.00134   0.00198   0.00064   1.87787
   A16        1.88897   0.00062   0.00097   0.00090   0.00187   1.89084
   A17        1.95867  -0.00046   0.00437  -0.00432   0.00005   1.95872
   A18        1.94437  -0.00029   0.00044  -0.00128  -0.00084   1.94353
   A19        1.89260   0.00015  -0.00300   0.00240  -0.00060   1.89200
   A20        1.90474  -0.00017   0.00119  -0.00088   0.00030   1.90504
   A21        1.87342   0.00016  -0.00411   0.00332  -0.00080   1.87262
    D1        1.39363   0.00028   0.07175   0.01137   0.08312   1.47675
    D2       -0.77714   0.00065   0.07096   0.01881   0.08978  -0.68736
    D3       -2.84920   0.00053   0.07369   0.01360   0.08728  -2.76191
    D4       -0.73194  -0.00023   0.05918  -0.02206   0.03712  -0.69483
    D5        1.38046   0.00002   0.05965  -0.02072   0.03893   1.41939
    D6       -2.85506   0.00030   0.06000  -0.01750   0.04250  -2.81256
    D7        3.14056  -0.00009  -0.00140   0.00154   0.00013   3.14070
    D8       -1.05482   0.00023  -0.00182   0.00247   0.00066  -1.05417
    D9        1.04645  -0.00010  -0.00375   0.00283  -0.00093   1.04552
   D10        0.94468   0.00019  -0.03810   0.00238  -0.03572   0.90896
   D11       -1.18975   0.00026  -0.03683   0.00146  -0.03538  -1.22513
   D12        3.03176   0.00013  -0.03379  -0.00020  -0.03399   2.99777
   D13        3.13000  -0.00032  -0.03559  -0.00574  -0.04133   3.08867
   D14        0.99557  -0.00025  -0.03433  -0.00667  -0.04100   0.95458
   D15       -1.06611  -0.00038  -0.03129  -0.00832  -0.03960  -1.10571
   D16       -1.04616  -0.00019  -0.03901  -0.00235  -0.04136  -1.08752
   D17        3.10260  -0.00012  -0.03775  -0.00328  -0.04103   3.06158
   D18        1.04092  -0.00024  -0.03470  -0.00493  -0.03963   1.00129
   D19       -1.04562  -0.00006   0.00596  -0.00496   0.00100  -1.04463
   D20        3.10869   0.00004   0.00186  -0.00170   0.00017   3.10885
   D21        1.07315  -0.00014   0.00779  -0.00650   0.00129   1.07444
   D22        3.08711   0.00006   0.00637   0.00009   0.00646   3.09357
   D23        0.95823   0.00016   0.00227   0.00336   0.00563   0.96386
   D24       -1.07730  -0.00002   0.00820  -0.00145   0.00675  -1.07055
   D25        0.98046   0.00002   0.00615  -0.00051   0.00564   0.98610
   D26       -1.14842   0.00012   0.00206   0.00276   0.00482  -1.14360
   D27        3.09923  -0.00005   0.00799  -0.00205   0.00594   3.10517
         Item               Value     Threshold  Converged?
 Maximum Force            0.002116     0.000450     NO 
 RMS     Force            0.000541     0.000300     NO 
 Maximum Displacement     0.101822     0.001800     NO 
 RMS     Displacement     0.025581     0.001200     NO 
 Predicted change in Energy=-9.848104D-05
[...]
 ! A20   A(4,6,11)             109.181          -DE/DX =    0.0                 !
 ! A21   A(10,6,11)            109.164          -DE/DX =    0.0                 !
 ! D1    D(12,1,4,5)           174.0526         -DE/DX =    0.0                 !
 ! D2    D(12,1,4,6)            52.2184         -DE/DX =    0.0                 !
 ! D3    D(12,1,4,7)           -68.0536         -DE/DX =    0.0                 !
 ! D4    D(13,2,5,4)           -49.0322         -DE/DX =    0.0                 !
 ! D5    D(13,2,5,8)            71.9995         -DE/DX =    0.0                 !
 ! D6    D(13,2,5,9)          -169.882          -DE/DX =    0.0                 !
 ! D7    D(14,3,6,4)           168.8343         -DE/DX =    0.0                 !
 ! D8    D(14,3,6,10)          -71.4123         -DE/DX =    0.0                 !
 ! D9    D(14,3,6,11)           50.547          -DE/DX =    0.0                 !
 ! D10   D(1,4,5,2)             57.6079         -DE/DX =    0.0                 !
 ! D11   D(1,4,5,8)            -64.7825         -DE/DX =    0.0                 !
 ! D12   D(1,4,5,9)            176.5975         -DE/DX =    0.0                 !
 ! D13   D(6,4,5,2)            178.1834         -DE/DX =    0.0                 !
 ! D14   D(6,4,5,8)             55.7931         -DE/DX =    0.0                 !
 ! D15   D(6,4,5,9)            -62.827          -DE/DX =    0.0                 !
 ! D16   D(7,4,5,2)            -60.4528         -DE/DX =    0.0                 !
 ! D17   D(7,4,5,8)            177.1568         -DE/DX =    0.0                 !
 ! D18   D(7,4,5,9)             58.5367         -DE/DX =    0.0                 !
 ! D19   D(1,4,6,3)            -57.7667         -DE/DX =    0.0                 !
 ! D20   D(1,4,6,10)          -178.4064         -DE/DX =    0.0                 !
 ! D21   D(1,4,6,11)            61.724          -DE/DX =    0.0                 !
 ! D22   D(5,4,6,3)           -175.5692         -DE/DX =    0.0                 !
 ! D23   D(5,4,6,10)            63.7911         -DE/DX =    0.0                 !
 ! D24   D(5,4,6,11)           -56.0785         -DE/DX =    0.0                 !
 ! D25   D(7,4,6,3)             62.8657         -DE/DX =    0.0                 !
 ! D26   D(7,4,6,10)           -57.774          -DE/DX =    0.0                 !
 ! D27   D(7,4,6,11)          -177.6436         -DE/DX =    0.0                 !
 --------------------------------------------------------------------------------
 GradGradGradGradGradGradGradGradGradGradGradGradGradGradGradGradGradGrad


 ----------------------------------------------------------------------

 Electric dipole moment (input orientation):
 (Debye = 10**-18 statcoulomb cm , SI units = C m)
                  (au)            (Debye)         (10**-30 SI)
   Tot        0.144551D+01      0.367412D+01      0.122556D+02
   x         -0.129899D+01     -0.330170D+01     -0.110133D+02
   y          0.502969D+00      0.127842D+01      0.426435D+01
   z          0.386196D+00      0.981611D+00      0.327430D+01

 Dipole polarizability, Alpha (input orientation).
 (esu units = cm**3 , SI units = C**2 m**2 J**-1)
 Alpha(0;0):
               (au)            (10**-24 esu)      (10**-40 SI)
   iso        0.505812D+02      0.749537D+01      0.833972D+01
   aniso      0.928398D+01      0.137574D+01      0.153072D+01
   xx         0.560614D+02      0.830745D+01      0.924328D+01
   yx        -0.280217D-02     -0.415238D-03     -0.462015D-03
   yy         0.501961D+02      0.743830D+01      0.827622D+01
   zx        -0.808377D+00     -0.119789D+00     -0.133283D+00
   zy         0.829791D-01      0.122962D-01      0.136814D-01
   zz         0.454862D+02      0.674035D+01      0.749966D+01

 ----------------------------------------------------------------------

 Dipole orientation:
     8          0.37041671         -2.41109715         -0.77084432
     8          1.43951810          1.28105672         -4.23611613
     8         -1.68157314         -1.23612371          3.81792957
     6         -0.21981658          0.12582250         -0.13744424
     6          1.62986676          1.74953005         -1.62223953
     6          0.00042560          0.52988142          2.69747227
     1         -2.16907223          0.56571601         -0.74007329
     1          3.56145460          1.36025950         -0.93252887
     1          1.22609805          3.76110663         -1.32585445
     1         -0.51191374          2.48849339          3.18545769
     1          1.96505054          0.16902541          3.28976034
     1         -0.64609545         -3.49789527          0.26997370
     1          1.49213925         -0.52201950         -4.45654075
     1         -1.40569220         -1.31827320          5.60320387

 Electric dipole moment (dipole orientation):
 (Debye = 10**-18 statcoulomb cm , SI units = C m)
                  (au)            (Debye)         (10**-30 SI)
   Tot        0.144551D+01      0.367412D+01      0.122556D+02
   x          0.000000D+00      0.000000D+00      0.000000D+00
   y          0.000000D+00      0.000000D+00      0.000000D+00
   z          0.144551D+01      0.367412D+01      0.122556D+02

 Dipole polarizability, Alpha (dipole orientation).
 (esu units = cm**3 , SI units = C**2 m**2 J**-1)
 Alpha(0;0):
               (au)            (10**-24 esu)      (10**-40 SI)
   iso        0.505812D+02      0.749537D+01      0.833972D+01
   aniso      0.928398D+01      0.137574D+01      0.153072D+01
   xx         0.466736D+02      0.691631D+01      0.769543D+01
   yx         0.197968D+01      0.293359D+00      0.326405D+00
   yy         0.500683D+02      0.741936D+01      0.825516D+01
   zx        -0.243644D+01     -0.361044D+00     -0.401715D+00
   zy        -0.115678D+01     -0.171417D+00     -0.190727D+00
   zz         0.550018D+02      0.815043D+01      0.906857D+01

 ----------------------------------------------------------------------
 1\1\GINC-PITOMBA\Freq\RM08HX\6-311++G(d,p)\C3H8O3\VALTER\20-Sep-2025\0
 \\#N Geom=AllCheck Guess=TCheck SCRF=Check GenChk RM08HX/6-311++G(d,p)
  Freq\\GCEL0118\\0,1\O,0.1228268075,-1.2475587782,0.5111174413\O,2.458
 0157111,0.0211159411,-0.1502337395\O,-2.2997445486,-0.108217451,-0.032
 269341\C,0.039598212,0.0062101261,-0.1471306155\C,1.3127244097,0.75148
 00451,0.2235743369\C,-1.2134794753,0.7503475854,0.2840040823\H,0.00947
 26307,-0.1487410366,-1.24027343\H,1.3046584299,0.9443874083,1.31130587
 28\H,1.3569509768,1.7161048466,-0.2969190607\H,-1.2881213115,1.7107247
 229,-0.2512781399\H,-1.1651657971,0.9432302875,1.368440524\H,-0.709143
 6876,-1.7088093285,0.3749878068\H,2.3374934887,-0.875582768,0.17562385
 09\H,-3.1064858462,0.2172083993,0.3664504116\\Version=ES64L-G16RevB.01
 \State=1-A\HF=-344.7869186\RMSD=3.914e-10\RMSF=2.719e-05\ZeroPoint=0.1
 190445\Thermal=0.1263584\Dipole=-1.2989905,0.5029691,0.3861957\DipoleD
 eriv=-0.5244493,-0.0038798,0.0816503,0.0382568,-0.9521644,0.1479635,0.
 0742354,0.1636287,-0.5398138,-0.907116,0.1903146,0.0283399,0.2727028,-
 0.5407611,-0.1338101,-0.0037217,-0.1178803,-0.4873862,-0.9393535,-0.22
 52481,-0.1125118,-0.2357647,-0.5434996,0.0617563,-0.1226809,0.0440328,
 -0.4696057,0.2188515,0.0098445,-0.0322377,-0.0395189,0.6296238,-0.1702
 731,-0.015125,-0.1773611,0.3634705,0.6479737,-0.2086799,-0.0968413,-0.
 2052358,0.3948894,0.0843283,-0.0904821,0.0496707,0.3805415,0.5974815,0
 .2990453,0.1012308,0.2028666,0.3616556,-0.0094414,0.1081821,-0.0156438
 ,0.3340769,0.0114143,0.009015,-0.0084134,0.0012532,-0.0313163,-0.02586
 22,-0.0060327,0.0186124,-0.1599597,-0.0255725,0.0276688,0.0377122,0.02
 04018,0.0174261,-0.0243978,0.0333079,-0.0900263,-0.1735968,0.0325999,0
 .008832,-0.0019299,0.0197874,-0.0916769,0.051108,0.0011305,0.1009262,0
 .0182402,-0.0016354,-0.0028101,-0.0060791,-0.0370865,-0.139348,0.05881
 12,-0.0163973,0.1050041,0.0041221,-0.0129209,-0.0263422,-0.0292294,-0.
 0438148,0.0235001,-0.0130037,-0.0179722,-0.0724008,-0.1455322,0.266874
 2,-0.0431047,-0.0414168,-0.018138,0.3580689,0.0188409,-0.059804,0.0126
 883,0.2924148,0.3543876,-0.0482155,0.0554334,-0.0131248,0.2633124,0.03
 09497,0.0668591,0.0458544,0.2797429,0.2814649,0.01356,0.0242928,0.0374
 148,0.2502902,-0.0769695,0.048501,-0.0671054,0.3032857\Polar=56.061443
 4,-0.0028022,50.1961183,-0.8083771,0.0829791,45.4861638\Quadrupole=-1.
 055693,2.0633836,-1.0076905,-2.1374883,-0.7850698,0.4246794\PG=C01 [X(
 C3H8O3)]\NImag=0\\0.51182955,0.19909039,0.41278125,0.09511045,-0.08710
 361,0.13893439,0.00142103,0.00009384,0.00041916,0.30735379,-0.00455097
 ,0.00220027,0.00081738,-0.04560950,0.60910331,0.00047503,0.00024395,0.
 00154581,-0.10724087,-0.13762703,0.14542266,-0.00042461,-0.00135462,0.
 00001193,-0.00582227,0.00043121,-0.00008652,0.62426180,0.00435668,0.00
 406877,-0.00095453,0.00046654,0.00121706,0.00016541,-0.04106861,0.2494
 9009,-0.00174547,-0.00041176,0.00207061,0.00106293,0.00007792,0.000816
 80,-0.15654400,0.14225196,0.17087924,-0.09199225,0.02300520,-0.0240090
 3,-0.05746264,-0.00322633,-0.00326856,-0.04958799,0.00934953,0.0107546
 6,0.55633184,-0.01421836,-0.18899198,0.06195888,0.02831217,0.00337859,
 0.00436677,-0.02750316,0.00522188,0.00990291,0.01512587,0.49867100,-0.
 00681169,0.07353496,-0.11205327,0.01442744,0.00403117,0.00427632,-0.01
 153668,0.00454882,0.00472750,0.00670492,0.02824521,0.59443590,-0.00415
 576,-0.00477412,0.00166138,-0.18872569,0.09197884,0.04393479,-0.000237
 23,0.00249886,0.00103141,-0.15451744,-0.06539494,-0.03099772,0.4737576
 4,-0.03684484,-0.03856705,-0.00255317,0.04718190,-0.13656169,-0.007302
 24,0.00709318,-0.00251019,-0.00237880,-0.03890822,-0.10802527,-0.01986
 636,0.00220669,0.60460787,0.01922555,0.01701948,0.00405606,0.05286208,
 -0.02527631,-0.08630748,0.00273137,-0.00108264,-0.00120614,-0.03694095
 ,-0.02711868,-0.09560618,-0.00678035,-0.04335946,0.58209864,-0.0045475
 4,0.00532718,-0.00149050,-0.00031069,-0.00253199,-0.00114624,-0.170584
 54,-0.05742031,-0.00797546,-0.15248200,0.06497166,0.03888086,-0.026308
 84,0.00889392,0.00794820,0.47823611,0.03062186,-0.04185499,0.00114443,
 -0.00839218,-0.00124873,-0.00116587,-0.08852777,-0.14348445,-0.0328136
 6,0.03592311,-0.10314308,-0.02450640,-0.00812652,0.01646510,0.00660451
 ,-0.01594087,0.55862397,-0.01680463,0.01827307,0.00463819,-0.00258821,
 -0.00029120,0.00019759,-0.03359762,-0.04142260,-0.08238694,0.03435302,
 -0.02887149,-0.09973558,-0.00541419,0.00586028,0.00249741,-0.00549730,
 -0.02226960,0.59097715,0.00318115,0.00059531,-0.00234261,0.00321239,0.
 00088386,0.00207972,0.00263765,-0.00068147,-0.00138968,-0.05322746,-0.
 00123322,-0.00545038,-0.00111975,-0.00694749,-0.02890607,-0.00100391,0
 .00768782,0.02925951,0.05340213,0.00269109,-0.00938642,0.04024857,0.00
 099562,0.00074671,0.00179989,-0.00049502,0.00072722,0.00134771,-0.0020
 2524,-0.05408884,-0.04533466,-0.00017261,-0.00338281,-0.01836843,-0.00
 057876,-0.00262845,-0.01771088,-0.00025122,0.06934386,-0.00090159,0.01
 225458,-0.01441045,0.00014270,0.00105687,0.00167345,-0.00004251,0.0005
 3628,0.00108551,-0.00476032,-0.04336239,-0.28242189,0.00050067,-0.0033
 7933,-0.00808863,-0.00101091,-0.00403319,-0.01013052,0.00655584,0.0391
 1056,0.31094631,0.00167681,0.00176891,0.00150856,-0.00911059,0.0125260
 8,0.03115114,-0.00002142,0.00007754,0.00054568,-0.00245773,-0.00466851
 ,-0.03068820,-0.04751300,-0.00321112,-0.00927168,0.00106842,-0.0005255
 1,-0.00177170,-0.00424513,-0.00301024,-0.00069326,0.05994518,0.0013129
 8,0.00185278,0.00018014,0.00880748,-0.00418255,-0.01960268,-0.00001287
 ,-0.00001697,0.00035564,-0.00372263,-0.00208827,-0.01823805,-0.0039149
 9,-0.05802384,-0.02914183,0.00088047,-0.00036337,-0.00035842,-0.002179
 28,-0.00105121,-0.00077004,-0.00207367,0.05722899,0.00028136,-0.000060
 40,0.00190438,0.00825062,-0.00646900,-0.00036408,0.00001560,0.00031311
 ,0.00076261,-0.00133652,0.00033838,-0.01207860,-0.00955206,-0.03299511
 ,-0.28385129,0.00063202,-0.00056258,-0.00077744,-0.00149563,-0.0008934
 7,0.00084083,0.00516104,0.04204217,0.30609775,-0.00618187,-0.00463341,
 -0.00154237,-0.00374630,0.03560220,-0.01227848,0.00039560,0.00046864,-
 0.00027042,0.00454100,-0.02035972,0.01608212,-0.05089717,-0.02328022,0
 .00853687,0.00026555,-0.00024992,0.00054783,0.00067904,0.00039968,-0.0
 0066552,0.00114944,0.00118360,-0.00186533,0.05960844,-0.00356682,-0.00
 103349,-0.00103718,0.00599512,-0.02177719,0.00595104,-0.00008059,0.000
 53906,-0.00029443,0.00080453,-0.01214205,0.00949484,-0.01588684,-0.242
 10135,0.10747378,0.00024121,-0.00090916,0.00030093,0.00008935,-0.00001
 219,-0.00050703,-0.00057072,0.00595190,-0.00218310,0.00943339,0.271511
 29,-0.00147454,-0.00109554,0.00056715,-0.00013499,-0.01109849,0.007443
 74,0.00024124,-0.00028498,-0.00005954,-0.00060818,-0.00887126,0.003617
 94,0.00677818,0.11568148,-0.11601151,0.00015977,0.00059560,-0.00009532
 ,0.00056530,-0.00005563,0.00025839,0.00267917,0.02658878,-0.01315013,-
 0.00984774,-0.11868276,0.11612214,-0.00550477,0.00655646,0.00152177,0.
 00019365,-0.00054505,0.00021678,-0.00413119,-0.03012674,0.00933233,0.0
 0331631,0.01972720,-0.01694313,0.00052855,0.00021784,-0.00052087,-0.05
 395671,0.02778316,-0.01092792,0.00071327,-0.00050403,0.00085706,-0.000
 05664,-0.00007781,-0.00001104,-0.00070096,-0.00034005,0.00021729,0.057
 48978,0.00308801,-0.00170424,-0.00121295,0.00023609,0.00057463,-0.0002
 8581,-0.00728931,-0.01363369,0.00350055,0.00049923,-0.01201578,0.01044
 437,-0.00025637,-0.00089897,0.00030991,0.02441570,-0.22750100,0.105242
 33,-0.00017193,0.00001594,-0.00057306,0.00010635,-0.00002090,-0.000151
 33,0.00036115,0.00061650,-0.00006545,-0.02127019,0.24841544,0.00163932
 ,-0.00130117,0.00142876,-0.00036699,-0.00013943,-0.00001054,0.00062527
 ,-0.01132318,0.00925788,0.00108005,-0.00870840,0.00419121,-0.00008531,
 0.00053527,-0.00013676,-0.01279725,0.10856968,-0.11892697,-0.00058568,
 -0.00002474,0.00027371,0.00008823,0.00009755,0.00008690,-0.00017418,-0
 .00005487,0.00031421,0.01422296,-0.11448962,0.11727284,0.00177915,-0.0
 0193139,-0.00213488,-0.00020240,-0.00033753,-0.00073536,-0.00766987,-0
 .01238950,-0.02704227,0.00000185,0.00351329,0.03073340,0.00110537,0.00
 074316,0.00171500,-0.04975038,0.00280704,-0.00125633,-0.00436967,0.002
 94039,0.00088783,-0.00076617,-0.00011502,-0.00073292,-0.00004101,-0.00
 012993,-0.00005474,0.00179536,0.00080839,-0.00411084,0.05684268,-0.001
 41374,0.00187641,0.00067650,-0.00003110,-0.00004942,0.00038128,-0.0066
 5675,-0.00560140,-0.02091497,0.00140402,-0.00207011,-0.01692762,-0.000
 84504,0.00000144,-0.00008054,0.00019481,-0.05726980,-0.02956880,0.0020
 6819,-0.00094812,-0.00088269,0.00011760,0.00040491,0.00025188,0.000103
 01,-0.00003694,0.00012552,0.00016012,0.00596008,0.02620219,0.00391448,
 0.05737226,-0.00059648,-0.00011597,0.00239048,0.00009188,0.00026966,0.
 00076905,-0.00308463,-0.00185890,0.00342225,0.00130477,0.00009011,-0.0
 1243531,-0.00093915,-0.00054874,-0.00081068,-0.00391297,-0.03485723,-0
 .29112098,0.00158029,-0.00101730,0.00080981,0.00064779,0.00033835,0.00
 076861,-0.00001411,-0.00012885,0.00004467,0.00151253,-0.00247270,-0.01
 327826,0.00397312,0.04109497,0.30952940,-0.40892995,-0.22251904,-0.069
 06046,0.00031894,-0.00057909,0.00014922,-0.00119234,-0.00120166,0.0002
 9489,0.00434809,0.00119046,0.00046004,-0.00069531,0.00162013,0.0004062
 0,0.00304068,0.00413972,-0.00030739,-0.00014417,0.00065080,-0.00081922
 ,0.00008769,0.00005059,0.00017296,0.00032901,0.00047586,-0.00019562,-0
 .00086086,-0.00052733,-0.00009938,-0.00037463,-0.00030803,-0.00001439,
 0.40391022,-0.18158019,-0.14050345,-0.01237723,0.00162817,0.00124845,-
 0.00057561,-0.00076324,0.00068737,-0.00031021,-0.03402102,-0.02329300,
 -0.00489195,0.00169138,-0.00731005,0.00444476,-0.00209880,-0.00259094,
 -0.00072044,-0.00003833,0.00089284,0.00027897,0.00030835,0.00026372,0.
 00004137,-0.00168179,-0.00061518,-0.00043372,-0.00058392,0.00066190,-0
 .00005996,0.00031840,-0.00016993,-0.00002879,0.21776157,0.16961711,-0.
 08846325,-0.03045493,-0.02921469,0.00000451,-0.00000796,0.00003909,0.0
 0037852,0.00102113,-0.00226868,0.01817996,0.01269151,0.00232023,-0.000
 27500,0.00255280,-0.00158853,-0.00050355,0.00001821,0.00163194,0.00089
 835,0.00074299,-0.00057257,-0.00000779,0.00010100,0.00008952,0.0004987
 3,0.00030723,0.00070608,-0.00020009,0.00008987,-0.00026224,0.00002202,
 -0.00050125,-0.00041512,0.06937849,0.01452250,0.02985222,0.00058164,-0
 .00017346,0.00017599,-0.04665997,-0.08385164,0.04690432,0.00053175,-0.
 00044123,0.00007995,-0.00167084,0.00533718,-0.00243374,-0.00094526,0.0
 3961412,-0.01181637,0.00001876,0.00019185,0.00029258,-0.00021197,-0.00
 043221,0.00008694,0.00026870,-0.00006270,0.00065361,-0.00540771,0.0035
 8519,0.00162894,0.00035379,-0.00034735,0.00007160,0.00010360,0.0000409
 7,-0.00012184,0.00054178,-0.00144148,0.00002634,0.05258486,-0.00027050
 ,-0.00123066,-0.00016947,-0.03922080,-0.45464410,0.15373922,-0.0008372
 4,-0.00013483,0.00003832,-0.00123216,0.00289680,0.00055311,0.00148934,
 -0.02458659,0.00812056,0.00021106,-0.00114755,0.00018870,0.00016189,-0
 .00016392,0.00009783,-0.00090650,0.00002442,0.00034677,0.00262387,-0.0
 0001178,-0.00246566,0.00017581,-0.00004396,-0.00005016,0.00000744,-0.0
 0000881,-0.00005435,-0.00014931,0.00004861,0.00004676,0.03802527,0.479
 02565,0.00046284,-0.00091809,-0.00152340,0.03346439,0.17476026,-0.0754
 0482,0.00029884,0.00002191,-0.00016995,0.00048126,0.00068075,0.0015156
 6,0.00044904,-0.01276211,0.00413552,-0.00028346,0.00055767,-0.00002792
 ,-0.00057748,0.00011575,-0.00051864,0.00056894,-0.00164784,-0.00023921
 ,0.00095381,-0.00066168,0.00027022,-0.00006257,-0.00002192,-0.00000622
 ,0.00015418,-0.00012392,-0.00017965,-0.00039601,0.00034277,-0.00044221
 ,-0.03555432,-0.16033063,0.07253867,0.00126742,-0.00105124,0.00017059,
 -0.00045924,-0.00019009,-0.00015497,-0.38815535,0.12611171,0.17186544,
 -0.00514074,-0.00479992,-0.00242724,-0.00027611,0.00162095,0.00081105,
 -0.02368492,0.01260821,0.01371234,0.00049645,-0.00020828,-0.00013770,-
 0.00002556,-0.00007615,-0.00017372,0.00000696,-0.00004968,0.00004591,0
 .00082042,0.00034757,0.00049222,0.00154614,0.00125144,-0.00042681,-0.0
 0037915,0.00050092,0.00006276,-0.00008913,-0.00007817,0.00004055,0.414
 07282,0.00128441,0.00049281,0.00038224,-0.00046336,-0.00000533,-0.0000
 8831,0.16706480,-0.09656993,-0.10035119,-0.00297590,-0.00430989,-0.001
 08744,-0.00049367,0.00089340,0.00045488,-0.02656528,0.00705246,0.01134
 812,0.00001652,-0.00006459,0.00017264,0.00006143,0.00002037,-0.0000186
 7,0.00002951,0.00002058,0.00006213,-0.00117279,-0.00042593,0.00074685,
 -0.00014922,0.00053942,-0.00071027,-0.00060466,0.00106256,-0.00112985,
 -0.00004450,-0.00002328,-0.00001292,-0.13598728,0.09131735,-0.00039689
 ,0.00013543,-0.00033402,-0.00039464,-0.00010384,-0.00009759,0.20058920
 ,-0.09193181,-0.10693116,-0.00193510,-0.00134229,-0.00075393,-0.000311
 72,0.00051549,0.00081956,-0.01300321,0.00271843,0.00325939,-0.00019148
 ,0.00003963,0.00025468,0.00008207,0.00005523,-0.00008988,0.00003879,0.
 00002211,-0.00002804,0.00078491,-0.00031419,-0.00020452,-0.00141820,0.
 00026747,0.00050574,0.00003068,-0.00023246,0.00012495,0.00000600,-0.00
 006100,0.00005196,-0.18388042,0.09023178,0.10342284\\-0.00002625,0.000
 03069,-0.00004658,0.00000842,-0.00000759,0.00001408,-0.00005468,-0.000
 03700,-0.00001939,0.00005244,-0.00006313,0.00006041,-0.00000199,0.0000
 0203,-0.00002587,0.00003543,0.00009161,0.00001921,-0.00001342,0.000006
 67,-0.00000438,-0.00000098,-0.00000231,0.00000392,-0.00000222,0.000005
 32,0.00000502,-0.00000574,-0.00001352,0.00000037,-0.00000454,-0.000015
 29,-0.00000295,0.00000943,-0.00000365,0.00000722,0.00000066,0.00000496
 ,-0.00001019,0.00000344,0.00000120,-0.00000086\\\@


 Discoveries are often made by not following instructions,
 by going off the main road, by trying the untried.
 -- Frank Tyger
 Job cpu time:       0 days  0 hours 44 minutes 11.2 seconds.
 Elapsed time:       0 days  0 hours  2 minutes 47.1 seconds.
 File lengths (MBytes):  RWF=     53 Int=      0 D2E=      0 Chk=      4 Scr=      1
 Normal termination of Gaussian 16 at Sat Sep 20 02:00:40 2025.
