 Entering Gaussian System, Link 0=g16
 Input=GLTR0053.gjf
 Output=GLTR0053.log
 Initial command:
 /usr/local/g16/l1.exe "/dados_01/scratch/Gau-2487670.inp" -scrdir="/dados_01/scratch/"
 Entering Link 1 = /usr/local/g16/l1.exe PID=   2487671.
  
 Copyright (c) 1988-2017, Gaussian, Inc.  All Rights Reserved.
  
 This is part of the Gaussian(R) 16 program.  It is based on
 the Gaussian(R) 09 system (copyright 2009, Gaussian, Inc.),
 the Gaussian(R) 03 system (copyright 2003, Gaussian, Inc.),
 the Gaussian(R) 98 system (copyright 1998, Gaussian, Inc.),
 the Gaussian(R) 94 system (copyright 1995, Gaussian, Inc.),
 the Gaussian 92(TM) system (copyright 1992, Gaussian, Inc.),
 the Gaussian 90(TM) system (copyright 1990, Gaussian, Inc.),
 the Gaussian 88(TM) system (copyright 1988, Gaussian, Inc.),
 the Gaussian 86(TM) system (copyright 1986, Carnegie Mellon
 University), and the Gaussian 82(TM) system (copyright 1983,
 Carnegie Mellon University). Gaussian is a federally registered
 trademark of Gaussian, Inc.
  
 This software contains proprietary and confidential information,
 including trade secrets, belonging to Gaussian, Inc.
  
 This software is provided under written license and may be
 used, copied, transmitted, or stored only in accord with that
 written license.
  
 The following legend is applicable only to US Government
 contracts under FAR:
  
                    RESTRICTED RIGHTS LEGEND
  
 Use, reproduction and disclosure by the US Government is
 subject to restrictions as set forth in subparagraphs (a)
 and (c) of the Commercial Computer Software - Restricted
 Rights clause in FAR 52.227-19.
  
 Gaussian, Inc.
 340 Quinnipiac St., Bldg. 40, Wallingford CT 06492
  
  
 ---------------------------------------------------------------
 Warning -- This program may not be used in any manner that
 competes with the business of Gaussian, Inc. or will provide
 assistance to any competitor of Gaussian, Inc.  The licensee
 of this program is prohibited from giving any competitor of
 Gaussian, Inc. access to this program.  By using this program,
 the user acknowledges that Gaussian, Inc. is engaged in the
 business of creating and licensing software in the field of
 computational chemistry and represents and warrants to the
 licensee that it is not a competitor of Gaussian, Inc. and that
 it will not use this program in any manner prohibited above.
 ---------------------------------------------------------------
  

 Cite this work as:
 Gaussian 16, Revision B.01,
 M. J. Frisch, G. W. Trucks, H. B. Schlegel, G. E. Scuseria, 
 M. A. Robb, J. R. Cheeseman, G. Scalmani, V. Barone, 
 G. A. Petersson, H. Nakatsuji, X. Li, M. Caricato, A. V. Marenich, 
 J. Bloino, B. G. Janesko, R. Gomperts, B. Mennucci, H. P. Hratchian, 
 J. V. Ortiz, A. F. Izmaylov, J. L. Sonnenberg, D. Williams-Young, 
 F. Ding, F. Lipparini, F. Egidi, J. Goings, B. Peng, A. Petrone, 
 T. Henderson, D. Ranasinghe, V. G. Zakrzewski, J. Gao, N. Rega, 
 G. Zheng, W. Liang, M. Hada, M. Ehara, K. Toyota, R. Fukuda, 
 J. Hasegawa, M. Ishida, T. Nakajima, Y. Honda, O. Kitao, H. Nakai, 
 T. Vreven, K. Throssell, J. A. Montgomery, Jr., J. E. Peralta, 
 F. Ogliaro, M. J. Bearpark, J. J. Heyd, E. N. Brothers, K. N. Kudin, 
 V. N. Staroverov, T. A. Keith, R. Kobayashi, J. Normand, 
 K. Raghavachari, A. P. Rendell, J. C. Burant, S. S. Iyengar, 
 J. Tomasi, M. Cossi, J. M. Millam, M. Klene, C. Adamo, R. Cammi, 
 J. W. Ochterski, R. L. Martin, K. Morokuma, O. Farkas, 
 J. B. Foresman, and D. J. Fox, Gaussian, Inc., Wallingford CT, 2016.
 
 ******************************************
 Gaussian 16:  ES64L-G16RevB.01 20-Dec-2017
                 7-Oct-2025 
 ******************************************
 %nprocs=16
 Will use up to   16 processors via shared memory.
 %mem=40GB
 %chk=GLTR0053.chk
 ----------------------------------------------------------------------
 # opt freq=noraman M08HX/6-311++G** scf=xqc Empiricaldispersion=pfd In
 t(Grid=ultraFine)
 ----------------------------------------------------------------------
 1/18=20,19=15,26=4,38=1/1,3;
 2/9=110,12=2,17=6,18=5,40=1/2;
 3/5=4,6=6,7=1111,11=2,25=1,30=1,71=1,74=-74,75=-5,124=11/1,2,3;
 4//1;
 5/5=2,8=3,13=1,38=5/2,8;
 6/7=2,8=2,9=2,10=2,28=1/1;
 7//1,2,3,16;
 1/18=20,19=15,26=4/3(2);
 2/9=110/2;
 99//99;
 2/9=110/2;
 3/5=4,6=6,7=1111,11=2,25=1,30=1,71=1,74=-74,75=-5,124=11/1,2,3;
 4/5=5,16=3,69=1/1;
 5/5=2,8=3,13=1,38=5/2,8;
 7//1,2,3,16;
 1/18=20,19=15,26=4/3(-5);
 2/9=110/2;
 6/7=2,8=2,9=2,10=2,19=2,28=1/1;
 99/9=1/99;
 --------
 GLTR0053
 --------
 Symbolic Z-matrix:
 Charge =  0 Multiplicity = 1
 O                     1.4103   -0.7603    1.0955 
 O                     0.8505    1.9435    1.388 
 O                    -2.233    -0.9374    1.2717 
 O                     1.3683   -1.5604   -1.0681 
 O                    -0.7065    2.7819   -0.0937 
 O                    -2.3299   -1.7017   -0.9029 
 C                     0.0689   -0.2881    0.9496 
 C                    -0.0894    0.9534    1.8177 
 C                    -0.8886   -1.394     1.3787 
 C                     3.3513   -1.8186    0.3162 
 C                     1.9392   -1.382    -0.001 
 C                     4.0016   -2.5469   -0.8574 
 C                     1.508     3.7726    0.0803 
 C                    -4.253    -0.6162    0.1163 
 C                     1.9321    3.669    -1.3826 
 C                    -4.9857   -0.8043   -1.2097 
 C                     0.4037    2.7977    0.4199 
 C                    -2.8422   -1.1567    0.0651 
 C                     5.4315   -2.9522   -0.5386 
 C                     2.4759    2.2877   -1.7089 
 C                    -6.413    -0.2869   -1.1362 
 H                    -0.126     0.0067   -0.0893 
 H                     0.1662    0.7237    2.8584 
 H                    -1.1121    1.3472    1.814 
 H                    -0.7109   -1.663     2.4268 
 H                    -0.7239   -2.3178    0.8103 
 H                     3.3179   -2.4806    1.1888 
 H                     3.9344   -0.9252    0.5669 
 H                     3.4187   -3.4401   -1.1122 
 H                     3.9988   -1.9033   -1.7454 
 H                     1.1393    4.7802    0.3024 
 H                     2.3727    3.604     0.7331 
 H                    -4.2022    0.4505    0.362 
 H                    -4.7894   -1.1417    0.9144 
 H                     2.7022    4.421    -1.5877 
 H                     1.0814    3.8855   -2.0392 
 H                    -5.001    -1.8666   -1.482 
 H                    -4.4498   -0.2804   -2.0102 
 H                     6.0475   -2.075    -0.3162 
 H                     5.4654   -3.6242    0.3248 
 H                     5.8772   -3.4728   -1.3921 
 H                     3.3079    2.024    -1.048 
 H                     1.7042    1.5174   -1.6161 
 H                     2.8436    2.2637   -2.7398 
 H                    -6.9843   -0.819    -0.3689 
 H                    -6.4309    0.7817   -0.8992 
 H                    -6.9182   -0.4305   -2.0964 
 

 GradGradGradGradGradGradGradGradGradGradGradGradGradGradGradGradGradGrad
 Berny optimization.
 Initialization pass.
                           ----------------------------
                           !    Initial Parameters    !
                           ! (Angstroms and Degrees)  !
 --------------------------                            --------------------------
 ! Name  Definition              Value          Derivative Info.                !
 --------------------------------------------------------------------------------
 ! R1    R(1,7)                  1.4296         estimate D2E/DX2                !
 ! R2    R(1,11)                 1.367          estimate D2E/DX2                !
 ! R3    R(2,8)                  1.4312         estimate D2E/DX2                !
 ! R4    R(2,17)                 1.3662         estimate D2E/DX2                !
 ! R5    R(3,9)                  1.4238         estimate D2E/DX2                !
 ! R6    R(3,18)                 1.3693         estimate D2E/DX2                !
 ! R7    R(4,11)                 1.2233         estimate D2E/DX2                !
 ! R8    R(5,17)                 1.2233         estimate D2E/DX2                !
 ! R9    R(6,18)                 1.2233         estimate D2E/DX2                !
 ! R10   R(7,8)                  1.5231         estimate D2E/DX2                !
 ! R11   R(7,9)                  1.5245         estimate D2E/DX2                !
 ! R12   R(7,22)                 1.0974         estimate D2E/DX2                !
 ! R13   R(8,23)                 1.096          estimate D2E/DX2                !
 ! R14   R(8,24)                 1.0959         estimate D2E/DX2                !
 ! R15   R(9,25)                 1.0966         estimate D2E/DX2                !
 ! R16   R(9,26)                 1.0971         estimate D2E/DX2                !
 ! R17   R(10,11)                1.5117         estimate D2E/DX2                !
 ! R18   R(10,12)                1.5266         estimate D2E/DX2                !
 ! R19   R(10,27)                1.0958         estimate D2E/DX2                !
 ! R20   R(10,28)                1.0959         estimate D2E/DX2                !
 ! R21   R(12,19)                1.52           estimate D2E/DX2                !
 ! R22   R(12,29)                1.0966         estimate D2E/DX2                !
 ! R23   R(12,30)                1.0967         estimate D2E/DX2                !
 ! R24   R(13,15)                1.5267         estimate D2E/DX2                !
 ! R25   R(13,17)                1.5117         estimate D2E/DX2                !
 ! R26   R(13,31)                1.0957         estimate D2E/DX2                !
 ! R27   R(13,32)                1.0965         estimate D2E/DX2                !
 ! R28   R(14,16)                1.5266         estimate D2E/DX2                !
 ! R29   R(14,18)                1.5117         estimate D2E/DX2                !
 ! R30   R(14,33)                1.0958         estimate D2E/DX2                !
 ! R31   R(14,34)                1.0958         estimate D2E/DX2                !
 ! R32   R(15,20)                1.5199         estimate D2E/DX2                !
 ! R33   R(15,35)                1.0957         estimate D2E/DX2                !
 ! R34   R(15,36)                1.0962         estimate D2E/DX2                !
 ! R35   R(16,21)                1.52           estimate D2E/DX2                !
 ! R36   R(16,37)                1.0968         estimate D2E/DX2                !
 ! R37   R(16,38)                1.0966         estimate D2E/DX2                !
 ! R38   R(19,39)                1.0947         estimate D2E/DX2                !
 ! R39   R(19,40)                1.0946         estimate D2E/DX2                !
 ! R40   R(19,41)                1.0946         estimate D2E/DX2                !
 ! R41   R(20,42)                1.0948         estimate D2E/DX2                !
 ! R42   R(20,43)                1.0943         estimate D2E/DX2                !
 ! R43   R(20,44)                1.0948         estimate D2E/DX2                !
 ! R44   R(21,45)                1.0947         estimate D2E/DX2                !
 ! R45   R(21,46)                1.0947         estimate D2E/DX2                !
 ! R46   R(21,47)                1.0945         estimate D2E/DX2                !
 ! A1    A(7,1,11)             115.5579         estimate D2E/DX2                !
 ! A2    A(8,2,17)             115.5001         estimate D2E/DX2                !
 ! A3    A(9,3,18)             115.7803         estimate D2E/DX2                !
 ! A4    A(1,7,8)              107.9741         estimate D2E/DX2                !
 ! A5    A(1,7,9)              108.7243         estimate D2E/DX2                !
 ! A6    A(1,7,22)             110.6106         estimate D2E/DX2                !
 ! A7    A(8,7,9)              111.4443         estimate D2E/DX2                !
 ! A8    A(8,7,22)             107.5866         estimate D2E/DX2                !
 ! A9    A(9,7,22)             110.4759         estimate D2E/DX2                !
 ! A10   A(2,8,7)              108.9356         estimate D2E/DX2                !
 ! A11   A(2,8,23)             106.0769         estimate D2E/DX2                !
 ! A12   A(2,8,24)             111.2999         estimate D2E/DX2                !
 ! A13   A(7,8,23)             110.2506         estimate D2E/DX2                !
 ! A14   A(7,8,24)             112.8273         estimate D2E/DX2                !
 ! A15   A(23,8,24)            107.227          estimate D2E/DX2                !
 ! A16   A(3,9,7)              109.8319         estimate D2E/DX2                !
 ! A17   A(3,9,25)             107.6681         estimate D2E/DX2                !
 ! A18   A(3,9,26)             111.8909         estimate D2E/DX2                !
 ! A19   A(7,9,25)             110.1949         estimate D2E/DX2                !
 ! A20   A(7,9,26)             111.7606         estimate D2E/DX2                !
 ! A21   A(25,9,26)            105.3258         estimate D2E/DX2                !
 ! A22   A(11,10,12)           111.9857         estimate D2E/DX2                !
 ! A23   A(11,10,27)           108.2458         estimate D2E/DX2                !
 ! A24   A(11,10,28)           108.0332         estimate D2E/DX2                !
 ! A25   A(12,10,27)           109.6905         estimate D2E/DX2                !
 ! A26   A(12,10,28)           109.7623         estimate D2E/DX2                !
 ! A27   A(27,10,28)           109.059          estimate D2E/DX2                !
 ! A28   A(1,11,4)             125.8371         estimate D2E/DX2                !
 ! A29   A(1,11,10)            108.9331         estimate D2E/DX2                !
 ! A30   A(4,11,10)            125.2298         estimate D2E/DX2                !
 ! A31   A(10,12,19)           111.5109         estimate D2E/DX2                !
 ! A32   A(10,12,29)           109.9241         estimate D2E/DX2                !
 ! A33   A(10,12,30)           109.9622         estimate D2E/DX2                !
 ! A34   A(19,12,29)           109.3651         estimate D2E/DX2                !
 ! A35   A(19,12,30)           109.1896         estimate D2E/DX2                !
 ! A36   A(29,12,30)           106.7686         estimate D2E/DX2                !
 ! A37   A(15,13,17)           111.9893         estimate D2E/DX2                !
 ! A38   A(15,13,31)           110.4949         estimate D2E/DX2                !
 ! A39   A(15,13,32)           109.937          estimate D2E/DX2                !
 ! A40   A(17,13,31)           107.5601         estimate D2E/DX2                !
 ! A41   A(17,13,32)           110.0703         estimate D2E/DX2                !
 ! A42   A(31,13,32)           106.624          estimate D2E/DX2                !
 ! A43   A(16,14,18)           111.9907         estimate D2E/DX2                !
 ! A44   A(16,14,33)           109.691          estimate D2E/DX2                !
 ! A45   A(16,14,34)           109.7906         estimate D2E/DX2                !
 ! A46   A(18,14,33)           108.203          estimate D2E/DX2                !
 ! A47   A(18,14,34)           108.0615         estimate D2E/DX2                !
 ! A48   A(33,14,34)           109.0383         estimate D2E/DX2                !
 ! A49   A(13,15,20)           111.517          estimate D2E/DX2                !
 ! A50   A(13,15,35)           109.1494         estimate D2E/DX2                !
 ! A51   A(13,15,36)           110.1803         estimate D2E/DX2                !
 ! A52   A(20,15,35)           109.3942         estimate D2E/DX2                !
 ! A53   A(20,15,36)           109.1806         estimate D2E/DX2                !
 ! A54   A(35,15,36)           107.3227         estimate D2E/DX2                !
 ! A55   A(14,16,21)           111.5153         estimate D2E/DX2                !
 ! A56   A(14,16,37)           109.9801         estimate D2E/DX2                !
 ! A57   A(14,16,38)           109.9168         estimate D2E/DX2                !
 ! A58   A(21,16,37)           109.1848         estimate D2E/DX2                !
 ! A59   A(21,16,38)           109.3648         estimate D2E/DX2                !
 ! A60   A(37,16,38)           106.7579         estimate D2E/DX2                !
 ! A61   A(2,17,5)             125.8886         estimate D2E/DX2                !
 ! A62   A(2,17,13)            108.8749         estimate D2E/DX2                !
 ! A63   A(5,17,13)            125.2365         estimate D2E/DX2                !
 ! A64   A(3,18,6)             125.6117         estimate D2E/DX2                !
 ! A65   A(3,18,14)            109.1532         estimate D2E/DX2                !
 ! A66   A(6,18,14)            125.2351         estimate D2E/DX2                !
 ! A67   A(12,19,39)           110.995          estimate D2E/DX2                !
 ! A68   A(12,19,40)           110.9931         estimate D2E/DX2                !
 ! A69   A(12,19,41)           110.2622         estimate D2E/DX2                !
 ! A70   A(39,19,40)           108.3161         estimate D2E/DX2                !
 ! A71   A(39,19,41)           108.0831         estimate D2E/DX2                !
 ! A72   A(40,19,41)           108.0858         estimate D2E/DX2                !
 ! A73   A(15,20,42)           111.1741         estimate D2E/DX2                !
 ! A74   A(15,20,43)           111.6666         estimate D2E/DX2                !
 ! A75   A(15,20,44)           110.0137         estimate D2E/DX2                !
 ! A76   A(42,20,43)           108.3718         estimate D2E/DX2                !
 ! A77   A(42,20,44)           107.9345         estimate D2E/DX2                !
 ! A78   A(43,20,44)           107.5343         estimate D2E/DX2                !
 ! A79   A(16,21,45)           111.0089         estimate D2E/DX2                !
 ! A80   A(16,21,46)           110.984          estimate D2E/DX2                !
 ! A81   A(16,21,47)           110.2655         estimate D2E/DX2                !
 ! A82   A(45,21,46)           108.3131         estimate D2E/DX2                !
 ! A83   A(45,21,47)           108.0762         estimate D2E/DX2                !
 ! A84   A(46,21,47)           108.0874         estimate D2E/DX2                !
 ! D1    D(11,1,7,8)          -148.9237         estimate D2E/DX2                !
 ! D2    D(11,1,7,9)            90.0255         estimate D2E/DX2                !
 ! D3    D(11,1,7,22)          -31.4474         estimate D2E/DX2                !
 ! D4    D(7,1,11,4)            -0.0046         estimate D2E/DX2                !
 ! D5    D(7,1,11,10)         -179.9558         estimate D2E/DX2                !
 ! D6    D(17,2,8,7)            90.0031         estimate D2E/DX2                !
 ! D7    D(17,2,8,23)         -151.3314         estimate D2E/DX2                !
 ! D8    D(17,2,8,24)          -35.025          estimate D2E/DX2                !
 ! D9    D(8,2,17,5)            -0.0105         estimate D2E/DX2                !
 ! D10   D(8,2,17,13)         -179.9594         estimate D2E/DX2                !
 ! D11   D(18,3,9,7)            90.0022         estimate D2E/DX2                !
 ! D12   D(18,3,9,25)         -149.9963         estimate D2E/DX2                !
 ! D13   D(18,3,9,26)          -34.723          estimate D2E/DX2                !
 ! D14   D(9,3,18,6)            -0.0121         estimate D2E/DX2                !
 ! D15   D(9,3,18,14)         -179.9579         estimate D2E/DX2                !
 ! D16   D(1,7,8,2)             59.458          estimate D2E/DX2                !
 ! D17   D(1,7,8,23)           -56.5584         estimate D2E/DX2                !
 ! D18   D(1,7,8,24)          -176.412          estimate D2E/DX2                !
 ! D19   D(9,7,8,2)            178.7995         estimate D2E/DX2                !
 ! D20   D(9,7,8,23)            62.7831         estimate D2E/DX2                !
 ! D21   D(9,7,8,24)           -57.0705         estimate D2E/DX2                !
 ! D22   D(22,7,8,2)           -59.9516         estimate D2E/DX2                !
 ! D23   D(22,7,8,23)         -175.968          estimate D2E/DX2                !
 ! D24   D(22,7,8,24)           64.1783         estimate D2E/DX2                !
 ! D25   D(1,7,9,3)            178.6732         estimate D2E/DX2                !
 ! D26   D(1,7,9,25)            60.2208         estimate D2E/DX2                !
 ! D27   D(1,7,9,26)           -56.5265         estimate D2E/DX2                !
 ! D28   D(8,7,9,3)             59.7783         estimate D2E/DX2                !
 ! D29   D(8,7,9,25)           -58.6741         estimate D2E/DX2                !
 ! D30   D(8,7,9,26)          -175.4213         estimate D2E/DX2                !
 ! D31   D(22,7,9,3)           -59.7715         estimate D2E/DX2                !
 ! D32   D(22,7,9,25)         -178.2239         estimate D2E/DX2                !
 ! D33   D(22,7,9,26)           65.0288         estimate D2E/DX2                !
 ! D34   D(12,10,11,1)         178.9439         estimate D2E/DX2                !
 ! D35   D(12,10,11,4)          -1.0076         estimate D2E/DX2                !
 ! D36   D(27,10,11,1)          57.8996         estimate D2E/DX2                !
 ! D37   D(27,10,11,4)        -122.0519         estimate D2E/DX2                !
 ! D38   D(28,10,11,1)         -60.0645         estimate D2E/DX2                !
 ! D39   D(28,10,11,4)         119.984          estimate D2E/DX2                !
 ! D40   D(11,10,12,19)        178.6676         estimate D2E/DX2                !
 ! D41   D(11,10,12,29)        -59.8684         estimate D2E/DX2                !
 ! D42   D(11,10,12,30)         57.3993         estimate D2E/DX2                !
 ! D43   D(27,10,12,19)        -61.1269         estimate D2E/DX2                !
 ! D44   D(27,10,12,29)         60.3371         estimate D2E/DX2                !
 ! D45   D(27,10,12,30)        177.6048         estimate D2E/DX2                !
 ! D46   D(28,10,12,19)         58.6814         estimate D2E/DX2                !
 ! D47   D(28,10,12,29)       -179.8546         estimate D2E/DX2                !
 ! D48   D(28,10,12,30)        -62.5869         estimate D2E/DX2                !
 ! D49   D(10,12,19,39)        -60.3165         estimate D2E/DX2                !
 ! D50   D(10,12,19,40)         60.2007         estimate D2E/DX2                !
 ! D51   D(10,12,19,41)        179.9431         estimate D2E/DX2                !
 ! D52   D(29,12,19,39)        177.8954         estimate D2E/DX2                !
 ! D53   D(29,12,19,40)        -61.5874         estimate D2E/DX2                !
 ! D54   D(29,12,19,41)         58.1551         estimate D2E/DX2                !
 ! D55   D(30,12,19,39)         61.4002         estimate D2E/DX2                !
 ! D56   D(30,12,19,40)       -178.0826         estimate D2E/DX2                !
 ! D57   D(30,12,19,41)        -58.3401         estimate D2E/DX2                !
 ! D58   D(17,13,15,20)        -61.3322         estimate D2E/DX2                !
 ! D59   D(17,13,15,35)        177.6868         estimate D2E/DX2                !
 ! D60   D(17,13,15,36)         60.0779         estimate D2E/DX2                !
 ! D61   D(31,13,15,20)        178.7803         estimate D2E/DX2                !
 ! D62   D(31,13,15,35)         57.7993         estimate D2E/DX2                !
 ! D63   D(31,13,15,36)        -59.8097         estimate D2E/DX2                !
 ! D64   D(32,13,15,20)         61.3626         estimate D2E/DX2                !
 ! D65   D(32,13,15,35)        -59.6184         estimate D2E/DX2                !
 ! D66   D(32,13,15,36)       -177.2274         estimate D2E/DX2                !
 ! D67   D(15,13,17,2)         118.9431         estimate D2E/DX2                !
 ! D68   D(15,13,17,5)         -61.0062         estimate D2E/DX2                !
 ! D69   D(31,13,17,2)        -119.4671         estimate D2E/DX2                !
 ! D70   D(31,13,17,5)          60.5835         estimate D2E/DX2                !
 ! D71   D(32,13,17,2)          -3.6759         estimate D2E/DX2                !
 ! D72   D(32,13,17,5)         176.3748         estimate D2E/DX2                !
 ! D73   D(18,14,16,21)        178.665          estimate D2E/DX2                !
 ! D74   D(18,14,16,37)         57.3877         estimate D2E/DX2                !
 ! D75   D(18,14,16,38)        -59.8734         estimate D2E/DX2                !
 ! D76   D(33,14,16,21)        -61.1799         estimate D2E/DX2                !
 ! D77   D(33,14,16,37)        177.5428         estimate D2E/DX2                !
 ! D78   D(33,14,16,38)         60.2817         estimate D2E/DX2                !
 ! D79   D(34,14,16,21)         58.6207         estimate D2E/DX2                !
 ! D80   D(34,14,16,37)        -62.6566         estimate D2E/DX2                !
 ! D81   D(34,14,16,38)       -179.9177         estimate D2E/DX2                !
 ! D82   D(16,14,18,3)         178.9404         estimate D2E/DX2                !
 ! D83   D(16,14,18,6)          -1.0056         estimate D2E/DX2                !
 ! D84   D(33,14,18,3)          57.9211         estimate D2E/DX2                !
 ! D85   D(33,14,18,6)        -122.0249         estimate D2E/DX2                !
 ! D86   D(34,14,18,3)         -60.0106         estimate D2E/DX2                !
 ! D87   D(34,14,18,6)         120.0434         estimate D2E/DX2                !
 ! D88   D(13,15,20,42)        -56.1282         estimate D2E/DX2                !
 ! D89   D(13,15,20,43)         65.0421         estimate D2E/DX2                !
 ! D90   D(13,15,20,44)       -175.6357         estimate D2E/DX2                !
 ! D91   D(35,15,20,42)         64.7098         estimate D2E/DX2                !
 ! D92   D(35,15,20,43)       -174.1199         estimate D2E/DX2                !
 ! D93   D(35,15,20,44)        -54.7977         estimate D2E/DX2                !
 ! D94   D(36,15,20,42)       -178.1172         estimate D2E/DX2                !
 ! D95   D(36,15,20,43)        -56.9469         estimate D2E/DX2                !
 ! D96   D(36,15,20,44)         62.3753         estimate D2E/DX2                !
 ! D97   D(14,16,21,45)        -60.3263         estimate D2E/DX2                !
 ! D98   D(14,16,21,46)         60.1902         estimate D2E/DX2                !
 ! D99   D(14,16,21,47)        179.931          estimate D2E/DX2                !
 ! D100  D(37,16,21,45)         61.4126         estimate D2E/DX2                !
 ! D101  D(37,16,21,46)       -178.0709         estimate D2E/DX2                !
 ! D102  D(37,16,21,47)        -58.3302         estimate D2E/DX2                !
 ! D103  D(38,16,21,45)        177.8921         estimate D2E/DX2                !
 ! D104  D(38,16,21,46)        -61.5913         estimate D2E/DX2                !
 ! D105  D(38,16,21,47)         58.1494         estimate D2E/DX2                !
 --------------------------------------------------------------------------------
 Trust Radius=3.00D-01 FncErr=1.00D-07 GrdErr=1.00D-06 EigMax=2.50D+02 EigMin=1.00D-04
 Number of steps in this run=    245 maximum allowed number of steps=    282.
 GradGradGradGradGradGradGradGradGradGradGradGradGradGradGradGradGradGrad

                          Input orientation:                          
 ---------------------------------------------------------------------
 Center     Atomic      Atomic             Coordinates (Angstroms)
 Number     Number       Type             X           Y           Z
 ---------------------------------------------------------------------
      1          8           0        1.410300   -0.760300    1.095500
      2          8           0        0.850500    1.943500    1.388000
      3          8           0       -2.233000   -0.937400    1.271700
      4          8           0        1.368300   -1.560400   -1.068100
      5          8           0       -0.706500    2.781900   -0.093700
      6          8           0       -2.329900   -1.701700   -0.902900
      7          6           0        0.068900   -0.288100    0.949600
      8          6           0       -0.089400    0.953400    1.817700
      9          6           0       -0.888600   -1.394000    1.378700
     10          6           0        3.351300   -1.818600    0.316200
     11          6           0        1.939200   -1.382000   -0.001000
     12          6           0        4.001600   -2.546900   -0.857400
     13          6           0        1.508000    3.772600    0.080300
     14          6           0       -4.253000   -0.616200    0.116300
     15          6           0        1.932100    3.669000   -1.382600
     16          6           0       -4.985700   -0.804300   -1.209700
     17          6           0        0.403700    2.797700    0.419900
     18          6           0       -2.842200   -1.156700    0.065100
     19          6           0        5.431500   -2.952200   -0.538600
     20          6           0        2.475900    2.287700   -1.708900
     21          6           0       -6.413000   -0.286900   -1.136200
     22          1           0       -0.126000    0.006700   -0.089300
     23          1           0        0.166200    0.723700    2.858400
     24          1           0       -1.112100    1.347200    1.814000
     25          1           0       -0.710900   -1.663000    2.426800
     26          1           0       -0.723900   -2.317800    0.810300
     27          1           0        3.317900   -2.480600    1.188800
     28          1           0        3.934400   -0.925200    0.566900
     29          1           0        3.418700   -3.440100   -1.112200
     30          1           0        3.998800   -1.903300   -1.745400
     31          1           0        1.139300    4.780200    0.302400
     32          1           0        2.372700    3.604000    0.733100
     33          1           0       -4.202200    0.450500    0.362000
     34          1           0       -4.789400   -1.141700    0.914400
     35          1           0        2.702200    4.421000   -1.587700
     36          1           0        1.081400    3.885500   -2.039200
     37          1           0       -5.001000   -1.866600   -1.482000
     38          1           0       -4.449800   -0.280400   -2.010200
     39          1           0        6.047500   -2.075000   -0.316200
     40          1           0        5.465400   -3.624200    0.324800
     41          1           0        5.877200   -3.472800   -1.392100
     42          1           0        3.307900    2.024000   -1.048000
     43          1           0        1.704200    1.517400   -1.616100
     44          1           0        2.843600    2.263700   -2.739800
     45          1           0       -6.984300   -0.819000   -0.368900
     46          1           0       -6.430900    0.781700   -0.899200
     47          1           0       -6.918200   -0.430500   -2.096400
 ---------------------------------------------------------------------
                    Distance matrix (angstroms):
                    1          2          3          4          5
     1  O    0.000000
     2  O    2.776593   0.000000
     3  O    3.651855   4.221502   0.000000
     4  O    2.307182   4.310204   4.339603   0.000000
     5  O    4.294441   2.307076   4.245905   4.910175   0.000000
     6  O    4.343838   5.352630   2.307039   3.704584   4.836621
     7  C    1.429550   2.404814   2.413314   2.716303   3.333860
     8  C    2.389025   1.431207   2.910028   4.095354   2.716188
     9  C    2.401399   3.763437   1.423848   3.332884   4.431621
    10  C    2.344096   4.642860   5.733577   2.432127   6.148037
    11  C    1.366952   3.764776   4.384597   1.223297   4.934206
    12  C    3.704132   5.927474   6.781872   2.819902   7.151612
    13  C    4.646220   2.342646   6.131771   5.457035   2.432236
    14  C    5.749136   5.849359   2.349153   5.821798   4.916182
    15  C    5.102152   3.438522   6.753687   5.269099   3.067641
    16  C    6.798875   6.954112   3.708425   6.400395   5.693667
    17  C    3.758862   1.366201   4.650669   4.705065   1.223347
    18  C    4.393474   4.999734   1.369343   4.378975   4.483191
    19  C    4.862588   6.976047   8.129032   4.327479   8.411473
    20  C    4.276736   3.514426   6.438865   4.055278   3.602884
    21  C    8.149148   8.006541   4.867600   7.885117   6.562658
    22  H    2.086207   2.624340   2.680130   2.376296   2.835266
    23  H    2.618751   2.029348   3.321601   4.698889   3.703065
    24  H    3.364565   2.094958   2.601904   4.786755   2.421197
    25  H    2.662089   4.064962   2.043903   4.067914   5.109802
    26  H    2.657434   4.579427   2.096611   2.911931   5.179233
    27  H    2.570423   5.069557   5.762016   3.121107   6.747926
    28  H    2.584123   4.291163   6.207553   3.108307   5.976365
    29  H    4.011102   6.467596   6.624817   2.781970   7.534448
    30  H    4.009675   5.876041   6.990793   2.737854   6.842445
    31  H    5.603534   3.051033   6.708420   6.491065   2.749014
    32  H    4.483822   2.345900   6.490522   5.560950   3.292555
    33  H    5.788283   5.367635   2.575183   6.092567   4.226465
    34  H    6.214060   6.446024   2.589321   6.482506   5.751606
    35  H    5.976156   4.292038   7.825907   6.150319   4.066684
    36  H    5.614087   3.945932   6.723665   5.539239   2.863475
    37  H    6.998012   7.549425   4.013490   6.390075   6.479094
    38  H    6.649545   6.677325   4.014563   6.031272   5.202206
    39  H    5.022445   6.786859   8.507775   4.767083   8.321989
    40  H    5.023917   7.309376   8.208586   4.794337   8.905370
    41  H    5.787833   7.895123   8.905023   4.908404   9.173452
    42  H    3.993470   3.461126   6.697199   4.075583   4.195296
    43  H    3.553459   3.151981   5.465069   3.144199   3.118996
    44  H    5.090034   4.594966   7.218798   4.426605   4.457980
    45  H    8.521574   8.491301   5.027966   8.414540   7.242444
    46  H    8.236565   7.720094   5.028964   8.145028   6.117057
    47  H    8.925296   8.839096   5.792421   8.426159   7.274307
                    6          7          8          9         10
     6  O    0.000000
     7  C    3.344288   0.000000
     8  C    4.412602   1.523148   0.000000
     9  C    2.716197   1.524450   2.518279   0.000000
    10  C    5.811704   3.676653   4.666573   4.391576   0.000000
    11  C    4.375025   2.366068   3.588451   3.146453   1.511708
    12  C    6.387826   4.881962   6.012033   5.499398   1.526646
    13  C    6.757523   4.394994   3.676702   5.841514   5.891937
    14  C    2.432158   4.413713   4.763819   3.676658   7.701370
    15  C    6.873076   4.956744   4.658633   6.419898   5.917246
    16  C    2.820058   5.520690   6.019004   4.881986   8.535968
    17  C    5.428349   3.148783   2.366101   4.489954   5.478077
    18  C    1.223315   3.164065   3.886134   2.366096   6.233827
    19  C    7.869930   6.170061   7.161438   6.785845   2.518524
    20  C    6.297671   4.415429   4.560486   5.865837   4.661443
    21  C    4.327562   6.809228   7.088849   6.170040   9.989851
    22  H    2.904781   1.097363   2.129373   2.167612   3.948134
    23  H    5.124496   2.162573   1.095970   2.790478   4.803221
    24  H    4.261499   2.194574   1.095905   2.784532   5.673415
    25  H    3.702642   2.163460   2.757320   1.096564   4.580427
    26  H    2.427729   2.183488   3.481120   1.097092   4.135286
    27  H    6.072853   3.926866   4.878275   4.348724   1.095806
    28  H    6.481105   3.936299   4.613524   4.913260   1.095910
    29  H    6.009346   5.040564   6.339868   5.379957   2.161974
    30  H    6.387714   5.031502   6.129421   5.822892   2.162551
    31  H    7.450042   5.220372   4.295374   6.587226   6.959691
    32  H    7.276084   4.528003   3.776768   6.002739   5.525944
    33  H    3.120488   4.374140   4.391707   3.926296   7.887095
    34  H    3.108910   4.932844   5.224499   3.936429   8.190667
    35  H    7.954774   5.962196   5.604822   7.450342   6.555820
    36  H    6.644167   5.232305   4.984342   6.590604   6.575493
    37  H    2.738124   5.840225   6.554711   5.031778   8.543813
    38  H    2.782118   5.401771   5.931962   5.040525   8.284646
    39  H    8.406212   6.367018   7.168422   7.172582   2.781216
    40  H    8.122189   6.375120   7.351121   6.815997   2.780231
    41  H    8.410268   7.025825   8.092860   7.600973   3.469126
    42  H    6.759193   4.452789   4.571659   5.931459   4.077806
    43  H    5.210108   3.537916   3.914854   4.916064   4.192328
    44  H    6.772274   5.274686   5.575857   6.653580   5.124653
    45  H    4.767363   7.194993   7.447299   6.367283  10.406401
    46  H    4.794319   6.841779   6.901134   6.374919  10.194616
    47  H    4.908451   7.623514   7.991737   7.025719  10.640023
                   11         12         13         14         15
    11  C    0.000000
    12  C    2.518711   0.000000
    13  C    5.173243   6.858090   0.000000
    14  C    6.240477   8.533119   7.242374   0.000000
    15  C    5.236551   6.572372   1.526653   7.672360   0.000000
    16  C    7.053292   9.161459   8.048618   1.526600   8.239919
    17  C    4.472674   6.568191   1.511700   5.782019   2.518765
    18  C    4.787162   7.044236   6.574380   1.511661   6.940977
    19  C    3.866614   1.520038   7.810238   9.983753   7.536473
    20  C    4.083095   5.140639   2.518530   7.552621   1.519928
    21  C    8.499833  10.660639   8.983410   2.518491   9.238536
    22  H    2.490248   4.914055   4.108616   4.178804   4.395548
    23  H    3.969089   6.262131   4.337517   5.370640   5.457039
    24  H    4.478079   6.960626   3.969031   4.074602   4.987601
    25  H    3.605025   5.811618   6.322604   4.356681   7.065918
    26  H    2.937011   5.016379   6.527423   3.978898   6.906875
    27  H    2.126819   2.158420   6.603561   7.870500   6.808092
    28  H    2.124147   2.159411   5.309757   8.205610   5.377400
    29  H    2.767573   1.096586   7.556181   8.266717   7.267902
    30  H    2.748934   1.096710   6.461664   8.556562   5.954276
    31  H    6.221302   7.951370   1.095685   7.631033   2.168530
    32  H    5.058361   6.558702   1.096485   7.879748   2.162068
    33  H    6.419238   8.818939   6.612268   1.095809   7.143669
    34  H    6.794833   9.077199   8.031396   1.095828   8.578905
    35  H    6.064206   7.125546   2.151455   8.755102   1.095730
    36  H    5.712848   7.162401   2.164951   7.305293   1.096215
    37  H    7.112986   9.049848   8.752625   2.162768   8.872464
    38  H    6.787468   8.825652   7.502825   2.161827   7.531287
    39  H    4.178245   2.168247   7.413413  10.412274   7.146136
    40  H    4.191383   2.168152   8.392464  10.175403   8.281919
    41  H    4.670594   2.158951   8.587997  10.632798   8.158996
    42  H    3.817117   4.627167   2.751418   8.092803   2.170440
    43  H    3.327205   4.729927   2.828815   6.560617   2.176199
    44  H    4.648666   5.293984   3.466060   8.173914   2.155851
    45  H    8.948808  11.131679   9.664561   2.781465  10.033540
    46  H    8.691774  10.950725   8.539967   2.780038   8.860584
    47  H    9.151480  11.191796   9.664622   3.468979   9.779735
                   16         17         18         19         20
    16  C    0.000000
    17  C    6.683983   0.000000
    18  C    2.518709   5.128258   0.000000
    19  C   10.657481   7.697977   8.487779   0.000000
    20  C    8.092289   3.014283   6.579753   6.128762   0.000000
    21  C    1.519964   7.642225   3.866560  12.155375   9.271952
    22  H    5.052692   2.886096   2.958899   6.312113   3.820464
    23  H    6.739903   3.210010   4.515407   7.264656   5.351732
    24  H    5.364372   2.518951   3.510187   8.175467   5.115575
    25  H    5.677624   5.016754   3.221243   6.941521   6.547346
    26  H    4.953183   5.252831   2.527978   6.333320   6.147822
    27  H    8.804122   6.078176   6.400175   2.770130   5.642899
    28  H    9.096104   5.132975   6.799096   2.751757   4.198716
    29  H    8.808569   7.095612   6.767483   2.149053   5.835462
    30  H    9.067305   6.301799   7.115800   2.146902   4.459264
    31  H    8.425480   2.117834   7.152303   8.883708   3.470502
    32  H    8.795091   2.150622   7.092649   7.345559   2.776087
    33  H    2.158387   5.169818   2.126227  10.256589   7.229174
    34  H    2.159670   6.536948   2.124411  10.481217   8.451454
    35  H    9.303249   3.456684   8.036346   7.931820   2.148690
    36  H    7.713106   2.773041   6.726552   8.241924   2.146321
    37  H    1.096751   7.388078   2.749162  10.531172   8.556502
    38  H    1.096567   6.239916   2.767517  10.341383   7.392648
    39  H   11.142016   7.492498   8.945134   1.094713   5.807675
    40  H   10.933070   8.177448   8.670191   1.094620   6.929907
    41  H   11.187348   8.518317   9.138692   1.094594   6.697206
    42  H    8.764087   3.344805   7.012815   5.434311   1.094783
    43  H    7.092969   2.734184   5.535973   5.918707   1.094301
    44  H    8.547033   4.027651   7.203813   6.224799   1.094776
    45  H    2.168309   8.263490   4.178443  12.598866  10.047018
    46  H    2.168043   7.246795   4.191186  12.441406   9.069440
    47  H    2.158824   8.388281   4.670463  12.700425   9.787128
                   21         22         23         24         25
    21  C    0.000000
    22  H    6.380327   0.000000
    23  H    7.762990   3.047688   0.000000
    24  H    6.282794   2.528218   1.764532   0.000000
    25  H    6.863131   3.075836   2.579132   3.098030   0.000000
    26  H    6.346596   2.563214   3.773290   3.819730   1.744134
    27  H   10.242478   4.436288   4.794613   5.887939   4.293290
    28  H   10.506030   4.217331   4.708415   5.673290   5.057904
    29  H   10.324997   5.048926   6.609210   7.211729   5.721556
    30  H   10.554120   4.837845   6.541019   7.025409   6.296528
    31  H    9.207731   4.953859   4.892367   4.374840   7.032151
    32  H    9.788867   4.456502   4.204958   4.290142   6.333916
    33  H    2.770559   4.125050   5.038806   3.530027   4.573779
    34  H    2.751676   4.906479   5.640640   4.530611   4.381012
    35  H   10.269131   5.452519   6.314201   5.963950   8.048635
    36  H    8.624985   4.506109   5.900937   5.108969   7.344614
    37  H    2.146805   5.405043   7.228325   6.026248   5.807334
    38  H    2.148970   4.739993   6.783726   5.330462   5.964723
    39  H   12.614823   6.518977   7.245723   8.216391   7.305461
    40  H   12.424511   6.679721   7.307865   8.378308   6.812591
    41  H   12.698994   7.059930   8.263951   9.075340   7.827032
    42  H    9.992194   4.096373   5.178901   5.309002   6.466758
    43  H    8.329150   2.821873   4.797557   4.441407   5.682666
    44  H    9.734564   4.575776   6.393740   6.101199   7.399135
    45  H    1.094652   6.913482   7.995314   6.628741   6.919814
    46  H    1.094712   6.403774   7.592407   5.997573   7.053881
    47  H    1.094455   7.096025   8.721866   7.222343   7.778751
                   26         27         28         29         30
    26  H    0.000000
    27  H    4.062747   0.000000
    28  H    4.868094   1.784965   0.000000
    29  H    4.702839   2.495076   3.067580   0.000000
    30  H    5.385843   3.066990   2.511485   1.760458   0.000000
    31  H    7.356023   7.632249   6.358784   8.646970   7.552443
    32  H    6.683009   6.174417   4.793765   7.356534   6.254400
    33  H    4.468001   8.113375   8.254623   8.682635   8.788510
    34  H    4.233478   8.221695   8.733402   8.761430   9.213416
    35  H    7.930951   7.464591   5.894275   7.907994   6.457771
    36  H    7.061139   7.479916   6.170430   7.745109   6.489048
    37  H    4.873582   8.758668   9.215509   8.573448   9.003728
    38  H    5.097897   8.683988   8.795000   8.526629   8.607135
    39  H    6.868756   3.143287   2.562635   3.067198   2.503850
    40  H    6.344275   2.581874   3.112423   2.507557   3.065639
    41  H    7.054014   3.767695   3.755319   2.474598   2.473164
    42  H    6.209663   5.029393   3.420261   5.465600   4.048135
    43  H    5.147023   5.143491   3.963026   5.269747   4.121055
    44  H    6.805910   6.177964   4.721567   5.959292   4.437027
    45  H    6.544427  10.550956  10.959243  10.753840  11.122003
    46  H    6.715589  10.490064  10.606715  10.718376  10.802959
    47  H    7.097898  10.944094  11.185563  10.811006  11.021489
                   31         32         33         34         35
    31  H    0.000000
    32  H    1.757903   0.000000
    33  H    6.876153   7.301478   0.000000
    34  H    8.401960   8.593615   1.784671   0.000000
    35  H    2.478741   2.482372   8.199813   9.660652   0.000000
    36  H    2.507375   3.071212   6.743991   8.274224   1.765674
    37  H    9.223195   9.444871   3.067144   2.512566   9.944062
    38  H    7.886433   8.316295   2.494565   3.067646   8.569292
    39  H    8.453807   6.845161  10.578018  10.946407   7.416587
    40  H    9.452491   7.872635  10.491285  10.567467   8.718840
    41  H    9.665973   8.177964  10.957347  11.159316   8.510638
    42  H    3.758064   2.557991   7.801641   8.912852   2.530565
    43  H    3.826959   3.212403   6.319550   7.459295   3.070457
    44  H    4.300278   3.752224   7.908992   9.122095   2.449749
    45  H    9.889113  10.408207   3.144189   2.562924  11.080224
    46  H    8.645217   9.387926   2.582135   3.111774   9.855559
    47  H    9.890851  10.516848   3.767831   3.755331  10.786469
                   36         37         38         39         40
    36  H    0.000000
    37  H    8.390037   0.000000
    38  H    6.924575   1.760354   0.000000
    39  H    7.947228  11.111790  10.783484   0.000000
    40  H    9.011301  10.765650  10.721213   1.774751   0.000000
    41  H    8.806987  10.996508  10.826837   1.772120   1.772074
    42  H    3.066751   9.184930   8.149724   4.984249   6.200125
    43  H    2.484913   7.511934   6.423326   5.784404   6.659562
    44  H    2.495280   8.954283   7.758766   5.912963   7.136734
    45  H    9.485660   2.503984   3.067189  13.092293  12.780665
    46  H    8.207791   3.065577   2.507416  12.814488  12.744885
    47  H    9.089815   2.472959   2.474461  13.190257  13.015970
                   41         42         43         44         45
    41  H    0.000000
    42  H    6.077378   0.000000
    43  H    6.508932   1.775172   0.000000
    44  H    6.627704   1.770655   1.765757   0.000000
    45  H   13.172235  10.699215   9.083188  10.569381   0.000000
    46  H   13.032001   9.818843   8.199698   9.570814   1.774742
    47  H   13.170949  10.568672   8.852728  10.147188   1.771880
                   46         47
    46  H    0.000000
    47  H    1.772055   0.000000
 Stoichiometry    C15H26O6
 Framework group  C1[X(C15H26O6)]
 Deg. of freedom   135
 Full point group                 C1      NOp   1
 Largest Abelian subgroup         C1      NOp   1
 Largest concise Abelian subgroup C1      NOp   1
                         Standard orientation:                         
 ---------------------------------------------------------------------
 Center     Atomic      Atomic             Coordinates (Angstroms)
 Number     Number       Type             X           Y           Z
 ---------------------------------------------------------------------
      1          8           0        1.405840   -0.741786    1.118409
      2          8           0        0.801798    1.949478    1.437314
      3          8           0       -2.234147   -0.980140    1.290817
      4          8           0        1.377783   -1.521019   -1.053019
      5          8           0       -0.768113    2.776939   -0.036893
      6          8           0       -2.317678   -1.724368   -0.891287
      7          6           0        0.056958   -0.290151    0.976436
      8          6           0       -0.121961    0.939946    1.856680
      9          6           0       -0.882505   -1.415744    1.394047
     10          6           0        3.364191   -1.760460    0.329767
     11          6           0        1.945267   -1.343879    0.016111
     12          6           0        4.026775   -2.466387   -0.850613
     13          6           0        1.429826    3.801929    0.148128
     14          6           0       -4.258670   -0.680580    0.137522
     15          6           0        1.856142    3.719753   -1.315488
     16          6           0       -4.987672   -0.867500   -1.190681
     17          6           0        0.341477    2.805798    0.477457
     18          6           0       -2.839203   -1.197418    0.081768
     19          6           0        5.462983   -2.851398   -0.535038
     20          6           0        2.422580    2.350821   -1.655125
     21          6           0       -6.423269   -0.374249   -1.112866
     22          1           0       -0.142324    0.011689   -0.059607
     23          1           0        0.136948    0.704168    2.895200
     24          1           0       -1.150960    1.316996    1.856303
     25          1           0       -0.700846   -1.692161    2.439536
     26          1           0       -0.702499   -2.331059    0.816634
     27          1           0        3.341272   -2.431519    1.195760
     28          1           0        3.932508   -0.860173    0.589612
     29          1           0        3.458656   -3.366429   -1.114557
     30          1           0        4.013805   -1.814164   -1.732208
     31          1           0        1.044615    4.801121    0.379973
     32          1           0        2.296908    3.641032    0.799712
     33          1           0       -4.225413    0.384325    0.393785
     34          1           0       -4.786724   -1.222647    0.930089
     35          1           0        2.613927    4.486231   -1.512713
     36          1           0        1.002277    3.928807   -1.970390
     37          1           0       -4.985496   -1.927162   -1.473479
     38          1           0       -4.460091   -0.327017   -1.985663
     39          1           0        6.064472   -1.966491   -0.303633
     40          1           0        5.507522   -3.531264    0.321694
     41          1           0        5.917472   -3.356174   -1.393395
     42          1           0        3.258518    2.094228   -0.996400
     43          1           0        1.663540    1.567132   -1.570376
     44          1           0        2.791032    2.343035   -2.686006
     45          1           0       -6.986097   -0.923180   -0.351183
     46          1           0       -6.458730    0.691519   -0.865322
     47          1           0       -6.925673   -0.516578   -2.074720
 ---------------------------------------------------------------------
 Rotational constants (GHZ):           0.3180975           0.1682508           0.1295158
 Standard basis: 6-311++G(d,p) (5D, 7F)
 There are   665 symmetry adapted cartesian basis functions of A   symmetry.
 There are   644 symmetry adapted basis functions of A   symmetry.
   644 basis functions,   990 primitive gaussians,   665 cartesian basis functions
    82 alpha electrons       82 beta electrons
       nuclear repulsion energy      1802.4322476521 Hartrees.
 NAtoms=   47 NActive=   47 NUniq=   47 SFac= 1.00D+00 NAtFMM=   60 NAOKFM=F Big=F
 Integral buffers will be    131072 words long.
 Raffenetti 2 integral format.
 Two-electron integral symmetry is turned on.
 R6APFD:  NTU= -4 IXU= 1 FactS= 1.050
 Nuclear repulsion after empirical dispersion term =     1802.3882360805 Hartrees.
 One-electron integrals computed using PRISM.
 NBasis=   644 RedAO= T EigKep=  2.67D-06  NBF=   644
 NBsUse=   644 1.00D-06 EigRej= -1.00D+00 NBFU=   644
 ExpMin= 3.60D-02 ExpMax= 8.59D+03 ExpMxC= 1.30D+03 IAcc=3 IRadAn=         5 AccDes= 0.00D+00
 Harris functional with IExCor= 1009 and IRadAn=       5 diagonalized for initial guess.
 HarFok:  IExCor= 1009 AccDes= 0.00D+00 IRadAn=         5 IDoV= 1 UseB2=F ITyADJ=14
 ICtDFT=  3500011 ScaDFX=  1.000000  1.000000  1.000000  1.000000
 FoFCou: FMM=F IPFlag=           0 FMFlag=      100000 FMFlg1=           0
         NFxFlg=           0 DoJE=T BraDBF=F KetDBF=T FulRan=T
         wScrn=  0.000000 ICntrl=       500 IOpCl=  0 I1Cent=   200000004 NGrid=           0
         NMat0=    1 NMatS0=      1 NMatT0=    0 NMatD0=    1 NMtDS0=    0 NMtDT0=    0
 Petite list used in FoFCou.
 Requested convergence on RMS density matrix=1.00D-08 within  32 cycles.
 Requested convergence on MAX density matrix=1.00D-06.
 Requested convergence on             energy=1.00D-06.
 No special actions if energy rises.
 SCF Done:  E(RM08HX) =  -1038.65037394     A.U. after   15 cycles
            NFock= 15  Conv=0.36D-08     -V/T= 2.0048
 QCSCF skips out because SCF is already converged.

 **********************************************************************

            Population analysis using the SCF Density.

 **********************************************************************

 Orbital symmetries:
       Occupied  (A) (A) (A) (A) (A) (A) (A) (A) (A) (A) (A) (A)
                 (A) (A) (A) (A) (A) (A) (A) (A) (A) (A) (A) (A)
                 (A) (A) (A) (A) (A) (A) (A) (A) (A) (A) (A) (A)
                 (A) (A) (A) (A) (A) (A) (A) (A) (A) (A) (A) (A)
                 (A) (A) (A) (A) (A) (A) (A) (A) (A) (A) (A) (A)
                 (A) (A) (A) (A) (A) (A) (A) (A) (A) (A) (A) (A)
                 (A) (A) (A) (A) (A) (A) (A) (A) (A) (A)
       Virtual   (A) (A) (A) (A) (A) (A) (A) (A) (A) (A) (A) (A)
                 (A) (A) (A) (A) (A) (A) (A) (A) (A) (A) (A) (A)
                 (A) (A) (A) (A) (A) (A) (A) (A) (A) (A) (A) (A)
                 (A) (A) (A) (A) (A) (A) (A) (A) (A) (A) (A) (A)
                 (A) (A) (A) (A) (A) (A) (A) (A) (A) (A) (A) (A)
                 (A) (A) (A) (A) (A) (A) (A) (A) (A) (A) (A) (A)
                 (A) (A) (A) (A) (A) (A) (A) (A) (A) (A) (A) (A)
                 (A) (A) (A) (A) (A) (A) (A) (A) (A) (A) (A) (A)
                 (A) (A) (A) (A) (A) (A) (A) (A) (A) (A) (A) (A)
                 (A) (A) (A) (A) (A) (A) (A) (A) (A) (A) (A) (A)
                 (A) (A) (A) (A) (A) (A) (A) (A) (A) (A) (A) (A)
                 (A) (A) (A) (A) (A) (A) (A) (A) (A) (A) (A) (A)
                 (A) (A) (A) (A) (A) (A) (A) (A) (A) (A) (A) (A)
                 (A) (A) (A) (A) (A) (A) (A) (A) (A) (A) (A) (A)
                 (A) (A) (A) (A) (A) (A) (A) (A) (A) (A) (A) (A)
                 (A) (A) (A) (A) (A) (A) (A) (A) (A) (A) (A) (A)
                 (A) (A) (A) (A) (A) (A) (A) (A) (A) (A) (A) (A)
                 (A) (A) (A) (A) (A) (A) (A) (A) (A) (A) (A) (A)
                 (A) (A) (A) (A) (A) (A) (A) (A) (A) (A) (A) (A)
                 (A) (A) (A) (A) (A) (A) (A) (A) (A) (A) (A) (A)
                 (A) (A) (A) (A) (A) (A) (A) (A) (A) (A) (A) (A)
                 (A) (A) (A) (A) (A) (A) (A) (A) (A) (A) (A) (A)
                 (A) (A) (A) (A) (A) (A) (A) (A) (A) (A) (A) (A)
                 (A) (A) (A) (A) (A) (A) (A) (A) (A) (A) (A) (A)
                 (A) (A) (A) (A) (A) (A) (A) (A) (A) (A) (A) (A)
                 (A) (A) (A) (A) (A) (A) (A) (A) (A) (A) (A) (A)
                 (A) (A) (A) (A) (A) (A) (A) (A) (A) (A) (A) (A)
                 (A) (A) (A) (A) (A) (A) (A) (A) (A) (A) (A) (A)
                 (A) (A) (A) (A) (A) (A) (A) (A) (A) (A) (A) (A)
                 (A) (A) (A) (A) (A) (A) (A) (A) (A) (A) (A) (A)
                 (A) (A) (A) (A) (A) (A) (A) (A) (A) (A) (A) (A)
                 (A) (A) (A) (A) (A) (A) (A) (A) (A) (A) (A) (A)
                 (A) (A) (A) (A) (A) (A) (A) (A) (A) (A) (A) (A)
                 (A) (A) (A) (A) (A) (A) (A) (A) (A) (A) (A) (A)
                 (A) (A) (A) (A) (A) (A) (A) (A) (A) (A) (A) (A)
                 (A) (A) (A) (A) (A) (A) (A) (A) (A) (A) (A) (A)
                 (A) (A) (A) (A) (A) (A) (A) (A) (A) (A) (A) (A)
                 (A) (A) (A) (A) (A) (A) (A) (A) (A) (A) (A) (A)
                 (A) (A) (A) (A) (A) (A) (A) (A) (A) (A) (A) (A)
                 (A) (A) (A) (A) (A) (A) (A) (A) (A) (A) (A) (A)
                 (A) (A) (A) (A) (A) (A) (A) (A) (A) (A) (A) (A)
                 (A) (A) (A) (A) (A) (A) (A) (A) (A) (A) (A) (A)
                 (A) (A) (A) (A) (A) (A) (A) (A) (A) (A) (A) (A)
                 (A) (A) (A) (A) (A) (A) (A) (A) (A) (A) (A) (A)
                 (A) (A) (A) (A) (A) (A) (A) (A) (A) (A) (A) (A)
                 (A) (A) (A) (A) (A) (A) (A) (A) (A) (A) (A) (A)
                 (A) (A) (A) (A) (A) (A) (A) (A) (A) (A)
 The electronic state is 1-A.
 Alpha  occ. eigenvalues --  -19.66941 -19.66910 -19.66829 -19.61173 -19.61064
 Alpha  occ. eigenvalues --  -19.60821 -10.67719 -10.67670 -10.67402 -10.60849
 Alpha  occ. eigenvalues --  -10.60046 -10.59912 -10.54678 -10.54393 -10.54333
 Alpha  occ. eigenvalues --  -10.53487 -10.52903 -10.52521 -10.51938 -10.51786
 Alpha  occ. eigenvalues --  -10.51557  -1.24440  -1.23591  -1.23247  -1.14985
 Alpha  occ. eigenvalues --   -1.14358  -1.14139  -0.93533  -0.91627  -0.91216
 Alpha  occ. eigenvalues --   -0.89850  -0.84850  -0.82909  -0.80802  -0.78992
 Alpha  occ. eigenvalues --   -0.75231  -0.70654  -0.69615  -0.68365  -0.66782
 Alpha  occ. eigenvalues --   -0.65691  -0.64405  -0.60301  -0.59907  -0.59010
 Alpha  occ. eigenvalues --   -0.58606  -0.58207  -0.57075  -0.56930  -0.56353
 Alpha  occ. eigenvalues --   -0.55474  -0.53895  -0.53033  -0.52128  -0.51496
 Alpha  occ. eigenvalues --   -0.50399  -0.49161  -0.48994  -0.48468  -0.48211
 Alpha  occ. eigenvalues --   -0.47435  -0.47088  -0.45852  -0.45481  -0.44265
 Alpha  occ. eigenvalues --   -0.43849  -0.42897  -0.42258  -0.41971  -0.41556
 Alpha  occ. eigenvalues --   -0.41019  -0.40879  -0.40688  -0.40574  -0.40373
 Alpha  occ. eigenvalues --   -0.40041  -0.39645  -0.38401  -0.36900  -0.36337
 Alpha  occ. eigenvalues --   -0.36187  -0.35941
 Alpha virt. eigenvalues --   -0.03369  -0.02654  -0.02424  -0.01913  -0.01158
 Alpha virt. eigenvalues --   -0.00950  -0.00774  -0.00476   0.00033   0.00364
 Alpha virt. eigenvalues --    0.00416   0.01021   0.01346   0.01735   0.02331
 Alpha virt. eigenvalues --    0.02446   0.02705   0.02935   0.03084   0.03564
 Alpha virt. eigenvalues --    0.03682   0.03768   0.03919   0.04342   0.04672
 Alpha virt. eigenvalues --    0.04784   0.05110   0.05588   0.05974   0.06258
 Alpha virt. eigenvalues --    0.06449   0.06725   0.07456   0.07840   0.08783
 Alpha virt. eigenvalues --    0.08962   0.09207   0.09385   0.09624   0.09843
 Alpha virt. eigenvalues --    0.09974   0.10062   0.10569   0.10824   0.11423
 Alpha virt. eigenvalues --    0.11731   0.11933   0.11959   0.12087   0.12409
 Alpha virt. eigenvalues --    0.12540   0.12810   0.12896   0.13041   0.13224
 Alpha virt. eigenvalues --    0.13569   0.13697   0.13785   0.14034   0.14475
 Alpha virt. eigenvalues --    0.14483   0.14938   0.15161   0.15254   0.15686
 Alpha virt. eigenvalues --    0.15807   0.15911   0.16011   0.16177   0.16493
 Alpha virt. eigenvalues --    0.16982   0.17131   0.17599   0.17766   0.17920
 Alpha virt. eigenvalues --    0.18094   0.18516   0.18629   0.19070   0.19322
 Alpha virt. eigenvalues --    0.19531   0.19677   0.19947   0.20522   0.20787
 Alpha virt. eigenvalues --    0.21140   0.21568   0.21943   0.22018   0.22488
 Alpha virt. eigenvalues --    0.22858   0.22948   0.23107   0.23668   0.24311
 Alpha virt. eigenvalues --    0.24548   0.24985   0.25264   0.25636   0.26265
 Alpha virt. eigenvalues --    0.26342   0.26615   0.26676   0.26829   0.27698
 Alpha virt. eigenvalues --    0.28105   0.28500   0.29009   0.29510   0.29689
 Alpha virt. eigenvalues --    0.29929   0.30378   0.30637   0.30778   0.31222
 Alpha virt. eigenvalues --    0.31758   0.31892   0.32063   0.32280   0.32533
 Alpha virt. eigenvalues --    0.33163   0.33401   0.33614   0.34134   0.34445
 Alpha virt. eigenvalues --    0.34842   0.34918   0.35411   0.35735   0.36076
 Alpha virt. eigenvalues --    0.36516   0.36941   0.37074   0.37398   0.37651
 Alpha virt. eigenvalues --    0.37907   0.38453   0.38911   0.39163   0.39634
 Alpha virt. eigenvalues --    0.40028   0.40790   0.41257   0.41752   0.41941
 Alpha virt. eigenvalues --    0.42255   0.43089   0.43562   0.43719   0.44792
 Alpha virt. eigenvalues --    0.45787   0.46017   0.46236   0.47064   0.47133
 Alpha virt. eigenvalues --    0.47558   0.48496   0.49060   0.49949   0.50305
 Alpha virt. eigenvalues --    0.50924   0.51224   0.51721   0.52978   0.53163
 Alpha virt. eigenvalues --    0.53738   0.54472   0.55367   0.56164   0.56450
 Alpha virt. eigenvalues --    0.57509   0.57979   0.58677   0.59012   0.60644
 Alpha virt. eigenvalues --    0.61689   0.62928   0.63857   0.64499   0.64774
 Alpha virt. eigenvalues --    0.65520   0.65594   0.65941   0.66563   0.67323
 Alpha virt. eigenvalues --    0.67960   0.68665   0.68929   0.69606   0.69710
 Alpha virt. eigenvalues --    0.69916   0.70155   0.70712   0.70774   0.71218
 Alpha virt. eigenvalues --    0.72062   0.72204   0.72483   0.72698   0.73027
 Alpha virt. eigenvalues --    0.73581   0.74181   0.74577   0.75483   0.75582
 Alpha virt. eigenvalues --    0.75847   0.76076   0.76480   0.77126   0.77709
 Alpha virt. eigenvalues --    0.77980   0.78211   0.78367   0.78586   0.78931
 Alpha virt. eigenvalues --    0.79268   0.79749   0.80317   0.80521   0.81344
 Alpha virt. eigenvalues --    0.81676   0.81884   0.82844   0.83153   0.83592
 Alpha virt. eigenvalues --    0.84133   0.86301   0.88071   0.89798   0.92567
 Alpha virt. eigenvalues --    0.93656   0.94731   0.95046   0.96920   0.99337
 Alpha virt. eigenvalues --    1.00513   1.00703   1.01447   1.03162   1.03412
 Alpha virt. eigenvalues --    1.03918   1.04973   1.06321   1.06938   1.08023
 Alpha virt. eigenvalues --    1.08920   1.12113   1.12649   1.13616   1.15765
 Alpha virt. eigenvalues --    1.17344   1.19653   1.20665   1.21296   1.22036
 Alpha virt. eigenvalues --    1.23081   1.23754   1.24950   1.26438   1.27003
 Alpha virt. eigenvalues --    1.27296   1.27862   1.28410   1.28703   1.29632
 Alpha virt. eigenvalues --    1.30191   1.30644   1.30779   1.31449   1.31828
 Alpha virt. eigenvalues --    1.32684   1.33819   1.36115   1.36292   1.37122
 Alpha virt. eigenvalues --    1.37804   1.38398   1.39236   1.40001   1.41019
 Alpha virt. eigenvalues --    1.42814   1.43531   1.45046   1.46154   1.47201
 Alpha virt. eigenvalues --    1.49016   1.49375   1.51706   1.52255   1.52903
 Alpha virt. eigenvalues --    1.53771   1.54914   1.55286   1.55545   1.56702
 Alpha virt. eigenvalues --    1.58395   1.59430   1.59848   1.60083   1.60369
 Alpha virt. eigenvalues --    1.60660   1.61081   1.61425   1.61581   1.62467
 Alpha virt. eigenvalues --    1.62968   1.63081   1.63716   1.63886   1.64315
 Alpha virt. eigenvalues --    1.64670   1.64903   1.65165   1.65885   1.66475
 Alpha virt. eigenvalues --    1.67802   1.68020   1.68868   1.69369   1.70044
 Alpha virt. eigenvalues --    1.70759   1.70932   1.71612   1.72214   1.72632
 Alpha virt. eigenvalues --    1.73484   1.73695   1.74360   1.75764   1.75920
 Alpha virt. eigenvalues --    1.76270   1.76565   1.77612   1.78502   1.78992
 Alpha virt. eigenvalues --    1.80322   1.81709   1.81760   1.82224   1.83586
 Alpha virt. eigenvalues --    1.84410   1.84463   1.85559   1.85970   1.86442
 Alpha virt. eigenvalues --    1.87214   1.88424   1.90304   1.91349   1.91852
 Alpha virt. eigenvalues --    1.93015   1.94085   1.96495   1.96917   1.97486
 Alpha virt. eigenvalues --    1.98825   2.00767   2.02290   2.04352   2.04692
 Alpha virt. eigenvalues --    2.06172   2.07286   2.09212   2.09925   2.11047
 Alpha virt. eigenvalues --    2.12798   2.13410   2.14417   2.14927   2.15934
 Alpha virt. eigenvalues --    2.17920   2.18943   2.19622   2.20181   2.23765
 Alpha virt. eigenvalues --    2.24165   2.24466   2.25338   2.25789   2.26698
 Alpha virt. eigenvalues --    2.28842   2.30248   2.30897   2.32247   2.33349
 Alpha virt. eigenvalues --    2.36029   2.37259   2.39840   2.40297   2.40507
 Alpha virt. eigenvalues --    2.41011   2.41817   2.42167   2.42962   2.43412
 Alpha virt. eigenvalues --    2.44045   2.50688   2.50902   2.51812   2.51994
 Alpha virt. eigenvalues --    2.52390   2.52836   2.54257   2.54756   2.54896
 Alpha virt. eigenvalues --    2.54974   2.56403   2.57285   2.58550   2.59622
 Alpha virt. eigenvalues --    2.60269   2.60845   2.62535   2.62679   2.63519
 Alpha virt. eigenvalues --    2.63939   2.64471   2.65340   2.65672   2.66476
 Alpha virt. eigenvalues --    2.66734   2.66980   2.68535   2.68929   2.70385
 Alpha virt. eigenvalues --    2.71527   2.71696   2.73098   2.73833   2.74604
 Alpha virt. eigenvalues --    2.75309   2.75759   2.75993   2.76649   2.77710
 Alpha virt. eigenvalues --    2.78425   2.79226   2.79766   2.80227   2.82443
 Alpha virt. eigenvalues --    2.84208   2.84845   2.86005   2.88275   2.89201
 Alpha virt. eigenvalues --    2.89682   2.90953   2.92037   2.92806   2.94097
 Alpha virt. eigenvalues --    2.95051   2.96917   2.98361   2.99271   2.99482
 Alpha virt. eigenvalues --    3.00090   3.01030   3.04281   3.05576   3.06503
 Alpha virt. eigenvalues --    3.07370   3.08603   3.11290   3.14303   3.14610
 Alpha virt. eigenvalues --    3.15370   3.15986   3.17412   3.19844   3.20791
 Alpha virt. eigenvalues --    3.25492   3.27194   3.27857   3.28186   3.29269
 Alpha virt. eigenvalues --    3.29993   3.30602   3.33663   3.35180   3.43369
 Alpha virt. eigenvalues --    3.43608   3.44295   3.44680   3.47038   3.47864
 Alpha virt. eigenvalues --    3.52496   3.61851   3.62371   3.64074   3.71545
 Alpha virt. eigenvalues --    3.73030   3.76270   3.81724   3.82293   3.82499
 Alpha virt. eigenvalues --    3.83709   3.84080   3.84167   3.84395   3.84625
 Alpha virt. eigenvalues --    3.85053   3.86790   3.88588   3.88755   3.90588
 Alpha virt. eigenvalues --    3.90818   4.02878   4.08178   4.10457   4.13089
 Alpha virt. eigenvalues --    4.14931   4.18612   4.19306   4.22171   4.22768
 Alpha virt. eigenvalues --    4.27751   4.28356   4.29741   4.31336   4.37436
 Alpha virt. eigenvalues --    4.40784   4.44404   4.45212   5.20506   5.20657
 Alpha virt. eigenvalues --    5.21560   5.23284   5.24771   5.28972   5.36932
 Alpha virt. eigenvalues --    5.38373   5.40658   5.51884   5.52877   5.54777
 Alpha virt. eigenvalues --    5.72359   5.74338   5.79507   5.96463   5.97675
 Alpha virt. eigenvalues --    6.00659  23.84838  23.87005  23.88003  23.90592
 Alpha virt. eigenvalues --   23.91433  23.93810  23.94837  23.95210  23.95709
 Alpha virt. eigenvalues --   23.97519  23.98173  24.00212  24.03606  24.03921
 Alpha virt. eigenvalues --   24.05553  49.91660  49.93144  49.95863  50.00840
 Alpha virt. eigenvalues --   50.01225  50.02436
          Condensed to atoms (all electrons):
               1          2          3          4          5          6
     1  O    8.447745  -0.008673  -0.006473  -0.150471  -0.003039  -0.000166
     2  O   -0.008673   8.248098  -0.004320   0.005584  -0.149563   0.000386
     3  O   -0.006473  -0.004320   8.401059  -0.003241  -0.003341  -0.134223
     4  O   -0.150471   0.005584  -0.003241   7.704871  -0.000016   0.004389
     5  O   -0.003039  -0.149563  -0.003341  -0.000016   7.758373  -0.000571
     6  O   -0.000166   0.000386  -0.134223   0.004389  -0.000571   7.763383
     7  C    0.063197  -0.416282   0.093418   0.046411  -0.039828   0.018776
     8  C   -0.039415   0.402939   0.198063  -0.011352  -0.007852  -0.007571
     9  C   -0.162754  -0.060428  -0.119920  -0.051536   0.016322  -0.044254
    10  C   -0.722176   0.004481   0.011994   0.408895  -0.000943   0.004832
    11  C    0.116529   0.021059   0.062988   0.177785   0.001321   0.011753
    12  C    0.042207   0.002465   0.000269  -0.100105  -0.000329   0.000698
    13  C   -0.029951  -0.351402   0.001680   0.003705   0.046663  -0.000672
    14  C    0.011855  -0.011199  -0.372114  -0.007465   0.001724   0.308268
    15  C   -0.019013  -0.033966   0.000769   0.005184   0.010037   0.000213
    16  C    0.002146   0.000391   0.031727   0.000222  -0.003213  -0.073664
    17  C    0.033937   0.054141  -0.010931  -0.001712   0.508471  -0.006714
    18  C    0.070419   0.031646  -0.123549   0.010184   0.002276   0.226824
    19  C    0.002782   0.000707  -0.000107   0.044387   0.000023  -0.000097
    20  C    0.038011   0.038913  -0.001401  -0.028844  -0.035291   0.000305
    21  C    0.000025  -0.000111   0.011441  -0.000215  -0.000003   0.049504
    22  H    0.021113   0.090536  -0.053119   0.000240  -0.003175  -0.001248
    23  H   -0.029887  -0.092332   0.001692  -0.001520   0.000408   0.000510
    24  H    0.036520   0.018066  -0.006709  -0.000047   0.008200   0.000029
    25  H   -0.002541  -0.005563  -0.115649   0.000966   0.000851   0.000924
    26  H   -0.013539   0.004955  -0.014864  -0.000103   0.000644   0.001138
    27  H    0.016889  -0.001079   0.000776  -0.000503  -0.000071  -0.000298
    28  H   -0.001570   0.002337  -0.000714   0.009731  -0.000138   0.000302
    29  H   -0.010920  -0.000001  -0.000034  -0.010258   0.000014   0.000206
    30  H   -0.007045   0.000169   0.000180  -0.014661   0.000010  -0.000086
    31  H   -0.000348  -0.002501  -0.000138   0.000073  -0.002368  -0.000014
    32  H   -0.002404   0.007491   0.000451  -0.000228   0.001462  -0.000023
    33  H   -0.001110  -0.000847   0.007494   0.000052  -0.000474   0.012421
    34  H    0.000006  -0.000338   0.012907  -0.000161   0.000147  -0.003886
    35  H   -0.000517  -0.002852   0.000004  -0.000058  -0.001272   0.000013
    36  H    0.000270  -0.002123   0.000158   0.000147   0.001922  -0.000089
    37  H    0.000196   0.000050  -0.010048   0.000140  -0.000016  -0.009306
    38  H   -0.000082  -0.000085  -0.008352   0.000178   0.000050  -0.016051
    39  H    0.000455  -0.000109  -0.000002  -0.000432  -0.000001   0.000003
    40  H   -0.001115   0.000039   0.000006  -0.000400   0.000003  -0.000005
    41  H    0.001194   0.000018  -0.000004   0.001014  -0.000001  -0.000000
    42  H    0.006037   0.002957  -0.000108   0.004530   0.003323  -0.000143
    43  H   -0.016840  -0.029696   0.001192   0.013622  -0.004578  -0.001191
    44  H    0.002499   0.002361  -0.000147  -0.003752  -0.002272   0.000095
    45  H   -0.000014   0.000013  -0.000651   0.000005  -0.000009  -0.000441
    46  H    0.000013   0.000003   0.000304  -0.000004   0.000007  -0.000355
    47  H    0.000004  -0.000005   0.001278  -0.000009  -0.000021   0.001314
               7          8          9         10         11         12
     1  O    0.063197  -0.039415  -0.162754  -0.722176   0.116529   0.042207
     2  O   -0.416282   0.402939  -0.060428   0.004481   0.021059   0.002465
     3  O    0.093418   0.198063  -0.119920   0.011994   0.062988   0.000269
     4  O    0.046411  -0.011352  -0.051536   0.408895   0.177785  -0.100105
     5  O   -0.039828  -0.007852   0.016322  -0.000943   0.001321  -0.000329
     6  O    0.018776  -0.007571  -0.044254   0.004832   0.011753   0.000698
     7  C   16.411630  -4.399362  -3.782555   0.395111  -1.034450  -0.211853
     8  C   -4.399362  13.098790  -2.280680  -0.316179  -0.691953  -0.030377
     9  C   -3.782555  -2.280680  14.167788  -0.090532  -0.500163  -0.050808
    10  C    0.395111  -0.316179  -0.090532  13.941448  -5.998007  -2.240133
    11  C   -1.034450  -0.691953  -0.500163  -5.998007  13.144848   1.412874
    12  C   -0.211853  -0.030377  -0.050808  -2.240133   1.412874   7.567204
    13  C    0.401108  -0.627186   0.148445   0.017257   0.059515  -0.001245
    14  C    0.609836   0.073622  -0.730296   0.006088   0.062701   0.000231
    15  C   -0.011689  -0.121017   0.030058   0.015061   0.139894  -0.007664
    16  C   -0.015738  -0.006562  -0.073776  -0.001056   0.004135   0.000408
    17  C   -0.245415   0.076631  -0.388675  -0.039893   0.060402   0.009612
    18  C   -1.099876   0.481475  -0.103604   0.000408  -0.348879  -0.003570
    19  C   -0.042556  -0.000568   0.005552   0.904719  -0.675582  -0.962022
    20  C    0.110460   0.150698  -0.026482   0.099891  -0.333369   0.004314
    21  C    0.014974  -0.001139  -0.015844  -0.000035   0.002154  -0.000027
    22  H    0.021301  -0.150667  -0.256762  -0.416954   0.350747   0.009260
    23  H    0.170446   0.305587  -0.007165   0.017727   0.032528  -0.003035
    24  H   -0.308378   0.523559  -0.088777  -0.019729   0.007414   0.003041
    25  H    0.052177  -0.166471   0.572386  -0.032444   0.019315   0.002568
    26  H   -0.225758   0.134803   0.361246   0.021746  -0.041896  -0.004486
    27  H   -0.010706   0.011122   0.000368   0.394142  -0.006593  -0.055595
    28  H    0.017233  -0.020858   0.006299   0.649749  -0.229113  -0.113941
    29  H    0.004692  -0.002640  -0.002141  -0.070258   0.022173   0.502632
    30  H    0.008959   0.004622  -0.006010  -0.143441   0.059559   0.531512
    31  H    0.003417  -0.008400  -0.001011  -0.000065   0.003372  -0.000382
    32  H    0.011704  -0.018365  -0.009193   0.002828  -0.007994   0.001306
    33  H   -0.040919   0.027938   0.039162   0.000797  -0.007875  -0.000156
    34  H    0.016591  -0.003177  -0.014400   0.000048   0.003235  -0.000001
    35  H    0.009568  -0.009420   0.003313   0.003293  -0.001584  -0.000432
    36  H   -0.006717   0.004418  -0.004303  -0.001834   0.000196   0.000256
    37  H   -0.010662  -0.000486   0.010804  -0.000089  -0.002997  -0.000039
    38  H   -0.000391  -0.000947  -0.006754   0.000674   0.001327   0.000084
    39  H    0.000121  -0.000516   0.001096  -0.031388  -0.009494  -0.000968
    40  H   -0.001325   0.000222  -0.001014  -0.026804  -0.018176   0.003879
    41  H   -0.001157  -0.000274   0.000159   0.005588   0.015879  -0.049173
    42  H   -0.062583   0.020969  -0.009150  -0.045664   0.054424   0.003780
    43  H    0.047664   0.014980   0.045007   0.043534  -0.009960  -0.011398
    44  H    0.004359   0.005104  -0.000579  -0.000355  -0.009038   0.001863
    45  H   -0.000617  -0.000086  -0.001766   0.000015   0.000092   0.000000
    46  H    0.001958  -0.000288  -0.000058  -0.000044  -0.000095  -0.000001
    47  H    0.000879   0.000052  -0.000835   0.000009   0.000144   0.000003
              13         14         15         16         17         18
     1  O   -0.029951   0.011855  -0.019013   0.002146   0.033937   0.070419
     2  O   -0.351402  -0.011199  -0.033966   0.000391   0.054141   0.031646
     3  O    0.001680  -0.372114   0.000769   0.031727  -0.010931  -0.123549
     4  O    0.003705  -0.007465   0.005184   0.000222  -0.001712   0.010184
     5  O    0.046663   0.001724   0.010037  -0.003213   0.508471   0.002276
     6  O   -0.000672   0.308268   0.000213  -0.073664  -0.006714   0.226824
     7  C    0.401108   0.609836  -0.011689  -0.015738  -0.245415  -1.099876
     8  C   -0.627186   0.073622  -0.121017  -0.006562   0.076631   0.481475
     9  C    0.148445  -0.730296   0.030058  -0.073776  -0.388675  -0.103604
    10  C    0.017257   0.006088   0.015061  -0.001056  -0.039893   0.000408
    11  C    0.059515   0.062701   0.139894   0.004135   0.060402  -0.348879
    12  C   -0.001245   0.000231  -0.007664   0.000408   0.009612  -0.003570
    13  C    9.307691  -0.016031  -0.446095   0.004469  -2.410190  -0.004713
    14  C   -0.016031  11.699381  -0.007309  -1.983758  -0.033978  -4.340715
    15  C   -0.446095  -0.007309   7.264767   0.000189  -0.275967  -0.001849
    16  C    0.004469  -1.983758   0.000189   7.378917   0.009440   1.101288
    17  C   -2.410190  -0.033978  -0.275967   0.009440   8.794977   0.102883
    18  C   -0.004713  -4.340715  -0.001849   1.101288   0.102883  10.688383
    19  C    0.000067   0.000235   0.002380  -0.000028  -0.003126   0.001769
    20  C   -0.415286   0.000232  -0.933384  -0.001066   0.343663  -0.000312
    21  C   -0.000129   0.686967  -0.000128  -0.889610  -0.001130  -0.540160
    22  H   -0.004755  -0.048327   0.060001  -0.027402  -0.137227  -0.160358
    23  H   -0.002080   0.026991   0.001505  -0.001252   0.002604  -0.054099
    24  H   -0.085168  -0.011912  -0.014635  -0.002278   0.033943   0.089163
    25  H   -0.000419  -0.002586   0.000835  -0.009687  -0.013267  -0.053238
    26  H    0.000530  -0.068715   0.000396   0.012384   0.000418   0.107748
    27  H    0.000157   0.000899  -0.001016   0.000132   0.002795   0.000770
    28  H   -0.004003  -0.001272   0.006048  -0.000051  -0.009943   0.000538
    29  H    0.000233   0.000120   0.000483  -0.000109  -0.000534  -0.001053
    30  H   -0.000654   0.000081  -0.002457  -0.000010   0.000448  -0.000934
    31  H    0.360853   0.000314  -0.037837  -0.000095  -0.003220  -0.000095
    32  H    0.601229  -0.000410  -0.018080   0.000007  -0.202270   0.001311
    33  H    0.001263   0.535567   0.000826  -0.070654  -0.000544  -0.154514
    34  H    0.000080   0.451131   0.000001  -0.097801   0.000255  -0.039028
    35  H   -0.077263  -0.000391   0.460184   0.000029  -0.005163   0.000016
    36  H    0.039267   0.000589   0.516828  -0.000050  -0.109981  -0.000718
    37  H   -0.000137  -0.077011   0.000013   0.497510   0.000075   0.030972
    38  H    0.000208  -0.108687  -0.000395   0.525232   0.000090   0.043585
    39  H    0.000661   0.000020  -0.000684   0.000000  -0.000251   0.000061
    40  H   -0.000088  -0.000004   0.000131  -0.000002   0.000012  -0.000112
    41  H   -0.000060  -0.000001  -0.000208   0.000002   0.000048   0.000059
    42  H   -0.001350   0.000482   0.004707   0.000070  -0.010321  -0.001121
    43  H    0.025609   0.006551  -0.015083   0.001669   0.051421   0.021719
    44  H   -0.027111  -0.000466  -0.083372  -0.000106   0.026090  -0.000067
    45  H    0.000032  -0.045530   0.000001   0.011703   0.000117  -0.005020
    46  H   -0.000166  -0.026490  -0.000020  -0.007244  -0.000285  -0.004914
    47  H    0.000033   0.013394  -0.000001  -0.052209   0.000041   0.008146
              19         20         21         22         23         24
     1  O    0.002782   0.038011   0.000025   0.021113  -0.029887   0.036520
     2  O    0.000707   0.038913  -0.000111   0.090536  -0.092332   0.018066
     3  O   -0.000107  -0.001401   0.011441  -0.053119   0.001692  -0.006709
     4  O    0.044387  -0.028844  -0.000215   0.000240  -0.001520  -0.000047
     5  O    0.000023  -0.035291  -0.000003  -0.003175   0.000408   0.008200
     6  O   -0.000097   0.000305   0.049504  -0.001248   0.000510   0.000029
     7  C   -0.042556   0.110460   0.014974   0.021301   0.170446  -0.308378
     8  C   -0.000568   0.150698  -0.001139  -0.150667   0.305587   0.523559
     9  C    0.005552  -0.026482  -0.015844  -0.256762  -0.007165  -0.088777
    10  C    0.904719   0.099891  -0.000035  -0.416954   0.017727  -0.019729
    11  C   -0.675582  -0.333369   0.002154   0.350747   0.032528   0.007414
    12  C   -0.962022   0.004314  -0.000027   0.009260  -0.003035   0.003041
    13  C    0.000067  -0.415286  -0.000129  -0.004755  -0.002080  -0.085168
    14  C    0.000235   0.000232   0.686967  -0.048327   0.026991  -0.011912
    15  C    0.002380  -0.933384  -0.000128   0.060001   0.001505  -0.014635
    16  C   -0.000028  -0.001066  -0.889610  -0.027402  -0.001252  -0.002278
    17  C   -0.003126   0.343663  -0.001130  -0.137227   0.002604   0.033943
    18  C    0.001769  -0.000312  -0.540160  -0.160358  -0.054099   0.089163
    19  C    6.612373   0.003494  -0.000003  -0.010071   0.000059  -0.000133
    20  C    0.003494   6.704156   0.000019  -0.057958   0.002139   0.011271
    21  C   -0.000003   0.000019   6.520020   0.004935   0.000679  -0.001799
    22  H   -0.010071  -0.057958   0.004935   1.349628  -0.027882   0.015680
    23  H    0.000059   0.002139   0.000679  -0.027882   0.452459  -0.058655
    24  H   -0.000133   0.011271  -0.001799   0.015680  -0.058655   0.531103
    25  H   -0.000296   0.000432  -0.002784   0.034433   0.000554  -0.005123
    26  H    0.000624  -0.001246  -0.002233  -0.011046  -0.005003   0.000971
    27  H   -0.005921   0.001221   0.000017   0.000925   0.000853   0.000358
    28  H    0.031617  -0.002183  -0.000012  -0.001296  -0.000056  -0.000653
[...]
 0001267,-0.00000212,0.00000858,0.00001149,0.00002670,-0.00003522,-0.00
 003935,-0.00002468,-0.00005553,-0.00002343,-0.00000974,0.00000623,0.00
 000077,0.00000644,0.01226347,-0.00508752,-0.01296861,-0.01166347,0.006
 41272,0.01364661,0.15812563,0.00024022,-0.00048907,-0.00019233,-0.0004
 2738,0.00073258,-0.00008533,-0.00004222,0.00002651,-0.00005933,0.00004
 097,-0.00000656,-0.00067820,0.00042174,0.00062708,-0.00013739,-0.00005
 259,-0.00001337,-0.00003630,-0.00029650,-0.00006257,-0.00028250,0.0001
 2507,-0.00014249,-0.00009163,0.00013612,0.00001867,0.00021055,-0.00006
 143,0.00015538,-0.00008900,-0.00039093,0.00088764,0.00078752,0.0001357
 4,-0.00028893,0.00020839,0.00376108,-0.00357519,0.00250852,-0.00000109
 ,0.00000181,-0.00000926,0.01487976,-0.00808171,-0.02014978,-0.00001010
 ,-0.00000050,0.00001256,-0.00045001,-0.00162306,0.00122306,0.00009418,
 -0.00004312,0.00005092,0.00003022,0.00012120,-0.00010685,0.04642274,-0
 .06614756,-0.05595314,-0.00000018,-0.00000196,-0.00000935,0.00021449,0
 .00008872,0.00018318,-0.00000188,0.00004417,0.00001283,-0.00000344,0.0
 0000970,0.00000641,-0.00006339,-0.00005725,0.00001964,-0.00000738,-0.0
 0000157,-0.00000066,0.00001987,0.00001242,-0.00005270,0.00000820,0.000
 05256,-0.00004112,-0.00002329,0.00004222,-0.00005206,0.00061011,-0.000
 76021,0.00002992,0.00091482,-0.00065890,-0.00124255,-0.00022621,0.0002
 4321,0.00025968,-0.00000758,-0.00000134,0.00000721,0.00000079,0.000006
 32,-0.00000104,-0.00068004,0.00048258,-0.00060585,-0.00002117,0.000435
 53,0.00028262,0.00000361,0.00000492,0.00000008,0.00000178,-0.00000824,
 -0.00000937,-0.00002941,-0.00001865,-0.00002408,-0.00007637,-0.0000066
 3,-0.00001478,-0.00000832,0.00000235,0.00001307,0.00475016,-0.00319102
 ,-0.00481333,-0.01503026,0.00804996,0.01893002,-0.05489662,0.07312895,
 -0.00049227,0.00071924,0.00033449,0.00098337,-0.00036252,-0.00027914,0
 .00001858,0.00003728,0.00004751,-0.00026482,0.00022175,0.00034031,0.00
 035141,0.00007043,0.00023016,0.00002583,0.00005148,0.00003749,0.000083
 11,-0.00016849,0.00016817,-0.00013889,-0.00035368,0.00030368,-0.000078
 22,-0.00000992,-0.00005123,-0.00000245,-0.00001127,-0.00013851,0.00096
 792,-0.00071161,-0.00099576,-0.00011329,0.00009920,-0.00054037,-0.0014
 3236,0.00153482,0.00009089,0.00000261,-0.00000928,-0.00000315,-0.00766
 387,0.00372918,0.00893811,-0.00000949,-0.00000647,-0.00000023,-0.00108
 770,0.00066696,-0.00089452,-0.00005342,-0.00003667,-0.00005408,-0.0000
 5747,-0.00006001,0.00016912,0.12097988,-0.05709156,-0.19056169,-0.0000
 0101,0.00000188,-0.00000115,-0.00011509,-0.00005174,-0.00010762,-0.000
 00345,0.00001119,-0.00001702,0.00003741,0.00006427,-0.00003109,0.00002
 633,0.00001445,-0.00001066,0.00002724,0.00002524,-0.00000117,-0.000030
 79,-0.00004866,0.00007684,0.00007363,-0.00003889,-0.00016318,0.0000792
 9,-0.00017637,0.00016667,-0.00003434,0.00021847,0.00051732,-0.00015346
 ,0.00033503,0.00039114,-0.00002210,0.00022551,0.00009640,-0.00001641,0
 .00000190,0.00000921,0.00000545,0.00000591,0.00000111,0.00030101,-0.00
 055144,0.00083397,0.00021125,-0.00064833,0.00005920,0.00000511,0.00000
 422,0.00000337,-0.00000269,0.00000144,-0.00001327,-0.00005843,0.000016
 02,-0.00005489,0.00009428,-0.00004298,0.00003315,-0.00000418,-0.000002
 01,-0.00001806,0.01650137,-0.00552726,-0.01653500,0.00285384,-0.002134
 74,-0.00505645,-0.13179653,0.05998714,0.20267768,-0.00004118,0.0000356
 2,-0.00000416,-0.00018960,0.00009304,-0.00026220,0.00000553,-0.0000355
 3,-0.00020401,-0.00002365,0.00002270,-0.00000721,-0.00037692,-0.000183
 37,-0.00023365,0.00018180,0.00001077,-0.00057660,0.00002697,-0.0000160
 0,0.00002270,-0.00002571,-0.00007825,0.00006918,-0.00001206,-0.0000351
 9,0.00001514,-0.00000742,-0.00000407,0.00000019,0.00004620,-0.00002617
 ,-0.00000775,0.00000160,-0.00000550,-0.00000003,-0.00002632,0.00000314
 ,0.00001557,0.00114070,-0.00126973,0.00097160,0.00002308,-0.00001159,0
 .00001182,-0.02271302,-0.01469409,0.00907905,0.00047057,0.00011938,0.0
 0023725,-0.00007472,0.00055296,0.00072199,0.00000122,0.00000098,0.0000
 0098,-0.00000037,0.00000042,-0.00000536,-0.20661230,-0.10603993,0.0682
 2906,0.00001787,-0.00001065,0.00000135,-0.00000785,0.00000569,-0.00000
 854,0.00000276,0.00000352,0.00001028,0.00000070,-0.00000309,-0.0000120
 9,0.00000843,-0.00000297,0.00001169,-0.00000165,0.00000249,-0.00000050
 ,0.00000272,-0.00000016,0.00000409,0.00000051,0.00000122,0.00000052,0.
 00000121,0.00000081,-0.00000440,0.00000269,0.00001423,0.00000216,-0.00
 001481,-0.00000989,-0.00000224,-0.00009497,-0.00002833,-0.00001042,-0.
 00014221,0.00071146,-0.00097195,-0.00001774,-0.00000340,0.00000231,0.0
 0000758,0.00000485,-0.00002403,0.00091806,0.00020198,0.00022833,-0.003
 01144,0.00436685,-0.00032636,0.00000106,-0.00000050,0.00000014,-0.0000
 0175,0.00000150,-0.00000280,-0.00000218,-0.00000003,0.00000239,-0.0000
 0473,-0.00000169,-0.00000666,0.00000838,-0.00000952,0.00000576,-0.0000
 0461,0.00000312,0.00000650,0.22812995,-0.00002640,0.00001226,0.0000119
 2,-0.00001353,0.00001808,-0.00006643,-0.00014629,0.00009839,-0.0000312
 2,-0.00000654,0.00000804,0.00000670,-0.00006356,0.00012185,0.00005155,
 -0.00003785,-0.00016525,0.00018301,0.00001585,0.00000114,-0.00001029,0
 .00000005,-0.00002060,0.00001789,0.00002003,-0.00000713,-0.00001078,-0
 .00000360,-0.00000040,0.00000072,0.00001939,-0.00001637,-0.00001678,0.
 00000058,-0.00000165,-0.00000036,0.00001317,-0.00001299,0.00001046,-0.
 00007831,0.00116229,-0.00087333,0.00000309,0.00000042,-0.00001326,0.01
 736766,0.01127899,-0.00679290,0.00010959,-0.00001045,0.00009352,0.0001
 7489,-0.00008561,-0.00044948,0.00000035,-0.00000004,0.00000057,-0.0000
 0384,-0.00000215,0.00000479,-0.10658352,-0.11665225,0.04514691,-0.0000
 0424,-0.00000147,-0.00000761,-0.00000402,0.00000338,-0.00000190,0.0000
 0250,0.00000060,0.00000782,-0.00001279,0.00000407,-0.00000392,-0.00000
 449,0.00000599,-0.00000150,-0.00000040,0.00000120,-0.00000008,0.000001
 48,-0.00000001,0.00000179,0.00000019,0.00000063,0.00000013,0.00000003,
 0.00000017,-0.00000169,0.00000899,0.00001491,-0.00000365,-0.00000578,0
 .00000430,-0.00000249,-0.00012695,-0.00011834,0.00010459,-0.00052547,-
 0.00007583,0.00014417,0.00000120,0.00000153,0.00000326,0.00000029,-0.0
 0000837,0.00000153,-0.00075498,0.00083080,-0.00029812,0.00368210,-0.00
 183530,0.00029757,0.00000050,-0.00000023,0.00000019,-0.00000048,0.0000
 0083,-0.00000125,-0.00000084,-0.00000004,0.00000108,0.00000026,0.00000
 087,-0.00000276,-0.00000123,0.00000069,-0.00000227,-0.00000292,0.00000
 353,0.00000240,0.11339232,0.12424236,0.00005935,-0.00001334,-0.0000201
 6,0.00003006,0.00000937,0.00000865,0.00019187,-0.00008836,0.00011874,0
 .00001936,-0.00001160,-0.00001208,0.00004477,0.00006148,0.00003261,0.0
 0014249,-0.00007717,-0.00011004,-0.00002846,-0.00000789,0.00000363,-0.
 00000983,-0.00000976,-0.00000128,-0.00006538,0.00003341,-0.00000641,0.
 00000614,-0.00000174,-0.00000017,-0.00004259,0.00002365,0.00003081,0.0
 0000039,0.00000302,0.00000285,0.00000596,0.00000137,-0.00000176,-0.000
 73732,-0.00076965,0.00064917,-0.00000763,-0.00000181,-0.00000873,0.000
 29393,0.00010502,-0.00101725,-0.00003835,-0.00002814,-0.00000992,-0.00
 032320,0.00014506,-0.00001735,-0.00000069,-0.00000061,-0.00000174,-0.0
 0000049,-0.00000005,0.00000395,0.06824964,0.04504510,-0.07626513,-0.00
 001022,-0.00000129,-0.00000032,0.00000313,0.00000018,0.00000145,-0.000
 00581,-0.00000983,-0.00000661,0.00001306,-0.00000080,0.00000650,0.0000
 1030,-0.00000151,-0.00000336,0.00000080,-0.00000061,-0.00000017,-0.000
 00054,-0.00000026,-0.00000182,-0.00000065,-0.00000054,-0.00000016,-0.0
 0000059,-0.00000036,0.00000108,0.00000039,-0.00000260,-0.00000682,0.00
 000307,0.00000156,0.00000190,-0.00001468,-0.00015390,0.00001243,0.0002
 0875,0.00019724,0.00024440,0.00000309,0.00000215,-0.00000022,-0.000002
 50,0.00000200,0.00000640,0.00038375,0.00003312,-0.00023050,-0.00024937
 ,-0.00029696,0.00074364,-0.00000031,0.00000034,0.00000031,0.00000061,-
 0.00000043,0.00000152,0.00000199,-0.00000016,-0.00000176,0.00000152,-0
 .00000079,0.00000239,-0.00000181,0.00000220,-0.00000019,0.00000153,0.0
 0000033,-0.00000268,-0.07582681,-0.04948301,0.07789987,0.00001798,-0.0
 0003281,-0.00002061,0.00012714,-0.00006482,0.00021219,0.00004940,-0.00
 003479,-0.00017041,-0.00000978,-0.00001974,-0.00001871,0.00041906,-0.0
 0001749,0.00004613,-0.00011103,-0.00003114,-0.00048895,-0.00001674,0.0
 0001724,0.00000335,0.00000855,0.00007168,-0.00004951,0.00004106,-0.000
 00224,0.00002207,0.00000182,0.00000101,-0.00000237,-0.00000744,0.00003
 099,0.00003700,-0.00000080,0.00000215,-0.00000050,0.00001391,0.0000084
 5,-0.00001746,0.00120424,-0.00030052,0.00127164,-0.00000748,0.00001765
 ,0.00001977,0.00390009,0.02407454,0.01735770,-0.00039046,-0.00008856,-
 0.00020454,-0.00032760,-0.00007321,0.00075103,-0.00000014,-0.00000044,
 -0.00000036,0.00000506,0.00000092,-0.00000731,-0.05106671,-0.03013509,
 -0.02248697,0.00000795,0.00001671,0.00000871,0.00000531,-0.00000889,0.
 00000406,-0.00000033,0.00000287,-0.00000811,0.00000196,-0.00000395,-0.
 00000068,-0.00000258,-0.00000813,0.00000338,-0.00000015,-0.00000112,0.
 00000020,-0.00000308,-0.00000032,-0.00000194,0.00000068,-0.00000163,0.
 00000006,0.00000017,0.00000094,0.00000219,-0.00000752,-0.00001666,0.00
 000869,0.00001335,0.00000436,-0.00000133,-0.00002690,-0.00027025,-0.00
 069061,-0.00007693,-0.00010169,-0.00012378,0.00000864,-0.00000295,-0.0
 0000809,-0.00000471,0.00000327,0.00000434,-0.00432917,0.00349292,-0.00
 048231,0.00092853,-0.00068265,0.00043781,-0.00000090,-0.00000017,-0.00
 000027,0.00000047,-0.00000057,0.00000092,0.00000078,0.00000003,-0.0000
 0085,-0.00000142,-0.00000012,0.00000253,-0.00000167,0.00000491,0.00000
 386,0.00000661,-0.00000411,-0.00000361,-0.00346831,-0.01894978,-0.0162
 9447,0.05529612,-0.00001346,0.00003541,0.00003870,-0.00002857,0.000021
 12,-0.00002836,0.00005088,-0.00003095,0.00026782,0.00002607,0.00002176
 ,0.00003565,-0.00012781,0.00008455,0.00010624,-0.00019383,0.00009405,0
 .00061657,-0.00000503,-0.00003192,-0.00001416,0.00003561,-0.00002341,0
 .00000001,-0.00004388,0.00000095,-0.00001155,0.00000156,0.00000045,0.0
 0000427,-0.00001201,-0.00003591,-0.00005967,-0.00000075,-0.00000038,-0
 .00000085,-0.00000340,-0.00000376,0.00000560,-0.00111005,0.00057182,-0
 .00101019,-0.00000401,-0.00001587,-0.00002472,-0.00238467,-0.01579666,
 -0.01128532,0.00014539,0.00002661,0.00003378,0.00050166,0.00013589,-0.
 00055564,-0.00000065,-0.00000022,0.00000046,-0.00000359,0.00000192,0.0
 0000871,-0.02941351,-0.20897320,-0.12264320,-0.00001526,-0.00000633,-0
 .00000930,0.00000134,0.00000388,0.00000177,0.00000210,-0.00001477,-0.0
 0000179,0.00000764,-0.00000243,0.00000697,-0.00000109,0.00000612,-0.00
 000205,0.00000088,-0.00000075,-0.00000004,0.00000220,0.00000149,-0.000
 00042,-0.00000098,0.00000210,-0.00000025,-0.00000060,-0.00000199,0.000
 00003,0.00000184,0.00000188,-0.00000823,-0.00000122,-0.00000269,0.0000
 0412,0.00061269,-0.00022607,0.00091508,-0.00002116,-0.00012611,-0.0000
 9331,-0.00000159,0.00000380,0.00000592,0.00000163,-0.00000169,0.000006
 20,0.00355269,-0.00076291,0.00063024,0.00000865,0.00076442,0.00017315,
 0.00000079,0.00000124,0.00000012,0.00000040,-0.00000060,0.00000033,-0.
 00000046,-0.00000005,0.00000008,0.00000531,0.00000036,0.00000098,-0.00
 000066,-0.00000126,-0.00000696,-0.00000508,0.00000183,0.00000151,-0.00
 141496,-0.01274413,-0.00977574,0.02819815,0.22745828,0.00005248,0.0000
 1704,-0.00000797,-0.00002727,0.00008903,-0.00013101,0.00025527,-0.0001
 1476,0.00019186,0.00003184,0.00001325,0.00000182,-0.00007006,0.0001177
 9,-0.00005447,0.00007962,-0.00004844,0.00000433,-0.00002995,-0.0000205
 9,0.00001013,-0.00002586,-0.00007074,0.00003530,-0.00010278,0.00001451
 ,-0.00001348,0.00000574,-0.00000350,0.00000082,-0.00004292,-0.00000979
 ,0.00000496,0.00000139,-0.00000010,0.00000472,0.00002292,-0.00001525,0
 .00001444,0.00020735,0.00106639,0.00096679,0.00000415,0.00000168,-0.00
 001615,0.00031900,0.00011611,-0.00089429,0.00013050,-0.00005158,0.0001
 4955,-0.00023389,0.00017465,-0.00009483,-0.00000060,-0.00000091,-0.000
 00227,-0.00000685,-0.00000516,0.00000671,-0.02212806,-0.12282517,-0.13
 991253,-0.00001444,-0.00001454,-0.00000813,0.00000380,0.00000517,-0.00
 000286,-0.00000610,-0.00001222,-0.00000958,0.00002052,-0.00000269,0.00
 000731,0.00001439,0.00000175,-0.00000349,0.00000072,0.00000047,-0.0000
 0087,0.00000304,0.00000091,0.00000068,-0.00000128,0.00000232,-0.000000
 45,-0.00000077,-0.00000175,-0.00000207,0.00001202,0.00002137,-0.000007
 67,-0.00000540,0.00000647,-0.00000283,-0.00005787,-0.00039857,0.000211
 72,0.00009149,-0.00000737,-0.00001756,0.00000222,0.00000351,-0.0000005
 4,0.00000363,-0.00001016,-0.00000177,0.00018510,0.00049641,0.00093173,
 0.00031809,-0.00027349,-0.00015751,0.00000103,0.00000153,0.00000115,-0
 .00000014,0.00000009,0.00000022,0.00000123,-0.00000054,-0.00000075,-0.
 00000101,0.00000081,-0.00000104,0.00000063,0.00000199,-0.00000207,-0.0
 0000562,0.00000491,0.00000091,0.00119617,0.00997655,0.00681551,0.02378
 396,0.13561812,0.14819103,-0.00014046,0.00000204,0.00005237,-0.0000157
 4,-0.00010084,0.00007773,-0.00102471,0.00040960,-0.00037058,-0.0000401
 7,0.00000378,0.00004237,-0.00004015,-0.00010239,0.00008913,-0.00033401
 ,0.00003009,0.00032512,0.00007152,0.00004463,-0.00003108,0.00002864,0.
 00007001,-0.00002149,0.00016871,-0.00005844,-0.00008785,-0.00001071,0.
 00000628,0.00000239,0.00008750,-0.00003333,-0.00008396,-0.00000370,-0.
 00000109,-0.00001104,-0.00002355,0.00000925,0.00000870,-0.00462222,0.0
 0337896,0.00159510,-0.00002030,-0.00002296,-0.00002498,-0.00493981,0.0
 0785661,-0.02635123,0.00002673,0.00010137,-0.00009884,0.00117951,0.000
 18670,-0.00157556,0.00000065,0.00000102,0.00000534,0.00000948,0.000013
 96,0.00000710,-0.05757559,0.01792064,-0.05058843,0.00002200,0.00001473
 ,-0.00000121,-0.00000841,-0.00000514,0.00000053,0.00000796,0.00001843,
 0.00002417,-0.00007490,0.00001302,-0.00002121,-0.00002152,0.00000187,0
 .00000911,-0.00000147,-0.00000083,0.00000208,-0.00000238,0.00000016,0.
 00000004,0.00000138,-0.00000103,0.00000016,0.00000082,-0.00000016,0.00
 000230,-0.00000424,-0.00001862,-0.00000695,0.00000069,-0.00000640,0.00
 000875,-0.00002014,-0.00014339,0.00032471,0.00011496,0.00025424,-0.000
 02100,-0.00000410,-0.00000239,0.00000935,-0.00000065,0.00001427,0.0000
 0751,0.00101607,-0.00017142,0.00037643,0.00033008,-0.00087550,-0.00019
 173,-0.00000071,-0.00000110,-0.00000174,0.00000051,-0.00000048,-0.0000
 0054,-0.00000395,0.00000105,0.00000205,0.00000686,-0.00000168,0.000004
 35,-0.00000139,-0.00000379,-0.00000646,-0.00000348,-0.00000289,0.00000
 091,0.00587594,-0.00745669,0.02398578,-0.00219702,0.00165080,-0.003987
 41,0.06218547,0.00011614,-0.00001340,-0.00004401,0.00002910,0.00004416
 ,-0.00000500,0.00078474,-0.00040159,0.00030492,0.00003373,-0.00001219,
 -0.00003614,0.00003960,0.00008156,0.00001535,0.00019591,-0.00017239,-0
 .00026939,-0.00007487,-0.00003131,0.00001631,-0.00000715,-0.00003286,0
 .00000078,-0.00015764,0.00000879,0.00006804,0.00001000,-0.00000417,-0.
 00000130,-0.00007772,0.00003919,0.00007263,0.00000177,0.00000330,0.000
 00765,0.00000673,0.00000226,-0.00000945,0.00364760,-0.00193800,-0.0013
 8212,0.00000134,0.00000558,0.00000543,0.00239684,-0.00662944,0.0178542
 9,-0.00004761,-0.00004730,0.00000114,-0.00053944,0.00060681,0.00123994
 ,-0.00000082,-0.00000104,-0.00000389,-0.00000311,-0.00000410,-0.000000
 30,0.01809086,-0.07534163,0.08097963,-0.00001703,-0.00000483,0.0000015
 1,0.00000647,0.00000256,0.00000156,-0.00000604,-0.00002237,-0.00001753
 ,0.00006031,-0.00001342,0.00001592,0.00002409,-0.00000257,-0.00000066,
 0.00000136,-0.00000034,-0.00000127,0.00000025,-0.00000036,-0.00000206,
 -0.00000098,-0.00000056,0.00000019,-0.00000057,0.00000063,0.00000032,-
 0.00000123,-0.00000021,-0.00000431,0.00000544,0.00000024,-0.00000128,0
 .00011842,0.00011781,0.00021727,-0.00006779,0.00016518,-0.00043498,0.0
 0000302,0.00000296,-0.00000334,-0.00000427,0.00000103,0.00000462,-0.00
 058724,-0.00014818,0.00009351,-0.00023465,0.00066766,-0.00037466,-0.00
 000011,0.00000056,0.00000090,0.00000017,-0.00000016,0.00000146,0.00000
 377,-0.00000058,-0.00000252,-0.00000153,-0.00000083,0.00000043,-0.0000
 0038,0.00000279,0.00000428,0.00000494,0.00000007,-0.00000305,0.0043355
 4,-0.00605873,0.01507230,-0.00509497,0.00956413,-0.02386554,-0.0229929
 9,0.07956525,-0.00012854,0.00002851,0.00004544,-0.00007427,-0.00005792
 ,0.00000109,-0.00031382,0.00015027,-0.00019143,-0.00004666,0.00001103,
 0.00003066,-0.00018877,-0.00012967,0.00003810,-0.00039731,0.00020685,0
 .00013582,0.00006848,0.00000061,-0.00001231,0.00003964,0.00003763,-0.0
 0000320,0.00017029,-0.00005673,0.00002617,-0.00001305,0.00000309,0.000
 00176,0.00009513,-0.00003745,-0.00007209,-0.00000182,-0.00000272,-0.00
 000950,-0.00003295,0.00000753,0.00001154,-0.00032961,0.00002441,0.0010
 8371,-0.00000370,-0.00002152,-0.00001582,0.00112750,-0.00162220,0.0027
 1780,0.00019073,0.00013390,-0.00002085,0.00078179,-0.00034655,0.000127
 18,0.00000110,0.00000165,0.00000465,0.00000532,0.00001012,0.00000335,-
 0.05159765,0.08174863,-0.27240265,0.00002157,0.00001146,-0.00000206,-0
 .00000764,-0.00000291,-0.00000099,0.00001021,0.00001089,0.00001788,-0.
 00002178,0.00000065,-0.00001164,-0.00001326,0.00000066,0.00000901,-0.0
 0000137,0.00000021,0.00000160,-0.00000089,0.00000006,0.00000140,0.0000
 0168,-0.00000054,0.00000020,0.00000129,0.00000028,0.00000021,-0.000002
 18,-0.00000932,-0.00000537,-0.00000378,-0.00000919,0.00000487,0.000282
 00,-0.00001555,0.00027623,0.00008761,-0.00021662,0.00007732,-0.0000118
 5,-0.00000380,0.00000935,0.00000219,0.00001280,-0.00000198,-0.00038669
 ,0.00041481,0.00036079,-0.00057996,0.00018845,0.00016755,-0.00000019,-
 0.00000145,-0.00000173,-0.00000028,0.00000008,-0.00000170,-0.00000450,
 0.00000112,0.00000330,0.00000520,-0.00000106,0.,0.00000117,-0.00000756
 ,-0.00000310,-0.00000377,-0.00000066,0.00000401,-0.00234847,0.00200596
 ,-0.00886118,-0.00289780,0.00704933,-0.01620550,0.05651968,-0.08951757
 ,0.29266212\\0.00000923,0.00000729,-0.00000138,0.00001032,-0.00000215,
 0.00000253,-0.00001068,0.00000819,-0.00002058,0.00000152,-0.00000420,-
 0.00001557,-0.00001109,-0.00000028,-0.00001158,0.00000832,-0.00000383,
 -0.00001321,-0.00000581,-0.00000632,0.00000797,-0.00000319,-0.00000249
 ,0.00000769,0.00000512,-0.00000882,0.00000167,0.00000010,-0.00000260,-
 0.00000168,0.00000510,-0.00000171,0.00001000,-0.00000025,0.00000134,-0
 .00000013,0.00000284,-0.00000108,-0.00000072,-0.00000737,-0.00000166,-
 0.00000265,-0.00000094,0.00000180,0.00000104,-0.00000089,-0.00000073,0
 .00000211,0.00000010,0.00000475,0.00000194,0.00000501,-0.00000314,0.00
 003414,0.00000003,0.00000120,-0.00000066,-0.00000213,-0.00000106,0.000
 00111,-0.00000021,-0.00000116,-0.00000011,-0.00000297,0.00000235,0.000
 00061,0.,-0.00000165,-0.00000174,0.00000205,-0.00000144,0.00000113,-0.
 00000026,-0.00000061,-0.00000257,-0.00000049,0.00000191,-0.00000024,-0
 .00000045,0.00000149,-0.00000104,-0.00000006,0.00000200,-0.00000170,0.
 00000120,0.00000070,-0.00000177,0.00000021,0.00000174,-0.00000055,-0.0
 0000039,0.00000025,0.00000025,-0.00000147,-0.00000051,0.00000144,0.000
 00088,0.00000206,0.00000103,0.00000158,0.00000061,-0.00000102,-0.00000
 145,0.00000046,0.00000071,-0.00000128,0.00000101,0.00000134,-0.0000004
 0,0.00000055,-0.00000071,-0.00000020,0.00000017,0.00000100,-0.00000035
 ,0.00000099,-0.00000078,-0.00000002,0.00000080,-0.00000164,-0.00000014
 ,0.00000171,-0.00000085,-0.00000098,0.00000066,0.00000205,-0.00000005,
 0.00000109,-0.00000104,0.00000003,0.00000262,0.00000162,0.00000004,-0.
 00000096,0.00000028,-0.00000005,-0.00000103,0.00000112,-0.00000011,-0.
 00000032,0.00000115\\\@


 IF YOU GIVE A BOY AND A PIG EVERYTHING THEY WANT,
 YOU'LL GET A BAD BOY AND A GOOD PIG.
 Job cpu time:       0 days 21 hours 53 minutes 28.7 seconds.
 Elapsed time:       0 days  1 hours 22 minutes 22.3 seconds.
 File lengths (MBytes):  RWF=   1639 Int=      0 D2E=      0 Chk=     35 Scr=      1
 Normal termination of Gaussian 16 at Tue Oct  7 05:13:07 2025.
