 Entering Gaussian System, Link 0=g16
 Input=GTAC0119.gjf
 Output=GTAC0119.log
 Initial command:
 /usr/local/g16/l1.exe "/dados_01/scratch/Gau-2100565.inp" -scrdir="/dados_01/scratch/"
 Entering Link 1 = /usr/local/g16/l1.exe PID=   2100568.
  
 Copyright (c) 1988-2017, Gaussian, Inc.  All Rights Reserved.
  
 This is part of the Gaussian(R) 16 program.  It is based on
 the Gaussian(R) 09 system (copyright 2009, Gaussian, Inc.),
 the Gaussian(R) 03 system (copyright 2003, Gaussian, Inc.),
 the Gaussian(R) 98 system (copyright 1998, Gaussian, Inc.),
 the Gaussian(R) 94 system (copyright 1995, Gaussian, Inc.),
 the Gaussian 92(TM) system (copyright 1992, Gaussian, Inc.),
 the Gaussian 90(TM) system (copyright 1990, Gaussian, Inc.),
 the Gaussian 88(TM) system (copyright 1988, Gaussian, Inc.),
 the Gaussian 86(TM) system (copyright 1986, Carnegie Mellon
 University), and the Gaussian 82(TM) system (copyright 1983,
 Carnegie Mellon University). Gaussian is a federally registered
 trademark of Gaussian, Inc.
  
 This software contains proprietary and confidential information,
 including trade secrets, belonging to Gaussian, Inc.
  
 This software is provided under written license and may be
 used, copied, transmitted, or stored only in accord with that
 written license.
  
 The following legend is applicable only to US Government
 contracts under FAR:
  
                    RESTRICTED RIGHTS LEGEND
  
 Use, reproduction and disclosure by the US Government is
 subject to restrictions as set forth in subparagraphs (a)
 and (c) of the Commercial Computer Software - Restricted
 Rights clause in FAR 52.227-19.
  
 Gaussian, Inc.
 340 Quinnipiac St., Bldg. 40, Wallingford CT 06492
  
  
 ---------------------------------------------------------------
 Warning -- This program may not be used in any manner that
 competes with the business of Gaussian, Inc. or will provide
 assistance to any competitor of Gaussian, Inc.  The licensee
 of this program is prohibited from giving any competitor of
 Gaussian, Inc. access to this program.  By using this program,
 the user acknowledges that Gaussian, Inc. is engaged in the
 business of creating and licensing software in the field of
 computational chemistry and represents and warrants to the
 licensee that it is not a competitor of Gaussian, Inc. and that
 it will not use this program in any manner prohibited above.
 ---------------------------------------------------------------
  

 Cite this work as:
 Gaussian 16, Revision B.01,
 M. J. Frisch, G. W. Trucks, H. B. Schlegel, G. E. Scuseria, 
 M. A. Robb, J. R. Cheeseman, G. Scalmani, V. Barone, 
 G. A. Petersson, H. Nakatsuji, X. Li, M. Caricato, A. V. Marenich, 
 J. Bloino, B. G. Janesko, R. Gomperts, B. Mennucci, H. P. Hratchian, 
 J. V. Ortiz, A. F. Izmaylov, J. L. Sonnenberg, D. Williams-Young, 
 F. Ding, F. Lipparini, F. Egidi, J. Goings, B. Peng, A. Petrone, 
 T. Henderson, D. Ranasinghe, V. G. Zakrzewski, J. Gao, N. Rega, 
 G. Zheng, W. Liang, M. Hada, M. Ehara, K. Toyota, R. Fukuda, 
 J. Hasegawa, M. Ishida, T. Nakajima, Y. Honda, O. Kitao, H. Nakai, 
 T. Vreven, K. Throssell, J. A. Montgomery, Jr., J. E. Peralta, 
 F. Ogliaro, M. J. Bearpark, J. J. Heyd, E. N. Brothers, K. N. Kudin, 
 V. N. Staroverov, T. A. Keith, R. Kobayashi, J. Normand, 
 K. Raghavachari, A. P. Rendell, J. C. Burant, S. S. Iyengar, 
 J. Tomasi, M. Cossi, J. M. Millam, M. Klene, C. Adamo, R. Cammi, 
 J. W. Ochterski, R. L. Martin, K. Morokuma, O. Farkas, 
 J. B. Foresman, and D. J. Fox, Gaussian, Inc., Wallingford CT, 2016.
 
 ******************************************
 Gaussian 16:  ES64L-G16RevB.01 20-Dec-2017
                20-Sep-2025 
 ******************************************
 %nprocs=16
 Will use up to   16 processors via shared memory.
 %mem=40GB
 %chk=GTAC0119.chk
 ----------------------------------------------------------------------
 # opt freq=noraman M08HX/6-311++G** scf=xqc Empiricaldispersion=pfd In
 t(Grid=ultraFine)
 ----------------------------------------------------------------------
 1/18=20,19=15,26=4,38=1/1,3;
 2/9=110,12=2,17=6,18=5,40=1/2;
 3/5=4,6=6,7=1111,11=2,25=1,30=1,71=1,74=-74,75=-5,124=11/1,2,3;
 4//1;
 5/5=2,8=3,13=1,38=5/2,8;
 6/7=2,8=2,9=2,10=2,28=1/1;
 7//1,2,3,16;
 1/18=20,19=15,26=4/3(2);
 2/9=110/2;
 99//99;
 2/9=110/2;
 3/5=4,6=6,7=1111,11=2,25=1,30=1,71=1,74=-74,75=-5,124=11/1,2,3;
 4/5=5,16=3,69=1/1;
 5/5=2,8=3,13=1,38=5/2,8;
 7//1,2,3,16;
 1/18=20,19=15,26=4/3(-5);
 2/9=110/2;
 6/7=2,8=2,9=2,10=2,19=2,28=1/1;
 99/9=1/99;
 --------
 GTAC0119
 --------
 Symbolic Z-matrix:
 Charge =  0 Multiplicity = 1
 O                     0.0001   -1.0281    0.0721 
 O                     2.2481   -1.0367    0.033 
 O                    -2.2479   -1.0368    0.0339 
 C                    -0.0005    1.7301    0.3742 
 C                     1.2149    1.0844   -0.238 
 C                    -1.2148    1.0839   -0.2397 
 C                     1.1974   -0.3983   -0.0177 
 C                    -1.1972   -0.3985   -0.0178 
 H                    -0.0012    1.5831    1.4613 
 H                    -0.0005    2.8082    0.1827 
 H                     2.1153    1.4956    0.2311 
 H                     1.269     1.2729   -1.3156 
 H                    -1.2672    1.2714   -1.3176 
 H                    -2.1161    1.4954    0.2275 
 

 GradGradGradGradGradGradGradGradGradGradGradGradGradGradGradGradGradGrad
 Berny optimization.
 Initialization pass.
                           ----------------------------
                           !    Initial Parameters    !
                           ! (Angstroms and Degrees)  !
 --------------------------                            --------------------------
 ! Name  Definition              Value          Derivative Info.                !
 --------------------------------------------------------------------------------
 ! R1    R(1,7)                  1.3558         estimate D2E/DX2                !
 ! R2    R(1,8)                  1.3557         estimate D2E/DX2                !
 ! R3    R(2,7)                  1.2305         estimate D2E/DX2                !
 ! R4    R(3,8)                  1.2305         estimate D2E/DX2                !
 ! R5    R(4,5)                  1.5063         estimate D2E/DX2                !
 ! R6    R(4,6)                  1.5063         estimate D2E/DX2                !
 ! R7    R(4,9)                  1.097          estimate D2E/DX2                !
 ! R8    R(4,10)                 1.095          estimate D2E/DX2                !
 ! R9    R(5,7)                  1.4991         estimate D2E/DX2                !
 ! R10   R(5,11)                 1.0954         estimate D2E/DX2                !
 ! R11   R(5,12)                 1.0953         estimate D2E/DX2                !
 ! R12   R(6,8)                  1.499          estimate D2E/DX2                !
 ! R13   R(6,13)                 1.0953         estimate D2E/DX2                !
 ! R14   R(6,14)                 1.0954         estimate D2E/DX2                !
 ! A1    A(7,1,8)              124.0401         estimate D2E/DX2                !
 ! A2    A(5,4,6)              107.5131         estimate D2E/DX2                !
 ! A3    A(5,4,9)              110.2328         estimate D2E/DX2                !
 ! A4    A(5,4,10)             110.5474         estimate D2E/DX2                !
 ! A5    A(6,4,9)              110.2352         estimate D2E/DX2                !
 ! A6    A(6,4,10)             110.555          estimate D2E/DX2                !
 ! A7    A(9,4,10)             107.7732         estimate D2E/DX2                !
 ! A8    A(4,5,7)              110.7835         estimate D2E/DX2                !
 ! A9    A(4,5,11)             109.1645         estimate D2E/DX2                !
 ! A10   A(4,5,12)             111.4655         estimate D2E/DX2                !
 ! A11   A(7,5,11)             108.5392         estimate D2E/DX2                !
 ! A12   A(7,5,12)             108.3836         estimate D2E/DX2                !
 ! A13   A(11,5,12)            108.4288         estimate D2E/DX2                !
 ! A14   A(4,6,8)              110.7594         estimate D2E/DX2                !
 ! A15   A(4,6,13)             111.481          estimate D2E/DX2                !
 ! A16   A(4,6,14)             109.1661         estimate D2E/DX2                !
 ! A17   A(8,6,13)             108.392          estimate D2E/DX2                !
 ! A18   A(8,6,14)             108.5429         estimate D2E/DX2                !
 ! A19   A(13,6,14)            108.4239         estimate D2E/DX2                !
 ! A20   A(1,7,2)              120.6856         estimate D2E/DX2                !
 ! A21   A(1,7,5)              118.6517         estimate D2E/DX2                !
 ! A22   A(2,7,5)              120.6131         estimate D2E/DX2                !
 ! A23   A(1,8,3)              120.6919         estimate D2E/DX2                !
 ! A24   A(1,8,6)              118.6485         estimate D2E/DX2                !
 ! A25   A(3,8,6)              120.6096         estimate D2E/DX2                !
 ! D1    D(8,1,7,2)           -177.8314         estimate D2E/DX2                !
 ! D2    D(8,1,7,5)             -0.3768         estimate D2E/DX2                !
 ! D3    D(7,1,8,3)            177.8917         estimate D2E/DX2                !
 ! D4    D(7,1,8,6)              0.4476         estimate D2E/DX2                !
 ! D5    D(6,4,5,7)            -57.3816         estimate D2E/DX2                !
 ! D6    D(6,4,5,11)          -176.8498         estimate D2E/DX2                !
 ! D7    D(6,4,5,12)            63.3962         estimate D2E/DX2                !
 ! D8    D(9,4,5,7)             62.8067         estimate D2E/DX2                !
 ! D9    D(9,4,5,11)           -56.6616         estimate D2E/DX2                !
 ! D10   D(9,4,5,12)          -176.4156         estimate D2E/DX2                !
 ! D11   D(10,4,5,7)          -178.1429         estimate D2E/DX2                !
 ! D12   D(10,4,5,11)           62.3889         estimate D2E/DX2                !
 ! D13   D(10,4,5,12)          -57.3651         estimate D2E/DX2                !
 ! D14   D(5,4,6,8)             57.4422         estimate D2E/DX2                !
 ! D15   D(5,4,6,13)           -63.3401         estimate D2E/DX2                !
 ! D16   D(5,4,6,14)           176.9012         estimate D2E/DX2                !
 ! D17   D(9,4,6,8)            -62.7445         estimate D2E/DX2                !
 ! D18   D(9,4,6,13)           176.4732         estimate D2E/DX2                !
 ! D19   D(9,4,6,14)            56.7146         estimate D2E/DX2                !
 ! D20   D(10,4,6,8)           178.1987         estimate D2E/DX2                !
 ! D21   D(10,4,6,13)           57.4164         estimate D2E/DX2                !
 ! D22   D(10,4,6,14)          -62.3423         estimate D2E/DX2                !
 ! D23   D(4,5,7,1)             30.0067         estimate D2E/DX2                !
 ! D24   D(4,5,7,2)           -152.5367         estimate D2E/DX2                !
 ! D25   D(11,5,7,1)           149.8499         estimate D2E/DX2                !
 ! D26   D(11,5,7,2)           -32.6935         estimate D2E/DX2                !
 ! D27   D(12,5,7,1)           -92.5813         estimate D2E/DX2                !
 ! D28   D(12,5,7,2)            84.8752         estimate D2E/DX2                !
 ! D29   D(4,6,8,1)            -30.1384         estimate D2E/DX2                !
 ! D30   D(4,6,8,3)            152.4153         estimate D2E/DX2                !
 ! D31   D(13,6,8,1)            92.4591         estimate D2E/DX2                !
 ! D32   D(13,6,8,3)           -84.9873         estimate D2E/DX2                !
 ! D33   D(14,6,8,1)          -149.9713         estimate D2E/DX2                !
 ! D34   D(14,6,8,3)            32.5823         estimate D2E/DX2                !
 --------------------------------------------------------------------------------
 Trust Radius=3.00D-01 FncErr=1.00D-07 GrdErr=1.00D-06 EigMax=2.50D+02 EigMin=1.00D-04
 Number of steps in this run=     83 maximum allowed number of steps=    100.
 GradGradGradGradGradGradGradGradGradGradGradGradGradGradGradGradGradGrad

                          Input orientation:                          
 ---------------------------------------------------------------------
 Center     Atomic      Atomic             Coordinates (Angstroms)
 Number     Number       Type             X           Y           Z
 ---------------------------------------------------------------------
      1          8           0        0.000100   -1.028100    0.072100
      2          8           0        2.248100   -1.036700    0.033000
      3          8           0       -2.247900   -1.036800    0.033900
      4          6           0       -0.000500    1.730100    0.374200
      5          6           0        1.214900    1.084400   -0.238000
      6          6           0       -1.214800    1.083900   -0.239700
      7          6           0        1.197400   -0.398300   -0.017700
      8          6           0       -1.197200   -0.398500   -0.017800
      9          1           0       -0.001200    1.583100    1.461300
     10          1           0       -0.000500    2.808200    0.182700
     11          1           0        2.115300    1.495600    0.231100
     12          1           0        1.269000    1.272900   -1.315600
     13          1           0       -1.267200    1.271400   -1.317600
     14          1           0       -2.116100    1.495400    0.227500
 ---------------------------------------------------------------------
                    Distance matrix (angstroms):
                    1          2          3          4          5
     1  O    0.000000
     2  O    2.248356   0.000000
     3  O    2.248341   4.496000   0.000000
     4  C    2.774695   3.581592   3.580830   0.000000
     5  C    2.456534   2.374870   4.069939   1.506292   0.000000
     6  C    2.456368   4.069765   2.374768   1.506311   2.429701
     7  C    1.355817   1.230486   3.504345   2.473588   1.499079
     8  C    1.355731   3.504279   1.230476   2.473195   2.840019
     9  H    2.957743   3.736675   3.734837   1.096994   2.148307
    10  H    3.837894   4.456666   4.456116   1.094976   2.150738
    11  H    3.296728   2.543506   5.048708   2.133560   1.095381
    12  H    2.971602   2.848089   4.418648   2.162426   1.095299
    13  H    2.970693   4.416874   2.848879   2.162665   2.713176
    14  H    3.297045   5.049317   2.543008   2.133628   3.388388
                    6          7          8          9         10
     6  C    0.000000
     7  C    2.839878   0.000000
     8  C    1.499019   2.394600   0.000000
     9  H    2.148354   2.747732   2.746797   0.000000
    10  H    2.150850   3.428814   3.428588   1.770788   0.000000
    11  H    3.388320   2.119269   3.823901   2.449616   2.490356
    12  H    2.713401   2.117211   3.249616   3.069333   2.492725
    13  H    1.095340   3.248367   2.117297   3.069560   2.493428
    14  H    1.095422   3.824331   2.119294   2.450052   2.490224
                   11         12         13         14
    11  H    0.000000
    12  H    1.777104   0.000000
    13  H    3.726935   2.536201   0.000000
    14  H    4.231402   3.726871   1.777116   0.000000
 Stoichiometry    C5H6O3
 Framework group  C1[X(C5H6O3)]
 Deg. of freedom    36
 Full point group                 C1      NOp   1
 Largest Abelian subgroup         C1      NOp   1
 Largest concise Abelian subgroup C1      NOp   1
                         Standard orientation:                         
 ---------------------------------------------------------------------
 Center     Atomic      Atomic             Coordinates (Angstroms)
 Number     Number       Type             X           Y           Z
 ---------------------------------------------------------------------
      1          8           0       -0.000104   -1.090273   -0.074634
      2          8           0       -2.248104   -1.098789   -0.035493
      3          8           0        2.247896   -1.098938   -0.036449
      4          6           0        0.000521    1.667460   -0.380974
      5          6           0       -1.214878    1.022714    0.232233
      6          6           0        1.214822    1.022191    0.233904
      7          6           0       -1.197396   -0.460323    0.014213
      8          6           0        1.197204   -0.460548    0.014283
      9          1           0        0.001206    1.518789   -1.467846
     10          1           0        0.000535    2.745853   -0.191131
     11          1           0       -2.115279    1.433202   -0.237487
     12          1           0       -1.268962    1.212871    1.309543
     13          1           0        1.267238    1.211347    1.311514
     14          1           0        2.116121    1.432963   -0.233939
 ---------------------------------------------------------------------
 Rotational constants (GHZ):           3.4524288           1.9998358           1.3258523
 Standard basis: 6-311++G(d,p) (5D, 7F)
 There are   226 symmetry adapted cartesian basis functions of A   symmetry.
 There are   218 symmetry adapted basis functions of A   symmetry.
   218 basis functions,   342 primitive gaussians,   226 cartesian basis functions
    30 alpha electrons       30 beta electrons
       nuclear repulsion energy       376.4831489293 Hartrees.
 NAtoms=   14 NActive=   14 NUniq=   14 SFac= 1.00D+00 NAtFMM=   60 NAOKFM=F Big=F
 Integral buffers will be    131072 words long.
 Raffenetti 2 integral format.
 Two-electron integral symmetry is turned on.
 R6APFD:  NTU= -4 IXU= 1 FactS= 1.050
 Nuclear repulsion after empirical dispersion term =      376.4740155923 Hartrees.
 One-electron integrals computed using PRISM.
 NBasis=   218 RedAO= T EigKep=  1.89D-05  NBF=   218
 NBsUse=   218 1.00D-06 EigRej= -1.00D+00 NBFU=   218
 ExpMin= 3.60D-02 ExpMax= 8.59D+03 ExpMxC= 1.30D+03 IAcc=3 IRadAn=         5 AccDes= 0.00D+00
 Harris functional with IExCor= 1009 and IRadAn=       5 diagonalized for initial guess.
 HarFok:  IExCor= 1009 AccDes= 0.00D+00 IRadAn=         5 IDoV= 1 UseB2=F ITyADJ=14
 ICtDFT=  3500011 ScaDFX=  1.000000  1.000000  1.000000  1.000000
 FoFCou: FMM=F IPFlag=           0 FMFlag=      100000 FMFlg1=           0
         NFxFlg=           0 DoJE=T BraDBF=F KetDBF=T FulRan=T
         wScrn=  0.000000 ICntrl=       500 IOpCl=  0 I1Cent=   200000004 NGrid=           0
         NMat0=    1 NMatS0=      1 NMatT0=    0 NMatD0=    1 NMtDS0=    0 NMtDT0=    0
 Petite list used in FoFCou.
 Requested convergence on RMS density matrix=1.00D-08 within  32 cycles.
 Requested convergence on MAX density matrix=1.00D-06.
 Requested convergence on             energy=1.00D-06.
 No special actions if energy rises.
 SCF Done:  E(RM08HX) =  -419.805814772     A.U. after   13 cycles
            NFock= 13  Conv=0.62D-08     -V/T= 2.0041
 QCSCF skips out because SCF is already converged.

 **********************************************************************

            Population analysis using the SCF Density.

 **********************************************************************

 Orbital symmetries:
       Occupied  (A) (A) (A) (A) (A) (A) (A) (A) (A) (A) (A) (A)
                 (A) (A) (A) (A) (A) (A) (A) (A) (A) (A) (A) (A)
                 (A) (A) (A) (A) (A) (A)
       Virtual   (A) (A) (A) (A) (A) (A) (A) (A) (A) (A) (A) (A)
                 (A) (A) (A) (A) (A) (A) (A) (A) (A) (A) (A) (A)
                 (A) (A) (A) (A) (A) (A) (A) (A) (A) (A) (A) (A)
                 (A) (A) (A) (A) (A) (A) (A) (A) (A) (A) (A) (A)
                 (A) (A) (A) (A) (A) (A) (A) (A) (A) (A) (A) (A)
                 (A) (A) (A) (A) (A) (A) (A) (A) (A) (A) (A) (A)
                 (A) (A) (A) (A) (A) (A) (A) (A) (A) (A) (A) (A)
                 (A) (A) (A) (A) (A) (A) (A) (A) (A) (A) (A) (A)
                 (A) (A) (A) (A) (A) (A) (A) (A) (A) (A) (A) (A)
                 (A) (A) (A) (A) (A) (A) (A) (A) (A) (A) (A) (A)
                 (A) (A) (A) (A) (A) (A) (A) (A) (A) (A) (A) (A)
                 (A) (A) (A) (A) (A) (A) (A) (A) (A) (A) (A) (A)
                 (A) (A) (A) (A) (A) (A) (A) (A) (A) (A) (A) (A)
                 (A) (A) (A) (A) (A) (A) (A) (A) (A) (A) (A) (A)
                 (A) (A) (A) (A) (A) (A) (A) (A) (A) (A) (A) (A)
                 (A) (A) (A) (A) (A) (A) (A) (A)
 The electronic state is 1-A.
 Alpha  occ. eigenvalues --  -19.71115 -19.62688 -19.62685 -10.70495 -10.70492
 Alpha  occ. eigenvalues --  -10.57571 -10.57570 -10.57108  -1.29477  -1.19310
 Alpha  occ. eigenvalues --   -1.15377  -0.97176  -0.87889  -0.80220  -0.76574
 Alpha  occ. eigenvalues --   -0.65592  -0.61255  -0.60640  -0.58564  -0.55496
 Alpha  occ. eigenvalues --   -0.55235  -0.53405  -0.52282  -0.46871  -0.45916
 Alpha  occ. eigenvalues --   -0.45697  -0.44861  -0.40392  -0.38301  -0.37084
 Alpha virt. eigenvalues --   -0.04456  -0.02446  -0.02438  -0.01578  -0.01024
 Alpha virt. eigenvalues --    0.00525   0.02102   0.02250   0.02950   0.03216
 Alpha virt. eigenvalues --    0.04209   0.06592   0.06804   0.07293   0.07620
 Alpha virt. eigenvalues --    0.07784   0.08626   0.08637   0.10132   0.11116
 Alpha virt. eigenvalues --    0.11298   0.12500   0.12510   0.13321   0.13758
 Alpha virt. eigenvalues --    0.14525   0.14595   0.15559   0.20388   0.21283
 Alpha virt. eigenvalues --    0.21814   0.22356   0.23557   0.24152   0.24602
 Alpha virt. eigenvalues --    0.26313   0.28275   0.28366   0.28655   0.29199
 Alpha virt. eigenvalues --    0.29218   0.30540   0.30715   0.32112   0.32870
 Alpha virt. eigenvalues --    0.32935   0.33922   0.35227   0.35782   0.38938
 Alpha virt. eigenvalues --    0.40900   0.43599   0.43613   0.44888   0.48703
 Alpha virt. eigenvalues --    0.49210   0.50813   0.57217   0.59308   0.59824
 Alpha virt. eigenvalues --    0.61399   0.61576   0.63880   0.66980   0.67470
 Alpha virt. eigenvalues --    0.67862   0.69712   0.70942   0.71871   0.71900
 Alpha virt. eigenvalues --    0.73631   0.75624   0.78035   0.81848   0.82461
 Alpha virt. eigenvalues --    0.84726   0.89537   0.91370   0.96878   1.00716
 Alpha virt. eigenvalues --    1.08445   1.13486   1.13870   1.17248   1.18936
 Alpha virt. eigenvalues --    1.19217   1.20178   1.22451   1.23000   1.24019
 Alpha virt. eigenvalues --    1.27291   1.31621   1.33627   1.39158   1.42529
 Alpha virt. eigenvalues --    1.43337   1.44622   1.51937   1.52838   1.55590
 Alpha virt. eigenvalues --    1.57355   1.57505   1.59463   1.59850   1.62817
 Alpha virt. eigenvalues --    1.63074   1.67571   1.69875   1.71995   1.73066
 Alpha virt. eigenvalues --    1.74937   1.77823   1.79452   1.83875   1.84187
 Alpha virt. eigenvalues --    1.91525   1.92157   1.93321   2.00762   2.04615
 Alpha virt. eigenvalues --    2.05971   2.15514   2.16827   2.20976   2.23663
 Alpha virt. eigenvalues --    2.26330   2.32113   2.35750   2.43676   2.49719
 Alpha virt. eigenvalues --    2.52787   2.56175   2.60285   2.62914   2.65937
 Alpha virt. eigenvalues --    2.68729   2.69062   2.70504   2.75176   2.76104
 Alpha virt. eigenvalues --    2.80875   2.81147   2.83396   2.92587   2.93818
 Alpha virt. eigenvalues --    2.95471   2.96867   3.03177   3.03223   3.08206
 Alpha virt. eigenvalues --    3.10881   3.18352   3.26578   3.28723   3.35431
 Alpha virt. eigenvalues --    3.39627   3.41710   3.42458   3.56539   3.56910
 Alpha virt. eigenvalues --    3.69180   3.73783   3.81448   3.82914   3.87257
 Alpha virt. eigenvalues --    4.07393   4.13559   4.16211   4.26349   4.31081
 Alpha virt. eigenvalues --    4.42477   5.07031   5.13715   5.14560   5.24953
 Alpha virt. eigenvalues --    5.29569   5.41118   5.63573   5.81047   6.06339
 Alpha virt. eigenvalues --   23.81060  23.83316  23.90408  23.95462  23.98460
 Alpha virt. eigenvalues --   49.85760  49.98407  50.01442
          Condensed to atoms (all electrons):
               1          2          3          4          5          6
     1  O    8.440532  -0.070450  -0.070426   0.161849   0.022065   0.022587
     2  O   -0.070450   7.917582   0.001432   0.003292  -0.202103  -0.006626
     3  O   -0.070426   0.001432   7.917607   0.003151  -0.006664  -0.201848
     4  C    0.161849   0.003292   0.003151   8.195866  -1.155464  -1.156718
     5  C    0.022065  -0.202103  -0.006664  -1.155464   7.761758  -0.017636
     6  C    0.022587  -0.006626  -0.201848  -1.156718  -0.017636   7.764685
     7  C   -0.266830   0.589027   0.016692  -0.155875  -0.766023  -0.040630
     8  C   -0.267124   0.016622   0.588775  -0.156712  -0.038531  -0.767240
     9  H    0.018881  -0.000095  -0.000080   0.379730   0.045604   0.046518
    10  H   -0.009940   0.000616   0.000610   0.484648  -0.099738  -0.100190
    11  H   -0.002075  -0.009032   0.000811  -0.064241   0.414512  -0.011503
    12  H    0.016799  -0.010996  -0.000325  -0.015668   0.530385  -0.034055
    13  H    0.016928  -0.000334  -0.010967  -0.014978  -0.034323   0.530331
    14  H   -0.002127   0.000819  -0.008992  -0.064601  -0.011295   0.414402
               7          8          9         10         11         12
     1  O   -0.266830  -0.267124   0.018881  -0.009940  -0.002075   0.016799
     2  O    0.589027   0.016622  -0.000095   0.000616  -0.009032  -0.010996
     3  O    0.016692   0.588775  -0.000080   0.000610   0.000811  -0.000325
     4  C   -0.155875  -0.156712   0.379730   0.484648  -0.064241  -0.015668
     5  C   -0.766023  -0.038531   0.045604  -0.099738   0.414512   0.530385
     6  C   -0.040630  -0.767240   0.046518  -0.100190  -0.011503  -0.034055
     7  C    6.339768   0.422763  -0.080422   0.028945  -0.008840  -0.136591
     8  C    0.422763   6.340920  -0.080624   0.029001   0.012341  -0.018327
     9  H   -0.080422  -0.080624   0.449955  -0.036903  -0.008750   0.003240
    10  H    0.028945   0.029001  -0.036903   0.454521  -0.000323  -0.005007
    11  H   -0.008840   0.012341  -0.008750  -0.000323   0.397301  -0.005682
    12  H   -0.136591  -0.018327   0.003240  -0.005007  -0.005682   0.394542
    13  H   -0.018476  -0.136964   0.003243  -0.005001  -0.003495   0.000987
    14  H    0.012440  -0.008697  -0.008708  -0.000343   0.001243  -0.003476
              13         14
     1  O    0.016928  -0.002127
     2  O   -0.000334   0.000819
     3  O   -0.010967  -0.008992
     4  C   -0.014978  -0.064601
     5  C   -0.034323  -0.011295
     6  C    0.530331   0.414402
     7  C   -0.018476   0.012440
     8  C   -0.136964  -0.008697
     9  H    0.003243  -0.008708
    10  H   -0.005001  -0.000343
    11  H   -0.003495   0.001243
    12  H    0.000987  -0.003476
    13  H    0.394749  -0.005720
    14  H   -0.005720   0.397244
 Mulliken charges:
               1
     1  O   -0.010669
     2  O   -0.229755
     3  O   -0.229775
     4  C   -0.444278
     5  C   -0.442546
     6  C   -0.442078
     7  C    0.064051
     8  C    0.063797
     9  H    0.268412
    10  H    0.259103
    11  H    0.287733
    12  H    0.284175
    13  H    0.284020
    14  H    0.287811
 Sum of Mulliken charges =  -0.00000
 Mulliken charges with hydrogens summed into heavy atoms:
               1
     1  O   -0.010669
     2  O   -0.229755
     3  O   -0.229775
     4  C    0.083237
     5  C    0.129362
     6  C    0.129752
     7  C    0.064051
     8  C    0.063797
 Electronic spatial extent (au):  <R**2>=            872.7787
 Charge=             -0.0000 electrons
 Dipole moment (field-independent basis, Debye):
    X=             -0.0003    Y=              5.7248    Z=              0.5492  Tot=              5.7510
 Quadrupole moment (field-independent basis, Debye-Ang):
   XX=            -58.9258   YY=            -49.3889   ZZ=            -43.6815
   XY=             -0.0004   XZ=              0.0067   YZ=             -0.2642
 Traceless Quadrupole moment (field-independent basis, Debye-Ang):
   XX=             -8.2604   YY=              1.2765   ZZ=              6.9839
   XY=             -0.0004   XZ=              0.0067   YZ=             -0.2642
 Octapole moment (field-independent basis, Debye-Ang**2):
  XXX=              0.0057  YYY=              6.4649  ZZZ=              1.0632  XYY=             -0.0021
  XXY=             22.1985  XXZ=              0.1543  XZZ=             -0.0033  YZZ=             -1.4190
  YYZ=              0.8766  XYZ=             -0.0042
 Hexadecapole moment (field-independent basis, Debye-Ang**3):
 XXXX=           -714.5364 YYYY=           -403.6080 ZZZZ=            -71.9019 XXXY=              0.0066
 XXXZ=              0.0292 YYYX=              0.0005 YYYZ=             -0.1492 ZZZX=             -0.0028
 ZZZY=              2.2086 XXYY=           -187.7926 XXZZ=           -112.9227 YYZZ=            -78.3410
 XXYZ=             -2.3056 YYXZ=              0.0095 ZZXY=             -0.0056
 N-N= 3.764740155923D+02 E-N=-1.734897640064D+03  KE= 4.180803294950D+02
 R6APFD:  NTU= -4 IXU= 1 FactS= 1.050
 Calling FoFJK, ICntrl=      2127 FMM=F ISym2X=0 I1Cent= 0 IOpClX= 0 NMat=1 NMatS=1 NMatT=0.
 ***** Axes restored to original set *****
 -------------------------------------------------------------------
 Center     Atomic                   Forces (Hartrees/Bohr)
 Number     Number              X              Y              Z
 -------------------------------------------------------------------
      1        8           0.000040510   -0.015996070    0.005008258
      2        8          -0.059770693    0.022295746    0.000752338
      3        8           0.059749227    0.022251139    0.000721618
      4        6           0.000013256    0.009577987   -0.004026327
      5        6           0.005351981    0.009097760    0.010102088
      6        6          -0.005393756    0.009137386    0.010092564
      7        6           0.072370570   -0.022924463   -0.005467509
      8        6          -0.072418930   -0.022897499   -0.005458838
      9        1          -0.000011797    0.000596275    0.001484238
     10        1          -0.000004539    0.000936523    0.001682952
     11        1           0.004163092   -0.006046246   -0.004702809
     12        1          -0.000001665    0.000018573   -0.002752520
     13        1           0.000036457    0.000021525   -0.002729216
     14        1          -0.004123714   -0.006068636   -0.004706837
 -------------------------------------------------------------------
 Cartesian Forces:  Max     0.072418930 RMS     0.022209731

 GradGradGradGradGradGradGradGradGradGradGradGradGradGradGradGradGradGrad
 Berny optimization.
 FormGI is forming the generalized inverse of G from B-inverse, IUseBI=4.
 Internal  Forces:  Max     0.062574027 RMS     0.011544732
 Search for a local minimum.
 Step number   1 out of a maximum of   83
 All quantities printed in internal units (Hartrees-Bohrs-Radians)
 Mixed Optimization -- RFO/linear search
 Second derivative matrix not updated -- first step.
 ITU=  0
     Eigenvalues ---    0.00921   0.00985   0.01101   0.01204   0.01769
     Eigenvalues ---    0.03847   0.03900   0.04952   0.05415   0.05843
     Eigenvalues ---    0.06383   0.07652   0.07880   0.09225   0.09230
     Eigenvalues ---    0.10552   0.12086   0.18887   0.20297   0.24824
     Eigenvalues ---    0.24977   0.24987   0.30607   0.30853   0.31229
     Eigenvalues ---    0.32477   0.34017   0.34193   0.34198   0.34203
     Eigenvalues ---    0.34207   0.34244   0.50943   0.52932   0.90884
     Eigenvalues ---    0.90888
 RFO step:  Lambda=-1.69543545D-02 EMin= 9.21340741D-03
 Linear search not attempted -- first point.
 Iteration  1 RMS(Cart)=  0.03794760 RMS(Int)=  0.00136749
 Iteration  2 RMS(Cart)=  0.00125158 RMS(Int)=  0.00047133
 Iteration  3 RMS(Cart)=  0.00000204 RMS(Int)=  0.00047133
 Iteration  4 RMS(Cart)=  0.00000000 RMS(Int)=  0.00047133
 Variable       Old X    -DE/DX   Delta X   Delta X   Delta X     New X
                                 (Linear)    (Quad)   (Total)
    R1        2.56212   0.00988   0.00000   0.01677   0.01689   2.57901
    R2        2.56196   0.00992   0.00000   0.01684   0.01696   2.57892
    R3        2.32528  -0.06257   0.00000  -0.06759  -0.06759   2.25769
    R4        2.32526  -0.06253   0.00000  -0.06754  -0.06754   2.25772
    R5        2.84648   0.01456   0.00000   0.04514   0.04503   2.89151
    R6        2.84651   0.01455   0.00000   0.04512   0.04501   2.89152
    R7        2.07302   0.00139   0.00000   0.00389   0.00389   2.07691
    R8        2.06920   0.00063   0.00000   0.00175   0.00175   2.07095
    R9        2.83285   0.00813   0.00000   0.02378   0.02378   2.85663
   R10        2.06997  -0.00086   0.00000  -0.00240  -0.00240   2.06757
   R11        2.06982   0.00271   0.00000   0.00755   0.00755   2.07737
   R12        2.83274   0.00816   0.00000   0.02385   0.02386   2.85659
   R13        2.06989   0.00269   0.00000   0.00749   0.00749   2.07738
   R14        2.07005  -0.00089   0.00000  -0.00249  -0.00249   2.06756
    A1        2.16491   0.00304   0.00000   0.01422   0.01432   2.17923
    A2        1.87646   0.00211   0.00000   0.01710   0.01725   1.89371
    A3        1.92393  -0.00151   0.00000  -0.01408  -0.01418   1.90975
    A4        1.92942   0.00063   0.00000   0.01106   0.01073   1.94014
    A5        1.92397  -0.00153   0.00000  -0.01419  -0.01429   1.90968
    A6        1.92955   0.00062   0.00000   0.01101   0.01067   1.94022
    A7        1.88100  -0.00036   0.00000  -0.01107  -0.01093   1.87007
    A8        1.93354  -0.00063   0.00000   0.00760   0.00713   1.94067
    A9        1.90528   0.00737   0.00000   0.06613   0.06605   1.97133
   A10        1.94544  -0.00099   0.00000  -0.01392  -0.01360   1.93184
   A11        1.89437  -0.00377   0.00000  -0.02731  -0.02800   1.86637
   A12        1.89165  -0.00051   0.00000  -0.01990  -0.02016   1.87149
   A13        1.89244  -0.00166   0.00000  -0.01425  -0.01480   1.87764
   A14        1.93312  -0.00061   0.00000   0.00775   0.00727   1.94039
   A15        1.94571  -0.00102   0.00000  -0.01418  -0.01386   1.93185
   A16        1.90531   0.00737   0.00000   0.06614   0.06606   1.97136
   A17        1.89180  -0.00050   0.00000  -0.01989  -0.02015   1.87165
   A18        1.89443  -0.00378   0.00000  -0.02732  -0.02801   1.86642
   A19        1.89235  -0.00164   0.00000  -0.01413  -0.01467   1.87768
   A20        2.10636  -0.01408   0.00000  -0.05399  -0.05439   2.05197
   A21        2.07086  -0.00049   0.00000   0.00262   0.00219   2.07305
   A22        2.10510   0.01463   0.00000   0.05345   0.05304   2.15813
   A23        2.10647  -0.01410   0.00000  -0.05405  -0.05446   2.05202
   A24        2.07081  -0.00053   0.00000   0.00254   0.00210   2.07291
   A25        2.10503   0.01468   0.00000   0.05361   0.05319   2.15823
    D1       -3.10374   0.00005   0.00000  -0.01502  -0.01336  -3.11710
    D2       -0.00658   0.00186   0.00000   0.03981   0.03875   0.03217
    D3        3.10480  -0.00004   0.00000   0.01516   0.01348   3.11828
    D4        0.00781  -0.00187   0.00000  -0.03997  -0.03890  -0.03109
    D5       -1.00150   0.00241   0.00000   0.04610   0.04659  -0.95490
    D6       -3.08661   0.00279   0.00000   0.03330   0.03334  -3.05327
    D7        1.10647   0.00066   0.00000   0.01662   0.01688   1.12336
    D8        1.09618   0.00097   0.00000   0.03115   0.03143   1.12761
    D9       -0.98893   0.00135   0.00000   0.01835   0.01817  -0.97076
   D10       -3.07903  -0.00078   0.00000   0.00168   0.00172  -3.07732
   D11       -3.10918  -0.00004   0.00000   0.01547   0.01561  -3.09357
   D12        1.08889   0.00033   0.00000   0.00267   0.00236   1.09125
   D13       -1.00121  -0.00179   0.00000  -0.01401  -0.01410  -1.01531
   D14        1.00256  -0.00241   0.00000  -0.04619  -0.04669   0.95586
   D15       -1.10549  -0.00066   0.00000  -0.01666  -0.01693  -1.12242
   D16        3.08751  -0.00278   0.00000  -0.03335  -0.03339   3.05412
   D17       -1.09510  -0.00098   0.00000  -0.03132  -0.03160  -1.12670
   D18        3.08004   0.00077   0.00000  -0.00179  -0.00183   3.07821
   D19        0.98986  -0.00135   0.00000  -0.01848  -0.01830   0.97156
   D20        3.11015   0.00005   0.00000  -0.01553  -0.01568   3.09448
   D21        1.00210   0.00179   0.00000   0.01400   0.01409   1.01619
   D22       -1.08808  -0.00033   0.00000  -0.00269  -0.00238  -1.09045
   D23        0.52372  -0.00258   0.00000  -0.04220  -0.04194   0.48177
   D24       -2.66227  -0.00153   0.00000   0.00976   0.01062  -2.65165
   D25        2.61537   0.00372   0.00000   0.02643   0.02580   2.64118
   D26       -0.57061   0.00477   0.00000   0.07840   0.07837  -0.49224
   D27       -1.61585  -0.00061   0.00000  -0.01653  -0.01640  -1.63225
   D28        1.48135   0.00044   0.00000   0.03544   0.03616   1.51751
   D29       -0.52601   0.00260   0.00000   0.04249   0.04223  -0.48378
   D30        2.66015   0.00153   0.00000  -0.00975  -0.01062   2.64953
   D31        1.61372   0.00060   0.00000   0.01659   0.01648   1.63019
   D32       -1.48331  -0.00046   0.00000  -0.03565  -0.03638  -1.51968
   D33       -2.61749  -0.00371   0.00000  -0.02623  -0.02560  -2.64309
   D34        0.56867  -0.00477   0.00000  -0.07847  -0.07845   0.49022
         Item               Value     Threshold  Converged?
 Maximum Force            0.062574     0.000450     NO 
 RMS     Force            0.011545     0.000300     NO 
 Maximum Displacement     0.111015     0.001800     NO 
 RMS     Displacement     0.037621     0.001200     NO 
 Predicted change in Energy=-9.104080D-03
 GradGradGradGradGradGradGradGradGradGradGradGradGradGradGradGradGradGrad

                          Input orientation:                          
 ---------------------------------------------------------------------
 Center     Atomic      Atomic             Coordinates (Angstroms)
 Number     Number       Type             X           Y           Z
 ---------------------------------------------------------------------
      1          8           0        0.000087   -1.023703    0.064613
      2          8           0        2.190049   -1.077863    0.047178
      3          8           0       -2.189872   -1.078139    0.047962
      4          6           0       -0.000492    1.761127    0.371989
      5          6           0        1.241856    1.099158   -0.227713
      6          6           0       -1.241788    1.098681   -0.229379
      7          6           0        1.209817   -0.399685   -0.033899
      8          6           0       -1.209710   -0.399958   -0.034145
      9          1           0       -0.001239    1.617306    1.461590
     10          1           0       -0.000525    2.841593    0.188704
     11          1           0        2.174046    1.458357    0.218464
     12          1           0        1.297742    1.286461   -1.309493
     13          1           0       -1.295802    1.285155   -1.311404
     14          1           0       -2.174771    1.458112    0.214934
 ---------------------------------------------------------------------
                    Distance matrix (angstroms):
                    1          2          3          4          5
     1  O    0.000000
     2  O    2.190701   0.000000
     3  O    2.190700   4.379922   0.000000
     4  C    2.801742   3.600533   3.599974   0.000000
     5  C    2.476688   2.390410   4.073497   1.530122   0.000000
     6  C    2.476530   4.073246   2.390467   1.530128   2.483644
     7  C    1.364753   1.194719   3.467693   2.509721   1.511662
     8  C    1.364706   3.467641   1.194735   2.509470   2.880102
     9  H    2.987721   3.750499   3.748852   1.099052   2.160442
    10  H    3.867288   4.492302   4.491921   1.095902   2.180135
    11  H    3.303088   2.542048   5.050413   2.200876   1.094110
    12  H    2.984784   2.868239   4.426903   2.176718   1.099296
    13  H    2.983887   4.425015   2.869216   2.176738   2.765626
    14  H    3.303333   5.050838   2.541786   2.200903   3.463830
                    6          7          8          9         10
     6  C    0.000000
     7  C    2.879875   0.000000
     8  C    1.511643   2.419527   0.000000
     9  H    2.160396   2.787723   2.786930   0.000000
    10  H    2.180199   3.467039   3.466906   1.766103   0.000000
    11  H    3.463792   2.108493   3.868714   2.510477   2.577399
    12  H    2.766065   2.116119   3.279914   3.078265   2.519628
    13  H    1.099303   3.278541   2.116225   3.078265   2.520033
    14  H    1.094103   3.868948   2.108508   2.510724   2.577218
                   11         12         13         14
    11  H    0.000000
    12  H    1.769777   0.000000
    13  H    3.796096   2.593545   0.000000
    14  H    4.348819   3.796272   1.769804   0.000000
 Stoichiometry    C5H6O3
 Framework group  C1[X(C5H6O3)]
 Deg. of freedom    36
 Full point group                 C1      NOp   1
 Largest Abelian subgroup         C1      NOp   1
 Largest concise Abelian subgroup C1      NOp   1
                         Standard orientation:                         
 ---------------------------------------------------------------------
 Center     Atomic      Atomic             Coordinates (Angstroms)
 Number     Number       Type             X           Y           Z
 ---------------------------------------------------------------------
      1          8           0       -0.000017   -1.081547   -0.066138
      2          8           0       -2.189974   -1.135843   -0.048539
      3          8           0        2.189947   -1.135802   -0.049505
      4          6           0        0.000347    1.702870   -0.377230
      5          6           0       -1.241927    1.041613    0.223407
      6          6           0        1.241716    1.041318    0.224971
      7          6           0       -1.209788   -0.457485    0.031592
      8          6           0        1.209739   -0.457583    0.031738
      9          1           0        0.001060    1.557596   -1.466638
     10          1           0        0.000309    2.783580   -0.195387
     11          1           0       -2.174163    1.400148   -0.223211
     12          1           0       -1.297783    1.230355    1.304938
     13          1           0        1.295762    1.229239    1.306743
     14          1           0        2.174654    1.400223   -0.219860
 ---------------------------------------------------------------------
 Rotational constants (GHZ):           3.3442456           2.0435795           1.3272538
 Standard basis: 6-311++G(d,p) (5D, 7F)
 There are   226 symmetry adapted cartesian basis functions of A   symmetry.
 There are   218 symmetry adapted basis functions of A   symmetry.
   218 basis functions,   342 primitive gaussians,   226 cartesian basis functions
    30 alpha electrons       30 beta electrons
       nuclear repulsion energy       376.3943040948 Hartrees.
 NAtoms=   14 NActive=   14 NUniq=   14 SFac= 1.00D+00 NAtFMM=   60 NAOKFM=F Big=F
 Integral buffers will be    131072 words long.
 Raffenetti 2 integral format.
 Two-electron integral symmetry is turned on.
 R6APFD:  NTU= -4 IXU= 1 FactS= 1.050
 Nuclear repulsion after empirical dispersion term =      376.3853128493 Hartrees.
 One-electron integrals computed using PRISM.
 NBasis=   218 RedAO= T EigKep=  2.05D-05  NBF=   218
 NBsUse=   218 1.00D-06 EigRej= -1.00D+00 NBFU=   218
 Initial guess from the checkpoint file:  "GTAC0119.chk"
 B after Tr=     0.000000   -0.000000   -0.000000
         Rot=    1.000000   -0.000119   -0.000008   -0.000035 Ang=  -0.01 deg.
 ExpMin= 3.60D-02 ExpMax= 8.59D+03 ExpMxC= 1.30D+03 IAcc=3 IRadAn=         5 AccDes= 0.00D+00
 Harris functional with IExCor= 1009 and IRadAn=       5 diagonalized for initial guess.
 HarFok:  IExCor= 1009 AccDes= 0.00D+00 IRadAn=         5 IDoV= 1 UseB2=F ITyADJ=14
 ICtDFT=  3500011 ScaDFX=  1.000000  1.000000  1.000000  1.000000
 FoFCou: FMM=F IPFlag=           0 FMFlag=      100000 FMFlg1=           0
         NFxFlg=           0 DoJE=T BraDBF=F KetDBF=T FulRan=T
         wScrn=  0.000000 ICntrl=       500 IOpCl=  0 I1Cent=   200000004 NGrid=           0
         NMat0=    1 NMatS0=      1 NMatT0=    0 NMatD0=    1 NMtDS0=    0 NMtDT0=    0
 Petite list used in FoFCou.
 Requested convergence on RMS density matrix=1.00D-08 within  32 cycles.
 Requested convergence on MAX density matrix=1.00D-06.
 Requested convergence on             energy=1.00D-06.
 No special actions if energy rises.
 SCF Done:  E(RM08HX) =  -419.815021891     A.U. after   12 cycles
            NFock= 12  Conv=0.76D-08     -V/T= 2.0039
 QCSCF skips out because SCF is already converged.
 R6APFD:  NTU= -4 IXU= 1 FactS= 1.050
 Calling FoFJK, ICntrl=      2127 FMM=F ISym2X=0 I1Cent= 0 IOpClX= 0 NMat=1 NMatS=1 NMatT=0.
 ***** Axes restored to original set *****
 -------------------------------------------------------------------
 Center     Atomic                   Forces (Hartrees/Bohr)
 Number     Number              X              Y              Z
 -------------------------------------------------------------------
      1        8           0.000020511   -0.002476931   -0.000271726
      2        8          -0.005803876    0.005204887   -0.001229490
      3        8           0.005816943    0.005206889   -0.001247318
      4        6           0.000007660   -0.001094426   -0.000939304
      5        6          -0.005136796    0.003053587    0.001743026
      6        6           0.005120711    0.003056957    0.001735242
      7        6           0.020233884   -0.005944829    0.001772212
      8        6          -0.020266359   -0.005931642    0.001800670
      9        1           0.000000662    0.000682553    0.000246795
     10        1          -0.000003022   -0.000727992   -0.000414860
     11        1           0.000156029   -0.000870569   -0.000857874
     12        1          -0.000213375    0.000356516   -0.000742433
     13        1           0.000219558    0.000356871   -0.000741757
     14        1          -0.000152532   -0.000871870   -0.000853183
 -------------------------------------------------------------------
 Cartesian Forces:  Max     0.020266359 RMS     0.005148186

 GradGradGradGradGradGradGradGradGradGradGradGradGradGradGradGradGradGrad
 Berny optimization.
 Using GEDIIS/GDIIS optimizer.
 FormGI is forming the generalized inverse of G from B-inverse, IUseBI=4.
 Internal  Forces:  Max     0.009914984 RMS     0.002479704
 Search for a local minimum.
 Step number   2 out of a maximum of   83
 All quantities printed in internal units (Hartrees-Bohrs-Radians)
 Mixed Optimization -- RFO/linear search
 Update second derivatives using D2CorX and points    1    2
 DE= -9.21D-03 DEPred=-9.10D-03 R= 1.01D+00
 TightC=F SS=  1.41D+00  RLast= 2.73D-01 DXNew= 5.0454D-01 8.1897D-01
 Trust test= 1.01D+00 RLast= 2.73D-01 DXMaxT set to 5.05D-01
 ITU=  1  0
 Use linear search instead of GDIIS.
     Eigenvalues ---    0.00913   0.00958   0.01121   0.01165   0.01789
     Eigenvalues ---    0.03698   0.03784   0.04839   0.05312   0.05725
     Eigenvalues ---    0.06414   0.07794   0.08061   0.09450   0.09459
     Eigenvalues ---    0.10572   0.12182   0.19289   0.20574   0.23684
     Eigenvalues ---    0.24999   0.26811   0.30661   0.31290   0.32089
     Eigenvalues ---    0.32630   0.34014   0.34155   0.34195   0.34200
     Eigenvalues ---    0.34205   0.34268   0.48175   0.52957   0.83175
     Eigenvalues ---    0.90886
 RFO step:  Lambda=-1.35374135D-03 EMin= 9.13029559D-03
 Quartic linear search produced a step of  0.07006.
 Iteration  1 RMS(Cart)=  0.01588679 RMS(Int)=  0.00033968
 Iteration  2 RMS(Cart)=  0.00029077 RMS(Int)=  0.00013508
 Iteration  3 RMS(Cart)=  0.00000008 RMS(Int)=  0.00013508
 Variable       Old X    -DE/DX   Delta X   Delta X   Delta X     New X
                                 (Linear)    (Quad)   (Total)
    R1        2.57901   0.00989   0.00118   0.02172   0.02292   2.60193
    R2        2.57892   0.00991   0.00119   0.02176   0.02297   2.60189
    R3        2.25769  -0.00780  -0.00474  -0.01103  -0.01577   2.24192
    R4        2.25772  -0.00781  -0.00473  -0.01105  -0.01578   2.24194
    R5        2.89151  -0.00152   0.00315  -0.00660  -0.00346   2.88805
    R6        2.89152  -0.00151   0.00315  -0.00660  -0.00346   2.88806
    R7        2.07691   0.00015   0.00027   0.00058   0.00085   2.07776
    R8        2.07095  -0.00065   0.00012  -0.00198  -0.00185   2.06910
    R9        2.85663   0.00193   0.00167   0.00695   0.00861   2.86524
   R10        2.06757  -0.00050  -0.00017  -0.00163  -0.00179   2.06578
   R11        2.07737   0.00078   0.00053   0.00261   0.00314   2.08051
   R12        2.85659   0.00192   0.00167   0.00694   0.00861   2.86520
   R13        2.07738   0.00078   0.00052   0.00261   0.00313   2.08052
   R14        2.06756  -0.00050  -0.00017  -0.00163  -0.00180   2.06575
    A1        2.17923   0.00178   0.00100   0.01203   0.01325   2.19248
    A2        1.89371   0.00080   0.00121  -0.00927  -0.00818   1.88553
    A3        1.90975   0.00030  -0.00099   0.01126   0.01033   1.92008
    A4        1.94014  -0.00073   0.00075  -0.00669  -0.00604   1.93410
    A5        1.90968   0.00030  -0.00100   0.01128   0.01033   1.92001
    A6        1.94022  -0.00073   0.00075  -0.00673  -0.00610   1.93413
    A7        1.87007   0.00007  -0.00077   0.00102   0.00029   1.87036
    A8        1.94067   0.00336   0.00050   0.00909   0.00962   1.95029
    A9        1.97133   0.00012   0.00463   0.00935   0.01399   1.98532
   A10        1.93184  -0.00128  -0.00095  -0.00706  -0.00802   1.92382
   A11        1.86637  -0.00198  -0.00196  -0.00736  -0.00953   1.85684
   A12        1.87149  -0.00062  -0.00141  -0.00112  -0.00255   1.86895
   A13        1.87764   0.00026  -0.00104  -0.00371  -0.00477   1.87286
   A14        1.94039   0.00336   0.00051   0.00905   0.00959   1.94998
   A15        1.93185  -0.00129  -0.00097  -0.00710  -0.00808   1.92378
   A16        1.97136   0.00012   0.00463   0.00935   0.01400   1.98537
   A17        1.87165  -0.00061  -0.00141  -0.00110  -0.00252   1.86913
   A18        1.86642  -0.00198  -0.00196  -0.00736  -0.00953   1.85689
   A19        1.87768   0.00026  -0.00103  -0.00366  -0.00471   1.87297
   A20        2.05197   0.00346  -0.00381   0.01392   0.00964   2.06162
   A21        2.07305  -0.00455   0.00015  -0.01963  -0.01976   2.05329
   A22        2.15813   0.00109   0.00372   0.00609   0.00934   2.16747
   A23        2.05202   0.00346  -0.00382   0.01390   0.00961   2.06163
   A24        2.07291  -0.00454   0.00015  -0.01964  -0.01978   2.05314
   A25        2.15823   0.00109   0.00373   0.00612   0.00938   2.16760
    D1       -3.11710   0.00046  -0.00094   0.02842   0.02750  -3.08959
    D2        0.03217  -0.00012   0.00271  -0.02403  -0.02140   0.01077
    D3        3.11828  -0.00047   0.00094  -0.02884  -0.02792   3.09036
    D4       -0.03109   0.00012  -0.00273   0.02406   0.02142  -0.00967
    D5       -0.95490  -0.00100   0.00326  -0.02012  -0.01682  -0.97172
    D6       -3.05327  -0.00093   0.00234  -0.02364  -0.02137  -3.07465
    D7        1.12336  -0.00043   0.00118  -0.02026  -0.01907   1.10429
    D8        1.12761   0.00001   0.00220  -0.00542  -0.00317   1.12444
    D9       -0.97076   0.00008   0.00127  -0.00894  -0.00773  -0.97849
   D10       -3.07732   0.00058   0.00012  -0.00556  -0.00543  -3.08274
   D11       -3.09357  -0.00015   0.00109  -0.00116  -0.00004  -3.09360
   D12        1.09125  -0.00009   0.00017  -0.00467  -0.00460   1.08665
   D13       -1.01531   0.00041  -0.00099  -0.00129  -0.00229  -1.01760
   D14        0.95586   0.00100  -0.00327   0.02017   0.01686   0.97272
   D15       -1.12242   0.00043  -0.00119   0.02032   0.01913  -1.10328
   D16        3.05412   0.00093  -0.00234   0.02366   0.02139   3.07551
   D17       -1.12670  -0.00001  -0.00221   0.00548   0.00322  -1.12348
   D18        3.07821  -0.00058  -0.00013   0.00563   0.00549   3.08370
   D19        0.97156  -0.00008  -0.00128   0.00897   0.00775   0.97932
   D20        3.09448   0.00016  -0.00110   0.00124   0.00011   3.09459
   D21        1.01619  -0.00041   0.00099   0.00139   0.00239   1.01858
   D22       -1.09045   0.00009  -0.00017   0.00472   0.00465  -1.08580
   D23        0.48177   0.00012  -0.00294   0.02233   0.01936   0.50113
   D24       -2.65165  -0.00051   0.00074  -0.03355  -0.03277  -2.68442
   D25        2.64118   0.00104   0.00181   0.03468   0.03637   2.67754
   D26       -0.49224   0.00041   0.00549  -0.02120  -0.01576  -0.50800
   D27       -1.63225   0.00008  -0.00115   0.02629   0.02512  -1.60713
   D28        1.51751  -0.00055   0.00253  -0.02959  -0.02701   1.49050
   D29       -0.48378  -0.00012   0.00296  -0.02241  -0.01942  -0.50321
   D30        2.64953   0.00052  -0.00074   0.03396   0.03317   2.68270
   D31        1.63019  -0.00009   0.00115  -0.02643  -0.02525   1.60494
   D32       -1.51968   0.00055  -0.00255   0.02994   0.02735  -1.49234
   D33       -2.64309  -0.00104  -0.00179  -0.03475  -0.03642  -2.67951
   D34        0.49022  -0.00040  -0.00550   0.02162   0.01618   0.50640
         Item               Value     Threshold  Converged?
 Maximum Force            0.009915     0.000450     NO 
 RMS     Force            0.002480     0.000300     NO 
 Maximum Displacement     0.047995     0.001800     NO 
 RMS     Displacement     0.015878     0.001200     NO 
 Predicted change in Energy=-7.220318D-04
 GradGradGradGradGradGradGradGradGradGradGradGradGradGradGradGradGradGrad

                          Input orientation:                          
 ---------------------------------------------------------------------
 Center     Atomic      Atomic             Coordinates (Angstroms)
 Number     Number       Type             X           Y           Z
 ---------------------------------------------------------------------
      1          8           0        0.000081   -1.025465    0.071495
      2          8           0        2.199686   -1.077323    0.024191
      3          8           0       -2.199524   -1.077674    0.024746
      4          6           0       -0.000489    1.762561    0.384209
      5          6           0        1.236695    1.099952   -0.220768
      6          6           0       -1.236649    1.099487   -0.222366
      7          6           0        1.224756   -0.402650   -0.018371
      8          6           0       -1.224685   -0.402896   -0.018507
      9          1           0       -0.001212    1.632274    1.475964
     10          1           0       -0.000545    2.839637    0.187342
     11          1           0        2.179200    1.460340    0.199717
     12          1           0        1.272367    1.279784   -1.306354
     13          1           0       -1.270404    1.278466   -1.308158
     14          1           0       -2.179877    1.460107    0.196261
 ---------------------------------------------------------------------
                    Distance matrix (angstroms):
                    1          2          3          4          5
     1  O    0.000000
     2  O    2.200725   0.000000
     3  O    2.200720   4.399210   0.000000
     4  C    2.805508   3.610446   3.609972   0.000000
     5  C    2.476293   2.393300   4.075528   1.528290   0.000000
     6  C    2.476142   4.075254   2.393371   1.528297   2.473344
     7  C    1.376882   1.186374   3.490446   2.520205   1.516218
     8  C    1.376860   3.490415   1.186384   2.519928   2.890995
     9  H    3.006013   3.780676   3.779209   1.099502   2.166721
    10  H    3.866838   4.495577   4.495250   1.094920   2.173435
    11  H    3.308206   2.543809   5.064123   2.208261   1.093161
    12  H    2.971760   2.861158   4.402666   2.170539   1.100959
    13  H    2.970803   4.400730   2.862043   2.170516   2.738582
    14  H    3.308451   5.064458   2.543646   2.208288   3.460721
                    6          7          8          9         10
     6  C    0.000000
     7  C    2.890769   0.000000
     8  C    1.516198   2.449442   0.000000
     9  H    2.166677   2.806591   2.805752   0.000000
    10  H    2.173462   3.472190   3.472019   1.765864   0.000000
    11  H    3.460692   2.104579   3.886605   2.532304   2.579516
    12  H    2.739106   2.119375   3.274941   3.080187   2.506905
    13  H    1.100962   3.273458   2.119497   3.080157   2.507253
    14  H    1.093149   3.886831   2.104589   2.532560   2.579277
                   11         12         13         14
    11  H    0.000000
    12  H    1.767257   0.000000
    13  H    3.769156   2.542773   0.000000
    14  H    4.359078   3.769398   1.767318   0.000000
 Stoichiometry    C5H6O3
 Framework group  C1[X(C5H6O3)]
 Deg. of freedom    36
 Full point group                 C1      NOp   1
 Largest Abelian subgroup         C1      NOp   1
 Largest concise Abelian subgroup C1      NOp   1
                         Standard orientation:                         
 ---------------------------------------------------------------------
 Center     Atomic      Atomic             Coordinates (Angstroms)
 Number     Number       Type             X           Y           Z
 ---------------------------------------------------------------------
      1          8           0        0.000009   -1.082463   -0.080279
      2          8           0       -2.199588   -1.134801   -0.033131
      3          8           0        2.199621   -1.134713   -0.033953
      4          6           0        0.000284    1.707255   -0.377518
      5          6           0       -1.236797    1.041176    0.223847
      6          6           0        1.236547    1.040948    0.225294
      7          6           0       -1.224723   -0.460278    0.013115
      8          6           0        1.224719   -0.460282    0.013102
      9          1           0        0.000954    1.583028   -1.469979
     10          1           0        0.000246    2.783222   -0.174677
     11          1           0       -2.179363    1.403798   -0.194575
     12          1           0       -1.272421    1.214979    1.310417
     13          1           0        1.270350    1.213902    1.312061
     14          1           0        2.179714    1.403979   -0.191382
 ---------------------------------------------------------------------
 Rotational constants (GHZ):           3.3402107           2.0286451           1.3202057
 Standard basis: 6-311++G(d,p) (5D, 7F)
 There are   226 symmetry adapted cartesian basis functions of A   symmetry.
 There are   218 symmetry adapted basis functions of A   symmetry.
   218 basis functions,   342 primitive gaussians,   226 cartesian basis functions
    30 alpha electrons       30 beta electrons
       nuclear repulsion energy       375.7879538926 Hartrees.
 NAtoms=   14 NActive=   14 NUniq=   14 SFac= 1.00D+00 NAtFMM=   60 NAOKFM=F Big=F
 Integral buffers will be    131072 words long.
 Raffenetti 2 integral format.
 Two-electron integral symmetry is turned on.
 R6APFD:  NTU= -4 IXU= 1 FactS= 1.050
 Nuclear repulsion after empirical dispersion term =      375.7788818624 Hartrees.
 One-electron integrals computed using PRISM.
 NBasis=   218 RedAO= T EigKep=  2.08D-05  NBF=   218
 NBsUse=   218 1.00D-06 EigRej= -1.00D+00 NBFU=   218
 Initial guess from the checkpoint file:  "GTAC0119.chk"
 B after Tr=    -0.000000    0.000000   -0.000000
         Rot=    0.999999   -0.001041   -0.000000   -0.000011 Ang=  -0.12 deg.
 ExpMin= 3.60D-02 ExpMax= 8.59D+03 ExpMxC= 1.30D+03 IAcc=3 IRadAn=         5 AccDes= 0.00D+00
 Harris functional with IExCor= 1009 and IRadAn=       5 diagonalized for initial guess.
 HarFok:  IExCor= 1009 AccDes= 0.00D+00 IRadAn=         5 IDoV= 1 UseB2=F ITyADJ=14
 ICtDFT=  3500011 ScaDFX=  1.000000  1.000000  1.000000  1.000000
 FoFCou: FMM=F IPFlag=           0 FMFlag=      100000 FMFlg1=           0
         NFxFlg=           0 DoJE=T BraDBF=F KetDBF=T FulRan=T
         wScrn=  0.000000 ICntrl=       500 IOpCl=  0 I1Cent=   200000004 NGrid=           0
         NMat0=    1 NMatS0=      1 NMatT0=    0 NMatD0=    1 NMtDS0=    0 NMtDT0=    0
 Petite list used in FoFCou.
 Requested convergence on RMS density matrix=1.00D-08 within  32 cycles.
 Requested convergence on MAX density matrix=1.00D-06.
 Requested convergence on             energy=1.00D-06.
 No special actions if energy rises.
 SCF Done:  E(RM08HX) =  -419.815606971     A.U. after   12 cycles
            NFock= 12  Conv=0.37D-08     -V/T= 2.0039
 QCSCF skips out because SCF is already converged.
 R6APFD:  NTU= -4 IXU= 1 FactS= 1.050
 Calling FoFJK, ICntrl=      2127 FMM=F ISym2X=0 I1Cent= 0 IOpClX= 0 NMat=1 NMatS=1 NMatT=0.
 ***** Axes restored to original set *****
 -------------------------------------------------------------------
 Center     Atomic                   Forces (Hartrees/Bohr)
 Number     Number              X              Y              Z
 -------------------------------------------------------------------
      1        8           0.000012799   -0.002009180    0.002860801
      2        8           0.002489615   -0.001698963    0.002127795
      3        8          -0.002481278   -0.001689231    0.002145510
      4        6           0.000002998   -0.001263876   -0.000384680
      5        6          -0.002203397    0.000632694    0.002417006
      6        6           0.002201517    0.000634459    0.002434420
      7        6           0.000898097    0.002356851   -0.005675294
      8        6          -0.000918971    0.002346166   -0.005729618
      9        1           0.000001730    0.000185291   -0.000318803
     10        1           0.000000930    0.000113775   -0.000159933
     11        1           0.000174695    0.000792955    0.000034922
     12        1          -0.000015390   -0.000595355    0.000105691
     13        1           0.000013191   -0.000601963    0.000105594
     14        1          -0.000176535    0.000796376    0.000036589
 -------------------------------------------------------------------
 Cartesian Forces:  Max     0.005729618 RMS     0.001848127

 GradGradGradGradGradGradGradGradGradGradGradGradGradGradGradGradGradGrad
 Berny optimization.
 Using GEDIIS/GDIIS optimizer.
 FormGI is forming the generalized inverse of G from B-inverse, IUseBI=4.
 Internal  Forces:  Max     0.003088431 RMS     0.000932200
 Search for a local minimum.
 Step number   3 out of a maximum of   83
 All quantities printed in internal units (Hartrees-Bohrs-Radians)
 Mixed Optimization -- En-DIIS/RFO-DIIS
 Update second derivatives using D2CorX and points    1    2    3
 DE= -5.85D-04 DEPred=-7.22D-04 R= 8.10D-01
 TightC=F SS=  1.41D+00  RLast= 1.35D-01 DXNew= 8.4853D-01 4.0383D-01
 Trust test= 8.10D-01 RLast= 1.35D-01 DXMaxT set to 5.05D-01
 ITU=  1  1  0
 Use linear search instead of GDIIS.
     Eigenvalues ---    0.00914   0.00953   0.01160   0.01437   0.01933
     Eigenvalues ---    0.03665   0.03803   0.04826   0.05291   0.05695
     Eigenvalues ---    0.06437   0.07748   0.07997   0.09422   0.09563
     Eigenvalues ---    0.11471   0.12200   0.18924   0.20403   0.20618
     Eigenvalues ---    0.24978   0.27007   0.30661   0.31175   0.31295
     Eigenvalues ---    0.32729   0.34028   0.34179   0.34196   0.34205
     Eigenvalues ---    0.34251   0.34317   0.41411   0.52994   0.90886
     Eigenvalues ---    0.91311
 RFO step:  Lambda=-7.70239526D-04 EMin= 9.13952285D-03
 Quartic linear search produced a step of -0.15123.
 Iteration  1 RMS(Cart)=  0.01487053 RMS(Int)=  0.00059281
 Iteration  2 RMS(Cart)=  0.00045116 RMS(Int)=  0.00032789
 Iteration  3 RMS(Cart)=  0.00000016 RMS(Int)=  0.00032789
 Variable       Old X    -DE/DX   Delta X   Delta X   Delta X     New X
                                 (Linear)    (Quad)   (Total)
    R1        2.60193   0.00296  -0.00347   0.01991   0.01653   2.61846
    R2        2.60189   0.00298  -0.00347   0.01997   0.01657   2.61846
    R3        2.24192   0.00309   0.00238  -0.00757  -0.00518   2.23674
    R4        2.24194   0.00308   0.00239  -0.00759  -0.00520   2.23674
    R5        2.88805  -0.00149   0.00052  -0.00646  -0.00601   2.88204
    R6        2.88806  -0.00149   0.00052  -0.00643  -0.00598   2.88209
    R7        2.07776  -0.00034  -0.00013  -0.00029  -0.00042   2.07734
    R8        2.06910   0.00014   0.00028  -0.00085  -0.00057   2.06853
    R9        2.86524   0.00005  -0.00130   0.00582   0.00451   2.86975
   R10        2.06578   0.00043   0.00027  -0.00011   0.00016   2.06594
   R11        2.08051  -0.00020  -0.00048   0.00157   0.00109   2.08160
   R12        2.86520   0.00005  -0.00130   0.00583   0.00453   2.86973
   R13        2.08052  -0.00020  -0.00047   0.00156   0.00109   2.08160
   R14        2.06575   0.00043   0.00027  -0.00011   0.00016   2.06592
    A1        2.19248  -0.00049  -0.00200   0.00787   0.00633   2.19881
    A2        1.88553   0.00057   0.00124  -0.00199  -0.00059   1.88493
    A3        1.92008  -0.00006  -0.00156   0.00656   0.00492   1.92500
    A4        1.93410  -0.00028   0.00091  -0.00520  -0.00432   1.92978
    A5        1.92001  -0.00005  -0.00156   0.00660   0.00496   1.92496
    A6        1.93413  -0.00028   0.00092  -0.00524  -0.00435   1.92977
    A7        1.87036   0.00009  -0.00004  -0.00049  -0.00050   1.86986
    A8        1.95029   0.00107  -0.00146   0.01001   0.00861   1.95891
    A9        1.98532  -0.00081  -0.00212   0.00461   0.00238   1.98770
   A10        1.92382   0.00017   0.00121  -0.00299  -0.00171   1.92211
   A11        1.85684   0.00025   0.00144  -0.00154  -0.00012   1.85671
   A12        1.86895  -0.00088   0.00039  -0.00747  -0.00712   1.86183
   A13        1.87286   0.00015   0.00072  -0.00375  -0.00303   1.86983
   A14        1.94998   0.00108  -0.00145   0.01008   0.00869   1.95867
   A15        1.92378   0.00017   0.00122  -0.00303  -0.00174   1.92204
   A16        1.98537  -0.00081  -0.00212   0.00459   0.00236   1.98772
   A17        1.86913  -0.00089   0.00038  -0.00755  -0.00721   1.86192
   A18        1.85689   0.00025   0.00144  -0.00151  -0.00010   1.85679
   A19        1.87297   0.00015   0.00071  -0.00372  -0.00300   1.86996
   A20        2.06162   0.00018  -0.00146   0.00773   0.00507   2.06669
   A21        2.05329  -0.00083   0.00299  -0.01439  -0.01223   2.04106
   A22        2.16747   0.00071  -0.00141   0.00968   0.00706   2.17453
   A23        2.06163   0.00018  -0.00145   0.00772   0.00504   2.06667
   A24        2.05314  -0.00083   0.00299  -0.01436  -0.01221   2.04093
   A25        2.16760   0.00071  -0.00142   0.00971   0.00706   2.17466
    D1       -3.08959  -0.00087  -0.00416  -0.03043  -0.03437  -3.12397
    D2        0.01077   0.00077   0.00324   0.04735   0.05057   0.06135
    D3        3.09036   0.00088   0.00422   0.03075   0.03475   3.12512
    D4       -0.00967  -0.00078  -0.00324  -0.04760  -0.05083  -0.06050
    D5       -0.97172   0.00011   0.00254  -0.00477  -0.00222  -0.97394
    D6       -3.07465  -0.00043   0.00323  -0.01355  -0.01029  -3.08493
    D7        1.10429  -0.00019   0.00288  -0.00969  -0.00676   1.09753
    D8        1.12444   0.00036   0.00048   0.00589   0.00637   1.13081
    D9       -0.97849  -0.00018   0.00117  -0.00289  -0.00170  -0.98019
   D10       -3.08274   0.00006   0.00082   0.00097   0.00183  -3.08092
   D11       -3.09360   0.00027   0.00001   0.00618   0.00616  -3.08744
   D12        1.08665  -0.00027   0.00070  -0.00259  -0.00191   1.08474
   D13       -1.01760  -0.00004   0.00035   0.00127   0.00162  -1.01598
   D14        0.97272  -0.00012  -0.00255   0.00457   0.00200   0.97472
   D15       -1.10328   0.00019  -0.00289   0.00956   0.00662  -1.09666
   D16        3.07551   0.00043  -0.00324   0.01341   0.01015   3.08566
   D17       -1.12348  -0.00037  -0.00049  -0.00607  -0.00657  -1.13004
   D18        3.08370  -0.00006  -0.00083  -0.00108  -0.00195   3.08176
   D19        0.97932   0.00018  -0.00117   0.00277   0.00158   0.98089
   D20        3.09459  -0.00027  -0.00002  -0.00637  -0.00636   3.08823
   D21        1.01858   0.00004  -0.00036  -0.00137  -0.00174   1.01685
   D22       -1.08580   0.00027  -0.00070   0.00248   0.00179  -1.08402
   D23        0.50113  -0.00062  -0.00293  -0.01894  -0.02174   0.47940
   D24       -2.68442   0.00111   0.00496   0.06389   0.06893  -2.61548
   D25        2.67754  -0.00078  -0.00550  -0.00790  -0.01332   2.66423
   D26       -0.50800   0.00095   0.00238   0.07493   0.07735  -0.43065
   D27       -1.60713  -0.00090  -0.00380  -0.01638  -0.02011  -1.62724
   D28        1.49050   0.00083   0.00408   0.06645   0.07056   1.56106
   D29       -0.50321   0.00063   0.00294   0.01941   0.02221  -0.48099
   D30        2.68270  -0.00112  -0.00502  -0.06404  -0.06914   2.61356
   D31        1.60494   0.00091   0.00382   0.01680   0.02055   1.62549
   D32       -1.49234  -0.00084  -0.00414  -0.06665  -0.07081  -1.56315
   D33       -2.67951   0.00079   0.00551   0.00833   0.01376  -2.66575
   D34        0.50640  -0.00096  -0.00245  -0.07512  -0.07760   0.42880
         Item               Value     Threshold  Converged?
 Maximum Force            0.003088     0.000450     NO 
 RMS     Force            0.000932     0.000300     NO 
 Maximum Displacement     0.060102     0.001800     NO 
 RMS     Displacement     0.014760     0.001200     NO 
 Predicted change in Energy=-4.190715D-04
 GradGradGradGradGradGradGradGradGradGradGradGradGradGradGradGradGradGrad

                          Input orientation:                          
 ---------------------------------------------------------------------
 Center     Atomic      Atomic             Coordinates (Angstroms)
 Number     Number       Type             X           Y           Z
 ---------------------------------------------------------------------
      1          8           0        0.000095   -1.026794    0.066333
      2          8           0        2.209073   -1.071443    0.055995
      3          8           0       -2.208871   -1.071785    0.056398
      4          6           0       -0.000480    1.755069    0.388270
      5          6           0        1.233850    1.100845   -0.223600
      6          6           0       -1.233830    1.100409   -0.225165
      7          6           0        1.234550   -0.406927   -0.042516
      8          6           0       -1.234470   -0.407213   -0.042953
      9          1           0       -0.001167    1.622039    1.479472
     10          1           0       -0.000546    2.832442    0.194726
     11          1           0        2.178285    1.461783    0.192275
     12          1           0        1.264080    1.288902   -1.308544
     13          1           0       -1.262226    1.287751   -1.310282
     14          1           0       -2.178943    1.461522    0.188991
 ---------------------------------------------------------------------
                    Distance matrix (angstroms):
                    1          2          3          4          5
     1  O    0.000000
     2  O    2.209453   0.000000
     3  O    2.209447   4.417944   0.000000
     4  C    2.800429   3.603013   3.602531   0.000000
     5  C    2.476501   2.397513   4.080569   1.525111   0.000000
     6  C    2.476396   4.080390   2.397584   1.525134   2.467681
     7  C    1.385627   1.183630   3.508414   2.526876   1.518607
     8  C    1.385631   3.508416   1.183632   2.526687   2.898185
     9  H    3.002212   3.763813   3.762417   1.099282   2.167340
    10  H    3.861371   4.487982   4.487630   1.094620   2.167293
    11  H    3.309590   2.537076   5.067995   2.207136   1.093246
    12  H    2.974960   2.885517   4.415574   2.166933   1.101536
    13  H    2.974162   4.413890   2.886410   2.166903   2.728774
    14  H    3.309828   5.068361   2.536951   2.207166   3.456511
                    6          7          8          9         10
     6  C    0.000000
     7  C    2.897987   0.000000
     8  C    1.518594   2.469020   0.000000
     9  H    2.167336   2.821373   2.820758   0.000000
    10  H    2.167311   3.474947   3.474827   1.765120   0.000000
    11  H    3.456498   2.106618   3.898125   2.536251   2.574105
    12  H    2.729248   2.116491   3.274336   3.079750   2.498322
    13  H    1.101537   3.273080   2.116553   3.079732   2.498591
    14  H    1.093236   3.898286   2.106655   2.536496   2.573882
                   11         12         13         14
    11  H    0.000000
    12  H    1.765819   0.000000
    13  H    3.758335   2.526306   0.000000
    14  H    4.357229   3.758565   1.765896   0.000000
 Stoichiometry    C5H6O3
 Framework group  C1[X(C5H6O3)]
 Deg. of freedom    36
 Full point group                 C1      NOp   1
 Largest Abelian subgroup         C1      NOp   1
 Largest concise Abelian subgroup C1      NOp   1
                         Standard orientation:                         
 ---------------------------------------------------------------------
 Center     Atomic      Atomic             Coordinates (Angstroms)
 Number     Number       Type             X           Y           Z
 ---------------------------------------------------------------------
      1          8           0       -0.000022   -1.084286   -0.065900
      2          8           0       -2.208996   -1.129105   -0.055324
      3          8           0        2.208949   -1.129096   -0.056156
      4          6           0        0.000300    1.697402   -0.389346
      5          6           0       -1.233918    1.043411    0.222998
      6          6           0        1.233762    1.043174    0.224324
      7          6           0       -1.234516   -0.464458    0.042732
      8          6           0        1.234504   -0.464547    0.042929
      9          1           0        0.000891    1.563780   -1.480476
     10          1           0        0.000299    2.774880   -0.196387
     11          1           0       -2.178423    1.404049   -0.192981
     12          1           0       -1.264058    1.232055    1.307843
     13          1           0        1.262248    1.231106    1.309337
     14          1           0        2.178805    1.404136   -0.190120
 ---------------------------------------------------------------------
 Rotational constants (GHZ):           3.3484824           2.0134980           1.3163758
 Standard basis: 6-311++G(d,p) (5D, 7F)
 There are   226 symmetry adapted cartesian basis functions of A   symmetry.
 There are   218 symmetry adapted basis functions of A   symmetry.
   218 basis functions,   342 primitive gaussians,   226 cartesian basis functions
    30 alpha electrons       30 beta electrons
       nuclear repulsion energy       375.3106087859 Hartrees.
 NAtoms=   14 NActive=   14 NUniq=   14 SFac= 1.00D+00 NAtFMM=   60 NAOKFM=F Big=F
 Integral buffers will be    131072 words long.
 Raffenetti 2 integral format.
 Two-electron integral symmetry is turned on.
 R6APFD:  NTU= -4 IXU= 1 FactS= 1.050
 Nuclear repulsion after empirical dispersion term =      375.3014750557 Hartrees.
 One-electron integrals computed using PRISM.
 NBasis=   218 RedAO= T EigKep=  2.07D-05  NBF=   218
 NBsUse=   218 1.00D-06 EigRej= -1.00D+00 NBFU=   218
 Initial guess from the checkpoint file:  "GTAC0119.chk"
 B after Tr=     0.000000   -0.000000    0.000000
         Rot=    0.999999    0.001135   -0.000003    0.000011 Ang=   0.13 deg.
 ExpMin= 3.60D-02 ExpMax= 8.59D+03 ExpMxC= 1.30D+03 IAcc=3 IRadAn=         5 AccDes= 0.00D+00
 Harris functional with IExCor= 1009 and IRadAn=       5 diagonalized for initial guess.
 HarFok:  IExCor= 1009 AccDes= 0.00D+00 IRadAn=         5 IDoV= 1 UseB2=F ITyADJ=14
 ICtDFT=  3500011 ScaDFX=  1.000000  1.000000  1.000000  1.000000
 FoFCou: FMM=F IPFlag=           0 FMFlag=      100000 FMFlg1=           0
         NFxFlg=           0 DoJE=T BraDBF=F KetDBF=T FulRan=T
         wScrn=  0.000000 ICntrl=       500 IOpCl=  0 I1Cent=   200000004 NGrid=           0
         NMat0=    1 NMatS0=      1 NMatT0=    0 NMatD0=    1 NMtDS0=    0 NMtDT0=    0
 Petite list used in FoFCou.
 Requested convergence on RMS density matrix=1.00D-08 within  32 cycles.
 Requested convergence on MAX density matrix=1.00D-06.
 Requested convergence on             energy=1.00D-06.
 No special actions if energy rises.
 SCF Done:  E(RM08HX) =  -419.815456209     A.U. after   12 cycles
            NFock= 12  Conv=0.46D-08     -V/T= 2.0039
 QCSCF skips out because SCF is already converged.
 R6APFD:  NTU= -4 IXU= 1 FactS= 1.050
 Calling FoFJK, ICntrl=      2127 FMM=F ISym2X=0 I1Cent= 0 IOpClX= 0 NMat=1 NMatS=1 NMatT=0.
 ***** Axes restored to original set *****
 -------------------------------------------------------------------
 Center     Atomic                   Forces (Hartrees/Bohr)
 Number     Number              X              Y              Z
 -------------------------------------------------------------------
      1        8           0.000004455   -0.002132001   -0.003217450
      2        8           0.004135749   -0.004552468   -0.001995312
      3        8          -0.004136630   -0.004555798   -0.002011905
      4        6          -0.000001842   -0.001972664    0.000299953
      5        6           0.000990204   -0.001305301   -0.002968980
      6        6          -0.000981319   -0.001312669   -0.002985144
      7        6          -0.007959257    0.006776528    0.006178658
      8        6           0.007956232    0.006792654    0.006227874
      9        1          -0.000000261   -0.000264316   -0.000354258
     10        1          -0.000000017    0.000389795   -0.000080756
     11        1           0.000091798    0.000495283    0.000255606
     12        1          -0.000076132    0.000570671    0.000199327
     13        1           0.000071029    0.000575886    0.000197329
     14        1          -0.000094009    0.000494401    0.000255058
 -------------------------------------------------------------------
 Cartesian Forces:  Max     0.007959257 RMS     0.003173978

 GradGradGradGradGradGradGradGradGradGradGradGradGradGradGradGradGradGrad
 Berny optimization.
 Using GEDIIS/GDIIS optimizer.
 FormGI is forming the generalized inverse of G from B-inverse, IUseBI=4.
 Internal  Forces:  Max     0.005794945 RMS     0.001308185
 Search for a local minimum.
 Step number   4 out of a maximum of   83
 All quantities printed in internal units (Hartrees-Bohrs-Radians)
 Mixed Optimization -- RFO/linear search
 Update second derivatives using D2CorX and points    1    2    4    3
 DE=  1.51D-04 DEPred=-4.19D-04 R=-3.60D-01
 Trust test=-3.60D-01 RLast= 2.08D-01 DXMaxT set to 2.52D-01
 ITU= -1  1  1  0
 Use linear search instead of GDIIS.
     Eigenvalues ---    0.00910   0.00961   0.01176   0.01716   0.03307
     Eigenvalues ---    0.03638   0.03992   0.04915   0.05283   0.05678
     Eigenvalues ---    0.06453   0.07749   0.07993   0.09643   0.09709
     Eigenvalues ---    0.11516   0.12233   0.19317   0.20470   0.21582
     Eigenvalues ---    0.24975   0.26977   0.30643   0.30938   0.31303
     Eigenvalues ---    0.32332   0.34017   0.34180   0.34196   0.34205
     Eigenvalues ---    0.34229   0.34264   0.42487   0.52982   0.88183
     Eigenvalues ---    0.90886
 RFO step:  Lambda=-7.70107847D-05 EMin= 9.10243528D-03
 Quartic linear search produced a step of -0.57929.
 Iteration  1 RMS(Cart)=  0.00811368 RMS(Int)=  0.00018301
 Iteration  2 RMS(Cart)=  0.00014532 RMS(Int)=  0.00009276
 Iteration  3 RMS(Cart)=  0.00000002 RMS(Int)=  0.00009276
 Variable       Old X    -DE/DX   Delta X   Delta X   Delta X     New X
                                 (Linear)    (Quad)   (Total)
    R1        2.61846  -0.00221  -0.00957   0.00162  -0.00798   2.61048
    R2        2.61846  -0.00221  -0.00960   0.00163  -0.00799   2.61047
    R3        2.23674   0.00579   0.00300   0.00458   0.00758   2.24432
    R4        2.23674   0.00579   0.00301   0.00457   0.00758   2.24432
    R5        2.88204  -0.00038   0.00348  -0.00350   0.00000   2.88205
    R6        2.88209  -0.00038   0.00346  -0.00349  -0.00000   2.88208
    R7        2.07734  -0.00032   0.00024  -0.00094  -0.00070   2.07664
    R8        2.06853   0.00040   0.00033   0.00072   0.00105   2.06958
    R9        2.86975  -0.00085  -0.00261  -0.00098  -0.00359   2.86616
   R10        2.06594   0.00034  -0.00009   0.00110   0.00101   2.06695
[...]
 ! D5    D(6,4,5,7)            -56.1265         -DE/DX =    0.0                 !
 ! D6    D(6,4,5,11)          -177.051          -DE/DX =    0.0                 !
 ! D7    D(6,4,5,12)            62.5636         -DE/DX =    0.0                 !
 ! D8    D(9,4,5,7)             64.2631         -DE/DX =    0.0                 !
 ! D9    D(9,4,5,11)           -56.6614         -DE/DX =    0.0                 !
 ! D10   D(9,4,5,12)          -177.0469         -DE/DX =    0.0                 !
 ! D11   D(10,4,5,7)          -177.4423         -DE/DX =    0.0                 !
 ! D12   D(10,4,5,11)           61.6332         -DE/DX =    0.0                 !
 ! D13   D(10,4,5,12)          -58.7522         -DE/DX =    0.0                 !
 ! D14   D(5,4,6,8)             56.125          -DE/DX =    0.0                 !
 ! D15   D(5,4,6,13)           -62.5651         -DE/DX =    0.0                 !
 ! D16   D(5,4,6,14)           177.0497         -DE/DX =    0.0                 !
 ! D17   D(9,4,6,8)            -64.2645         -DE/DX =    0.0                 !
 ! D18   D(9,4,6,13)           177.0454         -DE/DX =    0.0                 !
 ! D19   D(9,4,6,14)            56.6601         -DE/DX =    0.0                 !
 ! D20   D(10,4,6,8)           177.4408         -DE/DX =    0.0                 !
 ! D21   D(10,4,6,13)           58.7507         -DE/DX =    0.0                 !
 ! D22   D(10,4,6,14)          -61.6345         -DE/DX =    0.0                 !
 ! D23   D(4,5,7,1)             28.54           -DE/DX =    0.0                 !
 ! D24   D(4,5,7,2)           -151.7854         -DE/DX =    0.0                 !
 ! D25   D(11,5,7,1)           153.417          -DE/DX =    0.0                 !
 ! D26   D(11,5,7,2)           -26.9084         -DE/DX =    0.0                 !
 ! D27   D(12,5,7,1)           -92.0999         -DE/DX =    0.0                 !
 ! D28   D(12,5,7,2)            87.5747         -DE/DX =    0.0                 !
 ! D29   D(4,6,8,1)            -28.537          -DE/DX =    0.0                 !
 ! D30   D(4,6,8,3)            151.7884         -DE/DX =    0.0                 !
 ! D31   D(13,6,8,1)            92.1031         -DE/DX =    0.0                 !
 ! D32   D(13,6,8,3)           -87.5715         -DE/DX =    0.0                 !
 ! D33   D(14,6,8,1)          -153.4141         -DE/DX =    0.0                 !
 ! D34   D(14,6,8,3)            26.9113         -DE/DX =    0.0                 !
 --------------------------------------------------------------------------------
 GradGradGradGradGradGradGradGradGradGradGradGradGradGradGradGradGradGrad


 ----------------------------------------------------------------------

 Electric dipole moment (input orientation):
 (Debye = 10**-18 statcoulomb cm , SI units = C m)
                  (au)            (Debye)         (10**-30 SI)
   Tot        0.229162D+01      0.582471D+01      0.194291D+02
   x         -0.131803D-03     -0.335011D-03     -0.111748D-02
   y          0.227885D+01      0.579225D+01      0.193209D+02
   z         -0.241583D+00     -0.614044D+00     -0.204823D+01

 Dipole polarizability, Alpha (input orientation).
 (esu units = cm**3 , SI units = C**2 m**2 J**-1)
 Alpha(0;0):
               (au)            (10**-24 esu)      (10**-40 SI)
   iso        0.633094D+02      0.938148D+01      0.104383D+02
   aniso      0.273809D+02      0.405742D+01      0.451449D+01
   xx         0.786314D+02      0.116520D+02      0.129646D+02
   yx         0.257273D-02      0.381239D-03      0.424185D-03
   yy         0.641604D+02      0.950759D+01      0.105786D+02
   zx         0.802034D-03      0.118849D-03      0.132238D-03
   zy        -0.117239D+01     -0.173730D+00     -0.193300D+00
   zz         0.471363D+02      0.698487D+01      0.777172D+01

 ----------------------------------------------------------------------

 Dipole orientation:
     8          0.00009482          0.07370825         -1.94315189
     8          4.16610717          0.13814551         -2.03183476
     8         -4.16591119          0.13839535         -2.03206635
     6         -0.00074346         -1.07697014          3.22192716
     6          2.33275723          0.19948560          2.11318083
     6         -2.33245297          0.20266988          2.11297402
     6          2.32329512          0.13267257         -0.75090075
     6         -2.32315668          0.13432677         -0.75104524
     1         -0.00212765         -3.09934992          2.75045817
     1         -0.00071973         -0.93182457          5.28666962
     1          4.11390344         -0.65425511          2.72207574
     1          2.38823794          2.20350205          2.67005689
     1         -2.38454876          2.20704951          2.66887787
     1         -4.11484087         -0.64799141          2.72251031

 Electric dipole moment (dipole orientation):
 (Debye = 10**-18 statcoulomb cm , SI units = C m)
                  (au)            (Debye)         (10**-30 SI)
   Tot        0.229162D+01      0.582471D+01      0.194291D+02
   x          0.000000D+00      0.000000D+00      0.000000D+00
   y          0.000000D+00      0.000000D+00      0.000000D+00
   z          0.229162D+01      0.582471D+01      0.194291D+02

 Dipole polarizability, Alpha (dipole orientation).
 (esu units = cm**3 , SI units = C**2 m**2 J**-1)
 Alpha(0;0):
               (au)            (10**-24 esu)      (10**-40 SI)
   iso        0.633094D+02      0.938148D+01      0.104383D+02
   aniso      0.273809D+02      0.405742D+01      0.451449D+01
   xx         0.786314D+02      0.116520D+02      0.129646D+02
   yx        -0.273800D-02     -0.405730D-03     -0.451435D-03
   yy         0.470796D+02      0.697648D+01      0.776239D+01
   zx         0.161176D-02      0.238838D-03      0.265743D-03
   zy        -0.638366D+00     -0.945961D-01     -0.105252D+00
   zz         0.642170D+02      0.951598D+01      0.105880D+02

 ----------------------------------------------------------------------
 1\1\GINC-PITOMBA\Freq\RM08HX\6-311++G(d,p)\C5H6O3\VALTER\20-Sep-2025\0
 \\#N Geom=AllCheck Guess=TCheck SCRF=Check GenChk RM08HX/6-311++G(d,p)
  Freq\\GTAC0119\\0,1\O,0.0001072978,-1.0266537835,0.0696135777\O,2.204
 6670258,-1.0768018809,0.0405253334\O,-2.2044472014,-1.0771658141,0.040
 6603748\C,-0.0004619952,1.7555498646,0.3869934856\C,1.2343721841,1.100
 9512982,-0.2229322281\C,-1.2343508121,1.1005370979,-0.2244543574\C,1.2
 294540505,-0.4024830504,-0.0279969342\C,-1.2293423876,-0.4027785861,-0
 .0287179434\H,-0.0011247548,1.6202701968,1.4775288301\H,-0.0005162581,
 2.8339790646,0.1954297204\H,2.1769190076,1.4690448229,0.192308346\H,1.
 2636594914,1.2822005029,-1.3085704422\H,-1.261990517,1.2812514884,-1.3
 102261759\H,-2.1775451309,1.4686987785,0.1892384131\\Version=ES64L-G16
 RevB.01\State=1-A\HF=-419.8158198\RMSD=1.984e-09\RMSF=2.926e-05\ZeroPo
 int=0.1080975\Thermal=0.1150338\Dipole=-0.0001318,2.2788471,-0.2415835
 \DipoleDeriv=-2.2496434,-0.0001139,-0.0001873,-0.0002213,-0.6730663,0.
 0492738,-0.0005695,0.060452,-0.2299058,-1.2402186,0.2983253,-0.0241774
 ,0.4745091,-0.7995829,0.0293599,-0.0641253,0.0510532,-0.3568749,-1.240
 1052,-0.2983502,0.0241454,-0.4744638,-0.7995747,0.0295145,0.064665,0.0
 515632,-0.3568608,0.0718289,0.0001398,-0.0000175,0.0000096,0.0655299,0
 .0133515,0.0000033,-0.0016989,0.1102984,-0.0275767,-0.0187541,-0.00861
 47,-0.019274,-0.2104774,0.04594,-0.0195191,0.0829139,0.0879265,-0.0277
 937,0.0183993,0.0085159,0.0191753,-0.210438,0.0461223,0.0193529,0.0828
 667,0.0878962,2.2912925,-0.1784743,0.0141101,0.064567,1.2523399,-0.113
 963,0.0196198,-0.1309168,0.3221236,2.2914059,0.1786993,-0.0138912,-0.0
 643431,1.2521741,-0.1145527,-0.0195486,-0.1316619,0.3221833,0.0147879,
 -0.0000091,0.0000669,-0.0000349,0.0690654,0.0356446,0.0000758,-0.00776
 21,-0.1015869,0.0396262,-0.0000289,-0.000004,0.00002,-0.1212244,0.0044
 609,-0.0000327,0.0298734,0.0737833,-0.0401734,-0.0198578,-0.0245459,-0
 .0115714,0.048262,-0.0102769,-0.0397893,-0.0404478,0.0761795,0.0783914
 ,0.0306336,-0.0223216,0.0220262,0.0393674,-0.0022929,0.0179641,-0.0029
 046,-0.055698,0.078428,-0.0305444,0.0225468,-0.0220018,0.0393981,-0.00
 23499,-0.0177312,-0.0029567,-0.0557519,-0.0402498,0.0199354,0.0243745,
 0.011603,0.048227,-0.0102323,0.0396349,-0.0403735,0.0762877\Polar=78.6
 31401,0.0025727,64.1603943,0.000802,-1.1723853,47.1362587\Quadrupole=-
 4.9743477,0.279052,4.6952957,0.0002486,0.0024741,0.2352782\PG=C01 [X(C
 5H6O3)]\NImag=0\\0.51789623,0.00002803,0.31297196,0.00008146,-0.038434
 66,0.03631011,-0.13553388,0.02363591,-0.00125622,0.67342605,0.00686847
 ,0.03501617,-0.00260434,-0.37887851,0.34663510,0.00180738,-0.00250371,
 0.01675512,0.03698704,-0.03201489,0.03301345,-0.13552822,-0.02366876,0
 .00124084,-0.01691489,0.00126633,0.00016673,0.67329952,-0.00689934,0.0
 3500683,-0.00262038,-0.00126946,0.00086932,-0.00032807,0.37889371,0.34
 671659,-0.00179423,-0.00252200,0.01675799,-0.00016696,-0.00032976,-0.0
 0095885,-0.03743125,-0.03238144,0.03308418,-0.00561031,-0.00000322,-0.
 00000198,0.00089169,-0.00338900,0.00230538,0.00089281,0.00338156,-0.00
 230981,0.45261133,0.00000041,0.00423570,0.00276638,0.00139884,-0.00828
 388,0.00398273,-0.00139289,-0.00826785,0.00400089,-0.00000950,0.595291
 98,-0.00000544,0.00169955,-0.00122010,-0.00095782,0.00461245,-0.000563
 26,0.00095838,0.00462034,-0.00058093,-0.00008232,-0.02507170,0.5724382
 3,-0.01059786,-0.03446187,0.00756963,0.00171584,0.03067936,-0.00679172
 ,-0.00127496,0.00110501,-0.00038246,-0.16008231,0.03829555,0.04001115,
 0.58008363,-0.00739765,-0.01181904,0.00237741,0.00350228,-0.00145504,0
 .00310461,-0.00092105,0.00006776,-0.00038252,0.04135667,-0.10524446,-0
 .02372043,0.04365538,0.44635046,0.00347333,0.00190470,0.01771188,-0.00
 229635,0.00217565,0.02541343,0.00016023,-0.00083871,-0.00059973,0.0441
 5163,-0.02477276,-0.10062572,0.03582555,0.00750895,0.53423809,-0.01059
 728,0.03446858,-0.00760384,-0.00127365,-0.00110484,0.00038245,0.001705
 27,-0.03068982,0.00682453,-0.15993160,-0.03828419,-0.04006727,-0.03940
 163,-0.01169577,-0.01108778,0.58019907,0.00740076,-0.01181106,0.002386
 34,0.00092210,0.00006878,-0.00038196,-0.00351580,-0.00149199,0.0031193
 0,-0.04133337,-0.10526792,-0.02378705,0.01167443,0.00878822,0.00687499
 ,-0.04369955,0.44638511,-0.00347536,0.00194390,0.01769613,-0.00015760,
 -0.00083898,-0.00060086,0.00231430,0.00221953,0.02542878,-0.04421005,-
 0.02484528,-0.10071780,0.01102283,0.00686416,0.00618270,-0.03582420,0.
 00746910,0.53410706,-0.11294795,-0.05710390,0.00962313,-0.54934984,0.3
 4072247,-0.03423273,0.02713171,0.00302245,0.00038524,0.00235242,0.0335
 1348,-0.00469960,-0.08327307,-0.00971257,-0.00109321,0.00561751,-0.000
 48437,0.00002706,0.79784001,-0.06755233,-0.17376456,0.01912078,0.36529
 102,-0.37174483,0.02946672,0.01824859,-0.00002394,0.00140763,0.0136974
 5,-0.01508450,-0.00239023,-0.00823930,-0.19108441,0.00865715,0.0026726
 8,-0.00190648,0.00176221,-0.29808168,0.73818223,0.00831706,0.01670574,
 -0.05270037,-0.03815700,0.03074253,-0.07966615,-0.00330606,0.00106670,
 0.00545044,-0.00361331,-0.01885399,0.00288841,0.00136092,0.01432454,-0
 .09353918,-0.00089411,0.00144069,0.00094149,0.02633176,-0.05865181,0.2
 3536429,-0.11295026,0.05710887,-0.00965577,0.02713634,-0.00301841,-0.0
 0039306,-0.54922355,-0.34069762,0.03463682,0.00234984,-0.03349007,0.00
 471303,0.00561920,0.00048157,-0.00002767,-0.08328365,0.00972157,0.0010
 7053,-0.07729132,-0.01985942,0.00412931,0.79770976,0.06754966,-0.17372
 561,0.01918994,-0.01824197,-0.00002948,0.00140488,-0.36526582,-0.37178
 431,0.02982364,-0.01369879,-0.01511458,-0.00240293,-0.00267468,-0.0019
 0417,0.00177068,0.00827248,-0.19107772,0.00869337,0.01984008,0.0303771
 3,-0.00732823,0.29806742,0.73817082,-0.00840230,0.01676899,-0.05272202
 ,0.00332715,0.00106497,0.00545119,0.03857742,0.03107403,-0.07973945,0.
 00362044,-0.01890588,0.00291558,0.00089897,0.00144040,0.00093766,-0.00
 137697,0.01441117,-0.09355755,-0.00415057,-0.00733259,-0.01225401,-0.0
 2665183,-0.05912430,0.23549428,0.00087370,0.00000050,0.00000007,-0.000
 26314,0.00023796,-0.00021675,-0.00026406,-0.00023739,0.00021665,-0.047
 13232,-0.00001808,0.00015419,-0.00119028,-0.00338315,0.02916989,-0.001
 15288,0.00337649,-0.02915125,0.00060674,-0.00168849,0.00020094,0.00061
 056,0.00168942,-0.00020068,0.05578821,-0.00000043,-0.00006639,0.000655
 30,-0.00010499,0.00017356,0.00031001,0.00010431,0.00017373,0.00030978,
 -0.00001906,-0.05599970,0.03599777,0.00042028,0.00112946,-0.01484440,-
 0.00040325,0.00112703,-0.01485517,-0.00001030,0.00078378,-0.00143069,0
 .00001213,0.00078521,-0.00143228,0.00002153,0.05576063,0.00000010,-0.0
 0089484,0.00045090,0.00010247,-0.00047054,0.00016912,-0.00010401,-0.00
 047172,0.00016961,0.00015533,0.03419848,-0.30113271,0.00101282,0.00088
 652,-0.01111499,-0.00100089,0.00088725,-0.01115180,0.00050301,0.001069
 42,-0.00073705,-0.00050029,0.00107258,-0.00073810,-0.00016546,-0.03431
 108,0.32706905,0.00292084,0.00000062,0.00000187,-0.00030212,0.00299165
 ,-0.00120309,-0.00030080,-0.00298637,0.00120820,-0.04538498,0.00000995
 ,0.,0.00049733,0.02964120,-0.00476171,0.00049668,-0.02962010,0.0047575
 5,-0.00676417,-0.00216742,0.00403962,-0.00675655,0.00216250,-0.0040506
 9,-0.00042680,-0.00001875,0.00000306,0.05273456,0.00000037,0.00072484,
 0.00019070,0.00047131,-0.00128013,0.00039946,-0.00047075,-0.00127976,0
 .00040170,0.00001319,-0.30579579,0.04921151,0.00012732,-0.01164022,0.0
 0186725,-0.00012704,-0.01165017,0.00186788,0.00200813,0.00180980,-0.00
 142114,-0.00200955,0.00180871,-0.00142757,0.00000030,-0.00310128,0.000
 41969,-0.00001445,0.32958351,0.00000185,0.00019465,0.00029054,0.000353
 78,-0.00133533,0.00048098,-0.00035433,-0.00133813,0.00048608,-0.000001
 21,0.05194944,-0.05774672,-0.00020553,-0.01491910,0.00177872,0.0002088
 8,-0.01495533,0.00178481,0.00329986,-0.00014174,-0.00134288,-0.0033060
 8,-0.00013986,-0.00135608,-0.00000266,0.03130266,-0.00496755,0.0000032
 0,-0.05120452,0.05912578,0.00164845,-0.00011210,-0.00072726,0.00053734
 ,0.00203109,0.00031696,0.00013202,-0.00038018,0.00006305,-0.01765906,-
 0.00879997,-0.01008071,-0.24765304,-0.08087357,-0.09155360,-0.00332806
 ,0.00309067,0.00325669,-0.00215915,-0.00102793,0.00074857,-0.00028241,
 0.00132958,0.00003272,0.00050774,-0.00042734,0.00035153,0.00034820,0.0
 0029515,-0.00031760,0.26720057,-0.00219078,-0.00616345,0.00246747,0.00
 158732,0.00239376,0.00211574,-0.00081957,0.00042030,-0.00009645,0.0129
 8974,0.00672250,0.00829371,-0.07631268,-0.07805432,-0.03751014,0.00317
 298,-0.00155754,-0.00214102,-0.03204697,-0.01207385,-0.01581534,0.0031
 2053,-0.00141133,0.00008055,-0.00076175,0.00041542,-0.00000031,-0.0002
 9232,0.00012652,0.00058307,0.08491897,0.08674139,0.00051218,0.00206400
 ,0.00033791,0.00104728,-0.00110767,-0.00015639,-0.00002514,0.00013205,
 -0.00008064,0.01238080,0.00682803,0.00613159,-0.09244153,-0.04005585,-
 0.08711557,0.00221238,-0.00137521,-0.00108958,0.00510125,0.00529573,0.
 00056636,0.00007804,-0.00045450,-0.00020160,-0.00021953,0.00060673,0.0
 0029016,-0.00075914,0.00011108,0.00029681,0.09743385,0.03941321,0.0912
 5870,-0.00061023,-0.00057406,-0.00090937,-0.00021688,0.00142277,0.0008
 8883,0.00001582,0.00020911,-0.00004522,-0.00284097,-0.00465591,0.02782
 005,-0.04279243,-0.00171747,0.00266545,0.00166833,-0.00015201,0.001365
 50,-0.00173123,-0.00061924,0.00113890,0.00024782,-0.00065344,0.0002640
 6,-0.00423498,0.00222345,0.00180185,0.00129564,-0.00025464,-0.00066244
 ,0.00137243,0.00591468,-0.02619630,0.04821642,-0.00219486,-0.00222202,
 -0.00398452,0.00041271,-0.00284853,-0.00551458,-0.00045427,0.00006483,
 0.00005562,0.00084629,0.00304244,-0.01766402,-0.00223554,-0.05369198,0
 .04879452,-0.00113765,0.00011651,0.00055768,0.00228144,-0.00340799,0.0
 3872382,0.00082866,-0.00065117,0.00041886,0.00333342,-0.00079708,-0.00
 119098,-0.00075638,0.00028336,-0.00029067,0.00071181,0.00188617,-0.011
 68767,-0.00140626,0.05801557,-0.00044629,0.00050242,-0.00000682,0.0010
 7379,-0.00003103,0.00075517,-0.00007575,0.00000440,-0.00001261,0.00138
 270,0.00094171,-0.01393617,0.00319166,0.04379912,-0.29325743,-0.001139
 21,0.00015153,0.00108627,-0.00080197,0.00228256,-0.00442219,0.00021574
 ,-0.00009249,-0.00034483,0.00215088,-0.00145600,0.00070452,-0.00017480
 ,-0.00026388,0.00043476,0.00106438,0.00239640,-0.01122534,-0.00714064,
 -0.04841067,0.31964961,-0.00061255,0.00057214,0.00090883,0.00001543,-0
 .00020917,0.00004507,-0.00021220,-0.00142233,-0.00088895,-0.00280149,0
 .00464368,-0.02780570,0.00166836,0.00015319,-0.00136518,-0.04277690,0.
 00166283,-0.00228114,0.00024946,0.00065475,-0.00026353,-0.00172978,0.0
 0060812,-0.00113981,-0.00422978,-0.00222413,-0.00180824,0.00129460,0.0
 0025556,0.00066433,0.00028939,-0.00021244,0.00022782,-0.00067908,-0.00
 005235,0.00076044,0.04818580,0.00219455,-0.00221947,-0.00398252,0.0004
 5344,0.00006439,0.00005551,-0.00041577,-0.00286724,-0.00551283,-0.0008
 2184,0.00303960,-0.01767623,0.00113897,0.00011755,0.00055985,0.0021752
 4,-0.05365432,0.04868165,-0.00082607,-0.00064805,0.00041830,-0.0023338
 2,-0.00337470,0.03872552,-0.00333266,-0.00079972,-0.00119493,0.0007581
 1,0.00028314,-0.00028884,0.00017748,-0.00009387,-0.00007300,0.00005029
 ,0.00030356,0.00026632,0.00147805,0.05796789,0.00044137,0.00050352,-0.
 00000245,0.00007516,0.00000436,-0.00001242,-0.00107619,-0.00002864,0.0
 0075324,-0.00136805,0.00094437,-0.01397365,0.00114099,0.00015191,0.001
 08656,-0.00281246,0.04368438,-0.29329100,-0.00021539,-0.00009028,-0.00
 034657,0.00081315,0.00228627,-0.00444451,-0.00215628,-0.00146015,0.000
 69970,0.00017650,-0.00026326,0.00043592,0.00006115,-0.00009069,0.00032
 764,-0.00076242,0.00026601,0.00024801,0.00672938,-0.04828922,0.3197000
 4,0.00164933,0.00010929,0.00072862,0.00013170,0.00037984,-0.00006248,0
 .00054153,-0.00202933,-0.00031562,-0.01765506,0.00878871,0.01004208,-0
 .00331879,-0.00308907,-0.00326058,-0.24794122,0.08095635,0.09128516,-0
 .00028113,-0.00132867,-0.00003307,-0.00215601,0.00101546,-0.00074792,0
 .00050728,0.00042656,-0.00035129,0.00034755,-0.00029490,0.00031796,-0.
 00095443,0.00093228,0.00064805,0.00028934,-0.00017701,-0.00006094,0.00
 133873,-0.00069596,-0.00104689,0.26750116,0.00219315,-0.00616389,0.002
 47210,0.00081999,0.00042081,-0.00009643,-0.00158826,0.00239573,0.00210
 644,-0.01301010,0.00672647,0.00827726,-0.00317223,-0.00155980,-0.00214
 772,0.07638014,-0.07806844,-0.03737904,-0.00312219,-0.00141434,0.00007
 889,0.03206815,-0.01206881,-0.01576185,0.00076192,0.00041534,0.0000004
 7,0.00029179,0.00012747,0.00058372,-0.00093365,0.00064830,0.00030307,0
 .00021274,-0.00009367,-0.00009039,-0.00590790,0.00188124,0.00238142,-0
 .08499355,0.08675359,-0.00051112,0.00206776,0.00034119,0.00002530,0.00
 013257,-0.00008051,-0.00104516,-0.00110995,-0.00015811,-0.01240954,0.0
 0683758,0.00612326,-0.00221327,-0.00137971,-0.00109642,0.09217847,-0.0
 3992519,-0.08681864,-0.00007783,-0.00045554,-0.00020258,-0.00512191,0.
 00530095,0.00055946,0.00021998,0.00060753,0.00028913,0.00075944,0.0001
 1110,0.00029882,-0.00064974,0.00030381,0.00065996,-0.00022823,-0.00007
 341,0.00032704,0.02621668,-0.01168957,-0.01118051,-0.09714308,0.039272
 07,0.09093793\\-0.00000094,-0.00003915,0.00005963,0.00001772,-0.000023
 01,-0.00003531,-0.00001783,-0.00001676,0.00001388,0.00000044,-0.000058
 39,0.00000031,-0.00003900,0.00000212,0.00000925,0.00003574,0.00000548,
 0.00005007,0.00001976,0.00006519,0.00003418,-0.00001906,0.00004737,-0.
 00009700,0.00000085,0.00001202,-0.00001516,0.00000152,0.00001713,-0.00
 001193,0.00000319,-0.00000437,0.00000085,0.00001269,0.00000119,-0.0000
 0544,-0.00001173,-0.00001081,-0.00000360,-0.00000337,0.00000200,0.0000
 0025\\\@


 WAR ES EIN GOTT DER DIESE ZEICHEN SCHRIEB?
          - LUDWIG BOLTZMANN, QUOTING GOETHE, ABOUT MAXWELL'S EQUATIONS.
 Job cpu time:       0 days  1 hours  4 minutes 42.9 seconds.
 Elapsed time:       0 days  0 hours  4 minutes  4.4 seconds.
 File lengths (MBytes):  RWF=     71 Int=      0 D2E=      0 Chk=      5 Scr=      1
 Normal termination of Gaussian 16 at Sat Sep 20 02:07:33 2025.
