 Entering Gaussian System, Link 0=g16
 Input=HDEE0120.gjf
 Output=HDEE0120.log
 Initial command:
 /usr/local/g16/l1.exe "/dados_01/scratch/Gau-2102291.inp" -scrdir="/dados_01/scratch/"
 Entering Link 1 = /usr/local/g16/l1.exe PID=   2102292.
  
 Copyright (c) 1988-2017, Gaussian, Inc.  All Rights Reserved.
  
 This is part of the Gaussian(R) 16 program.  It is based on
 the Gaussian(R) 09 system (copyright 2009, Gaussian, Inc.),
 the Gaussian(R) 03 system (copyright 2003, Gaussian, Inc.),
 the Gaussian(R) 98 system (copyright 1998, Gaussian, Inc.),
 the Gaussian(R) 94 system (copyright 1995, Gaussian, Inc.),
 the Gaussian 92(TM) system (copyright 1992, Gaussian, Inc.),
 the Gaussian 90(TM) system (copyright 1990, Gaussian, Inc.),
 the Gaussian 88(TM) system (copyright 1988, Gaussian, Inc.),
 the Gaussian 86(TM) system (copyright 1986, Carnegie Mellon
 University), and the Gaussian 82(TM) system (copyright 1983,
 Carnegie Mellon University). Gaussian is a federally registered
 trademark of Gaussian, Inc.
  
 This software contains proprietary and confidential information,
 including trade secrets, belonging to Gaussian, Inc.
  
 This software is provided under written license and may be
 used, copied, transmitted, or stored only in accord with that
 written license.
  
 The following legend is applicable only to US Government
 contracts under FAR:
  
                    RESTRICTED RIGHTS LEGEND
  
 Use, reproduction and disclosure by the US Government is
 subject to restrictions as set forth in subparagraphs (a)
 and (c) of the Commercial Computer Software - Restricted
 Rights clause in FAR 52.227-19.
  
 Gaussian, Inc.
 340 Quinnipiac St., Bldg. 40, Wallingford CT 06492
  
  
 ---------------------------------------------------------------
 Warning -- This program may not be used in any manner that
 competes with the business of Gaussian, Inc. or will provide
 assistance to any competitor of Gaussian, Inc.  The licensee
 of this program is prohibited from giving any competitor of
 Gaussian, Inc. access to this program.  By using this program,
 the user acknowledges that Gaussian, Inc. is engaged in the
 business of creating and licensing software in the field of
 computational chemistry and represents and warrants to the
 licensee that it is not a competitor of Gaussian, Inc. and that
 it will not use this program in any manner prohibited above.
 ---------------------------------------------------------------
  

 Cite this work as:
 Gaussian 16, Revision B.01,
 M. J. Frisch, G. W. Trucks, H. B. Schlegel, G. E. Scuseria, 
 M. A. Robb, J. R. Cheeseman, G. Scalmani, V. Barone, 
 G. A. Petersson, H. Nakatsuji, X. Li, M. Caricato, A. V. Marenich, 
 J. Bloino, B. G. Janesko, R. Gomperts, B. Mennucci, H. P. Hratchian, 
 J. V. Ortiz, A. F. Izmaylov, J. L. Sonnenberg, D. Williams-Young, 
 F. Ding, F. Lipparini, F. Egidi, J. Goings, B. Peng, A. Petrone, 
 T. Henderson, D. Ranasinghe, V. G. Zakrzewski, J. Gao, N. Rega, 
 G. Zheng, W. Liang, M. Hada, M. Ehara, K. Toyota, R. Fukuda, 
 J. Hasegawa, M. Ishida, T. Nakajima, Y. Honda, O. Kitao, H. Nakai, 
 T. Vreven, K. Throssell, J. A. Montgomery, Jr., J. E. Peralta, 
 F. Ogliaro, M. J. Bearpark, J. J. Heyd, E. N. Brothers, K. N. Kudin, 
 V. N. Staroverov, T. A. Keith, R. Kobayashi, J. Normand, 
 K. Raghavachari, A. P. Rendell, J. C. Burant, S. S. Iyengar, 
 J. Tomasi, M. Cossi, J. M. Millam, M. Klene, C. Adamo, R. Cammi, 
 J. W. Ochterski, R. L. Martin, K. Morokuma, O. Farkas, 
 J. B. Foresman, and D. J. Fox, Gaussian, Inc., Wallingford CT, 2016.
 
 ******************************************
 Gaussian 16:  ES64L-G16RevB.01 20-Dec-2017
                20-Sep-2025 
 ******************************************
 %nprocs=16
 Will use up to   16 processors via shared memory.
 %mem=40GB
 %chk=HDEE0120.chk
 ----------------------------------------------------------------------
 # opt freq=noraman M08HX/6-311++G** scf=xqc Empiricaldispersion=pfd In
 t(Grid=ultraFine)
 ----------------------------------------------------------------------
 1/18=20,19=15,26=4,38=1/1,3;
 2/9=110,12=2,17=6,18=5,40=1/2;
 3/5=4,6=6,7=1111,11=2,25=1,30=1,71=1,74=-74,75=-5,124=11/1,2,3;
 4//1;
 5/5=2,8=3,13=1,38=5/2,8;
 6/7=2,8=2,9=2,10=2,28=1/1;
 7//1,2,3,16;
 1/18=20,19=15,26=4/3(2);
 2/9=110/2;
 99//99;
 2/9=110/2;
 3/5=4,6=6,7=1111,11=2,25=1,30=1,71=1,74=-74,75=-5,124=11/1,2,3;
 4/5=5,16=3,69=1/1;
 5/5=2,8=3,13=1,38=5/2,8;
 7//1,2,3,16;
 1/18=20,19=15,26=4/3(-5);
 2/9=110/2;
 6/7=2,8=2,9=2,10=2,19=2,28=1/1;
 99/9=1/99;
 --------
 HDEE0120
 --------
 Symbolic Z-matrix:
 Charge =  0 Multiplicity = 1
 C                     0.6381    0.4162   -0.1202 
 C                    -0.6469   -0.4183   -0.1396 
 C                     1.912    -0.4328   -0.1013 
 C                    -1.9201    0.4303   -0.083 
 C                     3.1611    0.4472   -0.01 
 C                    -3.2038   -0.4052   -0.0424 
 C                     4.4703   -0.3484   -0.0193 
 C                    -4.4792    0.4417   -0.0118 
 C                     5.7567    0.4821    0.0449 
 C                    -5.7281   -0.4436    0.0157 
 C                     7.027    -0.3705    0.0948 
 C                    -7.038     0.3498    0.0168 
 C                     8.312     0.4615    0.0795 
 C                    -8.2836   -0.5314    0.1182 
 C                     9.578    -0.3813    0.0553 
 C                    -9.5555    0.303     0.1024 
 H                     0.6521    1.0759   -0.9965 
 H                     0.6262    1.065     0.7645 
 H                    -0.6625   -1.0371   -1.0452 
 H                    -0.6388   -1.1067    0.7146 
 H                     1.886    -1.1189    0.7536 
 H                     1.9564   -1.0467   -1.0087 
 H                    -1.8859    1.0746    0.8042 
 H                    -1.9478    1.094    -0.9558 
 H                     3.1169    1.0488    0.9062 
 H                     3.17      1.1517   -0.8508 
 H                    -3.1796   -1.0558    0.8407 
 H                    -3.2282   -1.0631   -0.92 
 H                     4.4993   -0.9674   -0.9252 
 H                     4.4597   -1.0443    0.8293 
 H                    -4.4689    1.0923    0.8707 
 H                    -4.5094    1.0917   -0.8943 
 H                     5.7233    1.1293    0.9298 
 H                     5.7953    1.1429   -0.8296 
 H                    -5.7192   -1.1138   -0.8529 
 H                    -5.6955   -1.0816    0.9077 
 H                     7.0102   -0.9959    0.9958 
 H                     7.0334   -1.0528   -0.7642 
 H                    -7.0279    1.0546    0.8576 
 H                    -7.091     0.9517   -0.899 
 H                     8.3104    1.117    -0.7994 
 H                     8.3334    1.1124    0.9616 
 H                    -8.2479   -1.1198    1.0423 
 H                    -8.3055   -1.2399   -0.7179 
 H                     9.6332   -1.0271    0.9373 
 H                     9.6081   -1.0149   -0.8368 
 H                     10.4633   0.262     0.0471 
 H                    -9.6352    0.8794   -0.8247 
 H                    -9.5771    1.0015    0.945 
 H                    -10.4344  -0.3451    0.1759 
 

 GradGradGradGradGradGradGradGradGradGradGradGradGradGradGradGradGradGrad
 Berny optimization.
 Initialization pass.
                           ----------------------------
                           !    Initial Parameters    !
                           ! (Angstroms and Degrees)  !
 --------------------------                            --------------------------
 ! Name  Definition              Value          Derivative Info.                !
 --------------------------------------------------------------------------------
 ! R1    R(1,2)                  1.5323         estimate D2E/DX2                !
 ! R2    R(1,3)                  1.531          estimate D2E/DX2                !
 ! R3    R(1,17)                 1.097          estimate D2E/DX2                !
 ! R4    R(1,18)                 1.0972         estimate D2E/DX2                !
 ! R5    R(2,4)                  1.5311         estimate D2E/DX2                !
 ! R6    R(2,19)                 1.0969         estimate D2E/DX2                !
 ! R7    R(2,20)                 1.0971         estimate D2E/DX2                !
 ! R8    R(3,5)                  1.5307         estimate D2E/DX2                !
 ! R9    R(3,21)                 1.0965         estimate D2E/DX2                !
 ! R10   R(3,22)                 1.0965         estimate D2E/DX2                !
 ! R11   R(4,6)                  1.5322         estimate D2E/DX2                !
 ! R12   R(4,23)                 1.097          estimate D2E/DX2                !
 ! R13   R(4,24)                 1.0968         estimate D2E/DX2                !
 ! R14   R(5,7)                  1.532          estimate D2E/DX2                !
 ! R15   R(5,25)                 1.0969         estimate D2E/DX2                !
 ! R16   R(5,26)                 1.097          estimate D2E/DX2                !
 ! R17   R(6,8)                  1.5313         estimate D2E/DX2                !
 ! R18   R(6,27)                 1.0971         estimate D2E/DX2                !
 ! R19   R(6,28)                 1.0971         estimate D2E/DX2                !
 ! R20   R(7,9)                  1.5325         estimate D2E/DX2                !
 ! R21   R(7,29)                 1.0976         estimate D2E/DX2                !
 ! R22   R(7,30)                 1.0975         estimate D2E/DX2                !
 ! R23   R(8,10)                 1.5311         estimate D2E/DX2                !
 ! R24   R(8,31)                 1.0964         estimate D2E/DX2                !
 ! R25   R(8,32)                 1.0965         estimate D2E/DX2                !
 ! R26   R(9,11)                 1.5307         estimate D2E/DX2                !
 ! R27   R(9,33)                 1.0968         estimate D2E/DX2                !
 ! R28   R(9,34)                 1.0968         estimate D2E/DX2                !
 ! R29   R(10,12)                1.5314         estimate D2E/DX2                !
 ! R30   R(10,35)                1.0971         estimate D2E/DX2                !
 ! R31   R(10,36)                1.0972         estimate D2E/DX2                !
 ! R32   R(11,13)                1.5309         estimate D2E/DX2                !
 ! R33   R(11,37)                1.0969         estimate D2E/DX2                !
 ! R34   R(11,38)                1.097          estimate D2E/DX2                !
 ! R35   R(12,14)                1.5292         estimate D2E/DX2                !
 ! R36   R(12,39)                1.0972         estimate D2E/DX2                !
 ! R37   R(12,40)                1.0972         estimate D2E/DX2                !
 ! R38   R(13,15)                1.5211         estimate D2E/DX2                !
 ! R39   R(13,41)                1.0964         estimate D2E/DX2                !
 ! R40   R(13,42)                1.0965         estimate D2E/DX2                !
 ! R41   R(14,16)                1.5213         estimate D2E/DX2                !
 ! R42   R(14,43)                1.0961         estimate D2E/DX2                !
 ! R43   R(14,44)                1.0961         estimate D2E/DX2                !
 ! R44   R(15,45)                1.0945         estimate D2E/DX2                !
 ! R45   R(15,46)                1.0946         estimate D2E/DX2                !
 ! R46   R(15,47)                1.0944         estimate D2E/DX2                !
 ! R47   R(16,48)                1.0946         estimate D2E/DX2                !
 ! R48   R(16,49)                1.0947         estimate D2E/DX2                !
 ! R49   R(16,50)                1.0945         estimate D2E/DX2                !
 ! A1    A(2,1,3)              113.3238         estimate D2E/DX2                !
 ! A2    A(2,1,17)             109.154          estimate D2E/DX2                !
 ! A3    A(2,1,18)             108.854          estimate D2E/DX2                !
 ! A4    A(3,1,17)             109.435          estimate D2E/DX2                !
 ! A5    A(3,1,18)             109.0862         estimate D2E/DX2                !
 ! A6    A(17,1,18)            106.7779         estimate D2E/DX2                !
 ! A7    A(1,2,4)              113.2678         estimate D2E/DX2                !
 ! A8    A(1,2,19)             109.2443         estimate D2E/DX2                !
 ! A9    A(1,2,20)             109.0064         estimate D2E/DX2                !
 ! A10   A(4,2,19)             109.3503         estimate D2E/DX2                !
 ! A11   A(4,2,20)             108.9731         estimate D2E/DX2                !
 ! A12   A(19,2,20)            106.7938         estimate D2E/DX2                !
 ! A13   A(1,3,5)              111.1573         estimate D2E/DX2                !
 ! A14   A(1,3,21)             109.6873         estimate D2E/DX2                !
 ! A15   A(1,3,22)             109.5093         estimate D2E/DX2                !
 ! A16   A(5,3,21)             109.4256         estimate D2E/DX2                !
 ! A17   A(5,3,22)             109.7675         estimate D2E/DX2                !
 ! A18   A(21,3,22)            107.2091         estimate D2E/DX2                !
 ! A19   A(2,4,6)              113.2936         estimate D2E/DX2                !
 ! A20   A(2,4,23)             109.2376         estimate D2E/DX2                !
 ! A21   A(2,4,24)             109.0839         estimate D2E/DX2                !
 ! A22   A(6,4,23)             108.9631         estimate D2E/DX2                !
 ! A23   A(6,4,24)             109.2621         estimate D2E/DX2                !
 ! A24   A(23,4,24)            106.7951         estimate D2E/DX2                !
 ! A25   A(3,5,7)              113.4805         estimate D2E/DX2                !
 ! A26   A(3,5,25)             109.4044         estimate D2E/DX2                !
 ! A27   A(3,5,26)             109.2762         estimate D2E/DX2                !
 ! A28   A(7,5,25)             108.9239         estimate D2E/DX2                !
 ! A29   A(7,5,26)             108.7797         estimate D2E/DX2                !
 ! A30   A(25,5,26)            106.7557         estimate D2E/DX2                !
 ! A31   A(4,6,8)              113.376          estimate D2E/DX2                !
 ! A32   A(4,6,27)             109.0387         estimate D2E/DX2                !
 ! A33   A(4,6,28)             108.9317         estimate D2E/DX2                !
 ! A34   A(8,6,27)             109.284          estimate D2E/DX2                !
 ! A35   A(8,6,28)             109.2155         estimate D2E/DX2                !
 ! A36   A(27,6,28)            106.7836         estimate D2E/DX2                !
 ! A37   A(5,7,9)              115.8256         estimate D2E/DX2                !
 ! A38   A(5,7,29)             108.6914         estimate D2E/DX2                !
 ! A39   A(5,7,30)             108.4416         estimate D2E/DX2                !
 ! A40   A(9,7,29)             108.5433         estimate D2E/DX2                !
 ! A41   A(9,7,30)             108.6224         estimate D2E/DX2                !
 ! A42   A(29,7,30)            106.3102         estimate D2E/DX2                !
 ! A43   A(6,8,10)             111.0974         estimate D2E/DX2                !
 ! A44   A(6,8,31)             109.6598         estimate D2E/DX2                !
 ! A45   A(6,8,32)             109.5558         estimate D2E/DX2                !
 ! A46   A(10,8,31)            109.6517         estimate D2E/DX2                !
 ! A47   A(10,8,32)            109.5582         estimate D2E/DX2                !
 ! A48   A(31,8,32)            107.2362         estimate D2E/DX2                !
 ! A49   A(7,9,11)             113.3354         estimate D2E/DX2                !
 ! A50   A(7,9,33)             109.1474         estimate D2E/DX2                !
 ! A51   A(7,9,34)             108.8227         estimate D2E/DX2                !
 ! A52   A(11,9,33)            109.1252         estimate D2E/DX2                !
 ! A53   A(11,9,34)            109.413          estimate D2E/DX2                !
 ! A54   A(33,9,34)            106.7885         estimate D2E/DX2                !
 ! A55   A(8,10,12)            113.4623         estimate D2E/DX2                !
 ! A56   A(8,10,35)            109.4128         estimate D2E/DX2                !
 ! A57   A(8,10,36)            109.0623         estimate D2E/DX2                !
 ! A58   A(12,10,35)           108.9037         estimate D2E/DX2                !
 ! A59   A(12,10,36)           109.0316         estimate D2E/DX2                !
 ! A60   A(35,10,36)           106.75           estimate D2E/DX2                !
 ! A61   A(9,11,13)            113.1748         estimate D2E/DX2                !
 ! A62   A(9,11,37)            109.3681         estimate D2E/DX2                !
 ! A63   A(9,11,38)            109.0106         estimate D2E/DX2                !
 ! A64   A(13,11,37)           109.3247         estimate D2E/DX2                !
 ! A65   A(13,11,38)           108.9832         estimate D2E/DX2                !
 ! A66   A(37,11,38)           106.7779         estimate D2E/DX2                !
 ! A67   A(10,12,14)           113.4675         estimate D2E/DX2                !
 ! A68   A(10,12,39)           108.9944         estimate D2E/DX2                !
 ! A69   A(10,12,40)           108.9613         estimate D2E/DX2                !
 ! A70   A(14,12,39)           109.0785         estimate D2E/DX2                !
 ! A71   A(14,12,40)           109.3985         estimate D2E/DX2                !
 ! A72   A(39,12,40)           106.7199         estimate D2E/DX2                !
 ! A73   A(11,13,15)           113.4312         estimate D2E/DX2                !
 ! A74   A(11,13,41)           109.372          estimate D2E/DX2                !
 ! A75   A(11,13,42)           109.3273         estimate D2E/DX2                !
 ! A76   A(15,13,41)           108.6461         estimate D2E/DX2                !
 ! A77   A(15,13,42)           108.9946         estimate D2E/DX2                !
 ! A78   A(41,13,42)           106.8586         estimate D2E/DX2                !
 ! A79   A(12,14,16)           111.3634         estimate D2E/DX2                !
 ! A80   A(12,14,43)           109.7989         estimate D2E/DX2                !
 ! A81   A(12,14,44)           109.7654         estimate D2E/DX2                !
 ! A82   A(16,14,43)           109.2946         estimate D2E/DX2                !
 ! A83   A(16,14,44)           109.2627         estimate D2E/DX2                !
 ! A84   A(43,14,44)           107.2625         estimate D2E/DX2                !
 ! A85   A(13,15,45)           110.8592         estimate D2E/DX2                !
 ! A86   A(13,15,46)           110.8899         estimate D2E/DX2                !
 ! A87   A(13,15,47)           110.3477         estimate D2E/DX2                !
 ! A88   A(45,15,46)           108.2896         estimate D2E/DX2                !
 ! A89   A(45,15,47)           108.1838         estimate D2E/DX2                !
 ! A90   A(46,15,47)           108.1737         estimate D2E/DX2                !
 ! A91   A(14,16,48)           111.0088         estimate D2E/DX2                !
 ! A92   A(14,16,49)           111.0074         estimate D2E/DX2                !
 ! A93   A(14,16,50)           110.2374         estimate D2E/DX2                !
 ! A94   A(48,16,49)           108.3304         estimate D2E/DX2                !
 ! A95   A(48,16,50)           108.0732         estimate D2E/DX2                !
 ! A96   A(49,16,50)           108.0776         estimate D2E/DX2                !
 ! D1    D(3,1,2,4)            176.9239         estimate D2E/DX2                !
 ! D2    D(3,1,2,19)           -60.9259         estimate D2E/DX2                !
 ! D3    D(3,1,2,20)            55.4286         estimate D2E/DX2                !
 ! D4    D(17,1,2,4)           -60.8446         estimate D2E/DX2                !
 ! D5    D(17,1,2,19)           61.3055         estimate D2E/DX2                !
 ! D6    D(17,1,2,20)          177.66           estimate D2E/DX2                !
 ! D7    D(18,1,2,4)            55.3558         estimate D2E/DX2                !
 ! D8    D(18,1,2,19)          177.506          estimate D2E/DX2                !
 ! D9    D(18,1,2,20)          -66.1395         estimate D2E/DX2                !
 ! D10   D(2,1,3,5)           -177.092          estimate D2E/DX2                !
 ! D11   D(2,1,3,21)           -55.9449         estimate D2E/DX2                !
 ! D12   D(2,1,3,22)            61.4509         estimate D2E/DX2                !
 ! D13   D(17,1,3,5)            60.833          estimate D2E/DX2                !
 ! D14   D(17,1,3,21)         -178.0199         estimate D2E/DX2                !
 ! D15   D(17,1,3,22)          -60.624          estimate D2E/DX2                !
 ! D16   D(18,1,3,5)           -55.6542         estimate D2E/DX2                !
 ! D17   D(18,1,3,21)           65.4929         estimate D2E/DX2                !
 ! D18   D(18,1,3,22)         -177.1112         estimate D2E/DX2                !
 ! D19   D(1,2,4,6)           -177.5566         estimate D2E/DX2                !
 ! D20   D(1,2,4,23)           -55.8906         estimate D2E/DX2                !
 ! D21   D(1,2,4,24)            60.5052         estimate D2E/DX2                !
 ! D22   D(19,2,4,6)            60.3524         estimate D2E/DX2                !
 ! D23   D(19,2,4,23)         -177.9816         estimate D2E/DX2                !
 ! D24   D(19,2,4,24)          -61.5858         estimate D2E/DX2                !
 ! D25   D(20,2,4,6)           -56.0425         estimate D2E/DX2                !
 ! D26   D(20,2,4,23)           65.6234         estimate D2E/DX2                !
 ! D27   D(20,2,4,24)         -177.9807         estimate D2E/DX2                !
 ! D28   D(1,3,5,7)           -178.6978         estimate D2E/DX2                !
 ! D29   D(1,3,5,25)            59.4385         estimate D2E/DX2                !
 ! D30   D(1,3,5,26)           -57.1126         estimate D2E/DX2                !
 ! D31   D(21,3,5,7)            60.0018         estimate D2E/DX2                !
 ! D32   D(21,3,5,25)          -61.862          estimate D2E/DX2                !
 ! D33   D(21,3,5,26)         -178.4131         estimate D2E/DX2                !
 ! D34   D(22,3,5,7)           -57.3918         estimate D2E/DX2                !
 ! D35   D(22,3,5,25)         -179.2556         estimate D2E/DX2                !
 ! D36   D(22,3,5,26)           64.1934         estimate D2E/DX2                !
 ! D37   D(2,4,6,8)           -178.9382         estimate D2E/DX2                !
 ! D38   D(2,4,6,27)            59.0726         estimate D2E/DX2                !
 ! D39   D(2,4,6,28)           -57.1142         estimate D2E/DX2                !
 ! D40   D(23,4,6,8)            59.2421         estimate D2E/DX2                !
 ! D41   D(23,4,6,27)          -62.7471         estimate D2E/DX2                !
 ! D42   D(23,4,6,28)         -178.9338         estimate D2E/DX2                !
 ! D43   D(24,4,6,8)           -57.0996         estimate D2E/DX2                !
 ! D44   D(24,4,6,27)         -179.0889         estimate D2E/DX2                !
 ! D45   D(24,4,6,28)           64.7244         estimate D2E/DX2                !
 ! D46   D(3,5,7,9)            178.9559         estimate D2E/DX2                !
 ! D47   D(3,5,7,29)            56.4957         estimate D2E/DX2                !
 ! D48   D(3,5,7,30)           -58.6763         estimate D2E/DX2                !
 ! D49   D(25,5,7,9)           -58.9131         estimate D2E/DX2                !
 ! D50   D(25,5,7,29)          178.6268         estimate D2E/DX2                !
 ! D51   D(25,5,7,30)           63.4547         estimate D2E/DX2                !
 ! D52   D(26,5,7,9)            57.0938         estimate D2E/DX2                !
 ! D53   D(26,5,7,29)          -65.3664         estimate D2E/DX2                !
 ! D54   D(26,5,7,30)          179.4616         estimate D2E/DX2                !
 ! D55   D(4,6,8,10)           179.502          estimate D2E/DX2                !
 ! D56   D(4,6,8,31)           -59.1246         estimate D2E/DX2                !
 ! D57   D(4,6,8,32)            58.3153         estimate D2E/DX2                !
 ! D58   D(27,6,8,10)          -58.6456         estimate D2E/DX2                !
 ! D59   D(27,6,8,31)           62.7278         estimate D2E/DX2                !
 ! D60   D(27,6,8,32)         -179.8322         estimate D2E/DX2                !
 ! D61   D(28,6,8,10)           57.8366         estimate D2E/DX2                !
 ! D62   D(28,6,8,31)          179.21           estimate D2E/DX2                !
 ! D63   D(28,6,8,32)          -63.3501         estimate D2E/DX2                !
 ! D64   D(5,7,9,11)           177.4508         estimate D2E/DX2                !
 ! D65   D(5,7,9,33)            55.6138         estimate D2E/DX2                !
 ! D66   D(5,7,9,34)           -60.5783         estimate D2E/DX2                !
 ! D67   D(29,7,9,11)          -60.0108         estimate D2E/DX2                !
 ! D68   D(29,7,9,33)          178.1523         estimate D2E/DX2                !
 ! D69   D(29,7,9,34)           61.9601         estimate D2E/DX2                !
 ! D70   D(30,7,9,11)           55.1787         estimate D2E/DX2                !
 ! D71   D(30,7,9,33)          -66.6582         estimate D2E/DX2                !
 ! D72   D(30,7,9,34)          177.1496         estimate D2E/DX2                !
 ! D73   D(6,8,10,12)         -178.7678         estimate D2E/DX2                !
 ! D74   D(6,8,10,35)          -56.9364         estimate D2E/DX2                !
 ! D75   D(6,8,10,36)           59.4913         estimate D2E/DX2                !
 ! D76   D(31,8,10,12)          59.8541         estimate D2E/DX2                !
 ! D77   D(31,8,10,35)        -178.3145         estimate D2E/DX2                !
 ! D78   D(31,8,10,36)         -61.8868         estimate D2E/DX2                !
 ! D79   D(32,8,10,12)         -57.5825         estimate D2E/DX2                !
 ! D80   D(32,8,10,35)          64.2489         estimate D2E/DX2                !
 ! D81   D(32,8,10,36)        -179.3235         estimate D2E/DX2                !
 ! D82   D(7,9,11,13)          176.7671         estimate D2E/DX2                !
 ! D83   D(7,9,11,37)          -61.0891         estimate D2E/DX2                !
 ! D84   D(7,9,11,38)           55.3178         estimate D2E/DX2                !
 ! D85   D(33,9,11,13)         -61.3835         estimate D2E/DX2                !
 ! D86   D(33,9,11,37)          60.7602         estimate D2E/DX2                !
 ! D87   D(33,9,11,38)         177.1671         estimate D2E/DX2                !
 ! D88   D(34,9,11,13)          55.1262         estimate D2E/DX2                !
 ! D89   D(34,9,11,37)         177.2699         estimate D2E/DX2                !
 ! D90   D(34,9,11,38)         -66.3231         estimate D2E/DX2                !
 ! D91   D(8,10,12,14)        -176.9764         estimate D2E/DX2                !
 ! D92   D(8,10,12,39)         -55.221          estimate D2E/DX2                !
 ! D93   D(8,10,12,40)          60.8817         estimate D2E/DX2                !
 ! D94   D(35,10,12,14)         60.9089         estimate D2E/DX2                !
 ! D95   D(35,10,12,39)       -177.3357         estimate D2E/DX2                !
 ! D96   D(35,10,12,40)        -61.2331         estimate D2E/DX2                !
 ! D97   D(36,10,12,14)        -55.2183         estimate D2E/DX2                !
 ! D98   D(36,10,12,39)         66.5371         estimate D2E/DX2                !
 ! D99   D(36,10,12,40)       -177.3603         estimate D2E/DX2                !
 ! D100  D(9,11,13,15)        -176.977          estimate D2E/DX2                !
 ! D101  D(9,11,13,41)         -55.5274         estimate D2E/DX2                !
 ! D102  D(9,11,13,42)          61.1581         estimate D2E/DX2                !
 ! D103  D(37,11,13,15)         60.855          estimate D2E/DX2                !
 ! D104  D(37,11,13,41)       -177.6954         estimate D2E/DX2                !
 ! D105  D(37,11,13,42)        -61.0099         estimate D2E/DX2                !
 ! D106  D(38,11,13,15)        -55.5123         estimate D2E/DX2                !
 ! D107  D(38,11,13,41)         65.9373         estimate D2E/DX2                !
 ! D108  D(38,11,13,42)       -177.3772         estimate D2E/DX2                !
 ! D109  D(10,12,14,16)       -179.478          estimate D2E/DX2                !
 ! D110  D(10,12,14,43)         59.3296         estimate D2E/DX2                !
 ! D111  D(10,12,14,44)        -58.3484         estimate D2E/DX2                !
 ! D112  D(39,12,14,16)         58.8135         estimate D2E/DX2                !
 ! D113  D(39,12,14,43)        -62.3789         estimate D2E/DX2                !
 ! D114  D(39,12,14,44)        179.9431         estimate D2E/DX2                !
 ! D115  D(40,12,14,16)        -57.5792         estimate D2E/DX2                !
 ! D116  D(40,12,14,43)       -178.7716         estimate D2E/DX2                !
 ! D117  D(40,12,14,44)         63.5504         estimate D2E/DX2                !
 ! D118  D(11,13,15,45)        -60.0564         estimate D2E/DX2                !
 ! D119  D(11,13,15,46)         60.2677         estimate D2E/DX2                !
 ! D120  D(11,13,15,47)       -179.8908         estimate D2E/DX2                !
 ! D121  D(41,13,15,45)        178.0883         estimate D2E/DX2                !
 ! D122  D(41,13,15,46)        -61.5876         estimate D2E/DX2                !
 ! D123  D(41,13,15,47)         58.254          estimate D2E/DX2                !
 ! D124  D(42,13,15,45)         61.9938         estimate D2E/DX2                !
 ! D125  D(42,13,15,46)       -177.6821         estimate D2E/DX2                !
 ! D126  D(42,13,15,47)        -57.8406         estimate D2E/DX2                !
 ! D127  D(12,14,16,48)         60.2872         estimate D2E/DX2                !
 ! D128  D(12,14,16,49)        -60.267          estimate D2E/DX2                !
 ! D129  D(12,14,16,50)       -179.9922         estimate D2E/DX2                !
 ! D130  D(43,14,16,48)       -178.2264         estimate D2E/DX2                !
 ! D131  D(43,14,16,49)         61.2194         estimate D2E/DX2                !
 ! D132  D(43,14,16,50)        -58.5058         estimate D2E/DX2                !
 ! D133  D(44,14,16,48)        -61.1358         estimate D2E/DX2                !
 ! D134  D(44,14,16,49)        178.31           estimate D2E/DX2                !
 ! D135  D(44,14,16,50)         58.5849         estimate D2E/DX2                !
 --------------------------------------------------------------------------------
 Trust Radius=3.00D-01 FncErr=1.00D-07 GrdErr=1.00D-06 EigMax=2.50D+02 EigMin=1.00D-04
 Number of steps in this run=    290 maximum allowed number of steps=    300.
 GradGradGradGradGradGradGradGradGradGradGradGradGradGradGradGradGradGrad

                          Input orientation:                          
 ---------------------------------------------------------------------
 Center     Atomic      Atomic             Coordinates (Angstroms)
 Number     Number       Type             X           Y           Z
 ---------------------------------------------------------------------
      1          6           0        0.638100    0.416200   -0.120200
      2          6           0       -0.646900   -0.418300   -0.139600
      3          6           0        1.912000   -0.432800   -0.101300
      4          6           0       -1.920100    0.430300   -0.083000
      5          6           0        3.161100    0.447200   -0.010000
      6          6           0       -3.203800   -0.405200   -0.042400
      7          6           0        4.470300   -0.348400   -0.019300
      8          6           0       -4.479200    0.441700   -0.011800
      9          6           0        5.756700    0.482100    0.044900
     10          6           0       -5.728100   -0.443600    0.015700
     11          6           0        7.027000   -0.370500    0.094800
     12          6           0       -7.038000    0.349800    0.016800
     13          6           0        8.312000    0.461500    0.079500
     14          6           0       -8.283600   -0.531400    0.118200
     15          6           0        9.578000   -0.381300    0.055300
     16          6           0       -9.555500    0.303000    0.102400
     17          1           0        0.652100    1.075900   -0.996500
     18          1           0        0.626200    1.065000    0.764500
     19          1           0       -0.662500   -1.037100   -1.045200
     20          1           0       -0.638800   -1.106700    0.714600
     21          1           0        1.886000   -1.118900    0.753600
     22          1           0        1.956400   -1.046700   -1.008700
     23          1           0       -1.885900    1.074600    0.804200
     24          1           0       -1.947800    1.094000   -0.955800
     25          1           0        3.116900    1.048800    0.906200
     26          1           0        3.170000    1.151700   -0.850800
     27          1           0       -3.179600   -1.055800    0.840700
     28          1           0       -3.228200   -1.063100   -0.920000
     29          1           0        4.499300   -0.967400   -0.925200
     30          1           0        4.459700   -1.044300    0.829300
     31          1           0       -4.468900    1.092300    0.870700
     32          1           0       -4.509400    1.091700   -0.894300
     33          1           0        5.723300    1.129300    0.929800
     34          1           0        5.795300    1.142900   -0.829600
     35          1           0       -5.719200   -1.113800   -0.852900
     36          1           0       -5.695500   -1.081600    0.907700
     37          1           0        7.010200   -0.995900    0.995800
     38          1           0        7.033400   -1.052800   -0.764200
     39          1           0       -7.027900    1.054600    0.857600
     40          1           0       -7.091000    0.951700   -0.899000
     41          1           0        8.310400    1.117000   -0.799400
     42          1           0        8.333400    1.112400    0.961600
     43          1           0       -8.247900   -1.119800    1.042300
     44          1           0       -8.305500   -1.239900   -0.717900
     45          1           0        9.633200   -1.027100    0.937300
     46          1           0        9.608100   -1.014900   -0.836800
     47          1           0       10.463300    0.262000    0.047100
     48          1           0       -9.635200    0.879400   -0.824700
     49          1           0       -9.577100    1.001500    0.945000
     50          1           0      -10.434400   -0.345100    0.175900
 ---------------------------------------------------------------------
                    Distance matrix (angstroms):
                    1          2          3          4          5
     1  C    0.000000
     2  C    1.532316   0.000000
     3  C    1.531006   2.559228   0.000000
     4  C    2.558509   1.531132   3.928138   0.000000
     5  C    2.525596   3.907269   1.530682   5.081752   0.000000
     6  C    3.929497   2.558780   5.116214   1.532186   6.421806
     7  C    3.909035   5.119091   2.561005   6.437984   1.532015
     8  C    5.118512   3.929689   6.451372   2.560116   7.640302
     9  C    5.121686   6.469224   3.954761   7.678040   2.596415
    10  C    6.425436   5.083636   7.641003   3.908236   8.933760
    11  C    6.440743   7.677628   5.119137   8.984625   3.952822
    12  C    7.677610   6.438990   8.984927   5.119506  10.199600
    13  C    7.676632   9.004662   6.464709  10.233438   5.151697
    14  C    8.975049   7.641887  10.198439   6.438904  11.487178
    15  C    8.977116  10.226824   7.667772  11.527538   6.470493
    16  C   10.196659   8.941029  11.492887   7.638711  12.717914
    17  H    1.096951   2.157386   2.159840   2.804905   2.768308
    18  H    1.097168   2.153685   2.155527   2.757670   2.721625
    19  H    2.158533   1.096936   2.807877   2.158854   4.230213
    20  H    2.155595   1.097095   2.761596   2.154127   4.168800
    21  H    2.162710   2.775649   1.096478   4.193604   2.159082
    22  H    2.160422   2.815563   1.096458   4.250377   2.163433
    23  H    2.767414   2.157459   4.185239   1.097003   5.150608
    24  H    2.800807   2.155359   4.237847   1.096834   5.235814
    25  H    2.756470   4.172801   2.159162   5.170341   1.096950
    26  H    2.735919   4.188010   2.157534   5.197985   1.096970
    27  H    4.202969   2.789617   5.215351   2.155935   6.571695
    28  H    4.216193   2.772706   5.243015   2.154516   6.628142
    29  H    4.179861   5.234697   2.767441   6.623561   2.151619
    30  H    4.199909   5.235266   2.780418   6.611247   2.148339
    31  H    5.245993   4.232057   6.632239   2.800744   7.707703
    32  H    5.249027   4.215279   6.647355   2.792872   7.748157
    33  H    5.241209   6.642148   4.246096   7.741830   2.813068
    34  H    5.256239   6.664487   4.253618   7.784125   2.845128
    35  H    6.579743   5.169211   7.698304   4.172547   9.055768
    36  H    6.588966   5.198573   7.701498   4.185806   9.034311
    37  H    6.621415   7.762341   5.245222   9.107586   4.231990
    38  H    6.593372   7.731735   5.201209   9.101032   4.220607
    39  H    7.754431   6.624274   9.113378   5.231071  10.243895
    40  H    7.786673   6.631743   9.143696   5.260791  10.302931
    41  H    7.734121   9.111844   6.620328  10.278517   5.252340
    42  H    7.802091   9.176136   6.689677  10.329120   5.304638
    43  H    9.092398   7.724260  10.247115   6.611366  11.564087
    44  H    9.115256   7.724222  10.267858   6.630686  11.611647
    45  H    9.171327  10.354265   7.813374  11.689473   6.705148
    46  H    9.111666  10.295972   7.753048  11.642861   6.662218
    47  H    9.827834  11.132574   8.580763  12.385227   7.304771
    48  H   10.307840   9.107301  11.644012   7.763670  12.829491
    49  H   10.287251   9.107176  11.625463   7.746787  12.785969
    50  H   11.102590   9.792857  12.349823   8.553454  13.619835
                    6          7          8          9         10
     6  C    0.000000
     7  C    7.674345   0.000000
     8  C    1.531281   8.984312   0.000000
     9  C    9.004748   1.532539  10.236137   0.000000
    10  C    2.525261  10.198904   1.531099  11.522083   0.000000
    11  C   10.231779   2.559340  11.535323   1.530712  12.755555
    12  C    3.908276  11.529517   2.560609  12.795415   1.531445
    13  C   11.549012   3.927386  12.791541   2.555617  14.069388
    14  C    5.083905  12.755954   3.929031  14.077023   2.559061
    15  C   12.782196   5.108351  14.081431   3.917640  15.306278
    16  C    6.392700  14.041446   5.079478  15.313355   3.900502
    17  H    4.239331   4.190728   5.263277   5.243477   6.636293
    18  H    4.181085   4.170030   5.201563   5.213408   6.573713
    19  H    2.804124   5.279433   4.221607   6.685986   5.209420
    20  H    2.764847   5.216947   4.204030   6.623836   5.179685
    21  H    5.200870   2.805290   6.598263   4.248267   7.679521
    22  H    5.288943   2.790381   6.680276   4.229608   7.775903
    23  H    2.154855   6.565391   2.791348   7.703047   4.205849
    24  H    2.158573   6.644513   2.779320   7.793275   4.195080
    25  H    6.554785   2.154161   7.675417   2.833996   9.014115
    26  H    6.610807   2.152318   7.727760   2.818095   9.081409
    27  H    1.097147   7.730523   2.158292   9.102521   2.747775
    28  H    1.097091   7.783891   2.157371   9.167721   2.740222
    29  H    7.773876   1.097569   9.134184   2.150163  10.283937
    30  H    7.739350   1.097502   9.100526   2.151137  10.237874
    31  H    2.162576   9.098187   1.096445  10.277022   2.162313
    32  H    2.161258   9.136439   1.096457  10.326980   2.161128
    33  H    9.110048   2.157405  10.268905   1.096828  11.595006
    34  H    9.165157   2.153181  10.330819   1.096767  11.662772
    35  H    2.736103  10.252153   2.159775  11.621068   1.097139
    36  H    2.751141  10.234276   2.155298  11.590620   1.097165
    37  H   10.283607   2.810832  11.622748   2.158693  12.787882
    38  H   10.283027   2.760532  11.633555   2.154187  12.799814
    39  H    4.191033  11.616625   2.761770  12.823191   2.154734
    40  H    4.205385  11.667381   2.805124  12.890883   2.154306
    41  H   11.639027   4.183578  12.831610   2.763571  14.148475
    42  H   11.679816   4.244955  12.867015   2.806599  14.178916
    43  H    5.208663  12.785721   4.213373  14.131161   2.803667
    44  H    5.213479  12.825907   4.238741  14.187763   2.795577
    45  H   12.889342   5.294455  14.220337   4.254564  15.399979
    46  H   12.850976   5.244952  14.186414   4.225126  15.370497
    47  H   13.683669   6.024371  14.943697   4.711744  16.206798
    48  H    6.604930  14.181724   5.238008  15.421564   4.209754
    49  H    6.600963  14.145019   5.217032  15.368975   4.215058
    50  H    7.234144  14.905979   6.009883  16.212746   4.710056
                   11         12         13         14         15
    11  C    0.000000
    12  C   14.083648   0.000000
    13  C    1.530909  15.350534   0.000000
    14  C   15.311463   1.529155  16.625321   0.000000
    15  C    2.551329  16.632121   1.521070  17.862341   0.000000
    16  C   16.596173   2.519390  17.868218   1.521250  19.145791
    17  H    6.627395   7.790484   7.759467   9.147278   9.105021
    18  H    6.593891   7.733727   7.739829   9.074730   9.095574
    19  H    7.802074   6.610472   9.168010   7.725956  10.320320
    20  H    7.725971   6.599854   9.109304   7.689579  10.263717
    21  H    5.236793   9.074014   6.651733  10.206354   7.758772
    22  H    5.233158   9.159754   6.622122  10.314700   7.724224
    23  H    9.057116   5.262078  10.241984   6.631772  11.580220
    24  H    9.153991   5.235448  10.331283   6.628557  11.663743
    25  H    4.238120  10.217711   5.293148  11.536437   6.671958
    26  H    4.252964  10.276139   5.270863  11.617088   6.650832
    27  H   10.256739   4.188290  11.616303   5.181488  12.799538
    28  H   10.328535   4.169947  11.683305   5.188221  12.861369
    29  H    2.790333  11.650394   4.193788  12.832822   5.205582
    30  H    2.754002  11.610374   4.203552  12.773426   5.218778
    31  H   11.614539   2.807263  12.820894   4.213620  14.147501
    32  H   11.670684   2.788250  12.873762   4.231335  14.195996
    33  H    2.155518  12.817643   2.805412  14.128336   4.231474
    34  H    2.159162  12.885612   2.761258  14.209751   4.173135
    35  H   12.802978   2.153540  14.150106   2.803279  15.341633
    36  H   12.768260   2.155206  14.116555   2.761212  15.313289
    37  H    1.096909  14.146423   2.158310  15.325999   2.802833
    38  H    1.097021  14.162681   2.154008  15.351253   2.756353
    39  H   14.147544   1.097174  15.371068   2.153808  16.687163
    40  H   14.214562   1.097170  15.441832   2.157910  16.749422
    41  H    2.158556  15.389222   1.096425  16.700900   2.140613
    42  H    2.158012  15.419278   1.096462  16.719393   2.145122
    43  H   15.322590   2.162229  16.663066   1.096107  17.868471
    44  H   15.378618   2.161825  16.723394   1.096136  17.920787
    45  H    2.816595  16.753271   2.167330  17.942362   1.094545
    46  H    2.818724  16.723746   2.167773  17.923692   1.094622
    47  H    3.494351  17.501546   2.160773  18.763816   1.094376
    48  H   16.734295   2.781015  17.974821   2.169387  19.274616
    49  H   16.682367   2.780881  17.918164   2.169452  19.225544
    50  H   17.461607   3.470408  18.763992   2.159624  20.012796
                   16         17         18         19         20
    16  C    0.000000
    17  H   10.295633   0.000000
    18  H   10.231619   1.761224   0.000000
    19  H    9.066328   2.489039   3.058527   0.000000
    20  H    9.048181   3.059090   2.513761   1.761335   0.000000
    21  H   11.547891   3.066351   2.521237   3.120453   2.525131
    22  H   11.643886   2.491341   3.061527   2.619172   3.115835
    23  H    7.740197   3.111907   2.512432   3.062069   2.514231
    24  H    7.721565   2.600282   3.096086   2.490296   3.057253
    25  H   12.719750   3.113879   2.494780   4.737384   4.334533
    26  H   12.789341   2.523251   3.014570   4.417770   4.696574
    27  H    6.560756   4.754090   4.357489   3.145276   2.544436
    28  H    6.553339   4.431467   4.714101   2.568884   3.062484
    29  H   14.149462   4.356731   4.688991   5.163665   5.395222
    30  H   14.098561   4.725104   4.375965   5.454423   5.100172
    31  H    5.204496   5.450811   5.096280   4.763790   4.419235
    32  H    5.203709   5.162536   5.396917   4.399227   4.733188
    33  H   15.323482   5.424993   5.100185   7.026546   6.747023
    34  H   15.401984   5.146343   5.409882   6.819242   6.988769
    35  H    4.199657   6.738610   6.901250   5.060936   5.316726
    36  H    4.179142   6.969420   6.677746   5.398786   5.060448
    37  H   16.640545   6.977611   6.712396   7.939629   7.654969
    38  H   16.666757   6.730997   6.919119   7.701044   7.813604
    39  H    2.742989   7.900667   7.654673   6.965212   6.746278
    40  H    2.738133   7.744710   7.895267   6.730699   6.962155
    41  H   17.907156   7.660946   7.841901   9.231116   9.344796
    42  H   17.927802   7.927033   7.709866   9.464344   9.245852
    43  H    2.148858   9.390836   9.143313   7.867833   7.616165
    44  H    2.148472   9.256303   9.342662   7.652692   7.800518
    45  H   19.252855   9.424561   9.248394  10.484839  10.274722
    46  H   19.231810   9.198200   9.357600  10.272738  10.364084
    47  H   20.018918   9.900060   9.895858  11.254519  11.206048
    48  H    1.094579  10.290611  10.385390   9.177741   9.340731
    49  H    1.094689  10.412084  10.205094   9.358786   9.186446
    50  H    1.094487  11.238516  11.165648   9.872182   9.839919
                   21         22         23         24         25
    21  H    0.000000
    22  H    1.765183   0.000000
    23  H    4.363626   4.748662   0.000000
    24  H    4.745208   4.452884   1.761195   0.000000
    25  H    2.497464   3.066712   5.003906   5.396320   0.000000
    26  H    3.062414   2.516092   5.320441   5.119202   1.760811
    27  H    5.066742   5.458833   2.492709   3.060455   6.639243
    28  H    5.381365   5.185385   3.056861   2.508742   6.932202
    29  H    3.109768   2.545506   6.923248   6.768708   3.054524
    30  H    2.575894   3.105601   6.690068   6.986771   2.487990
    31  H    6.729626   7.027940   2.583917   3.113206   7.586008
    32  H    6.964443   6.811198   3.125371   2.562339   7.836076
    33  H    4.450879   4.762593   7.610433   7.899526   2.607750
    34  H    4.785905   4.423073   7.853331   7.744283   3.193068
    35  H    7.773026   7.677474   4.714792   4.371319   9.265416
    36  H    7.583158   7.888307   4.378694   4.717110   9.066256
    37  H    5.131395   5.437048   9.135879   9.403307   4.398478
    38  H    5.366918   5.082888   9.302667   9.236201   4.748256
    39  H    9.175649   9.413617   5.142316   5.394199  10.144918
    40  H    9.359754   9.266126   5.478053   5.145482  10.366745
    41  H    6.977390   6.715558  10.321718  10.259418   5.466824
    42  H    6.825755   7.014979  10.220582  10.458481   5.217182
    43  H   10.138012  10.408635   6.734028   6.970264  11.570654
    44  H   10.297894  10.267837   6.991778   6.776727  11.762103
    45  H    7.749921   7.919631  11.710018  11.924867   6.839042
    46  H    7.884860   7.653697  11.797073  11.747359   7.030831
    47  H    8.716427   8.671491  12.399043  12.479320   7.438192
    48  H   11.799249  11.751975   7.921052   7.691512  12.870150
    49  H   11.659133  11.875761   7.692836   7.863067  12.694147
    50  H   12.358186  12.467054   8.688335   8.681828  13.642361
                   26         27         28         29         30
    26  H    0.000000
    27  H    6.931930   0.000000
    28  H    6.771048   1.761386   0.000000
    29  H    2.502630   7.879830   7.728094   0.000000
    30  H    3.050980   7.639317   7.884428   1.756631   0.000000
    31  H    7.830701   2.505500   3.064587   9.375299   9.180777
    32  H    7.679758   3.064368   2.507049   9.241078   9.379661
    33  H    3.112937   9.167564   9.399879   3.055381   2.516212
    34  H    2.625400   9.390049   9.289680   2.478330   3.052805
    35  H    9.173351   3.053066   2.492419  10.219804  10.317201
    36  H    9.310051   2.516924   3.070570  10.358886  10.155571
    37  H    4.771714  10.191156  10.416316   3.161593   2.556387
    38  H    4.448953  10.338331  10.262788   2.540645   3.027085
    39  H   10.340465   4.389019   4.699174  11.838209  11.677805
    40  H   10.263062   4.728177   4.356729  11.748135  11.848616
    41  H    5.140774  11.808094  11.743367   4.345691   4.706567
    42  H    5.472389  11.716009  11.914018   4.752463   4.435585
    43  H   11.794574   5.072712   5.389919  12.899046  12.709609
    44  H   11.722820   5.360781   5.084396  12.809377  12.860110
    45  H    7.051058  12.813196  12.994863   5.461630   5.174656
    46  H    6.792899  12.897323  12.836660   5.109786   5.411356
    47  H    7.402028  13.729352  13.789429   6.166530   6.193664
    48  H   12.808121   6.942141   6.695673  14.254994  14.321402
    49  H   12.873850   6.720965   6.931762  14.335943  14.185571
    50  H   13.724949   7.319780   7.324332  14.987164  14.924812
                   31         32         33         34         35
    31  H    0.000000
    32  H    1.765465   0.000000
    33  H   10.192439  10.394080   0.000000
    34  H   10.404200  10.305030   1.760925   0.000000
    35  H    3.066093   2.515862  11.795776  11.733582   0.000000
    36  H    2.496349   3.062233  11.630888  11.832375   1.761054
    37  H   11.668160  11.858825   2.485346   3.063092  12.863484
    38  H   11.814282  11.741041   3.057378   2.521560  12.753054
    39  H    2.559311   3.068122  12.751623  12.934021   3.056217
    40  H    3.166546   2.585398  12.945360  12.887905   2.479970
    41  H   12.887993  12.820176   3.111811   2.515415  14.205950
    42  H   12.802638  12.976221   2.610348   3.106651  14.343080
    43  H    4.382200   4.755790  14.151521  14.346961   3.160086
    44  H    4.762594   4.458458  14.322544  14.301146   2.592889
    45  H   14.260628  14.417254   4.465136   4.749770  15.456666
    46  H   14.335891  14.273923   4.775996   4.381050  15.327628
    47  H   14.977927  15.025192   4.898874   4.830612  16.265796
    48  H    5.441541   5.130667  15.460409  15.432750   4.394166
    49  H    5.109547   5.391915  15.300941  15.475138   4.752929
    50  H    6.175440   6.189939  16.242336  16.328758   4.886966
                   36         37         38         39         40
    36  H    0.000000
    37  H   12.706294   0.000000
    38  H   12.838262   1.761072   0.000000
    39  H    2.518164  14.187738  14.310539   0.000000
    40  H    3.057105  14.360615  14.266565   1.760742   0.000000
    41  H   14.279820   3.062288   2.517936  15.427670  15.402609
    42  H   14.199527   2.489369   3.058836  15.361761  15.537045
    43  H    2.556232  15.258674  15.387854   2.500106   3.065644
    44  H    3.078918  15.413208  15.340111   3.062547   2.512154
    45  H   15.328825   2.623838   3.107205  16.790833  16.940676
    46  H   15.402854   3.179287   2.576002  16.849639  16.814616
    47  H   16.237386   3.795556   3.761798  17.527898  17.593301
    48  H    4.729478  16.849342  16.780324   3.107868   2.546311
    49  H    4.405396  16.707205  16.824097   2.551250   3.095724
    50  H    4.851303  17.475979  17.507389   3.745413   3.743718
                   41         42         43         44         45
    41  H    0.000000
    42  H    1.761156   0.000000
    43  H   16.809891  16.731071   0.000000
    44  H   16.782424  16.888074   1.765233   0.000000
    45  H    3.059917   2.503504  17.881649  18.016157   0.000000
    46  H    2.496081   3.063414  17.954909  17.915408   1.774319
    47  H    2.466286   2.469001  18.788528  18.844330   1.772936
    48  H   17.947191  18.058675   3.067098   2.504185  19.442495
    49  H   17.972727  17.910851   2.505225   3.066933  19.317114
    50  H   18.827014  18.840699   2.476205   2.476239  20.093616
                   46         47         48         49         50
    46  H    0.000000
    47  H    1.772885   0.000000
    48  H   19.336316  20.126871   0.000000
    49  H   19.372986  20.074131   1.774858   0.000000
    50  H   20.079243  20.906913   1.771813   1.771951   0.000000
 Stoichiometry    C16H34
 Framework group  C1[X(C16H34)]
 Deg. of freedom   144
 Full point group                 C1      NOp   1
 Largest Abelian subgroup         C1      NOp   1
 Largest concise Abelian subgroup C1      NOp   1
                         Standard orientation:                         
 ---------------------------------------------------------------------
 Center     Atomic      Atomic             Coordinates (Angstroms)
 Number     Number       Type             X           Y           Z
 ---------------------------------------------------------------------
      1          6           0       -0.637320    0.417710    0.121684
      2          6           0        0.646430   -0.418723    0.140622
      3          6           0       -1.912484   -0.429373    0.101988
      4          6           0        1.920903    0.428017    0.084818
      5          6           0       -3.160257    0.452559    0.011188
      6          6           0        3.203359   -0.409368    0.043756
      7          6           0       -4.470645   -0.341091    0.019728
      8          6           0        4.480026    0.435649    0.013950
      9          6           0       -5.755795    0.491376   -0.044014
     10          6           0        5.727606   -0.451494   -0.014054
     11          6           0       -7.027360   -0.359288   -0.094712
     12          6           0        7.038690    0.339950   -0.014395
     13          6           0       -8.311118    0.474618   -0.078952
     14          6           0        8.282985   -0.543033   -0.116297
     15          6           0       -9.578378   -0.366309   -0.055543
     16          6           0        9.556128    0.289455   -0.099712
     17          1           0       -0.650447    1.076774    0.998476
     18          1           0       -0.624338    1.067153   -0.762529
     19          1           0        0.660991   -1.038222    1.045761
     20          1           0        0.637411   -1.106471   -0.714093
     21          1           0       -1.887399   -1.114871   -0.753422
     22          1           0       -1.957916   -1.043884    1.008923
     23          1           0        1.887778    1.073031   -0.801904
     24          1           0        1.949483    1.091022    0.958118
     25          1           0       -3.115042    1.054778   -0.904556
     26          1           0       -3.168212    1.156443    0.852514
     27          1           0        3.178300   -1.059270   -0.839834
     28          1           0        3.226665   -1.067960    0.920866
     29          1           0       -4.500684   -0.960725    0.925161
     30          1           0       -4.460975   -1.036372   -0.829391
     31          1           0        4.470810    1.086924   -0.868064
     32          1           0        4.511084    1.084943    0.896940
     33          1           0       -5.721316    1.139187   -0.928425
     34          1           0       -5.793520    1.151579    0.830976
     35          1           0        5.717595   -1.122329    0.854043
     36          1           0        5.694168   -1.088777   -0.906535
     37          1           0       -7.011379   -0.984039   -0.996178
     38          1           0       -7.034888   -1.042220    0.763776
     39          1           0        7.029749    1.045393   -0.854669
     40          1           0        7.092472    0.941085    0.901862
     41          1           0       -8.308652    1.129457    0.800438
     42          1           0       -8.331434    1.126209   -0.960568
     43          1           0        8.246525   -1.130688   -1.040841
     44          1           0        8.303721   -1.252190    0.719276
     45          1           0       -9.634430   -1.011366   -0.938033
     46          1           0       -9.609538   -1.000530    0.836079
     47          1           0      -10.462718    0.278306   -0.046973
     48          1           0        9.636570    0.865042    0.827829
     49          1           0        9.578878    0.988552   -0.941786
     50          1           0       10.434069   -0.359902   -0.173585
 ---------------------------------------------------------------------
 Rotational constants (GHZ):           5.1862040           0.0630431           0.0626952
 Standard basis: 6-311++G(d,p) (5D, 7F)
 There are   606 symmetry adapted cartesian basis functions of A   symmetry.
 There are   590 symmetry adapted basis functions of A   symmetry.
   590 basis functions,   882 primitive gaussians,   606 cartesian basis functions
    65 alpha electrons       65 beta electrons
       nuclear repulsion energy      1004.0017052754 Hartrees.
 NAtoms=   50 NActive=   50 NUniq=   50 SFac= 1.00D+00 NAtFMM=   60 NAOKFM=F Big=F
 Integral buffers will be    131072 words long.
 Raffenetti 2 integral format.
 Two-electron integral symmetry is turned on.
 R6APFD:  NTU= -4 IXU= 1 FactS= 1.050
 Nuclear repulsion after empirical dispersion term =     1003.9670621683 Hartrees.
 One-electron integrals computed using PRISM.
 NBasis=   590 RedAO= T EigKep=  2.12D-06  NBF=   590
 NBsUse=   589 1.00D-06 EigRej=  4.91D-07 NBFU=   589
 ExpMin= 3.60D-02 ExpMax= 4.56D+03 ExpMxC= 6.82D+02 IAcc=3 IRadAn=         5 AccDes= 0.00D+00
 Harris functional with IExCor= 1009 and IRadAn=       5 diagonalized for initial guess.
 HarFok:  IExCor= 1009 AccDes= 0.00D+00 IRadAn=         5 IDoV= 1 UseB2=F ITyADJ=14
 ICtDFT=  3500011 ScaDFX=  1.000000  1.000000  1.000000  1.000000
 FoFCou: FMM=F IPFlag=           0 FMFlag=      100000 FMFlg1=           0
         NFxFlg=           0 DoJE=T BraDBF=F KetDBF=T FulRan=T
         wScrn=  0.000000 ICntrl=       500 IOpCl=  0 I1Cent=   200000004 NGrid=           0
         NMat0=    1 NMatS0=      1 NMatT0=    0 NMatD0=    1 NMtDS0=    0 NMtDT0=    0
 Petite list used in FoFCou.
 Requested convergence on RMS density matrix=1.00D-08 within  32 cycles.
 Requested convergence on MAX density matrix=1.00D-06.
 Requested convergence on             energy=1.00D-06.
 No special actions if energy rises.
 SCF Done:  E(RM08HX) =  -630.267712723     A.U. after   11 cycles
            NFock= 11  Conv=0.97D-08     -V/T= 2.0060
 QCSCF skips out because SCF is already converged.

 **********************************************************************

            Population analysis using the SCF Density.

 **********************************************************************

 Orbital symmetries:
       Occupied  (A) (A) (A) (A) (A) (A) (A) (A) (A) (A) (A) (A)
                 (A) (A) (A) (A) (A) (A) (A) (A) (A) (A) (A) (A)
                 (A) (A) (A) (A) (A) (A) (A) (A) (A) (A) (A) (A)
                 (A) (A) (A) (A) (A) (A) (A) (A) (A) (A) (A) (A)
                 (A) (A) (A) (A) (A) (A) (A) (A) (A) (A) (A) (A)
                 (A) (A) (A) (A) (A)
       Virtual   (A) (A) (A) (A) (A) (A) (A) (A) (A) (A) (A) (A)
                 (A) (A) (A) (A) (A) (A) (A) (A) (A) (A) (A) (A)
                 (A) (A) (A) (A) (A) (A) (A) (A) (A) (A) (A) (A)
                 (A) (A) (A) (A) (A) (A) (A) (A) (A) (A) (A) (A)
                 (A) (A) (A) (A) (A) (A) (A) (A) (A) (A) (A) (A)
                 (A) (A) (A) (A) (A) (A) (A) (A) (A) (A) (A) (A)
                 (A) (A) (A) (A) (A) (A) (A) (A) (A) (A) (A) (A)
                 (A) (A) (A) (A) (A) (A) (A) (A) (A) (A) (A) (A)
                 (A) (A) (A) (A) (A) (A) (A) (A) (A) (A) (A) (A)
                 (A) (A) (A) (A) (A) (A) (A) (A) (A) (A) (A) (A)
                 (A) (A) (A) (A) (A) (A) (A) (A) (A) (A) (A) (A)
                 (A) (A) (A) (A) (A) (A) (A) (A) (A) (A) (A) (A)
                 (A) (A) (A) (A) (A) (A) (A) (A) (A) (A) (A) (A)
                 (A) (A) (A) (A) (A) (A) (A) (A) (A) (A) (A) (A)
                 (A) (A) (A) (A) (A) (A) (A) (A) (A) (A) (A) (A)
                 (A) (A) (A) (A) (A) (A) (A) (A) (A) (A) (A) (A)
                 (A) (A) (A) (A) (A) (A) (A) (A) (A) (A) (A) (A)
                 (A) (A) (A) (A) (A) (A) (A) (A) (A) (A) (A) (A)
                 (A) (A) (A) (A) (A) (A) (A) (A) (A) (A) (A) (A)
                 (A) (A) (A) (A) (A) (A) (A) (A) (A) (A) (A) (A)
                 (A) (A) (A) (A) (A) (A) (A) (A) (A) (A) (A) (A)
                 (A) (A) (A) (A) (A) (A) (A) (A) (A) (A) (A) (A)
                 (A) (A) (A) (A) (A) (A) (A) (A) (A) (A) (A) (A)
                 (A) (A) (A) (A) (A) (A) (A) (A) (A) (A) (A) (A)
                 (A) (A) (A) (A) (A) (A) (A) (A) (A) (A) (A) (A)
                 (A) (A) (A) (A) (A) (A) (A) (A) (A) (A) (A) (A)
                 (A) (A) (A) (A) (A) (A) (A) (A) (A) (A) (A) (A)
                 (A) (A) (A) (A) (A) (A) (A) (A) (A) (A) (A) (A)
                 (A) (A) (A) (A) (A) (A) (A) (A) (A) (A) (A) (A)
                 (A) (A) (A) (A) (A) (A) (A) (A) (A) (A) (A) (A)
                 (A) (A) (A) (A) (A) (A) (A) (A) (A) (A) (A) (A)
                 (A) (A) (A) (A) (A) (A) (A) (A) (A) (A) (A) (A)
                 (A) (A) (A) (A) (A) (A) (A) (A) (A) (A) (A) (A)
                 (A) (A) (A) (A) (A) (A) (A) (A) (A) (A) (A) (A)
                 (A) (A) (A) (A) (A) (A) (A) (A) (A) (A) (A) (A)
                 (A) (A) (A) (A) (A) (A) (A) (A) (A) (A) (A) (A)
                 (A) (A) (A) (A) (A) (A) (A) (A) (A) (A) (A) (A)
                 (A) (A) (A) (A) (A) (A) (A) (A) (A) (A) (A) (A)
                 (A) (A) (A) (A) (A) (A) (A) (A) (A) (A) (A) (A)
                 (A) (A) (A) (A) (A) (A) (A) (A) (A) (A) (A) (A)
                 (A) (A) (A) (A) (A) (A) (A) (A) (A) (A) (A) (A)
                 (A) (A) (A) (A) (A) (A) (A) (A) (A) (A) (A) (A)
                 (A) (A) (A) (A) (A) (A) (A) (A) (A) (A) (A) (A)
                 (A) (A) (A) (A) (A) (A) (A) (A)
 The electronic state is 1-A.
 Alpha  occ. eigenvalues --  -10.51874 -10.51850 -10.51847 -10.51816 -10.51798
 Alpha  occ. eigenvalues --  -10.51788 -10.51780 -10.51773 -10.51755 -10.51734
 Alpha  occ. eigenvalues --  -10.51716 -10.51715 -10.51701 -10.51673 -10.51083
 Alpha  occ. eigenvalues --  -10.51036  -0.92419  -0.91698  -0.90527  -0.88881
 Alpha  occ. eigenvalues --   -0.86719  -0.84200  -0.81208  -0.77972  -0.74505
 Alpha  occ. eigenvalues --   -0.71056  -0.68109  -0.66369  -0.66101  -0.65935
 Alpha  occ. eigenvalues --   -0.65484  -0.65266  -0.56517  -0.55842  -0.54773
 Alpha  occ. eigenvalues --   -0.53311  -0.51470  -0.50773  -0.50137  -0.49850
 Alpha  occ. eigenvalues --   -0.49418  -0.48194  -0.47784  -0.47144  -0.46116
 Alpha  occ. eigenvalues --   -0.44919  -0.44236  -0.43931  -0.42797  -0.42068
 Alpha  occ. eigenvalues --   -0.40974  -0.40680  -0.40154  -0.39639  -0.39417
 Alpha  occ. eigenvalues --   -0.38726  -0.38648  -0.38294  -0.38237  -0.38153
 Alpha  occ. eigenvalues --   -0.38074  -0.38023  -0.37904  -0.36937  -0.34526
 Alpha virt. eigenvalues --   -0.02792  -0.02412  -0.01824  -0.01817  -0.01756
 Alpha virt. eigenvalues --   -0.01166  -0.01081  -0.00966  -0.00143  -0.00020
 Alpha virt. eigenvalues --    0.00140   0.01164   0.01369   0.01521   0.01736
 Alpha virt. eigenvalues --    0.02353   0.02692   0.03019   0.03079   0.03113
 Alpha virt. eigenvalues --    0.03357   0.03734   0.04445   0.04647   0.04817
 Alpha virt. eigenvalues --    0.04881   0.05022   0.06188   0.06410   0.06588
 Alpha virt. eigenvalues --    0.06996   0.07323   0.07726   0.08008   0.08570
 Alpha virt. eigenvalues --    0.08662   0.09184   0.09570   0.10084   0.10171
 Alpha virt. eigenvalues --    0.10459   0.10915   0.11058   0.11780   0.11889
 Alpha virt. eigenvalues --    0.12106   0.12191   0.12277   0.12521   0.12555
 Alpha virt. eigenvalues --    0.12584   0.12876   0.13164   0.13363   0.13632
 Alpha virt. eigenvalues --    0.13831   0.13932   0.13940   0.14124   0.14208
 Alpha virt. eigenvalues --    0.14350   0.14810   0.15096   0.15296   0.15644
 Alpha virt. eigenvalues --    0.15731   0.15846   0.16331   0.16740   0.16804
 Alpha virt. eigenvalues --    0.17143   0.17200   0.17630   0.17680   0.17695
 Alpha virt. eigenvalues --    0.18049   0.18153   0.18465   0.18648   0.19279
 Alpha virt. eigenvalues --    0.19970   0.20143   0.20347   0.20525   0.20945
 Alpha virt. eigenvalues --    0.21034   0.21174   0.21576   0.21608   0.22261
 Alpha virt. eigenvalues --    0.22513   0.22596   0.22909   0.23536   0.24055
 Alpha virt. eigenvalues --    0.24210   0.24481   0.25056   0.25269   0.25384
 Alpha virt. eigenvalues --    0.25844   0.25984   0.26155   0.26315   0.26918
 Alpha virt. eigenvalues --    0.27273   0.27502   0.27849   0.28061   0.28386
 Alpha virt. eigenvalues --    0.29265   0.29525   0.29870   0.30416   0.30661
 Alpha virt. eigenvalues --    0.31020   0.31165   0.31532   0.31891   0.32246
 Alpha virt. eigenvalues --    0.32542   0.32882   0.33130   0.33412   0.33718
 Alpha virt. eigenvalues --    0.33754   0.34216   0.34296   0.34340   0.34436
 Alpha virt. eigenvalues --    0.34753   0.34916   0.35911   0.36103   0.37212
 Alpha virt. eigenvalues --    0.37225   0.37668   0.38739   0.39989   0.40212
 Alpha virt. eigenvalues --    0.41042   0.41336   0.41646   0.41953   0.43021
 Alpha virt. eigenvalues --    0.44748   0.45330   0.45536   0.45884   0.46528
 Alpha virt. eigenvalues --    0.46897   0.47306   0.47699   0.48118   0.48542
 Alpha virt. eigenvalues --    0.49125   0.50241   0.50858   0.51956   0.53480
 Alpha virt. eigenvalues --    0.54687   0.55837   0.56930   0.57702   0.58343
 Alpha virt. eigenvalues --    0.59656   0.60313   0.61699   0.62807   0.62981
 Alpha virt. eigenvalues --    0.63467   0.65087   0.66998   0.67250   0.67566
 Alpha virt. eigenvalues --    0.67763   0.68056   0.68705   0.68798   0.69120
 Alpha virt. eigenvalues --    0.69410   0.70307   0.70512   0.71002   0.71179
 Alpha virt. eigenvalues --    0.71435   0.71974   0.72311   0.72681   0.72829
 Alpha virt. eigenvalues --    0.72919   0.73302   0.73810   0.74071   0.74468
 Alpha virt. eigenvalues --    0.74632   0.74980   0.75484   0.75751   0.75858
 Alpha virt. eigenvalues --    0.76226   0.76421   0.76961   0.77458   0.77498
 Alpha virt. eigenvalues --    0.78128   0.78354   0.78586   0.78763   0.78827
 Alpha virt. eigenvalues --    0.79005   0.79611   0.79801   0.80351   0.80395
 Alpha virt. eigenvalues --    0.80562   0.80994   0.81452   0.81790   0.81979
 Alpha virt. eigenvalues --    0.82670   0.82820   0.84875   0.85146   0.85662
 Alpha virt. eigenvalues --    0.86082   0.87495   0.91995   0.93642   0.97525
 Alpha virt. eigenvalues --    0.99932   1.00245   1.01147   1.01531   1.03658
 Alpha virt. eigenvalues --    1.03794   1.04773   1.05865   1.06064   1.06361
 Alpha virt. eigenvalues --    1.06874   1.07457   1.08144   1.08947   1.09333
 Alpha virt. eigenvalues --    1.10482   1.13490   1.15803   1.18139   1.23501
 Alpha virt. eigenvalues --    1.24429   1.25097   1.26785   1.28794   1.28994
 Alpha virt. eigenvalues --    1.29481   1.29551   1.30653   1.30758   1.31519
 Alpha virt. eigenvalues --    1.31912   1.32131   1.32442   1.32505   1.32709
 Alpha virt. eigenvalues --    1.32962   1.33753   1.37163   1.42438   1.48667
 Alpha virt. eigenvalues --    1.49813   1.49867   1.50183   1.50655   1.52000
 Alpha virt. eigenvalues --    1.52811   1.55018   1.55394   1.56861   1.58201
 Alpha virt. eigenvalues --    1.59234   1.59399   1.59997   1.60239   1.60631
 Alpha virt. eigenvalues --    1.61432   1.61893   1.62242   1.62582   1.62685
 Alpha virt. eigenvalues --    1.62875   1.63583   1.64772   1.65567   1.65884
 Alpha virt. eigenvalues --    1.66087   1.66505   1.66689   1.68273   1.68504
 Alpha virt. eigenvalues --    1.68693   1.68892   1.69044   1.69384   1.69547
 Alpha virt. eigenvalues --    1.70056   1.70483   1.70748   1.71641   1.71887
 Alpha virt. eigenvalues --    1.72032   1.72527   1.73509   1.75078   1.75577
 Alpha virt. eigenvalues --    1.76357   1.77008   1.77125   1.77395   1.77635
 Alpha virt. eigenvalues --    1.77798   1.78095   1.78441   1.78667   1.79738
 Alpha virt. eigenvalues --    1.81035   1.81536   1.84864   1.85998   1.86247
 Alpha virt. eigenvalues --    1.87167   1.87874   1.88375   1.89334   1.89554
 Alpha virt. eigenvalues --    1.90731   1.91044   1.91634   1.91990   1.94630
 Alpha virt. eigenvalues --    1.95883   1.96673   1.97310   1.97932   1.98575
 Alpha virt. eigenvalues --    2.02816   2.04178   2.07970   2.08179   2.09002
 Alpha virt. eigenvalues --    2.10965   2.11678   2.11948   2.14852   2.16016
 Alpha virt. eigenvalues --    2.17060   2.18356   2.19755   2.20329   2.21804
 Alpha virt. eigenvalues --    2.23032   2.23655   2.24945   2.25664   2.25993
 Alpha virt. eigenvalues --    2.26649   2.27958   2.28169   2.28708   2.29393
 Alpha virt. eigenvalues --    2.30078   2.30513   2.32035   2.34224   2.35245
 Alpha virt. eigenvalues --    2.36225   2.37747   2.38667   2.40089   2.40513
 Alpha virt. eigenvalues --    2.40889   2.41908   2.42479   2.43664   2.43980
 Alpha virt. eigenvalues --    2.44506   2.46814   2.46886   2.47217   2.48957
 Alpha virt. eigenvalues --    2.49237   2.49417   2.50027   2.50845   2.52030
 Alpha virt. eigenvalues --    2.52200   2.54411   2.54940   2.55647   2.55765
 Alpha virt. eigenvalues --    2.57404   2.57762   2.57895   2.57971   2.58779
 Alpha virt. eigenvalues --    2.59418   2.59804   2.61200   2.61297   2.62372
 Alpha virt. eigenvalues --    2.62465   2.63318   2.64107   2.64425   2.64490
 Alpha virt. eigenvalues --    2.65743   2.66336   2.67419   2.67891   2.68225
 Alpha virt. eigenvalues --    2.68665   2.69562   2.69850   2.70109   2.70786
 Alpha virt. eigenvalues --    2.72723   2.73323   2.73576   2.74008   2.75418
 Alpha virt. eigenvalues --    2.75878   2.76268   2.76579   2.78143   2.78856
 Alpha virt. eigenvalues --    2.78984   2.79995   2.81255   2.81447   2.81935
 Alpha virt. eigenvalues --    2.82417   2.84524   2.85480   2.85571   2.88301
 Alpha virt. eigenvalues --    2.88366   2.88768   2.91370   2.91717   2.92463
 Alpha virt. eigenvalues --    2.93030   2.93354   2.93709   2.94183   2.94749
 Alpha virt. eigenvalues --    2.94973   2.96307   2.97197   2.97826   3.11134
 Alpha virt. eigenvalues --    3.12675   3.14507   3.15278   3.16926   3.17620
 Alpha virt. eigenvalues --    3.20002   3.22315   3.28615   3.34852   3.40048
 Alpha virt. eigenvalues --    3.44504   3.48416   3.52093   3.55495   3.57723
 Alpha virt. eigenvalues --    3.80276   3.80468   3.81166   3.81906   3.82638
 Alpha virt. eigenvalues --    3.83929   3.84438   3.85187   3.85345   3.85413
 Alpha virt. eigenvalues --    3.86382   3.86730   3.86985   3.89611   3.92602
 Alpha virt. eigenvalues --    3.94748   3.96727   3.99441   4.09576   4.10647
 Alpha virt. eigenvalues --    4.12088   4.13580   4.15637   4.19024   4.22317
 Alpha virt. eigenvalues --    4.26477   4.30903   4.35168   4.39879   4.43550
 Alpha virt. eigenvalues --    4.46557   4.48359   4.50369  23.94532  23.94688
 Alpha virt. eigenvalues --   23.95110  23.95440  23.95575  23.96316  23.96392
 Alpha virt. eigenvalues --   23.96501  23.97198  23.97738  23.98544  23.98873
 Alpha virt. eigenvalues --   23.99440  23.99625  24.04423  24.04542
          Condensed to atoms (all electrons):
               1          2          3          4          5          6
     1  C    8.780119  -1.479316  -1.382111   0.103877  -0.270081   0.437039
     2  C   -1.479316   9.149065   0.207576  -1.465317   0.537446   0.031164
     3  C   -1.382111   0.207576   8.875496   0.406519  -0.882599  -0.476921
     4  C    0.103877  -1.465317   0.406519   9.328143  -0.650609  -1.403329
     5  C   -0.270081   0.537446  -0.882599  -0.650609   9.280990   0.293579
     6  C    0.437039   0.031164  -0.476921  -1.403329   0.293579   8.703452
     7  C    0.268043  -0.731811  -0.326245   0.319225  -2.141996  -0.021624
     8  C   -0.550689   0.046844   0.260640  -0.110333  -0.023348  -1.382329
     9  C   -0.395059   0.083644  -0.310254  -0.009540   0.241928   0.013211
    10  C    0.156487  -0.520075  -0.020403  -0.130007   0.016330  -0.027542
    11  C    0.082611  -0.044224  -0.551872   0.013671  -0.501495   0.000292
    12  C   -0.033638   0.065026   0.014217  -0.579425   0.000482  -0.329946
    13  C   -0.011843   0.000649  -0.051554   0.000473  -0.352940   0.000127
    14  C    0.001710  -0.012563   0.000579  -0.062660   0.000135  -0.362946
    15  C    0.000469  -0.000150  -0.014176   0.000058  -0.018875   0.000002
    16  C   -0.000118   0.000531   0.000064  -0.014991   0.000002  -0.014275
    17  H    0.496866  -0.059371  -0.065078   0.002055   0.013770   0.005494
    18  H    0.526603  -0.184116  -0.160754   0.030192   0.042590   0.028885
    19  H   -0.104801   0.425374   0.022192  -0.100753   0.017862   0.025501
    20  H   -0.131635   0.578300   0.024673  -0.144890   0.017588   0.035729
    21  H   -0.098751  -0.013241   0.511920   0.025258  -0.140042  -0.005652
    22  H   -0.133537   0.029147   0.476956   0.004952  -0.082589   0.003565
    23  H   -0.008094  -0.113140   0.021751   0.522918  -0.004890  -0.141889
    24  H    0.024634  -0.156728   0.004242   0.476740   0.003684  -0.074651
    25  H   -0.048502   0.039799  -0.056202  -0.019152   0.563138   0.003383
    26  H    0.078042  -0.028027  -0.178068   0.019310   0.444897  -0.004706
    27  H    0.027275  -0.060339  -0.009362  -0.140087   0.004910   0.509266
    28  H   -0.009471   0.086942   0.005585  -0.090214  -0.006305   0.516303
    29  H   -0.009944   0.009888   0.074189  -0.006147  -0.025317   0.001464
    30  H    0.029341  -0.015259  -0.014545   0.003649  -0.124321  -0.001344
    31  H   -0.013202   0.035894   0.002206   0.040330  -0.001836  -0.029664
    32  H    0.009785  -0.009210  -0.004450   0.016181   0.001904  -0.105030
    33  H    0.005272  -0.000071   0.017041  -0.000016   0.070978  -0.000029
    34  H   -0.008996   0.000879   0.015717  -0.000097  -0.014225   0.000147
    35  H   -0.001210  -0.004616   0.000533   0.014024   0.000133   0.023058
    36  H    0.001217  -0.001851  -0.000284   0.011927   0.000068   0.012207
    37  H   -0.003794   0.000995   0.003285  -0.000068  -0.012244   0.000062
    38  H    0.002835  -0.000475  -0.004290   0.000212   0.016537  -0.000063
    39  H    0.000993  -0.003409  -0.000081   0.003144   0.000065  -0.008596
    40  H   -0.000544   0.002241   0.000236  -0.004636  -0.000054   0.008102
    41  H    0.000168   0.000014   0.001096  -0.000017   0.006609  -0.000000
    42  H    0.000690  -0.000088  -0.001573   0.000010   0.004572  -0.000004
    43  H   -0.000178   0.001028   0.000023  -0.000883  -0.000007   0.009382
    44  H    0.000082  -0.000114  -0.000040   0.001220   0.000001   0.005212
    45  H   -0.000009   0.000003   0.000640  -0.000002  -0.000333  -0.000000
    46  H   -0.000017  -0.000002  -0.000295   0.000001  -0.002639   0.000000
    47  H   -0.000017  -0.000002  -0.000367   0.000002  -0.001819   0.000000
    48  H    0.000003  -0.000023  -0.000001   0.000337   0.000000  -0.001911
    49  H    0.000002  -0.000023  -0.000001   0.000114   0.000000  -0.001898
    50  H    0.000001  -0.000016   0.000002  -0.000509   0.000000  -0.002128
               7          8          9         10         11         12
     1  C    0.268043  -0.550689  -0.395059   0.156487   0.082611  -0.033638
     2  C   -0.731811   0.046844   0.083644  -0.520075  -0.044224   0.065026
     3  C   -0.326245   0.260640  -0.310254  -0.020403  -0.551872   0.014217
     4  C    0.319225  -0.110333  -0.009540  -0.130007   0.013671  -0.579425
     5  C   -2.141996  -0.023348   0.241928   0.016330  -0.501495   0.000482
     6  C   -0.021624  -1.382329   0.013211  -0.027542   0.000292  -0.329946
     7  C    9.361189   0.027065  -1.188693   0.000897   0.305039   0.000458
     8  C    0.027065   8.488984   0.001171  -0.869119   0.000358   0.173739
     9  C   -1.188693   0.001171   7.965319   0.000268  -0.678970   0.000016
    10  C    0.000897  -0.869119   0.000268   7.966401   0.000012  -0.887865
    11  C    0.305039   0.000358  -0.678970   0.000012   7.809573   0.000002
    12  C    0.000458   0.173739   0.000016  -0.887865   0.000002   7.965619
    13  C   -0.318365   0.000010   0.102527   0.000001  -0.915937   0.000000
    14  C    0.000013  -0.385058   0.000001   0.029950   0.000000  -0.832600
    15  C   -0.161919   0.000001  -0.159866   0.000000   0.267970   0.000000
    16  C    0.000001  -0.147588   0.000000  -0.190512   0.000000   0.259023
    17  H   -0.008433  -0.013448  -0.010301  -0.001720  -0.003479  -0.000676
    18  H    0.051774   0.005006  -0.000333  -0.000510   0.002893   0.001308
    19  H    0.011619   0.034659   0.002059   0.007468   0.001171   0.002802
    20  H   -0.015830   0.003343  -0.002938  -0.014751  -0.000479  -0.002674
    21  H    0.042654   0.001014   0.018862   0.001345  -0.003363   0.000072
    22  H    0.026333  -0.000848   0.024842   0.000160  -0.000840  -0.000030
    23  H   -0.001133   0.043309   0.000889   0.025063  -0.000041  -0.002085
    24  H    0.001268   0.037337   0.000930   0.025042   0.000098   0.001833
    25  H   -0.155377  -0.000757   0.039764   0.000172  -0.001115  -0.000047
    26  H   -0.055203   0.002372   0.024728  -0.000037   0.032259   0.000040
    27  H    0.001492  -0.089900   0.000310   0.078206   0.000033   0.028675
    28  H   -0.000131  -0.118331  -0.000264  -0.027872  -0.000042   0.003648
    29  H    0.488561  -0.000201  -0.125338   0.000014  -0.038077  -0.000002
    30  H    0.563314   0.000155  -0.140823  -0.000068   0.053655   0.000002
    31  H    0.000077   0.513814  -0.000071  -0.156396  -0.000001  -0.018241
    32  H   -0.000140   0.508145   0.000012  -0.090272   0.000000   0.023852
    33  H   -0.083741  -0.000015   0.479109  -0.000002  -0.141869   0.000000
    34  H   -0.076662  -0.000033   0.518816   0.000002  -0.104319  -0.000000
    35  H    0.000007  -0.054744   0.000005   0.504226   0.000000  -0.130653
    36  H   -0.000053  -0.102426  -0.000002   0.517166  -0.000000  -0.110621
    37  H    0.017143   0.000000  -0.067556   0.000001   0.467848   0.000000
    38  H    0.013435   0.000004  -0.100881  -0.000001   0.499241   0.000000
    39  H    0.000000   0.040485   0.000001  -0.083538   0.000000   0.479701
    40  H    0.000005  -0.010166  -0.000000  -0.081595   0.000000   0.493955
    41  H    0.021316  -0.000000   0.018598  -0.000000  -0.077021  -0.000000
    42  H   -0.017186   0.000000   0.002631  -0.000000  -0.062186  -0.000000
    43  H    0.000000   0.003453  -0.000000   0.006650   0.000000  -0.065318
    44  H   -0.000000   0.007234  -0.000000   0.022029  -0.000000  -0.074015
    45  H    0.007114  -0.000000  -0.014017  -0.000000  -0.021872  -0.000000
    46  H   -0.012216   0.000000  -0.021124   0.000000  -0.054252   0.000000
    47  H    0.002637   0.000000   0.016911   0.000000   0.058941   0.000000
    48  H   -0.000000   0.000519  -0.000000  -0.021923  -0.000000  -0.028939
    49  H   -0.000000  -0.006454  -0.000000  -0.022249  -0.000000  -0.040430
    50  H    0.000000   0.001013   0.000000   0.017627   0.000000   0.060314
              13         14         15         16         17         18
     1  C   -0.011843   0.001710   0.000469  -0.000118   0.496866   0.526603
     2  C    0.000649  -0.012563  -0.000150   0.000531  -0.059371  -0.184116
     3  C   -0.051554   0.000579  -0.014176   0.000064  -0.065078  -0.160754
     4  C    0.000473  -0.062660   0.000058  -0.014991   0.002055   0.030192
[...]
 8,-0.13369788,-0.00084903,-0.00000012,-0.00000032,0.,-0.00000066,0.000
 00045,0.00000008,-0.00000067,0.00000047,-0.00000007,0.00000022,0.00000
 023,0.00000078,0.00000022,0.00000022,-0.00000077,-0.00000028,0.0000004
 2,-0.00000325,-0.00000028,0.00000042,0.00000326,-0.00000014,0.00000019
 ,0.00000026,-0.00000014,0.00000018,-0.00000025,-0.00000256,0.00000084,
 -0.00000369,-0.00000251,0.00000076,0.00000372,0.00000016,0.,-0.0000002
 5,0.00000016,0.00000001,0.00000025,-0.00000735,-0.00000385,0.00001866,
 -0.00000716,-0.00000362,-0.00001871,-0.00000002,0.00000012,0.00000022,
 -0.00000002,0.00000012,-0.00000022,-0.00007388,0.00003737,-0.00003336,
 -0.00007441,0.00003752,0.00003394,0.00000011,-0.00000004,0.00000011,0.
 00000011,-0.00000005,-0.00000010,0.00016281,0.00002062,-0.00026590,0.0
 0015560,0.00001143,0.00026387,0.00000002,0.00000013,0.00000015,0.00000
 003,0.00000012,-0.00000015,-0.00078386,0.00068119,0.00019710,-0.000791
 57,0.00068208,-0.00018751,0.00000002,-0.00000001,-0.00000005,0.0000000
 2,0.,0.00000005,-0.01439157,-0.01071635,-0.00176726,-0.01405760,-0.010
 52092,0.00155775,0.13395425,0.14226031,0.00000006,0.00000004,-0.000000
 18,0.,-0.00000002,-0.00000261,0.00000014,-0.00000013,-0.00001332,0.,0.
 ,0.00000567,0.00000036,0.00000046,0.00001493,0.,0.00000001,0.00000057,
 0.00000121,-0.00000145,-0.00000831,0.,-0.00000002,-0.00000156,0.000005
 04,0.00000161,0.00059599,0.,0.00000002,0.00000160,0.00001720,-0.000015
 36,0.00024431,0.,-0.00000002,-0.00000055,0.00011669,0.00008667,-0.0014
 3124,0.,0.,-0.00000010,-0.00115110,-0.00084983,-0.04621929,0.,0.,0.000
 00043,0.,0.00000011,-0.00000061,0.,-0.00000010,-0.00000059,0.,-0.00000
 030,-0.00000010,0.,0.00000031,-0.00000011,0.00000064,0.00000089,0.0000
 0031,-0.00000063,-0.00000087,0.00000034,0.00000008,-0.00000022,-0.0000
 0021,-0.00000009,0.00000022,-0.00000023,0.00000089,-0.00000170,-0.0000
 0257,-0.00000097,0.00000171,-0.00000257,0.00000004,0.00000020,-0.00000
 012,-0.00000004,-0.00000020,-0.00000011,0.00000114,-0.00000431,0.00000
 415,-0.00000121,0.00000432,0.00000401,0.00000008,-0.00000011,-0.000000
 16,-0.00000008,0.00000011,-0.00000017,-0.00007510,0.00004372,-0.000019
 49,0.00007434,-0.00004327,-0.00001970,0.,-0.00000014,-0.00000010,0.,0.
 00000014,-0.00000011,-0.00030625,-0.00031367,0.00021710,0.00030832,0.0
 0031165,0.00022523,0.00000003,-0.00000013,-0.00000009,-0.00000003,0.00
 000013,-0.00000010,-0.00028974,-0.00024667,-0.00006115,0.00028006,0.00
 025782,-0.00005692,0.,0.00000010,-0.00000007,0.,-0.00000010,-0.0000000
 6,0.02222002,0.01442977,0.00075922,-0.02243950,-0.01460008,0.00050770,
 0.00123840,0.00093869,0.04526108,0.00000205,-0.00000415,-0.00000020,0.
 00000144,0.00000801,-0.00000101,0.00000043,0.00000314,0.00000030,0.000
 00502,-0.00001158,-0.00000215,0.00000072,-0.00000197,-0.00000043,0.000
 02136,0.00002338,0.00000522,0.00000025,0.00000170,-0.00000020,0.000041
 79,-0.00009847,0.00008816,0.00000050,-0.00000104,0.00000017,-0.0001380
 6,0.00009491,0.00013410,0.00000007,0.00000098,-0.00000011,0.00189216,0
 .00078936,-0.00120070,0.00000007,-0.00000059,-0.00000001,-0.00169149,0
 .01650059,-0.02406545,0.00000018,0.00000034,0.00000004,-0.04600009,0.0
 0236300,-0.00401711,-0.00000085,-0.00000031,0.00000070,-0.00000022,0.0
 0000025,-0.00000017,0.00000016,-0.00000039,-0.00000109,0.00000114,-0.0
 0000122,0.00000196,0.00000026,-0.00000050,0.00000076,0.,-0.00000020,-0
 .00000050,-0.00000033,0.00000024,-0.00000029,-0.00000272,-0.00000106,0
 .00000179,-0.00000006,0.00000011,-0.00000007,-0.00000023,-0.00000006,0
 .00000021,0.00000899,-0.00000499,0.00000661,0.00000026,0.00000072,-0.0
 0000407,-0.00000004,-0.00000013,-0.00000025,0.00000006,-0.00000023,0.0
 0000032,-0.00000218,0.00000223,-0.00000290,-0.00005398,-0.00003516,0.0
 0001798,-0.00000006,0.00000004,-0.00000005,-0.00000014,0.,0.00000008,0
 .00003930,0.00000687,-0.00003020,0.00011443,-0.00020751,0.00018496,0.0
 0000003,-0.00000013,0.00000017,0.,-0.00000010,-0.00000015,-0.00001796,
 -0.00009791,0.00002444,-0.00050869,-0.00051130,0.00067007,-0.00000003,
 0.00000003,0.00000005,-0.00000001,0.00000003,-0.00000004,-0.00454256,0
 .00309276,0.00013837,0.00102378,-0.00055859,0.00038556,-0.00000009,-0.
 00000015,0.00000011,-0.00000010,-0.00000015,-0.00000011,0.00000050,0.0
 0000010,0.,0.05011797,0.00000218,-0.00000784,0.00000057,0.00000363,0.0
 0001126,0.00000175,0.00000166,0.00000505,-0.00000006,0.00000498,-0.000
 01777,0.00000273,0.00000105,-0.00000364,0.00000138,-0.00000043,0.00002
 387,0.00001129,0.00000072,0.00000251,0.00000129,0.00000893,-0.00000501
 ,-0.00005766,0.00000057,-0.00000202,0.00000005,-0.00001273,0.00010584,
 -0.00022657,0.00000038,0.00000143,0.00000037,-0.00107996,0.00040479,-0
 .00038097,0.00000002,-0.00000104,0.00000025,0.00084441,-0.01210056,0.0
 1616978,0.00000031,0.00000055,0.00000014,0.00265465,-0.13295181,0.1226
 1354,0.00000050,0.00000174,-0.00000136,-0.00000049,-0.00000003,-0.0000
 0009,0.00000036,-0.00000216,-0.00000109,-0.00000112,0.00000040,-0.0000
 0129,-0.00000052,0.00000025,-0.00000055,0.00000006,-0.00000099,-0.0000
 0054,-0.00000099,0.00000014,-0.00000024,0.00000102,0.00000442,-0.00000
 263,-0.00000021,-0.00000006,-0.00000004,0.00000016,0.00000084,-0.00000
 070,-0.00000378,-0.00000178,-0.00000379,0.00000179,-0.00000675,-0.0000
 0257,0.00000001,-0.00000052,-0.00000031,-0.00000023,0.00000016,-0.0000
 0031,-0.00000354,0.00000276,0.00000069,0.00003291,0.00002321,-0.000002
 99,-0.00000015,-0.00000007,-0.00000005,0.00000006,0.00000049,-0.000000
 41,0.00001124,-0.00006340,-0.00000098,-0.00020001,0.00006473,-0.000072
 19,-0.00000013,0.00000012,-0.00000018,0.,-0.00000032,-0.00000020,0.000
 07707,0.00001202,-0.00009750,0.00053062,0.00057071,-0.00010262,0.,0.00
 000031,-0.00000025,-0.00000003,-0.00000006,-0.00000004,0.00352321,-0.0
 0129969,-0.00059088,-0.00045641,-0.00011072,-0.00014852,-0.00000015,-0
 .00000007,-0.00000008,-0.00000015,-0.00000035,-0.00000016,0.00000078,0
 .00000018,0.00000008,-0.00708150,0.14392743,-0.00000091,0.00000560,-0.
 00000154,-0.00000472,-0.00000669,-0.00000040,-0.00000178,-0.00000236,-
 0.00000085,-0.00000622,0.00001599,-0.00000643,-0.00000018,0.00000246,-
 0.00000023,-0.00002106,-0.00002930,0.00000391,-0.00000079,-0.00000098,
 -0.00000031,-0.00006161,0.00006859,-0.00003087,-0.00000010,0.00000128,
 -0.00000063,-0.00016785,-0.00030189,0.00029683,-0.00000042,-0.00000048
 ,-0.00000022,0.00025819,-0.00017662,0.00012436,0.00000010,0.00000071,-
 0.00000024,0.00004411,-0.00065347,0.00088702,-0.00000027,-0.00000019,-
 0.00000011,-0.00453271,0.12286233,-0.22072473,-0.00000079,-0.00000143,
 0.00000255,-0.00000019,0.,-0.00000123,0.00000053,0.00000041,-0.0000005
 3,0.00000180,-0.00000181,0.00000209,0.00000072,-0.00000085,0.00000117,
 0.00000027,0.00000021,-0.00000037,-0.00000023,0.00000012,-0.00000291,-
 0.00000196,-0.00000275,0.00000657,-0.00000005,0.,-0.00000058,-0.000000
 36,-0.00000077,0.00000129,0.00000560,-0.00000464,0.00000313,0.00000220
 ,0.00000099,-0.00000144,0.00000010,0.00000012,-0.00000021,0.00000033,-
 0.00000048,0.00000068,-0.00000293,-0.00000070,-0.00001063,-0.00001454,
 -0.00000460,0.00002373,-0.00000003,0.,-0.00000033,-0.00000015,-0.00000
 044,0.00000074,0.00002431,-0.00000866,-0.00002538,0.00017720,-0.000064
 69,-0.00001491,0.00000017,-0.00000028,0.00000047,0.00000006,0.00000009
 ,-0.00000014,-0.00000235,0.00011168,-0.00010517,-0.00068535,-0.0000950
 8,0.00008572,-0.00000003,-0.00000030,0.00000048,0.,0.,-0.00000021,0.00
 030754,-0.00027071,0.00153138,-0.00053229,0.00006800,0.00064639,0.0000
 0011,-0.00000008,0.00000026,0.00000011,0.00000016,-0.00000006,-0.00000
 046,-0.00000015,-0.00000007,0.00520959,-0.13558084,0.23669053,0.000002
 06,-0.00000417,0.00000018,0.00000143,0.00000802,0.00000092,0.00000044,
 0.00000314,-0.00000034,0.00000503,-0.00001155,0.00000223,0.00000072,-0
 .00000198,0.00000044,0.00002133,0.00002328,-0.00000561,0.00000025,0.00
 000170,0.00000022,0.00004219,-0.00009973,-0.00008674,0.00000050,-0.000
 00104,-0.00000020,-0.00013860,0.00009117,-0.00013287,0.00000007,0.0000
 0097,0.00000013,0.00188826,0.00081032,0.00118139,0.00000006,-0.0000005
 9,0.,-0.00159126,0.01689234,0.02380912,0.00000018,0.00000034,-0.000000
 04,-0.04601339,0.00182462,0.00321931,-0.00000023,0.00000023,0.00000018
 ,-0.00000085,-0.00000030,-0.00000068,0.00000115,-0.00000120,-0.0000019
 5,0.00000016,-0.00000040,0.00000110,0.,-0.00000020,0.00000051,0.000000
 25,-0.00000049,-0.00000075,-0.00000269,-0.00000105,-0.00000176,-0.0000
 0035,0.00000021,0.00000030,-0.00000023,-0.00000005,-0.00000020,-0.0000
 0006,0.00000010,0.00000007,0.00000030,0.00000075,0.00000409,0.00000898
 ,-0.00000501,-0.00000656,0.00000005,-0.00000023,-0.00000032,-0.0000000
 3,-0.00000014,0.00000026,-0.00005390,-0.00003530,-0.00001740,-0.000002
 43,0.00000216,0.00000291,-0.00000014,0.,-0.00000008,-0.00000006,0.0000
 0004,0.00000005,0.00011355,-0.00020918,-0.00018232,0.00004019,0.000007
 15,0.00003044,0.,-0.00000010,0.00000015,0.00000003,-0.00000013,-0.0000
 0017,-0.00050732,-0.00051763,-0.00066083,-0.00001813,-0.00010032,-0.00
 002236,-0.00000001,0.00000003,0.00000004,-0.00000003,0.00000003,-0.000
 00005,0.00102204,-0.00056452,-0.00037958,-0.00454301,0.00309346,-0.000
 16370,-0.00000010,-0.00000015,0.00000011,-0.00000009,-0.00000015,-0.00
 000011,0.00000050,0.00000010,0.00000001,-0.00140486,-0.00029652,-0.000
 08873,0.05013718,0.00000219,-0.00000793,-0.00000064,0.00000372,0.00001
 135,-0.00000174,0.00000170,0.00000507,0.00000009,0.00000508,-0.0000180
 7,-0.00000281,0.00000105,-0.00000368,-0.00000141,-0.00000017,0.0000241
 6,-0.00001121,0.00000074,0.00000252,-0.00000127,0.00001022,-0.00000577
 ,0.00005652,0.00000056,-0.00000204,-0.00000008,-0.00000848,0.00011396,
 0.00023118,0.00000040,0.00000144,-0.00000035,-0.00108556,0.00041561,0.
 00037784,0.00000002,-0.00000106,-0.00000027,0.00077096,-0.01234548,-0.
 01595771,0.00000032,0.00000055,-0.00000012,0.00212904,-0.13687377,-0.1
 2394544,-0.00000048,-0.00000001,0.00000006,0.00000052,0.00000176,0.000
 00142,-0.00000114,0.00000043,0.00000133,0.00000033,-0.00000215,0.00000
 104,0.00000004,-0.00000099,0.00000050,-0.00000053,0.00000027,0.0000005
 8,0.00000109,0.00000449,0.00000273,-0.00000098,0.00000016,0.00000018,0
 .00000017,0.00000086,0.00000074,-0.00000020,-0.00000005,0.00000002,0.0
 0000171,-0.00000675,0.00000252,-0.00000383,-0.00000167,0.00000386,-0.0
 0000024,0.00000017,0.00000033,0.,-0.00000052,0.00000028,0.00003318,0.0
 0002334,0.00000307,-0.00000349,0.00000284,-0.00000082,0.00000006,0.000
 00049,0.00000044,-0.00000014,-0.00000007,0.00000003,-0.00020285,0.0000
 6659,0.00007167,0.00001054,-0.00006321,0.00000087,0.,-0.00000032,0.000
 00018,-0.00000013,0.00000012,0.00000019,0.00054176,0.00057328,0.000094
 11,0.00007848,0.00001166,0.00009556,-0.00000003,-0.00000005,0.00000003
 ,0.,0.00000031,0.00000026,-0.00044669,-0.00011097,0.00016226,0.0035159
 4,-0.00128480,0.00062188,-0.00000015,-0.00000035,0.00000015,-0.0000001
 5,-0.00000007,0.00000008,0.00000079,0.00000019,-0.00000007,-0.00022124
 ,0.01192604,0.01561038,-0.00650752,0.14826463,0.00000085,-0.00000545,-
 0.00000151,0.00000466,0.00000644,-0.00000041,0.00000175,0.00000225,-0.
 00000081,0.00000609,-0.00001566,-0.00000618,0.00000015,-0.00000239,-0.
 00000018,0.00002104,0.00002876,0.00000377,0.00000078,0.00000092,-0.000
 00028,0.00006155,-0.00006843,-0.00003080,0.00000009,-0.00000123,-0.000
 00062,0.00017095,0.00030344,0.00028789,0.00000041,0.00000045,-0.000000
 19,-0.00024954,0.00017191,0.00011535,-0.00000010,-0.00000069,-0.000000
 24,-0.00003975,0.00079173,0.00102755,0.00000026,0.00000018,-0.00000010
 ,0.00373580,-0.12419022,-0.21660728,0.00000021,0.00000003,-0.00000127,
 0.00000079,0.00000139,0.00000253,-0.00000177,0.00000180,0.00000207,-0.
 00000057,-0.00000033,-0.00000058,-0.00000028,-0.00000017,-0.00000040,-
 0.00000071,0.00000083,0.00000117,0.00000197,0.00000269,0.00000650,0.00
 000026,-0.00000011,-0.00000298,0.00000036,0.00000074,0.00000128,0.0000
 0006,0.00000003,-0.00000061,-0.00000229,-0.00000081,-0.00000153,-0.000
 00553,0.00000470,0.00000306,-0.00000033,0.00000047,0.00000068,-0.00000
 011,-0.00000009,-0.00000024,0.00001433,0.00000457,0.00002362,0.0000029
 8,0.00000052,-0.00001081,0.00000015,0.00000042,0.00000074,0.00000004,0
 .00000002,-0.00000034,-0.00017431,0.00006428,-0.00001561,-0.00002542,0
 .00000982,-0.00002563,-0.00000006,-0.00000007,-0.00000016,-0.00000017,
 0.00000027,0.00000047,0.00067855,0.00008918,0.00008218,0.00000180,-0.0
 0011334,-0.00010633,0.00000001,0.,-0.00000022,0.00000003,0.00000028,0.
 00000048,0.00053712,-0.00005441,0.00064192,-0.00033761,0.00029960,0.00
 151945,-0.00000011,-0.00000015,-0.00000008,-0.00000011,0.00000008,0.00
 000026,0.00000045,0.00000014,-0.00000007,0.00000974,-0.01612930,-0.019
 85666,-0.00428772,0.13700714,0.23216265,-0.00001489,0.00003872,0.,-0.0
 0002646,-0.00006749,0.00000017,-0.00000766,-0.00002449,0.,-0.00006179,
 0.00012780,-0.00000033,-0.00000489,0.00001538,0.00000006,-0.00014205,-
 0.00027949,0.00000144,-0.00000316,-0.00001106,-0.00000005,-0.00040925,
 0.00065957,-0.00000352,-0.00000199,0.00000758,0.00000004,-0.00084062,-
 0.00175487,0.00001426,-0.00000167,-0.00000577,-0.00000004,-0.00340319,
 0.00561970,-0.00003451,0.,0.00000387,0.00000003,-0.01998951,-0.0171154
 6,0.00018097,-0.00000140,-0.00000223,-0.00000002,-0.22463470,-0.124302
 25,0.00138759,0.00000116,-0.00000198,0.00000161,0.00000115,-0.00000200
 ,-0.00000162,0.00000088,0.00000379,0.00000464,0.00000092,0.00000377,-0
 .00000465,0.00000040,0.00000171,-0.00000184,0.00000039,0.00000171,0.00
 000185,0.00000267,-0.00000519,-0.00000571,0.00000277,-0.00000510,0.000
 00573,0.00000052,-0.00000090,-0.00000064,0.00000051,-0.00000090,0.0000
 0062,0.00000548,0.00000865,-0.00001479,0.00000528,0.00000883,0.0000147
 0,0.00000023,0.00000083,0.00000091,0.00000023,0.00000083,-0.00000090,0
 .00001814,-0.00001224,-0.00002827,0.00001873,-0.00001168,0.00002844,0.
 00000031,-0.00000045,-0.00000027,0.00000030,-0.00000045,0.00000026,-0.
 00000811,0.00004481,0.00010242,-0.00000711,0.00004326,-0.00010326,0.00
 000013,0.00000052,-0.00000054,0.00000014,0.00000051,0.00000054,0.00028
 709,0.00008818,-0.00011721,0.00029000,0.00009069,0.00011592,0.00000010
 ,-0.00000028,0.00000008,0.00000011,-0.00000028,-0.00000009,0.00052797,
 0.00002793,-0.00067522,0.00052218,0.00004161,0.00067136,0.00000050,0.0
 0000079,-0.00000045,0.00000050,0.00000078,0.00000046,-0.00000271,-0.00
 000068,0.,0.00109184,0.00143574,0.00009602,0.00099088,0.00137339,-0.00
 012675,0.24578966,0.00000301,-0.00000489,-0.00000001,0.00000998,0.0000
 1202,-0.00000004,0.00000126,0.00000108,0.00000003,0.00002807,-0.000036
 48,0.00000002,-0.00000012,-0.00000052,0.00000002,0.00007810,0.00009779
 ,-0.00000040,0.00000012,-0.00000047,-0.00000001,0.00027692,-0.00030349
 ,0.00000131,-0.00000049,0.00000047,0.00000002,0.00095655,0.00091683,-0
 .00000344,-0.00000006,-0.00000075,0.,0.00249645,-0.00253066,0.00001515
 ,-0.00000005,0.00000049,0.,0.01747809,0.01305622,-0.00015127,-0.000000
 12,-0.00000032,0.,-0.12540680,-0.13369869,0.00102071,0.00000022,0.0000
 0023,-0.00000078,0.00000022,0.00000022,0.00000077,-0.00000066,0.000000
 45,-0.00000008,-0.00000067,0.00000047,0.00000007,-0.00000014,0.0000001
 9,-0.00000026,-0.00000014,0.00000018,0.00000025,-0.00000028,0.00000042
 ,0.00000325,-0.00000029,0.00000042,-0.00000326,0.00000016,0.,0.0000002
 5,0.00000016,0.00000001,-0.00000025,-0.00000256,0.00000084,0.00000369,
 -0.00000251,0.00000076,-0.00000372,-0.00000002,0.00000012,0.00000022,-
 0.00000002,0.00000012,-0.00000022,-0.00000714,-0.00000361,0.00001872,-
 0.00000737,-0.00000385,-0.00001865,0.00000011,-0.00000005,0.00000010,0
 .00000011,-0.00000004,-0.00000011,-0.00007449,0.00003753,-0.00003389,-
 0.00007380,0.00003735,0.00003341,0.00000002,0.00000013,-0.00000015,0.0
 0000003,0.00000012,0.00000015,0.00016315,0.00002084,0.00026585,0.00015
 528,0.00001121,-0.00026391,0.00000002,0.,-0.00000005,0.00000002,-0.000
 00001,0.00000005,-0.00079139,0.00068239,0.00018790,-0.00078406,0.00068
 085,-0.00019671,0.00000010,0.00000019,-0.00000014,0.00000010,0.0000001
 8,0.00000015,-0.00000068,-0.00000012,0.,-0.01404814,-0.01051457,-0.001
 53785,-0.01440054,-0.01072250,0.00178778,0.13395428,0.14226092,0.,-0.0
 0000002,-0.00000261,-0.00000004,0.00000002,-0.00000018,0.,0.00000002,0
 .00000567,-0.00000011,0.00000002,-0.00001332,0.,-0.00000003,0.00000057
 ,-0.00000025,-0.00000023,0.00001493,0.,0.00000003,-0.00000156,-0.00000
 096,0.00000096,-0.00000831,0.,-0.00000002,0.00000160,-0.00000412,-0.00
 000009,0.00059600,0.,0.00000002,-0.00000055,-0.00001535,0.00001108,0.0
 0024435,0.,0.,-0.00000010,-0.00010665,-0.00007595,-0.00143118,0.,0.,0.
 00000043,0.00139662,0.00102075,-0.04622281,0.,0.00000031,-0.00000010,0
 .,-0.00000031,-0.00000011,0.,-0.00000011,-0.00000062,0.,0.00000010,-0.
 00000059,-0.00000008,0.00000021,-0.00000021,0.00000009,-0.00000022,-0.
 00000023,-0.00000064,-0.00000088,0.00000032,0.00000063,0.00000088,0.00
 000034,-0.00000004,-0.00000020,-0.00000012,0.00000004,0.00000020,-0.00
 000011,-0.00000090,0.00000169,-0.00000256,0.00000096,-0.00000172,-0.00
 000258,0.00000008,-0.00000011,-0.00000017,-0.00000008,0.00000011,-0.00
 000015,0.00000120,-0.00000430,0.00000403,-0.00000115,0.00000433,0.0000
 0414,0.,-0.00000014,-0.00000011,0.,0.00000014,-0.00000010,-0.00007432,
 0.00004321,-0.00001972,0.00007513,-0.00004378,-0.00001947,-0.00000003,
 0.00000013,-0.00000009,0.00000003,-0.00000013,-0.00000010,0.00030610,0
 .00031367,0.00021678,-0.00030844,-0.00031167,0.00022557,0.,0.00000010,
 -0.00000006,0.,-0.00000010,-0.00000007,-0.00028039,-0.00025812,-0.0000
 5570,0.00028940,0.00024636,-0.00006237,-0.00000001,0.00000007,-0.00000
 007,0.,-0.00000008,-0.00000007,0.,0.,-0.00000005,0.02244581,0.01460404
 ,0.00047808,-0.02221311,-0.01442559,0.00078852,-0.00150946,-0.00112465
 ,0.04526482\\-0.00000220,0.00000267,0.00000053,-0.00000077,-0.00000258
 ,0.00000059,0.00000006,-0.00000329,0.00000036,0.00000013,0.00000250,0.
 00000031,0.00000327,0.00000207,-0.00000040,0.00000079,-0.00000281,-0.0
 0000019,-0.00000097,-0.00000047,0.00000014,-0.00000026,0.00000356,-0.0
 0000045,-0.00000232,0.00000131,-0.00000007,-0.00000211,-0.00000259,0.0
 0000017,0.00000117,-0.00000101,-0.00000121,0.00000079,0.00000160,0.000
 00031,-0.00000067,0.00000102,-0.00000146,0.00000315,-0.00000300,0.0000
 0064,0.00000075,-0.00000050,0.00000023,-0.00000177,0.00000096,-0.00000
 027,0.00000017,-0.00000052,-0.00000060,0.00000029,-0.00000034,0.000000
 15,0.00000019,0.00000054,-0.00000034,0.,-0.00000034,-0.00000036,-0.000
 00017,0.00000083,0.00000032,0.00000012,0.00000026,-0.00000045,-0.00000
 004,-0.00000032,-0.00000008,-0.00000042,-0.00000009,-0.00000015,-0.000
 00010,0.00000013,0.00000024,-0.00000066,-0.00000018,-0.00000013,-0.000
 00029,0.00000061,0.00000060,0.00000011,-0.00000004,-0.00000037,0.00000
 033,0.00000001,-0.00000002,-0.00000005,0.00000001,0.00000005,0.0000000
 7,-0.00000052,0.00000046,-0.00000015,-0.00000074,-0.00000028,0.0000006
 4,0.00000018,0.00000014,0.00000007,-0.00000012,0.00000004,0.00000022,0
 .00000025,-0.00000031,-0.00000003,0.00000019,0.00000024,-0.00000092,-0
 .00000007,0.00000046,-0.00000026,0.00000048,0.00000008,0.00000059,-0.0
 0000007,-0.00000009,0.00000028,-0.00000024,-0.00000011,0.00000011,0.00
 000122,0.00000056,-0.00000013,-0.00000036,0.00000108,-0.00000029,-0.00
 000038,-0.00000007,-0.00000010,-0.00000006,-0.00000040,0.00000018,0.00
 000069,0.00000029,-0.00000002,0.00000001,0.00000020,0.00000034,0.00000
 038,-0.00000043,-0.00000007,-0.00000058,-0.00000060,0.00000050,-0.0000
 0017,0.00000028,0.00000046,-0.00000014,0.00000034\\\@


 TRUTH, IN SCIENCE, CAN BE DEFINED AS THE WORKING HYPOTHESIS 
 BEST FITTED TO OPEN THE WAY TO THE NEXT BETTER ONE.

                              -- KONRAD LORENZ
 Job cpu time:       0 days 17 hours 43 minutes 16.1 seconds.
 Elapsed time:       0 days  1 hours  6 minutes 43.0 seconds.
 File lengths (MBytes):  RWF=   1339 Int=      0 D2E=      0 Chk=     30 Scr=      1
 Normal termination of Gaussian 16 at Sat Sep 20 03:47:57 2025.
