 Entering Gaussian System, Link 0=g16
 Input=HEDI0121.gjf
 Output=HEDI0121.log
 Initial command:
 /usr/local/g16/l1.exe "/dados_01/scratch/Gau-2104255.inp" -scrdir="/dados_01/scratch/"
 Entering Link 1 = /usr/local/g16/l1.exe PID=   2104256.
  
 Copyright (c) 1988-2017, Gaussian, Inc.  All Rights Reserved.
  
 This is part of the Gaussian(R) 16 program.  It is based on
 the Gaussian(R) 09 system (copyright 2009, Gaussian, Inc.),
 the Gaussian(R) 03 system (copyright 2003, Gaussian, Inc.),
 the Gaussian(R) 98 system (copyright 1998, Gaussian, Inc.),
 the Gaussian(R) 94 system (copyright 1995, Gaussian, Inc.),
 the Gaussian 92(TM) system (copyright 1992, Gaussian, Inc.),
 the Gaussian 90(TM) system (copyright 1990, Gaussian, Inc.),
 the Gaussian 88(TM) system (copyright 1988, Gaussian, Inc.),
 the Gaussian 86(TM) system (copyright 1986, Carnegie Mellon
 University), and the Gaussian 82(TM) system (copyright 1983,
 Carnegie Mellon University). Gaussian is a federally registered
 trademark of Gaussian, Inc.
  
 This software contains proprietary and confidential information,
 including trade secrets, belonging to Gaussian, Inc.
  
 This software is provided under written license and may be
 used, copied, transmitted, or stored only in accord with that
 written license.
  
 The following legend is applicable only to US Government
 contracts under FAR:
  
                    RESTRICTED RIGHTS LEGEND
  
 Use, reproduction and disclosure by the US Government is
 subject to restrictions as set forth in subparagraphs (a)
 and (c) of the Commercial Computer Software - Restricted
 Rights clause in FAR 52.227-19.
  
 Gaussian, Inc.
 340 Quinnipiac St., Bldg. 40, Wallingford CT 06492
  
  
 ---------------------------------------------------------------
 Warning -- This program may not be used in any manner that
 competes with the business of Gaussian, Inc. or will provide
 assistance to any competitor of Gaussian, Inc.  The licensee
 of this program is prohibited from giving any competitor of
 Gaussian, Inc. access to this program.  By using this program,
 the user acknowledges that Gaussian, Inc. is engaged in the
 business of creating and licensing software in the field of
 computational chemistry and represents and warrants to the
 licensee that it is not a competitor of Gaussian, Inc. and that
 it will not use this program in any manner prohibited above.
 ---------------------------------------------------------------
  

 Cite this work as:
 Gaussian 16, Revision B.01,
 M. J. Frisch, G. W. Trucks, H. B. Schlegel, G. E. Scuseria, 
 M. A. Robb, J. R. Cheeseman, G. Scalmani, V. Barone, 
 G. A. Petersson, H. Nakatsuji, X. Li, M. Caricato, A. V. Marenich, 
 J. Bloino, B. G. Janesko, R. Gomperts, B. Mennucci, H. P. Hratchian, 
 J. V. Ortiz, A. F. Izmaylov, J. L. Sonnenberg, D. Williams-Young, 
 F. Ding, F. Lipparini, F. Egidi, J. Goings, B. Peng, A. Petrone, 
 T. Henderson, D. Ranasinghe, V. G. Zakrzewski, J. Gao, N. Rega, 
 G. Zheng, W. Liang, M. Hada, M. Ehara, K. Toyota, R. Fukuda, 
 J. Hasegawa, M. Ishida, T. Nakajima, Y. Honda, O. Kitao, H. Nakai, 
 T. Vreven, K. Throssell, J. A. Montgomery, Jr., J. E. Peralta, 
 F. Ogliaro, M. J. Bearpark, J. J. Heyd, E. N. Brothers, K. N. Kudin, 
 V. N. Staroverov, T. A. Keith, R. Kobayashi, J. Normand, 
 K. Raghavachari, A. P. Rendell, J. C. Burant, S. S. Iyengar, 
 J. Tomasi, M. Cossi, J. M. Millam, M. Klene, C. Adamo, R. Cammi, 
 J. W. Ochterski, R. L. Martin, K. Morokuma, O. Farkas, 
 J. B. Foresman, and D. J. Fox, Gaussian, Inc., Wallingford CT, 2016.
 
 ******************************************
 Gaussian 16:  ES64L-G16RevB.01 20-Dec-2017
                20-Sep-2025 
 ******************************************
 %nprocs=16
 Will use up to   16 processors via shared memory.
 %mem=40GB
 %chk=HEDI0121.chk
 ----------------------------------------------------------------------
 # opt freq=noraman M08HX/6-311++G** scf=xqc Empiricaldispersion=pfd In
 t(Grid=ultraFine)
 ----------------------------------------------------------------------
 1/18=20,19=15,26=4,38=1/1,3;
 2/9=110,12=2,17=6,18=5,40=1/2;
 3/5=4,6=6,7=1111,11=2,25=1,30=1,71=1,74=-74,75=-5,124=11/1,2,3;
 4//1;
 5/5=2,8=3,13=1,38=5/2,8;
 6/7=2,8=2,9=2,10=2,28=1/1;
 7//1,2,3,16;
 1/18=20,19=15,26=4/3(2);
 2/9=110/2;
 99//99;
 2/9=110/2;
 3/5=4,6=6,7=1111,11=2,25=1,30=1,71=1,74=-74,75=-5,124=11/1,2,3;
 4/5=5,16=3,69=1/1;
 5/5=2,8=3,13=1,38=5/2,8;
 7//1,2,3,16;
 1/18=20,19=15,26=4/3(-5);
 2/9=110/2;
 6/7=2,8=2,9=2,10=2,19=2,28=1/1;
 99/9=1/99;
 --------
 HEDI0121
 --------
 Symbolic Z-matrix:
 Charge =  0 Multiplicity = 1
 C                    -3.3489    0.0001   -0.0001 
 C                     3.3489    0.0001   -0.0001 
 C                    -1.8866    0.        0. 
 C                     1.8866   -0.0001    0.0001 
 C                    -0.686    -0.0001    0.0001 
 C                     0.6861    0.        0.0001 
 H                    -3.7381   -0.8857   -0.511 
 H                    -3.7382    0.0006    1.0224 
 H                    -3.7381    0.8854   -0.5119 
 H                     3.7379    0.3377   -0.9654 
 H                     3.7382   -1.0047    0.19 
 H                     3.7382    0.6671    0.7749 
 

 GradGradGradGradGradGradGradGradGradGradGradGradGradGradGradGradGradGrad
 Berny optimization.
 Initialization pass.
                           ----------------------------
                           !    Initial Parameters    !
                           ! (Angstroms and Degrees)  !
 --------------------------                            --------------------------
 ! Name  Definition              Value          Derivative Info.                !
 --------------------------------------------------------------------------------
 ! R1    R(1,3)                  1.4623         estimate D2E/DX2                !
 ! R2    R(1,7)                  1.0941         estimate D2E/DX2                !
 ! R3    R(1,8)                  1.0941         estimate D2E/DX2                !
 ! R4    R(1,9)                  1.0942         estimate D2E/DX2                !
 ! R5    R(2,4)                  1.4623         estimate D2E/DX2                !
 ! R6    R(2,10)                 1.0941         estimate D2E/DX2                !
 ! R7    R(2,11)                 1.0942         estimate D2E/DX2                !
 ! R8    R(2,12)                 1.0941         estimate D2E/DX2                !
 ! R9    R(3,5)                  1.2006         estimate D2E/DX2                !
 ! R10   R(4,6)                  1.2005         estimate D2E/DX2                !
 ! R11   R(5,6)                  1.3721         estimate D2E/DX2                !
 ! A1    A(3,1,7)              110.8358         estimate D2E/DX2                !
 ! A2    A(3,1,8)              110.8396         estimate D2E/DX2                !
 ! A3    A(3,1,9)              110.8422         estimate D2E/DX2                !
 ! A4    A(7,1,8)              108.0704         estimate D2E/DX2                !
 ! A5    A(7,1,9)              108.0656         estimate D2E/DX2                !
 ! A6    A(8,1,9)              108.0719         estimate D2E/DX2                !
 ! A7    A(4,2,10)             110.8363         estimate D2E/DX2                !
 ! A8    A(4,2,11)             110.832          estimate D2E/DX2                !
 ! A9    A(4,2,12)             110.8426         estimate D2E/DX2                !
 ! A10   A(10,2,11)            108.0669         estimate D2E/DX2                !
 ! A11   A(10,2,12)            108.0791         estimate D2E/DX2                !
 ! A12   A(11,2,12)            108.0688         estimate D2E/DX2                !
 ! A13   L(1,3,5,7,-1)         179.9997         estimate D2E/DX2                !
 ! A14   L(2,4,6,10,-1)        179.9884         estimate D2E/DX2                !
 ! A15   L(3,5,6,9,-1)         179.9899         estimate D2E/DX2                !
 ! A16   L(4,6,5,10,-1)        180.003          estimate D2E/DX2                !
 ! A17   L(1,3,5,7,-2)         180.0024         estimate D2E/DX2                !
 ! A18   L(2,4,6,10,-2)        180.0193         estimate D2E/DX2                !
 ! A19   L(3,5,6,9,-2)         179.9989         estimate D2E/DX2                !
 ! A20   L(4,6,5,10,-2)        179.9734         estimate D2E/DX2                !
 ! D1    D(7,1,2,10)            79.3016         estimate D2E/DX2                !
 ! D2    D(7,1,2,11)           -40.6882         estimate D2E/DX2                !
 ! D3    D(7,1,2,12)          -160.6917         estimate D2E/DX2                !
 ! D4    D(8,1,2,10)          -160.6954         estimate D2E/DX2                !
 ! D5    D(8,1,2,11)            79.3147         estimate D2E/DX2                !
 ! D6    D(8,1,2,12)           -40.6888         estimate D2E/DX2                !
 ! D7    D(9,1,2,10)           -40.6908         estimate D2E/DX2                !
 ! D8    D(9,1,2,11)          -160.6807         estimate D2E/DX2                !
 ! D9    D(9,1,2,12)            79.3158         estimate D2E/DX2                !
 --------------------------------------------------------------------------------
 Trust Radius=3.00D-01 FncErr=1.00D-07 GrdErr=1.00D-06 EigMax=2.50D+02 EigMin=1.00D-04
 Number of steps in this run=     50 maximum allowed number of steps=    100.
 GradGradGradGradGradGradGradGradGradGradGradGradGradGradGradGradGradGrad

                          Input orientation:                          
 ---------------------------------------------------------------------
 Center     Atomic      Atomic             Coordinates (Angstroms)
 Number     Number       Type             X           Y           Z
 ---------------------------------------------------------------------
      1          6           0       -3.348900    0.000100   -0.000100
      2          6           0        3.348900    0.000100   -0.000100
      3          6           0       -1.886600    0.000000    0.000000
      4          6           0        1.886600   -0.000100    0.000100
      5          6           0       -0.686000   -0.000100    0.000100
      6          6           0        0.686100    0.000000    0.000100
      7          1           0       -3.738100   -0.885700   -0.511000
      8          1           0       -3.738200    0.000600    1.022400
      9          1           0       -3.738100    0.885400   -0.511900
     10          1           0        3.737900    0.337700   -0.965400
     11          1           0        3.738200   -1.004700    0.190000
     12          1           0        3.738200    0.667100    0.774900
 ---------------------------------------------------------------------
                    Distance matrix (angstroms):
                    1          2          3          4          5
     1  C    0.000000
     2  C    6.697800   0.000000
     3  C    1.462300   5.235500   0.000000
     4  C    5.235500   1.462300   3.773200   0.000000
     5  C    2.662900   4.034900   1.200600   2.572600   0.000000
     6  C    4.035000   2.662800   2.572700   1.200500   1.372100
     7  H    1.094138   7.160393   2.115098   5.716884   3.218824
     8  H    1.094103   7.160481   2.115118   5.716946   3.218854
     9  H    1.094154   7.160396   2.115190   5.716949   3.218939
    10  H    7.160203   1.094120   5.716733   2.115091   4.540616
    11  H    7.160499   1.094219   5.716983   2.115114   4.540796
    12  H    7.160482   1.094106   5.716981   2.115158   4.540817
                    6          7          8          9         10
     6  C    0.000000
     7  H    4.540841   0.000000
     8  H    4.540873   1.771114   0.000000
     9  H    4.540883   1.771100   1.771143   0.000000
    10  H    3.218651   7.589055   7.743194   7.509741   0.000000
    11  H    3.218819   7.510035   7.589471   7.743397   1.771154
    12  H    3.218797   7.743371   7.510129   7.589372   1.771200
                   11         12
    11  H    0.000000
    12  H    1.771164   0.000000
 This structure is nearly, but not quite of a higher symmetry.
 Consider Symm=Loose if the higher symmetry is desired.
 Stoichiometry    C6H6
 Framework group  C1[X(C6H6)]
 Deg. of freedom    30
 Full point group                 C1      NOp   1
 Largest Abelian subgroup         C1      NOp   1
 Largest concise Abelian subgroup C1      NOp   1
                         Standard orientation:                         
 ---------------------------------------------------------------------
 Center     Atomic      Atomic             Coordinates (Angstroms)
 Number     Number       Type             X           Y           Z
 ---------------------------------------------------------------------
      1          6           0       -3.348156    0.001434   -0.071131
      2          6           0        3.348136   -0.001615    0.070949
      3          6           0       -1.886187    0.000868   -0.040011
      4          6           0        1.886161   -0.000749    0.040130
      5          6           0       -0.685860    0.000422   -0.014443
      6          6           0        0.685933   -0.000203    0.014563
      7          1           0       -3.756292   -0.509280    0.806214
      8          1           0       -3.736892    1.024111   -0.079889
      9          1           0       -3.718722   -0.510197   -0.964488
     10          1           0        3.743770   -0.967095   -0.258323
     11          1           0        3.716120    0.188317    1.083782
     12          1           0        3.751850    0.773201   -0.587642
 ---------------------------------------------------------------------
 Rotational constants (GHZ):          79.9269665           1.1142989           1.1142985
 Standard basis: 6-311++G(d,p) (5D, 7F)
 There are   180 symmetry adapted cartesian basis functions of A   symmetry.
 There are   174 symmetry adapted basis functions of A   symmetry.
   174 basis functions,   270 primitive gaussians,   180 cartesian basis functions
    21 alpha electrons       21 beta electrons
       nuclear repulsion energy       170.3498388469 Hartrees.
 NAtoms=   12 NActive=   12 NUniq=   12 SFac= 1.00D+00 NAtFMM=   60 NAOKFM=F Big=F
 Integral buffers will be    131072 words long.
 Raffenetti 2 integral format.
 Two-electron integral symmetry is turned on.
 R6APFD:  NTU= -4 IXU= 1 FactS= 1.050
 Nuclear repulsion after empirical dispersion term =      170.3476790424 Hartrees.
 One-electron integrals computed using PRISM.
 NBasis=   174 RedAO= T EigKep=  3.89D-06  NBF=   174
 NBsUse=   171 1.00D-06 EigRej=  3.82D-08 NBFU=   171
 ExpMin= 3.60D-02 ExpMax= 4.56D+03 ExpMxC= 6.82D+02 IAcc=3 IRadAn=         5 AccDes= 0.00D+00
 Harris functional with IExCor= 1009 and IRadAn=       5 diagonalized for initial guess.
 HarFok:  IExCor= 1009 AccDes= 0.00D+00 IRadAn=         5 IDoV= 1 UseB2=F ITyADJ=14
 ICtDFT=  3500011 ScaDFX=  1.000000  1.000000  1.000000  1.000000
 FoFCou: FMM=F IPFlag=           0 FMFlag=      100000 FMFlg1=           0
         NFxFlg=           0 DoJE=T BraDBF=F KetDBF=T FulRan=T
         wScrn=  0.000000 ICntrl=       500 IOpCl=  0 I1Cent=   200000004 NGrid=           0
         NMat0=    1 NMatS0=      1 NMatT0=    0 NMatD0=    1 NMtDS0=    0 NMtDT0=    0
 Petite list used in FoFCou.
 Keep R1 ints in memory in canonical form, NReq=132074265.
 Requested convergence on RMS density matrix=1.00D-08 within  32 cycles.
 Requested convergence on MAX density matrix=1.00D-06.
 Requested convergence on             energy=1.00D-06.
 No special actions if energy rises.
 SCF Done:  E(RM08HX) =  -232.128441266     A.U. after   12 cycles
            NFock= 12  Conv=0.12D-08     -V/T= 2.0048
 QCSCF skips out because SCF is already converged.

 **********************************************************************

            Population analysis using the SCF Density.

 **********************************************************************

 Orbital symmetries:
       Occupied  (A) (A) (A) (A) (A) (A) (A) (A) (A) (A) (A) (A)
                 (A) (A) (A) (A) (A) (A) (A) (A) (A)
       Virtual   (A) (A) (A) (A) (A) (A) (A) (A) (A) (A) (A) (A)
                 (A) (A) (A) (A) (A) (A) (A) (A) (A) (A) (A) (A)
                 (A) (A) (A) (A) (A) (A) (A) (A) (A) (A) (A) (A)
                 (A) (A) (A) (A) (A) (A) (A) (A) (A) (A) (A) (A)
                 (A) (A) (A) (A) (A) (A) (A) (A) (A) (A) (A) (A)
                 (A) (A) (A) (A) (A) (A) (A) (A) (A) (A) (A) (A)
                 (A) (A) (A) (A) (A) (A) (A) (A) (A) (A) (A) (A)
                 (A) (A) (A) (A) (A) (A) (A) (A) (A) (A) (A) (A)
                 (A) (A) (A) (A) (A) (A) (A) (A) (A) (A) (A) (A)
                 (A) (A) (A) (A) (A) (A) (A) (A) (A) (A) (A) (A)
                 (A) (A) (A) (A) (A) (A) (A) (A) (A) (A) (A) (A)
                 (A) (A) (A) (A) (A) (A) (A) (A) (A) (A) (A) (A)
                 (A) (A) (A) (A) (A) (A)
 The electronic state is 1-A.
 Alpha  occ. eigenvalues --  -10.55271 -10.55270 -10.54049 -10.54046 -10.53452
 Alpha  occ. eigenvalues --  -10.53380  -0.91210  -0.88626  -0.83638  -0.78946
 Alpha  occ. eigenvalues --   -0.66808  -0.54123  -0.52919  -0.50793  -0.50790
 Alpha  occ. eigenvalues --   -0.50446  -0.50443  -0.39865  -0.39865  -0.29512
 Alpha  occ. eigenvalues --   -0.29512
 Alpha virt. eigenvalues --   -0.02408  -0.01940   0.00819   0.00819   0.01738
 Alpha virt. eigenvalues --    0.01738   0.02587   0.02717   0.02717   0.04127
 Alpha virt. eigenvalues --    0.07197   0.07198   0.07499   0.07503   0.07973
 Alpha virt. eigenvalues --    0.07974   0.08593   0.10386   0.10387   0.11811
 Alpha virt. eigenvalues --    0.12104   0.14454   0.17670   0.17671   0.18447
 Alpha virt. eigenvalues --    0.18517   0.18519   0.21226   0.21226   0.23547
 Alpha virt. eigenvalues --    0.25161   0.25165   0.26636   0.26658   0.27079
 Alpha virt. eigenvalues --    0.27083   0.28990   0.30737   0.40663   0.42812
 Alpha virt. eigenvalues --    0.46820   0.46823   0.48241   0.48243   0.49933
 Alpha virt. eigenvalues --    0.50940   0.58437   0.58437   0.58841   0.65376
 Alpha virt. eigenvalues --    0.65377   0.65596   0.65597   0.65849   0.65850
 Alpha virt. eigenvalues --    0.71689   0.71843   0.73809   0.73810   0.75059
 Alpha virt. eigenvalues --    0.79462   0.81307   0.81310   0.89041   0.90454
 Alpha virt. eigenvalues --    0.92500   0.97118   1.04037   1.04038   1.10676
 Alpha virt. eigenvalues --    1.14680   1.14686   1.18908   1.22173   1.22178
 Alpha virt. eigenvalues --    1.25711   1.25716   1.29982   1.36282   1.36284
 Alpha virt. eigenvalues --    1.43066   1.47217   1.47220   1.47830   1.47833
 Alpha virt. eigenvalues --    1.56134   1.56137   1.59098   1.59100   1.61408
 Alpha virt. eigenvalues --    1.61665   1.61666   1.71188   1.71190   1.76859
 Alpha virt. eigenvalues --    1.76861   1.80981   1.90790   1.90792   1.92765
 Alpha virt. eigenvalues --    2.08498   2.08500   2.15112   2.24432   2.26062
 Alpha virt. eigenvalues --    2.26066   2.29308   2.40529   2.44546   2.44547
 Alpha virt. eigenvalues --    2.44784   2.49949   2.49952   2.50965   2.50970
 Alpha virt. eigenvalues --    2.55157   2.55159   2.55929   2.63259   2.63266
 Alpha virt. eigenvalues --    2.78597   2.88612   2.88617   2.89206   2.90525
 Alpha virt. eigenvalues --    2.90532   2.91032   3.04458   3.10190   3.10193
 Alpha virt. eigenvalues --    3.10638   3.10639   3.19988   3.19992   3.29449
 Alpha virt. eigenvalues --    3.44319   3.67211   3.82788   3.82802   3.84144
 Alpha virt. eigenvalues --    3.84156   3.96060   3.99885   4.46949  23.38223
 Alpha virt. eigenvalues --   23.79985  23.99679  24.04338  24.91383  25.49739
          Condensed to atoms (all electrons):
               1          2          3          4          5          6
     1  C    7.983668  -0.007140  -2.465309   0.055159   0.265781  -0.235366
     2  C   -0.007140   7.984470   0.055151  -2.466082  -0.235532   0.265948
     3  C   -2.465309   0.055151   9.245763  -0.168507   0.174021  -0.262585
     4  C    0.055159  -2.466082  -0.168507   9.247222  -0.262664   0.173383
     5  C    0.265781  -0.235532   0.174021  -0.262664   5.978623  -0.537765
     6  C   -0.235366   0.265948  -0.262585   0.173383  -0.537765   5.978813
     7  H    0.403967   0.000039  -0.055136   0.001746   0.008742  -0.003647
     8  H    0.404003   0.000039  -0.055181   0.001750   0.008765  -0.003649
     9  H    0.403937   0.000041  -0.055208   0.001754   0.008815  -0.003638
    10  H    0.000039   0.404015   0.001747  -0.055177  -0.003653   0.008739
    11  H    0.000041   0.403950   0.001755  -0.055242  -0.003638   0.008812
    12  H    0.000039   0.403972   0.001750  -0.055170  -0.003647   0.008772
               7          8          9         10         11         12
     1  C    0.403967   0.404003   0.403937   0.000039   0.000041   0.000039
     2  C    0.000039   0.000039   0.000041   0.404015   0.403950   0.403972
     3  C   -0.055136  -0.055181  -0.055208   0.001747   0.001755   0.001750
     4  C    0.001746   0.001750   0.001754  -0.055177  -0.055242  -0.055170
     5  C    0.008742   0.008765   0.008815  -0.003653  -0.003638  -0.003647
     6  C   -0.003647  -0.003649  -0.003638   0.008739   0.008812   0.008772
     7  H    0.523624  -0.043820  -0.043835   0.000006   0.000002   0.000006
     8  H   -0.043820   0.523606  -0.043822   0.000006   0.000006   0.000003
     9  H   -0.043835  -0.043822   0.523648   0.000002   0.000006   0.000006
    10  H    0.000006   0.000006   0.000002   0.523597  -0.043843  -0.043786
    11  H    0.000002   0.000006   0.000006  -0.043843   0.523720  -0.043849
    12  H    0.000006   0.000003   0.000006  -0.043786  -0.043849   0.523601
 Mulliken charges:
               1
     1  C   -0.808819
     2  C   -0.808871
     3  C   -0.418260
     4  C   -0.418170
     5  C    0.602151
     6  C    0.602184
     7  H    0.208307
     8  H    0.208294
     9  H    0.208294
    10  H    0.208307
    11  H    0.208279
    12  H    0.208303
 Sum of Mulliken charges =  -0.00000
 Mulliken charges with hydrogens summed into heavy atoms:
               1
     1  C   -0.183924
     2  C   -0.183981
     3  C   -0.418260
     4  C   -0.418170
     5  C    0.602151
     6  C    0.602184
 Electronic spatial extent (au):  <R**2>=           1044.5885
 Charge=              0.0000 electrons
 Dipole moment (field-independent basis, Debye):
    X=             -0.0001    Y=             -0.0004    Z=             -0.0003  Tot=              0.0005
 Quadrupole moment (field-independent basis, Debye-Ang):
   XX=            -19.3300   YY=            -37.0712   ZZ=            -37.0638
   XY=             -0.0082   XZ=              0.3763   YZ=             -0.0002
 Traceless Quadrupole moment (field-independent basis, Debye-Ang):
   XX=             11.8250   YY=             -5.9162   ZZ=             -5.9088
   XY=             -0.0082   XZ=              0.3763   YZ=             -0.0002
 Octapole moment (field-independent basis, Debye-Ang**2):
  XXX=             -0.0065  YYY=              0.3656  ZZZ=              0.6642  XYY=              0.0149
  XXY=             -0.0025  XXZ=             -0.0025  XZZ=             -0.0140  YZZ=             -0.3677
  YYZ=             -0.6664  XYZ=              0.0068
 Hexadecapole moment (field-independent basis, Debye-Ang**3):
 XXXX=          -1146.9832 YYYY=            -55.4053 ZZZZ=            -55.7600 XXXY=              0.2209
 XXXZ=            -10.0020 YYYX=             -4.2858 YYYZ=             -0.0874 ZZZX=            -10.6527
 ZZZY=              0.2950 XXYY=           -225.1216 XXZZ=           -225.3598 YYZZ=            -18.6753
 XXYZ=             -0.1969 YYXZ=             -6.9040 ZZXY=              4.6496
 N-N= 1.703476790424D+02 E-N=-8.783888349553D+02  KE= 2.310148882402D+02
 R6APFD:  NTU= -4 IXU= 1 FactS= 1.050
 Calling FoFJK, ICntrl=      2127 FMM=F ISym2X=0 I1Cent= 0 IOpClX= 0 NMat=1 NMatS=1 NMatT=0.
 ***** Axes restored to original set *****
 -------------------------------------------------------------------
 Center     Atomic                   Forces (Hartrees/Bohr)
 Number     Number              X              Y              Z
 -------------------------------------------------------------------
      1        6           0.004001196    0.000009956   -0.000037081
      2        6          -0.003984484   -0.000093705    0.000006087
      3        6          -0.015242608    0.000005114    0.000001413
      4        6           0.015456482    0.000021955   -0.000004635
      5        6           0.008293384    0.000020771   -0.000004713
      6        6          -0.008510140   -0.000026802    0.000005261
      7        1          -0.000182157   -0.001227966   -0.000698688
      8        1          -0.000183870   -0.000000050    0.001437385
      9        1          -0.000162672    0.001217745   -0.000700126
     10        1           0.000176449    0.000485215   -0.001337526
     11        1           0.000166553   -0.001342487    0.000250676
     12        1           0.000171867    0.000930256    0.001081945
 -------------------------------------------------------------------
 Cartesian Forces:  Max     0.015456482 RMS     0.004270320

 GradGradGradGradGradGradGradGradGradGradGradGradGradGradGradGradGradGrad
 Berny optimization.
 FormGI is forming the generalized inverse of G from B-inverse, IUseBI=4.
 Internal  Forces:  Max     0.011986866 RMS     0.002877781
 Search for a local minimum.
 Step number   1 out of a maximum of   50
 All quantities printed in internal units (Hartrees-Bohrs-Radians)
 Mixed Optimization -- RFO/linear search
 Second derivative matrix not updated -- first step.
 ITU=  0
     Eigenvalues ---    0.00230   0.01435   0.01932   0.02412   0.02445
     Eigenvalues ---    0.03226   0.03594   0.04065   0.04269   0.06319
     Eigenvalues ---    0.06581   0.08502   0.09151   0.16000   0.16000
     Eigenvalues ---    0.16000   0.16000   0.16000   0.16000   0.34330
     Eigenvalues ---    0.34337   0.34339   0.34341   0.34342   0.34343
     Eigenvalues ---    0.36678   0.36678   0.50575   1.04522   1.04572
 RFO step:  Lambda=-4.01490321D-04 EMin= 2.30000000D-03
 Linear search not attempted -- first point.
 Iteration  1 RMS(Cart)=  0.00430334 RMS(Int)=  0.00000442
 Iteration  2 RMS(Cart)=  0.00000558 RMS(Int)=  0.00000117
 Iteration  3 RMS(Cart)=  0.00000000 RMS(Int)=  0.00000117
 Variable       Old X    -DE/DX   Delta X   Delta X   Delta X     New X
                                 (Linear)    (Quad)   (Total)
    R1        2.76335  -0.00347   0.00000  -0.00946  -0.00946   2.75389
    R2        2.06762   0.00139   0.00000   0.00403   0.00403   2.07165
    R3        2.06755   0.00141   0.00000   0.00410   0.00410   2.07165
    R4        2.06765   0.00137   0.00000   0.00398   0.00398   2.07163
    R5        2.76335  -0.00347   0.00000  -0.00945  -0.00945   2.75390
    R6        2.06759   0.00139   0.00000   0.00405   0.00405   2.07164
    R7        2.06777   0.00133   0.00000   0.00388   0.00388   2.07166
    R8        2.06756   0.00140   0.00000   0.00406   0.00406   2.07162
    R9        2.26881   0.01177   0.00000   0.01126   0.01126   2.28006
   R10        2.26862   0.01199   0.00000   0.01146   0.01146   2.28007
   R11        2.59289   0.00348   0.00000   0.00687   0.00687   2.59976
    A1        1.93445  -0.00032   0.00000  -0.00200  -0.00201   1.93244
    A2        1.93452  -0.00033   0.00000  -0.00211  -0.00211   1.93241
    A3        1.93456  -0.00035   0.00000  -0.00215  -0.00215   1.93241
    A4        1.88618   0.00035   0.00000   0.00213   0.00213   1.88832
    A5        1.88610   0.00035   0.00000   0.00224   0.00224   1.88834
    A6        1.88621   0.00035   0.00000   0.00219   0.00219   1.88840
    A7        1.93446  -0.00034   0.00000  -0.00212  -0.00212   1.93234
    A8        1.93438  -0.00031   0.00000  -0.00190  -0.00190   1.93248
    A9        1.93457  -0.00035   0.00000  -0.00223  -0.00223   1.93234
   A10        1.88612   0.00035   0.00000   0.00226   0.00226   1.88838
   A11        1.88634   0.00035   0.00000   0.00209   0.00209   1.88843
   A12        1.88616   0.00035   0.00000   0.00220   0.00220   1.88836
   A13        3.14159  -0.00000   0.00000   0.00006   0.00006   3.14164
   A14        3.14139   0.00001   0.00000   0.00017   0.00017   3.14156
   A15        3.14142   0.00002   0.00000   0.00064   0.00064   3.14206
   A16        3.14164  -0.00001   0.00000  -0.00021  -0.00021   3.14143
   A17        3.14163   0.00000   0.00000   0.00006   0.00006   3.14170
   A18        3.14193   0.00000   0.00000   0.00013   0.00013   3.14206
   A19        3.14157  -0.00000   0.00000  -0.00008  -0.00008   3.14150
   A20        3.14113   0.00001   0.00000   0.00043   0.00043   3.14156
    D1        1.38407   0.00001   0.00000   0.00127   0.00126   1.38534
    D2       -0.71014   0.00000   0.00000   0.00101   0.00101  -0.70913
    D3       -2.80460   0.00000   0.00000   0.00111   0.00111  -2.80349
    D4       -2.80466   0.00001   0.00000   0.00104   0.00104  -2.80363
    D5        1.38430  -0.00000   0.00000   0.00079   0.00079   1.38509
    D6       -0.71015  -0.00000   0.00000   0.00088   0.00088  -0.70927
    D7       -0.71019   0.00001   0.00000   0.00104   0.00104  -0.70915
    D8       -2.80441  -0.00000   0.00000   0.00079   0.00079  -2.80362
    D9        1.38432  -0.00000   0.00000   0.00088   0.00088   1.38520
         Item               Value     Threshold  Converged?
 Maximum Force            0.011987     0.000450     NO 
 RMS     Force            0.002878     0.000300     NO 
 Maximum Displacement     0.014808     0.001800     NO 
 RMS     Displacement     0.004302     0.001200     NO 
 Predicted change in Energy=-2.008747D-04
 GradGradGradGradGradGradGradGradGradGradGradGradGradGradGradGradGradGrad

                          Input orientation:                          
 ---------------------------------------------------------------------
 Center     Atomic      Atomic             Coordinates (Angstroms)
 Number     Number       Type             X           Y           Z
 ---------------------------------------------------------------------
      1          6           0       -3.351714    0.000032   -0.000041
      2          6           0        3.351736   -0.000065   -0.000028
      3          6           0       -1.894419    0.000232   -0.000266
      4          6           0        1.894436   -0.000123   -0.000113
      5          6           0       -0.687862    0.000421   -0.000370
      6          6           0        0.687873    0.000102   -0.000132
      7          1           0       -3.739550   -0.888520   -0.511774
      8          1           0       -3.739394    0.000962    1.025392
      9          1           0       -3.739760    0.887452   -0.513553
     10          1           0        3.739549    0.339040   -0.967707
     11          1           0        3.739680   -1.007600    0.190199
     12          1           0        3.739425    0.668466    0.777493
 ---------------------------------------------------------------------
                    Distance matrix (angstroms):
                    1          2          3          4          5
     1  C    0.000000
     2  C    6.703450   0.000000
     3  C    1.457295   5.246155   0.000000
     4  C    5.246150   1.457300   3.788855   0.000000
     5  C    2.663852   4.039598   1.206557   2.582298   0.000000
     6  C    4.039587   2.663863   2.582292   1.206564   1.375735
     7  H    1.096272   7.165024   2.110931   5.726504   3.219402
     8  H    1.096271   7.164888   2.110903   5.726405   3.219323
     9  H    1.096261   7.165243   2.110902   5.726743   3.219358
    10  H    7.165007   1.096264   5.726459   2.110856   4.544488
    11  H    7.165151   1.096273   5.726698   2.110960   4.544838
    12  H    7.164887   1.096255   5.726398   2.110844   4.544472
                    6          7          8          9         10
     6  C    0.000000
     7  H    4.544612   0.000000
     8  H    4.544491   1.775967   0.000000
     9  H    4.544769   1.775973   1.776011   0.000000
    10  H    3.219287   7.592872   7.747344   7.513127   0.000000
    11  H    3.219506   7.513044   7.592846   7.747807   1.776003
    12  H    3.219220   7.747352   7.512639   7.592954   1.776019
                   11         12
    11  H    0.000000
    12  H    1.775982   0.000000
 Stoichiometry    C6H6
 Framework group  C1[X(C6H6)]
 Deg. of freedom    30
 Full point group                 C1      NOp   1
 Largest Abelian subgroup         C1      NOp   1
 Largest concise Abelian subgroup C1      NOp   1
                         Standard orientation:                         
 ---------------------------------------------------------------------
 Center     Atomic      Atomic             Coordinates (Angstroms)
 Number     Number       Type             X           Y           Z
 ---------------------------------------------------------------------
      1          6           0       -3.351720    0.000176    0.000085
      2          6           0        3.351730    0.000083    0.000018
      3          6           0       -1.894425   -0.000140   -0.000047
      4          6           0        1.894430    0.000058    0.000138
      5          6           0       -0.687868   -0.000333   -0.000208
      6          6           0        0.687867   -0.000020   -0.000036
      7          1           0       -3.739535   -0.132724    1.016820
      8          1           0       -3.739389    0.947268   -0.393030
      9          1           0       -3.739797   -0.813740   -0.623393
     10          1           0        3.739523   -1.023723    0.056868
     11          1           0        3.739706    0.561252    0.858144
     12          1           0        3.739408    0.462721   -0.915103
 ---------------------------------------------------------------------
 Rotational constants (GHZ):          79.4912831           1.1110966           1.1110963
 Standard basis: 6-311++G(d,p) (5D, 7F)
 There are   180 symmetry adapted cartesian basis functions of A   symmetry.
 There are   174 symmetry adapted basis functions of A   symmetry.
   174 basis functions,   270 primitive gaussians,   180 cartesian basis functions
    21 alpha electrons       21 beta electrons
       nuclear repulsion energy       170.1021721830 Hartrees.
 NAtoms=   12 NActive=   12 NUniq=   12 SFac= 1.00D+00 NAtFMM=   60 NAOKFM=F Big=F
 Integral buffers will be    131072 words long.
 Raffenetti 2 integral format.
 Two-electron integral symmetry is turned on.
 R6APFD:  NTU= -4 IXU= 1 FactS= 1.050
 Nuclear repulsion after empirical dispersion term =      170.1000386626 Hartrees.
 One-electron integrals computed using PRISM.
 NBasis=   174 RedAO= T EigKep=  3.88D-06  NBF=   174
 NBsUse=   171 1.00D-06 EigRej=  3.99D-08 NBFU=   171
 Initial guess from the checkpoint file:  "HEDI0121.chk"
 B after Tr=     0.000000   -0.000000    0.000000
         Rot=    0.980746    0.194999   -0.010452    0.001849 Ang=  22.52 deg.
 Keep R1 ints in memory in canonical form, NReq=132074265.
 Requested convergence on RMS density matrix=1.00D-08 within  32 cycles.
 Requested convergence on MAX density matrix=1.00D-06.
 Requested convergence on             energy=1.00D-06.
 No special actions if energy rises.
 SCF Done:  E(RM08HX) =  -232.128631262     A.U. after   10 cycles
            NFock= 10  Conv=0.64D-08     -V/T= 2.0051
 QCSCF skips out because SCF is already converged.
 R6APFD:  NTU= -4 IXU= 1 FactS= 1.050
 Calling FoFJK, ICntrl=      2127 FMM=F ISym2X=0 I1Cent= 0 IOpClX= 0 NMat=1 NMatS=1 NMatT=0.
 ***** Axes restored to original set *****
 -------------------------------------------------------------------
 Center     Atomic                   Forces (Hartrees/Bohr)
 Number     Number              X              Y              Z
 -------------------------------------------------------------------
      1        6           0.000421306   -0.000004411    0.000010621
      2        6          -0.000453893   -0.000018659   -0.000002491
      3        6           0.000536593    0.000007134   -0.000002150
      4        6          -0.000552822    0.000004114    0.000008223
      5        6           0.000157234   -0.000031248    0.000023586
      6        6          -0.000142939    0.000015249   -0.000022643
      7        1          -0.000114015   -0.000012891   -0.000017139
      8        1          -0.000125741    0.000004972    0.000010959
      9        1          -0.000127981    0.000017944   -0.000009425
     10        1           0.000133448    0.000011180   -0.000014522
     11        1           0.000122452   -0.000008932    0.000009138
     12        1           0.000146358    0.000015547    0.000005843
 -------------------------------------------------------------------
 Cartesian Forces:  Max     0.000552822 RMS     0.000176881

 GradGradGradGradGradGradGradGradGradGradGradGradGradGradGradGradGradGrad
 Berny optimization.
 Using GEDIIS/GDIIS optimizer.
 FormGI is forming the generalized inverse of G from B-inverse, IUseBI=4.
 Internal  Forces:  Max     0.000747404 RMS     0.000191406
 Search for a local minimum.
 Step number   2 out of a maximum of   50
 All quantities printed in internal units (Hartrees-Bohrs-Radians)
 Mixed Optimization -- En-DIIS/RFO-DIIS
 Update second derivatives using D2CorX and points    1    2
 DE= -1.90D-04 DEPred=-2.01D-04 R= 9.46D-01
 TightC=F SS=  1.41D+00  RLast= 2.54D-02 DXNew= 5.0454D-01 7.6197D-02
 Trust test= 9.46D-01 RLast= 2.54D-02 DXMaxT set to 3.00D-01
 ITU=  1  0
 Use linear search instead of GDIIS.
     Eigenvalues ---    0.00230   0.01443   0.01939   0.02412   0.02445
     Eigenvalues ---    0.03233   0.03600   0.04068   0.04269   0.06338
     Eigenvalues ---    0.06597   0.08501   0.09149   0.16000   0.16000
     Eigenvalues ---    0.16000   0.16000   0.16000   0.16202   0.33897
     Eigenvalues ---    0.34331   0.34338   0.34340   0.34342   0.34343
     Eigenvalues ---    0.36298   0.36678   0.51668   1.04546   1.08464
 RFO step:  Lambda=-1.90594547D-06 EMin= 2.30017495D-03
 Quartic linear search produced a step of -0.04655.
 Iteration  1 RMS(Cart)=  0.00137519 RMS(Int)=  0.00000098
 Iteration  2 RMS(Cart)=  0.00000183 RMS(Int)=  0.00000024
 Iteration  3 RMS(Cart)=  0.00000000 RMS(Int)=  0.00000024
 Variable       Old X    -DE/DX   Delta X   Delta X   Delta X     New X
                                 (Linear)    (Quad)   (Total)
    R1        2.75389  -0.00005   0.00044  -0.00061  -0.00017   2.75372
    R2        2.07165   0.00006  -0.00019   0.00036   0.00018   2.07183
    R3        2.07165   0.00005  -0.00019   0.00036   0.00017   2.07182
    R4        2.07163   0.00006  -0.00019   0.00038   0.00019   2.07183
    R5        2.75390  -0.00005   0.00044  -0.00061  -0.00017   2.75373
    R6        2.07164   0.00006  -0.00019   0.00038   0.00019   2.07183
    R7        2.07166   0.00005  -0.00018   0.00034   0.00016   2.07182
    R8        2.07162   0.00007  -0.00019   0.00038   0.00020   2.07182
    R9        2.28006  -0.00059  -0.00052   0.00003  -0.00049   2.27957
   R10        2.28007  -0.00060  -0.00053   0.00003  -0.00050   2.27957
   R11        2.59976  -0.00075  -0.00032  -0.00106  -0.00138   2.59838
    A1        1.93244   0.00009   0.00009   0.00045   0.00054   1.93298
    A2        1.93241   0.00011   0.00010   0.00061   0.00071   1.93312
    A3        1.93241   0.00012   0.00010   0.00056   0.00066   1.93307
    A4        1.88832  -0.00011  -0.00010  -0.00051  -0.00061   1.88770
    A5        1.88834  -0.00011  -0.00010  -0.00059  -0.00069   1.88765
    A6        1.88840  -0.00012  -0.00010  -0.00059  -0.00069   1.88771
    A7        1.93234   0.00012   0.00010   0.00059   0.00069   1.93303
    A8        1.93248   0.00010   0.00009   0.00053   0.00062   1.93310
    A9        1.93234   0.00014   0.00010   0.00071   0.00081   1.93315
   A10        1.88838  -0.00011  -0.00011  -0.00057  -0.00067   1.88771
   A11        1.88843  -0.00013  -0.00010  -0.00070  -0.00080   1.88763
   A12        1.88836  -0.00013  -0.00010  -0.00064  -0.00074   1.88761
   A13        3.14164  -0.00002  -0.00000  -0.00035  -0.00036   3.14129
   A14        3.14156  -0.00001  -0.00001  -0.00018  -0.00019   3.14137
   A15        3.14206  -0.00004  -0.00003  -0.00184  -0.00187   3.14019
   A16        3.14143   0.00001   0.00001   0.00004   0.00005   3.14148
   A17        3.14170  -0.00001  -0.00000  -0.00027  -0.00027   3.14143
   A18        3.14206  -0.00002  -0.00001  -0.00031  -0.00032   3.14174
   A19        3.14150   0.00001   0.00000   0.00035   0.00035   3.14185
   A20        3.14156  -0.00001  -0.00002  -0.00025  -0.00027   3.14129
    D1        1.38534  -0.00001  -0.00006  -0.00112  -0.00118   1.38416
    D2       -0.70913  -0.00001  -0.00005  -0.00101  -0.00106  -0.71019
    D3       -2.80349  -0.00001  -0.00005  -0.00151  -0.00156  -2.80505
    D4       -2.80363   0.00000  -0.00005  -0.00039  -0.00044  -2.80407
    D5        1.38509   0.00000  -0.00004  -0.00029  -0.00032   1.38477
    D6       -0.70927  -0.00000  -0.00004  -0.00078  -0.00082  -0.71009
    D7       -0.70915   0.00000  -0.00005  -0.00046  -0.00051  -0.70966
    D8       -2.80362   0.00000  -0.00004  -0.00036  -0.00039  -2.80401
    D9        1.38520   0.00000  -0.00004  -0.00085  -0.00089   1.38431
         Item               Value     Threshold  Converged?
 Maximum Force            0.000747     0.000450     NO 
 RMS     Force            0.000191     0.000300     YES
 Maximum Displacement     0.003442     0.001800     NO 
 RMS     Displacement     0.001375     0.001200     NO 
 Predicted change in Energy=-1.390953D-06
 GradGradGradGradGradGradGradGradGradGradGradGradGradGradGradGradGradGrad

                          Input orientation:                          
 ---------------------------------------------------------------------
 Center     Atomic      Atomic             Coordinates (Angstroms)
 Number     Number       Type             X           Y           Z
 ---------------------------------------------------------------------
      1          6           0       -3.351013    0.000341   -0.000331
      2          6           0        3.350999    0.000259   -0.000361
      3          6           0       -1.893810   -0.000464    0.000732
      4          6           0        1.893789   -0.000448    0.000498
      5          6           0       -0.687513   -0.001401    0.001344
      6          6           0        0.687491   -0.000859    0.000980
      7          1           0       -3.739595   -0.887612   -0.512740
      8          1           0       -3.740361    0.001137    1.024564
      9          1           0       -3.738704    0.888076   -0.513785
     10          1           0        3.738775    0.339103   -0.968261
     11          1           0        3.740179   -1.006869    0.189988
     12          1           0        3.739763    0.669136    0.776470
 ---------------------------------------------------------------------
                    Distance matrix (angstroms):
                    1          2          3          4          5
     1  C    0.000000
     2  C    6.702012   0.000000
     3  C    1.457204   5.244809   0.000000
     4  C    5.244802   1.457211   3.787598   0.000000
     5  C    2.663502   4.038512   1.206298   2.581302   0.000000
     6  C    4.038504   2.663509   2.581300   1.206298   1.375003
     7  H    1.096366   7.164312   2.111305   5.725861   3.219450
     8  H    1.096359   7.165044   2.111394   5.726461   3.219762
     9  H    1.096363   7.163498   2.111365   5.725288   3.219673
    10  H    7.163571   1.096365   5.725405   2.111342   4.544018
    11  H    7.164894   1.096358   5.726299   2.111386   4.544338
    12  H    7.164483   1.096358   5.726017   2.111421   4.544360
                    6          7          8          9         10
     6  C    0.000000
     7  H    4.544153   0.000000
     8  H    4.544623   1.775719   0.000000
     9  H    4.543829   1.775688   1.775720   0.000000
    10  H    3.219525   7.591992   7.747454   7.511365   0.000000
    11  H    3.219735   7.513659   7.594147   7.747245   1.775721
    12  H    3.219727   7.747665   7.513988   7.592111   1.775672
                   11         12
    11  H    0.000000
    12  H    1.775657   0.000000
 Stoichiometry    C6H6
 Framework group  C1[X(C6H6)]
 Deg. of freedom    30
 Full point group                 C1      NOp   1
 Largest Abelian subgroup         C1      NOp   1
 Largest concise Abelian subgroup C1      NOp   1
                         Standard orientation:                         
 ---------------------------------------------------------------------
 Center     Atomic      Atomic             Coordinates (Angstroms)
 Number     Number       Type             X           Y           Z
 ---------------------------------------------------------------------
      1          6           0       -3.351006   -0.000935   -0.000173
      2          6           0        3.351006   -0.000824   -0.000147
      3          6           0       -1.893803    0.000413   -0.000057
      4          6           0        1.893795    0.000258    0.000019
      5          6           0       -0.687506    0.001441    0.000410
      6          6           0        0.687497    0.000867    0.000127
      7          1           0       -3.739579    0.027338    1.024634
      8          1           0       -3.740371    0.871869   -0.537398
      9          1           0       -3.738688   -0.903155   -0.487731
     10          1           0        3.738798   -1.002874    0.217861
     11          1           0        3.740183    0.688611    0.758287
     12          1           0        3.739757    0.310886   -0.976728
 ---------------------------------------------------------------------
 Rotational constants (GHZ):          79.5170853           1.1115507           1.1115501
 Standard basis: 6-311++G(d,p) (5D, 7F)
 There are   180 symmetry adapted cartesian basis functions of A   symmetry.
 There are   174 symmetry adapted basis functions of A   symmetry.
   174 basis functions,   270 primitive gaussians,   180 cartesian basis functions
    21 alpha electrons       21 beta electrons
       nuclear repulsion energy       170.1295179478 Hartrees.
 NAtoms=   12 NActive=   12 NUniq=   12 SFac= 1.00D+00 NAtFMM=   60 NAOKFM=F Big=F
 Integral buffers will be    131072 words long.
 Raffenetti 2 integral format.
 Two-electron integral symmetry is turned on.
 R6APFD:  NTU= -4 IXU= 1 FactS= 1.050
 Nuclear repulsion after empirical dispersion term =      170.1273817129 Hartrees.
 One-electron integrals computed using PRISM.
 NBasis=   174 RedAO= T EigKep=  3.87D-06  NBF=   174
 NBsUse=   171 1.00D-06 EigRej=  3.97D-08 NBFU=   171
 Initial guess from the checkpoint file:  "HEDI0121.chk"
 B after Tr=    -0.000000   -0.000000   -0.000000
         Rot=    0.996864    0.079134    0.000001   -0.000002 Ang=   9.08 deg.
 Keep R1 ints in memory in canonical form, NReq=132074265.
 Requested convergence on RMS density matrix=1.00D-08 within  32 cycles.
 Requested convergence on MAX density matrix=1.00D-06.
 Requested convergence on             energy=1.00D-06.
 No special actions if energy rises.
 SCF Done:  E(RM08HX) =  -232.128630344     A.U. after    8 cycles
            NFock=  8  Conv=0.70D-08     -V/T= 2.0051
 QCSCF skips out because SCF is already converged.
 R6APFD:  NTU= -4 IXU= 1 FactS= 1.050
 Calling FoFJK, ICntrl=      2127 FMM=F ISym2X=0 I1Cent= 0 IOpClX= 0 NMat=1 NMatS=1 NMatT=0.
 ***** Axes restored to original set *****
 -------------------------------------------------------------------
 Center     Atomic                   Forces (Hartrees/Bohr)
 Number     Number              X              Y              Z
 -------------------------------------------------------------------
      1        6           0.000190043   -0.000010083    0.000013255
      2        6          -0.000170154   -0.000009978    0.000004761
      3        6          -0.000043585   -0.000033922    0.000008025
      4        6           0.000052921    0.000012230   -0.000003121
      5        6           0.000026289    0.000088012   -0.000043582
      6        6          -0.000025418   -0.000051938    0.000026893
      7        1          -0.000043715    0.000002466   -0.000001545
      8        1          -0.000038858    0.000003795   -0.000005236
      9        1          -0.000042039   -0.000005680    0.000003955
     10        1           0.000037001    0.000003014    0.000003149
     11        1           0.000035996   -0.000000079   -0.000012883
     12        1           0.000021518    0.000002162    0.000006328
 -------------------------------------------------------------------
 Cartesian Forces:  Max     0.000190043 RMS     0.000051259

 GradGradGradGradGradGradGradGradGradGradGradGradGradGradGradGradGradGrad
 Berny optimization.
 Using GEDIIS/GDIIS optimizer.
 FormGI is forming the generalized inverse of G from B-inverse, IUseBI=4.
 Internal  Forces:  Max     0.000122833 RMS     0.000034484
 Search for a local minimum.
 Step number   3 out of a maximum of   50
 All quantities printed in internal units (Hartrees-Bohrs-Radians)
 Mixed Optimization -- En-DIIS/RFO-DIIS
 Swapping is turned off.
 Update second derivatives using D2CorX and points    1    2    3
 DE=  9.18D-07 DEPred=-1.39D-06 R=-6.60D-01
 Trust test=-6.60D-01 RLast= 4.42D-03 DXMaxT set to 1.50D-01
 ITU= -1  1  0
     Eigenvalues ---    0.00232   0.01546   0.01971   0.02444   0.02570
     Eigenvalues ---    0.03347   0.03598   0.04080   0.04273   0.06340
     Eigenvalues ---    0.06599   0.08478   0.09113   0.13079   0.16000
     Eigenvalues ---    0.16000   0.16000   0.16000   0.16142   0.33326
     Eigenvalues ---    0.34331   0.34339   0.34340   0.34342   0.34342
     Eigenvalues ---    0.35907   0.36679   0.51115   1.04546   1.07519
 En-DIIS/RFO-DIIS/Sim-DIIS IScMMF=       -3 using points:     3    2
 RFO step:  Lambda=-9.82566033D-07.
 DidBck=T Rises=T En-DIIS coefs:    0.32827    0.67173
 Iteration  1 RMS(Cart)=  0.00364876 RMS(Int)=  0.00000419
 Iteration  2 RMS(Cart)=  0.00001092 RMS(Int)=  0.00000044
 Iteration  3 RMS(Cart)=  0.00000000 RMS(Int)=  0.00000044
 Variable       Old X    -DE/DX   Delta X   Delta X   Delta X     New X
                                 (Linear)    (Quad)   (Total)
    R1        2.75372  -0.00007   0.00012  -0.00039  -0.00028   2.75344
    R2        2.07183   0.00001  -0.00012   0.00024   0.00012   2.07195
    R3        2.07182   0.00001  -0.00011   0.00021   0.00010   2.07192
    R4        2.07183   0.00001  -0.00013   0.00024   0.00011   2.07193
    R5        2.75373  -0.00008   0.00011  -0.00042  -0.00030   2.75343
    R6        2.07183   0.00001  -0.00013   0.00024   0.00011   2.07194
    R7        2.07182   0.00001  -0.00011   0.00021   0.00010   2.07192
    R8        2.07182   0.00001  -0.00013   0.00025   0.00012   2.07194
    R9        2.27957  -0.00002   0.00033  -0.00050  -0.00017   2.27940
   R10        2.27957  -0.00002   0.00034  -0.00051  -0.00017   2.27940
   R11        2.59838  -0.00005   0.00093  -0.00151  -0.00058   2.59780
    A1        1.93298   0.00005  -0.00036   0.00086   0.00049   1.93348
    A2        1.93312   0.00004  -0.00048   0.00098   0.00050   1.93362
    A3        1.93307   0.00003  -0.00044   0.00091   0.00047   1.93354
    A4        1.88770  -0.00002   0.00041  -0.00083  -0.00042   1.88729
    A5        1.88765  -0.00006   0.00046  -0.00102  -0.00055   1.88709
    A6        1.88771  -0.00005   0.00047  -0.00103  -0.00056   1.88714
    A7        1.93303   0.00003  -0.00046   0.00094   0.00047   1.93350
    A8        1.93310   0.00004  -0.00042   0.00091   0.00049   1.93359
    A9        1.93315   0.00001  -0.00055   0.00090   0.00036   1.93350
   A10        1.88771  -0.00004   0.00045  -0.00094  -0.00049   1.88722
   A11        1.88763  -0.00004   0.00054  -0.00105  -0.00051   1.88712
   A12        1.88761  -0.00001   0.00050  -0.00088  -0.00038   1.88723
   A13        3.14129   0.00001   0.00024  -0.00023   0.00001   3.14130
   A14        3.14137   0.00001   0.00013   0.00019   0.00032   3.14168
   A15        3.14019   0.00012   0.00125   0.00365   0.00490   3.14510
   A16        3.14148   0.00000  -0.00004   0.00040   0.00036   3.14185
   A17        3.14143   0.00001   0.00018   0.00010   0.00028   3.14171
   A18        3.14174   0.00001   0.00021  -0.00022  -0.00001   3.14174
   A19        3.14185  -0.00000  -0.00024   0.00018  -0.00006   3.14179
   A20        3.14129   0.00001   0.00018  -0.00001   0.00017   3.14146
    D1        1.38416   0.00001   0.00079   0.00048   0.00127   1.38543
    D2       -0.71019   0.00001   0.00071   0.00059   0.00130  -0.70889
    D3       -2.80505   0.00002   0.00105   0.00148   0.00253  -2.80252
    D4       -2.80407  -0.00001   0.00030  -0.00099  -0.00070  -2.80476
    D5        1.38477  -0.00001   0.00022  -0.00088  -0.00066   1.38410
    D6       -0.71009   0.00000   0.00055   0.00001   0.00056  -0.70953
    D7       -0.70966  -0.00000   0.00034  -0.00019   0.00015  -0.70951
    D8       -2.80401  -0.00000   0.00026  -0.00008   0.00018  -2.80383
    D9        1.38431   0.00001   0.00060   0.00081   0.00141   1.38572
         Item               Value     Threshold  Converged?
 Maximum Force            0.000123     0.000450     YES
 RMS     Force            0.000034     0.000300     YES
 Maximum Displacement     0.011125     0.001800     NO 
 RMS     Displacement     0.003649     0.001200     NO 
 Predicted change in Energy=-4.912735D-07
 GradGradGradGradGradGradGradGradGradGradGradGradGradGradGradGradGradGrad

                          Input orientation:                          
 ---------------------------------------------------------------------
 Center     Atomic      Atomic             Coordinates (Angstroms)
 Number     Number       Type             X           Y           Z
 ---------------------------------------------------------------------
      1          6           0       -3.350601   -0.000727    0.000436
      2          6           0        3.350606   -0.000879    0.000404
      3          6           0       -1.893546    0.002313   -0.001120
      4          6           0        1.893557    0.001084   -0.000865
      5          6           0       -0.687341    0.004486   -0.002525
      6          6           0        0.687352    0.002753   -0.001786
      7          1           0       -3.738285   -0.889727   -0.510969
      8          1           0       -3.738640   -0.000545    1.025883
      9          1           0       -3.742056    0.885697   -0.512548
     10          1           0        3.740923    0.337575   -0.966679
     11          1           0        3.738186   -1.008648    0.190937
     12          1           0        3.739846    0.667018    0.777931
 ---------------------------------------------------------------------
                    Distance matrix (angstroms):
                    1          2          3          4          5
     1  C    0.000000
     2  C    6.701206   0.000000
     3  C    1.457058   5.244153   0.000000
     4  C    5.244158   1.457051   3.787104   0.000000
     5  C    2.663266   4.037951   1.206208   2.580901   0.000000
     6  C    4.037955   2.663257   2.580899   1.206206   1.374695
     7  H    1.096428   7.162676   2.111573   5.724631   3.219688
     8  H    1.096411   7.163031   2.111661   5.725020   3.219949
     9  H    1.096420   7.166239   2.111614   5.727521   3.219928
    10  H    7.165156   1.096425   5.726426   2.111583   4.544234
    11  H    7.162618   1.096413   5.724975   2.111635   4.544135
    12  H    7.164134   1.096422   5.725719   2.111581   4.544012
                    6          7          8          9         10
     6  C    0.000000
     7  H    4.543353   0.000000
     8  H    4.543734   1.775544   0.000000
     9  H    4.545341   1.775428   1.775445   0.000000
    10  H    3.219848   7.592924   7.747805   7.516758   0.000000
    11  H    3.219885   7.510289   7.590542   7.748384   1.775500
    12  H    3.219770   7.746429   7.512314   7.595525   1.775443
                   11         12
    11  H    0.000000
    12  H    1.775506   0.000000
 Stoichiometry    C6H6
 Framework group  C1[X(C6H6)]
 Deg. of freedom    30
 Full point group                 C1      NOp   1
 Largest Abelian subgroup         C1      NOp   1
 Largest concise Abelian subgroup C1      NOp   1
                         Standard orientation:                         
 ---------------------------------------------------------------------
 Center     Atomic      Atomic             Coordinates (Angstroms)
 Number     Number       Type             X           Y           Z
 ---------------------------------------------------------------------
      1          6           0       -3.350604    0.002233   -0.000912
      2          6           0        3.350603    0.001772   -0.000811
      3          6           0       -1.893550   -0.001101    0.000287
      4          6           0        1.893554   -0.000193    0.000207
      5          6           0       -0.687345   -0.003534    0.001437
      6          6           0        0.687349   -0.001850    0.000916
      7          1           0       -3.738219    0.825074    0.611330
      8          1           0       -3.738624    0.122485   -1.019292
      9          1           0       -3.742147   -0.938254    0.404444
     10          1           0        3.740872   -0.447921    0.919849
     11          1           0        3.738276    1.024907   -0.071700
     12          1           0        3.739798   -0.570250   -0.851375
 ---------------------------------------------------------------------
 Rotational constants (GHZ):          79.5325162           1.1117678           1.1117672
 Standard basis: 6-311++G(d,p) (5D, 7F)
 There are   180 symmetry adapted cartesian basis functions of A   symmetry.
 There are   174 symmetry adapted basis functions of A   symmetry.
   174 basis functions,   270 primitive gaussians,   180 cartesian basis functions
    21 alpha electrons       21 beta electrons
       nuclear repulsion energy       170.1427435665 Hartrees.
 NAtoms=   12 NActive=   12 NUniq=   12 SFac= 1.00D+00 NAtFMM=   60 NAOKFM=F Big=F
 Integral buffers will be    131072 words long.
 Raffenetti 2 integral format.
 Two-electron integral symmetry is turned on.
 R6APFD:  NTU= -4 IXU= 1 FactS= 1.050
 Nuclear repulsion after empirical dispersion term =      170.1406060618 Hartrees.
 One-electron integrals computed using PRISM.
 NBasis=   174 RedAO= T EigKep=  3.86D-06  NBF=   174
 NBsUse=   171 1.00D-06 EigRej=  3.96D-08 NBFU=   171
 Initial guess from the checkpoint file:  "HEDI0121.chk"
 B after Tr=     0.000000    0.000000    0.000000
         Rot=    0.899980    0.435931   -0.000002    0.000006 Ang=  51.69 deg.
 Keep R1 ints in memory in canonical form, NReq=132074265.
 Requested convergence on RMS density matrix=1.00D-08 within  32 cycles.
 Requested convergence on MAX density matrix=1.00D-06.
 Requested convergence on             energy=1.00D-06.
 No special actions if energy rises.
 SCF Done:  E(RM08HX) =  -232.128632383     A.U. after    8 cycles
            NFock=  8  Conv=0.68D-08     -V/T= 2.0051
 QCSCF skips out because SCF is already converged.
 R6APFD:  NTU= -4 IXU= 1 FactS= 1.050
 Calling FoFJK, ICntrl=      2127 FMM=F ISym2X=0 I1Cent= 0 IOpClX= 0 NMat=1 NMatS=1 NMatT=0.
 ***** Axes restored to original set *****
 -------------------------------------------------------------------
 Center     Atomic                   Forces (Hartrees/Bohr)
 Number     Number              X              Y              Z
 -------------------------------------------------------------------
      1        6          -0.000072373    0.000053829   -0.000039291
      2        6           0.000061200    0.000013107   -0.000006047
      3        6          -0.000203261    0.000052403   -0.000035881
      4        6           0.000199618   -0.000001760    0.000003091
      5        6          -0.000064106   -0.000207316    0.000111240
      6        6           0.000060815    0.000119720   -0.000055044
      7        1           0.000033420    0.000004474    0.000010899
      8        1           0.000042660   -0.000013147    0.000001561
      9        1           0.000020306   -0.000007265    0.000007259
     10        1          -0.000018381   -0.000014233    0.000013462
     11        1          -0.000030819    0.000001886   -0.000001722
     12        1          -0.000029079   -0.000001698   -0.000009527
 -------------------------------------------------------------------
 Cartesian Forces:  Max     0.000207316 RMS     0.000071832

 GradGradGradGradGradGradGradGradGradGradGradGradGradGradGradGradGradGrad
 Berny optimization.
 Using GEDIIS/GDIIS optimizer.
 FormGI is forming the generalized inverse of G from B-inverse, IUseBI=4.
 Internal  Forces:  Max     0.000287381 RMS     0.000076135
 Search for a local minimum.
 Step number   4 out of a maximum of   50
 All quantities printed in internal units (Hartrees-Bohrs-Radians)
 Mixed Optimization -- En-DIIS/RFO-DIIS
 Swapping is turned off.
 Update second derivatives using D2CorX and points    1    2    3    4
 DE= -2.04D-06 DEPred=-4.91D-07 R= 4.15D+00
 TightC=F SS=  1.41D+00  RLast= 6.38D-03 DXNew= 2.5227D-01 1.9150D-02
 Trust test= 4.15D+00 RLast= 6.38D-03 DXMaxT set to 1.50D-01
 ITU=  1 -1  1  0
     Eigenvalues ---    0.00232   0.01595   0.02178   0.02445   0.03040
     Eigenvalues ---    0.03564   0.03921   0.04123   0.05200   0.06339
     Eigenvalues ---    0.06950   0.08489   0.09909   0.11990   0.16000
     Eigenvalues ---    0.16000   0.16000   0.16144   0.16194   0.33207
     Eigenvalues ---    0.34332   0.34339   0.34340   0.34343   0.34344
     Eigenvalues ---    0.35482   0.36684   0.50577   0.96621   1.04547
 En-DIIS/RFO-DIIS/Sim-DIIS IScMMF=       -3 using points:     4    3    2
 RFO step:  Lambda=-1.31364916D-06.
 DidBck=T Rises=F RFO-DIIS coefs:    0.45226    0.63067   -0.08293
 Iteration  1 RMS(Cart)=  0.00218657 RMS(Int)=  0.00000214
 Iteration  2 RMS(Cart)=  0.00000468 RMS(Int)=  0.00000019
 Iteration  3 RMS(Cart)=  0.00000000 RMS(Int)=  0.00000019
 Variable       Old X    -DE/DX   Delta X   Delta X   Delta X     New X
                                 (Linear)    (Quad)   (Total)
    R1        2.75344  -0.00002   0.00014  -0.00013   0.00000   2.75345
    R2        2.07195  -0.00002  -0.00005  -0.00000  -0.00005   2.07190
    R3        2.07192  -0.00001  -0.00004  -0.00000  -0.00004   2.07187
    R4        2.07193  -0.00002  -0.00004  -0.00001  -0.00005   2.07188
    R5        2.75343  -0.00002   0.00015  -0.00014   0.00001   2.75344
    R6        2.07194  -0.00002  -0.00005  -0.00001  -0.00006   2.07189
    R7        2.07192  -0.00001  -0.00004   0.00000  -0.00004   2.07188
    R8        2.07194  -0.00002  -0.00005  -0.00000  -0.00005   2.07188
    R9        2.27940   0.00018   0.00005   0.00011   0.00016   2.27956
   R10        2.27940   0.00018   0.00005   0.00011   0.00016   2.27956
   R11        2.59780   0.00024   0.00020   0.00023   0.00043   2.59823
    A1        1.93348  -0.00005  -0.00023   0.00005  -0.00017   1.93330
    A2        1.93362  -0.00006  -0.00022  -0.00004  -0.00026   1.93336
    A3        1.93354   0.00002  -0.00020   0.00010  -0.00010   1.93344
    A4        1.88729  -0.00002   0.00018  -0.00006   0.00012   1.88741
    A5        1.88709   0.00004   0.00025  -0.00003   0.00022   1.88731
    A6        1.88714   0.00006   0.00025  -0.00003   0.00022   1.88737
    A7        1.93350   0.00000  -0.00020   0.00007  -0.00013   1.93337
    A8        1.93359  -0.00005  -0.00022   0.00002  -0.00020   1.93339
    A9        1.93350  -0.00002  -0.00013  -0.00008  -0.00021   1.93330
   A10        1.88722   0.00001   0.00021  -0.00006   0.00015   1.88737
   A11        1.88712   0.00004   0.00021   0.00001   0.00022   1.88734
   A12        1.88723   0.00002   0.00015   0.00004   0.00019   1.88742
   A13        3.14130   0.00004  -0.00004   0.00045   0.00041   3.14171
   A14        3.14168   0.00003  -0.00019   0.00039   0.00020   3.14188
   A15        3.14510  -0.00029  -0.00284  -0.00050  -0.00334   3.14176
   A16        3.14185   0.00003  -0.00019   0.00049   0.00030   3.14214
   A17        3.14171  -0.00001  -0.00018   0.00013  -0.00005   3.14166
   A18        3.14174  -0.00002  -0.00002   0.00001  -0.00001   3.14173
   A19        3.14179  -0.00000   0.00006  -0.00022  -0.00016   3.14163
   A20        3.14146  -0.00001  -0.00011   0.00005  -0.00006   3.14140
    D1        1.38543  -0.00000  -0.00079   0.00047  -0.00033   1.38510
    D2       -0.70889  -0.00001  -0.00080   0.00017  -0.00063  -0.70952
    D3       -2.80252  -0.00002  -0.00151   0.00049  -0.00103  -2.80355
    D4       -2.80476   0.00002   0.00034   0.00055   0.00089  -2.80387
    D5        1.38410   0.00001   0.00034   0.00025   0.00059   1.38470
    D6       -0.70953   0.00001  -0.00038   0.00057   0.00019  -0.70934
    D7       -0.70951  -0.00000  -0.00013   0.00016   0.00003  -0.70948
    D8       -2.80383  -0.00001  -0.00013  -0.00014  -0.00027  -2.80410
    D9        1.38572  -0.00002  -0.00085   0.00018  -0.00067   1.38505
         Item               Value     Threshold  Converged?
 Maximum Force            0.000287     0.000450     YES
 RMS     Force            0.000076     0.000300     YES
 Maximum Displacement     0.007750     0.001800     NO 
 RMS     Displacement     0.002187     0.001200     NO 
 Predicted change in Energy=-6.545283D-07
 GradGradGradGradGradGradGradGradGradGradGradGradGradGradGradGradGradGrad

                          Input orientation:                          
 ---------------------------------------------------------------------
 Center     Atomic      Atomic             Coordinates (Angstroms)
 Number     Number       Type             X           Y           Z
 ---------------------------------------------------------------------
      1          6           0       -3.350809   -0.000017    0.000146
      2          6           0        3.350816   -0.000094    0.000107
      3          6           0       -1.893748    0.000146   -0.000408
      4          6           0        1.893761    0.000229   -0.000731
      5          6           0       -0.687456    0.000385   -0.000762
      6          6           0        0.687468    0.000456   -0.001067
      7          1           0       -3.739708   -0.888289   -0.511541
      8          1           0       -3.739278    0.000802    1.025406
      9          1           0       -3.740046    0.887233   -0.513039
     10          1           0        3.740317    0.338715   -0.967147
     11          1           0        3.739372   -1.007471    0.190601
     12          1           0        3.739313    0.668305    0.777534
 ---------------------------------------------------------------------
                    Distance matrix (angstroms):
                    1          2          3          4          5
     1  C    0.000000
     2  C    6.701625   0.000000
     3  C    1.457061   5.244564   0.000000
     4  C    5.244570   1.457055   3.787509   0.000000
     5  C    2.663353   4.038272   1.206292   2.581217   0.000000
     6  C    4.038278   2.663348   2.581217   1.206292   1.374924
     7  H    1.096400   7.164231   2.111431   5.725938   3.219764
     8  H    1.096388   7.163845   2.111463   5.725739   3.219726
     9  H    1.096393   7.164565   2.111523   5.726170   3.219819
    10  H    7.164807   1.096395   5.726422   2.111469   4.544617
    11  H    7.163931   1.096391   5.725716   2.111480   4.544139
    12  H    7.163855   1.096394   5.725645   2.111418   4.544023
                    6          7          8          9         10
     6  C    0.000000
     7  H    4.544265   0.000000
     8  H    4.544198   1.775581   0.000000
     9  H    4.544378   1.775523   1.775548   0.000000
    10  H    3.219878   7.593674   7.747825   7.514181   0.000000
    11  H    3.219747   7.512912   7.592346   7.747691   1.775555
    12  H    3.219627   7.747287   7.512412   7.593044   1.775540
                   11         12
    11  H    0.000000
    12  H    1.775589   0.000000
 Stoichiometry    C6H6
 Framework group  C1[X(C6H6)]
 Deg. of freedom    30
 Full point group                 C1      NOp   1
 Largest Abelian subgroup         C1      NOp   1
 Largest concise Abelian subgroup C1      NOp   1
                         Standard orientation:                         
 ---------------------------------------------------------------------
 Center     Atomic      Atomic             Coordinates (Angstroms)
 Number     Number       Type             X           Y           Z
 ---------------------------------------------------------------------
      1          6           0       -3.350813   -0.000195   -0.000411
      2          6           0        3.350812   -0.000234   -0.000515
      3          6           0       -1.893752    0.000078    0.000067
      4          6           0        1.893757    0.000191    0.000305
      5          6           0       -0.687460    0.000155    0.000469
      6          6           0        0.687465    0.000307    0.000713
      7          1           0       -3.739698    0.977256   -0.309366
      8          1           0       -3.739303   -0.756462   -0.692655
      9          1           0       -3.740043   -0.221506    1.000387
     10          1           0        3.740332    0.483763    0.902870
     11          1           0        3.739368    0.540113   -0.871791
     12          1           0        3.739290   -1.024976   -0.033212
 ---------------------------------------------------------------------
 Rotational constants (GHZ):          79.5301649           1.1116289           1.1116287
 Standard basis: 6-311++G(d,p) (5D, 7F)
 There are   180 symmetry adapted cartesian basis functions of A   symmetry.
 There are   174 symmetry adapted basis functions of A   symmetry.
   174 basis functions,   270 primitive gaussians,   180 cartesian basis functions
    21 alpha electrons       21 beta electrons
       nuclear repulsion energy       170.1345667504 Hartrees.
 NAtoms=   12 NActive=   12 NUniq=   12 SFac= 1.00D+00 NAtFMM=   60 NAOKFM=F Big=F
 Integral buffers will be    131072 words long.
 Raffenetti 2 integral format.
 Two-electron integral symmetry is turned on.
 R6APFD:  NTU= -4 IXU= 1 FactS= 1.050
 Nuclear repulsion after empirical dispersion term =      170.1324300879 Hartrees.
 One-electron integrals computed using PRISM.
 NBasis=   174 RedAO= T EigKep=  3.87D-06  NBF=   174
 NBsUse=   171 1.00D-06 EigRej=  3.97D-08 NBFU=   171
 Initial guess from the checkpoint file:  "HEDI0121.chk"
 B after Tr=    -0.000000    0.000000    0.000000
         Rot=    0.890102    0.455762   -0.000004   -0.000005 Ang=  54.23 deg.
 Keep R1 ints in memory in canonical form, NReq=132074265.
 Requested convergence on RMS density matrix=1.00D-08 within  32 cycles.
 Requested convergence on MAX density matrix=1.00D-06.
 Requested convergence on             energy=1.00D-06.
 No special actions if energy rises.
 SCF Done:  E(RM08HX) =  -232.128630420     A.U. after    8 cycles
            NFock=  8  Conv=0.64D-08     -V/T= 2.0051
 QCSCF skips out because SCF is already converged.
 R6APFD:  NTU= -4 IXU= 1 FactS= 1.050
 Calling FoFJK, ICntrl=      2127 FMM=F ISym2X=0 I1Cent= 0 IOpClX= 0 NMat=1 NMatS=1 NMatT=0.
 ***** Axes restored to original set *****
 -------------------------------------------------------------------
 Center     Atomic                   Forces (Hartrees/Bohr)
 Number     Number              X              Y              Z
 -------------------------------------------------------------------
      1        6          -0.000001608   -0.000013936   -0.000000599
      2        6          -0.000015915    0.000003207   -0.000015709
      3        6          -0.000000846    0.000016610    0.000002576
      4        6          -0.000007280   -0.000001196    0.000003992
      5        6          -0.000026847   -0.000001851   -0.000019963
      6        6           0.000027533   -0.000012047    0.000026387
      7        1           0.000004489    0.000000760    0.000008526
      8        1          -0.000003246    0.000005117   -0.000003013
      9        1           0.000006746   -0.000001515   -0.000006019
     10        1           0.000012384   -0.000000929    0.000008077
     11        1          -0.000001199    0.000004776   -0.000002586
     12        1           0.000005788    0.000001004   -0.000001668
 -------------------------------------------------------------------
 Cartesian Forces:  Max     0.000027533 RMS     0.000010922

 GradGradGradGradGradGradGradGradGradGradGradGradGradGradGradGradGradGrad
 Berny optimization.
 Using GEDIIS/GDIIS optimizer.
 FormGI is forming the generalized inverse of G from B-inverse, IUseBI=4.
 Internal  Forces:  Max     0.000042754 RMS     0.000010459
 Search for a local minimum.
 Step number   5 out of a maximum of   50
 All quantities printed in internal units (Hartrees-Bohrs-Radians)
 Mixed Optimization -- En-DIIS/RFO-DIIS
 Swapping is turned off.
 Update second derivatives using D2CorX and points    1    2    3    4    5
 DE=  1.96D-06 DEPred=-6.55D-07 R=-3.00D+00
 Trust test=-3.00D+00 RLast= 3.93D-03 DXMaxT set to 7.50D-02
 ITU= -1  1 -1  1  0
     Eigenvalues ---    0.00225   0.01777   0.02216   0.02439   0.03235
     Eigenvalues ---    0.03534   0.03943   0.04154   0.05527   0.06388
     Eigenvalues ---    0.07291   0.09386   0.11198   0.11997   0.16000
     Eigenvalues ---    0.16000   0.16021   0.16167   0.16523   0.32473
     Eigenvalues ---    0.34334   0.34339   0.34343   0.34344   0.34348
     Eigenvalues ---    0.35273   0.36692   0.53017   1.04546   1.07118
 En-DIIS/RFO-DIIS/Sim-DIIS IScMMF=       -3 using points:     5    4    3    2
 RFO step:  Lambda=-1.10663416D-07.
 EnCoef did   100 forward-backward iterations
 EnCoef did   100 forward-backward iterations
 DidBck=F Rises=T En-DIIS coefs:    1.00000    0.00000    0.00000    0.00000
 Iteration  1 RMS(Cart)=  0.00140983 RMS(Int)=  0.00000071
 Iteration  2 RMS(Cart)=  0.00000150 RMS(Int)=  0.00000013
 Iteration  3 RMS(Cart)=  0.00000000 RMS(Int)=  0.00000013
 Variable       Old X    -DE/DX   Delta X   Delta X   Delta X     New X
                                 (Linear)    (Quad)   (Total)
    R1        2.75345  -0.00001   0.00000  -0.00007  -0.00007   2.75338
    R2        2.07190  -0.00001   0.00000  -0.00001  -0.00001   2.07188
    R3        2.07187  -0.00000   0.00000  -0.00000  -0.00000   2.07187
    R4        2.07188  -0.00000   0.00000  -0.00000  -0.00000   2.07188
    R5        2.75344   0.00000   0.00000  -0.00006  -0.00006   2.75338
    R6        2.07189  -0.00000   0.00000  -0.00001  -0.00001   2.07188
    R7        2.07188  -0.00001   0.00000  -0.00001  -0.00001   2.07187
    R8        2.07188   0.00000   0.00000   0.00001   0.00001   2.07189
    R9        2.27956  -0.00001   0.00000   0.00001   0.00001   2.27957
   R10        2.27956  -0.00001   0.00000   0.00001   0.00001   2.27957
   R11        2.59823   0.00002   0.00000   0.00006   0.00006   2.59829
    A1        1.93330  -0.00000   0.00000   0.00004   0.00004   1.93334
    A2        1.93336   0.00000   0.00000   0.00006   0.00006   1.93342
    A3        1.93344  -0.00001   0.00000   0.00002   0.00002   1.93346
    A4        1.88741  -0.00000   0.00000  -0.00006  -0.00006   1.88734
    A5        1.88731   0.00001   0.00000  -0.00002  -0.00002   1.88729
    A6        1.88737  -0.00000   0.00000  -0.00004  -0.00004   1.88733
    A7        1.93337   0.00002   0.00000   0.00018   0.00018   1.93355
    A8        1.93339  -0.00001   0.00000   0.00001   0.00001   1.93340
    A9        1.93330   0.00000   0.00000   0.00003   0.00003   1.93333
   A10        1.88737  -0.00000   0.00000  -0.00009  -0.00009   1.88728
   A11        1.88734  -0.00001   0.00000  -0.00008  -0.00008   1.88726
   A12        1.88742  -0.00001   0.00000  -0.00006  -0.00006   1.88737
   A13        3.14171  -0.00002   0.00000  -0.00020  -0.00020   3.14151
   A14        3.14188  -0.00002   0.00000  -0.00024  -0.00024   3.14164
   A15        3.14176  -0.00000   0.00000  -0.00049  -0.00049   3.14126
   A16        3.14214  -0.00004   0.00000  -0.00150  -0.00150   3.14064
   A17        3.14166   0.00000   0.00000   0.00002   0.00002   3.14168
   A18        3.14173  -0.00000   0.00000  -0.00004  -0.00004   3.14170
   A19        3.14163  -0.00000   0.00000  -0.00006  -0.00006   3.14157
   A20        3.14140   0.00000   0.00000   0.00003   0.00003   3.14143
    D1        1.38510  -0.00000   0.00000   0.00058   0.00058   1.38569
    D2       -0.70952   0.00000   0.00000   0.00094   0.00094  -0.70858
    D3       -2.80355  -0.00000   0.00000   0.00017   0.00017  -2.80339
    D4       -2.80387   0.00000   0.00000   0.00103   0.00103  -2.80284
    D5        1.38470   0.00001   0.00000   0.00139   0.00139   1.38608
    D6       -0.70934  -0.00000   0.00000   0.00062   0.00062  -0.70873
    D7       -0.70948   0.00000   0.00000   0.00111   0.00111  -0.70837
    D8       -2.80410   0.00001   0.00000   0.00147   0.00147  -2.80263
    D9        1.38505   0.00000   0.00000   0.00069   0.00069   1.38574
         Item               Value     Threshold  Converged?
 Maximum Force            0.000043     0.000450     YES
 RMS     Force            0.000010     0.000300     YES
 Maximum Displacement     0.004373     0.001800     NO 
 RMS     Displacement     0.001410     0.001200     NO 
 Predicted change in Energy=-5.533521D-08
 GradGradGradGradGradGradGradGradGradGradGradGradGradGradGradGradGradGrad

                          Input orientation:                          
 ---------------------------------------------------------------------
 Center     Atomic      Atomic             Coordinates (Angstroms)
 Number     Number       Type             X           Y           Z
 ---------------------------------------------------------------------
      1          6           0       -3.350802    0.000205   -0.000315
      2          6           0        3.350792    0.000122   -0.000353
      3          6           0       -1.893779   -0.000126    0.000333
      4          6           0        1.893767   -0.000267    0.000481
      5          6           0       -0.687484   -0.000510    0.000863
      6          6           0        0.687472   -0.000552    0.001247
      7          1           0       -3.739614   -0.888150   -0.511910
      8          1           0       -3.740179    0.001606    1.024599
      9          1           0       -3.739333    0.887355   -0.514208
     10          1           0        3.739205    0.339517   -0.967836
     11          1           0        3.740065   -1.007139    0.189263
     12          1           0        3.739890    0.668339    0.776935
 ---------------------------------------------------------------------
                    Distance matrix (angstroms):
                    1          2          3          4          5
     1  C    0.000000
     2  C    6.701595   0.000000
     3  C    1.457024   5.244571   0.000000
     4  C    5.244569   1.457026   3.787546   0.000000
     5  C    2.663319   4.038276   1.206295   2.581250   0.000000
     6  C    4.038275   2.663321   2.581251   1.206295   1.374956
     7  H    1.096393   7.164118   2.111419   5.725894   3.219681
     8  H    1.096388   7.164664   2.111473   5.726270   3.219781
     9  H    1.096393   7.163875   2.111503   5.725783   3.219843
    10  H    7.163758   1.096392   5.725663   2.111571   4.544179
    11  H    7.164571   1.096386   5.726252   2.111456   4.544445
    12  H    7.164387   1.096398   5.726097   2.111418   4.544369
                    6          7          8          9         10
     6  C    0.000000
     7  H    4.544255   0.000000
     8  H    4.544375   1.775536   0.000000
     9  H    4.544301   1.775507   1.775522   0.000000
    10  H    3.219914   7.592613   7.747591   7.512286   0.000000
    11  H    3.219766   7.513415   7.594037   7.747604   1.775489
    12  H    3.219684   7.747694   7.513808   7.593010   1.775486
                   11         12
    11  H    0.000000
[...]
    A6        1.88736   0.00000   0.00000   0.00015   0.00014   1.88749
    A7        1.93358  -0.00002   0.00000  -0.00045  -0.00045   1.93313
    A8        1.93329   0.00000   0.00000  -0.00005  -0.00005   1.93324
    A9        1.93322   0.00003   0.00000   0.00043   0.00043   1.93365
   A10        1.88726   0.00002   0.00000   0.00023   0.00022   1.88748
   A11        1.88734   0.00000   0.00000   0.00000   0.00001   1.88736
   A12        1.88749  -0.00004   0.00000  -0.00016  -0.00016   1.88733
   A13        3.14145  -0.00000   0.00000  -0.00011  -0.00011   3.14134
   A14        3.14214  -0.00005   0.00000  -0.00104  -0.00104   3.14110
   A15        3.14187  -0.00002   0.00000  -0.00032  -0.00033   3.14155
   A16        3.14195  -0.00004   0.00000  -0.00067  -0.00067   3.14128
   A17        3.14195  -0.00001   0.00000  -0.00082  -0.00082   3.14113
   A18        3.14174  -0.00001   0.00000  -0.00120  -0.00121   3.14053
   A19        3.14133   0.00001   0.00000   0.00146   0.00146   3.14280
   A20        3.14146  -0.00000   0.00000  -0.00071  -0.00071   3.14075
    D1        1.38562  -0.00001   0.00000  -0.10116  -0.10116   1.28446
    D2       -0.70897  -0.00001   0.00000  -0.10024  -0.10024  -0.80920
    D3       -2.80286  -0.00002   0.00000  -0.10130  -0.10129  -2.90416
    D4       -2.80365   0.00001   0.00000  -0.10048  -0.10048  -2.90413
    D5        1.38495   0.00001   0.00000  -0.09955  -0.09956   1.28540
    D6       -0.70894  -0.00001   0.00000  -0.10061  -0.10062  -0.80956
    D7       -0.70916   0.00001   0.00000  -0.09995  -0.09994  -0.80910
    D8       -2.80374   0.00001   0.00000  -0.09902  -0.09902  -2.90276
    D9        1.38555  -0.00000   0.00000  -0.10008  -0.10008   1.28547
         Item               Value     Threshold  Converged?
 Maximum Force            0.000046     0.000450     YES
 RMS     Force            0.000016     0.000300     YES
 Maximum Displacement     0.097042     0.001800     NO 
 RMS     Displacement     0.037652     0.001200     NO 
 Predicted change in Energy=-5.647111D-07
                           ----------------------------
                           ! Non-Optimized Parameters !
                           ! (Angstroms and Degrees)  !
 --------------------------                            --------------------------
 ! Name  Definition              Value          Derivative Info.                !
 --------------------------------------------------------------------------------
 ! R1    R(1,3)                  1.457          -DE/DX =    0.0                 !
 ! R2    R(1,7)                  1.0964         -DE/DX =    0.0                 !
 ! R3    R(1,8)                  1.0964         -DE/DX =    0.0                 !
 ! R4    R(1,9)                  1.0964         -DE/DX =    0.0                 !
 ! R5    R(2,4)                  1.4571         -DE/DX =    0.0                 !
 ! R6    R(2,10)                 1.0964         -DE/DX =    0.0                 !
 ! R7    R(2,11)                 1.0964         -DE/DX =    0.0                 !
 ! R8    R(2,12)                 1.0964         -DE/DX =    0.0                 !
 ! R9    R(3,5)                  1.2063         -DE/DX =    0.0                 !
 ! R10   R(4,6)                  1.2063         -DE/DX =    0.0                 !
 ! R11   R(5,6)                  1.3749         -DE/DX =    0.0                 !
 ! A1    A(3,1,7)              110.7654         -DE/DX =    0.0                 !
 ! A2    A(3,1,8)              110.7796         -DE/DX =    0.0                 !
 ! A3    A(3,1,9)              110.7711         -DE/DX =    0.0                 !
 ! A4    A(7,1,8)              108.146          -DE/DX =    0.0                 !
 ! A5    A(7,1,9)              108.1276         -DE/DX =    0.0                 !
 ! A6    A(8,1,9)              108.1454         -DE/DX =    0.0                 !
 ! A7    A(4,2,10)             110.76           -DE/DX =    0.0                 !
 ! A8    A(4,2,11)             110.7664         -DE/DX =    0.0                 !
 ! A9    A(4,2,12)             110.7901         -DE/DX =    0.0                 !
 ! A10   A(10,2,11)            108.1449         -DE/DX =    0.0                 !
 ! A11   A(10,2,12)            108.1375         -DE/DX =    0.0                 !
 ! A12   A(11,2,12)            108.1361         -DE/DX =    0.0                 !
 ! A13   L(1,3,5,7,-1)         179.9857         -DE/DX =    0.0                 !
 ! A14   L(2,4,6,10,-1)        179.9719         -DE/DX =    0.0                 !
 ! A15   L(3,5,6,9,-1)         179.9973         -DE/DX =    0.0                 !
 ! A16   L(4,6,5,10,-1)        179.9821         -DE/DX =    0.0                 !
 ! A17   L(1,3,5,7,-2)         179.9737         -DE/DX =    0.0                 !
 ! A18   L(2,4,6,10,-2)        179.9392         -DE/DX =    0.0                 !
 ! A19   L(3,5,6,9,-2)         180.0689         -DE/DX =    0.0                 !
 ! A20   L(4,6,5,10,-2)        179.9519         -DE/DX =    0.0                 !
 ! D1    D(7,1,2,10)            73.5943         -DE/DX =    0.0                 !
 ! D2    D(7,1,2,11)           -46.3639         -DE/DX =    0.0                 !
 ! D3    D(7,1,2,12)          -166.396          -DE/DX =    0.0                 !
 ! D4    D(8,1,2,10)          -166.3941         -DE/DX =    0.0                 !
 ! D5    D(8,1,2,11)            73.6477         -DE/DX =    0.0                 !
 ! D6    D(8,1,2,12)           -46.3844         -DE/DX =    0.0                 !
 ! D7    D(9,1,2,10)           -46.3579         -DE/DX =    0.0                 !
 ! D8    D(9,1,2,11)          -166.316          -DE/DX =    0.0                 !
 ! D9    D(9,1,2,12)            73.6518         -DE/DX =    0.0                 !
 --------------------------------------------------------------------------------
 GradGradGradGradGradGradGradGradGradGradGradGradGradGradGradGradGradGrad


 ----------------------------------------------------------------------

 Electric dipole moment (input orientation):
 (Debye = 10**-18 statcoulomb cm , SI units = C m)
                  (au)            (Debye)         (10**-30 SI)
   Tot        0.102726D-02      0.261104D-02      0.870949D-02
   x          0.185122D-04      0.470532D-04      0.156953D-03
   y         -0.532663D-03     -0.135389D-02     -0.451610D-02
   z          0.878177D-03      0.223210D-02      0.744549D-02

 Dipole polarizability, Alpha (input orientation).
 (esu units = cm**3 , SI units = C**2 m**2 J**-1)
 Alpha(0;0):
               (au)            (10**-24 esu)      (10**-40 SI)
   iso        0.754447D+02      0.111798D+02      0.124392D+02
   aniso      0.996280D+02      0.147633D+02      0.164264D+02
   xx         0.141863D+03      0.210220D+02      0.233901D+02
   yx        -0.284739D-02     -0.421939D-03     -0.469470D-03
   yy         0.422261D+02      0.625727D+01      0.696215D+01
   zx        -0.714244D-02     -0.105840D-02     -0.117763D-02
   zy         0.521256D-02      0.772422D-03      0.859435D-03
   zz         0.422447D+02      0.626001D+01      0.696520D+01

 ----------------------------------------------------------------------

 Dipole orientation:
     6         -6.33101605         -0.03183022         -0.11381004
     6          6.33102485          0.03179556          0.11439898
     6         -3.57805171         -0.01774890         -0.06575944
     6          3.57812028          0.01766388          0.06263677
     6         -1.29887433         -0.00639858         -0.02557031
     6          1.29896923          0.00637799          0.02097554
     1         -7.05657886         -1.97225566         -0.08255083
     1         -7.09964614          0.97059802          1.52844077
     1         -7.04109030          0.89481234         -1.82547060
     1          7.10382301         -0.36449608         -1.76664536
     1          7.04864914         -1.40592379          1.42230748
     1          7.04470534          1.87716989          0.72920115

 Electric dipole moment (dipole orientation):
 (Debye = 10**-18 statcoulomb cm , SI units = C m)
                  (au)            (Debye)         (10**-30 SI)
   Tot        0.102726D-02      0.261104D-02      0.870949D-02
   x          0.000000D+00      0.000000D+00      0.000000D+00
   y          0.000000D+00      0.000000D+00      0.000000D+00
   z          0.102726D-02      0.261104D-02      0.870949D-02

 Dipole polarizability, Alpha (dipole orientation).
 (esu units = cm**3 , SI units = C**2 m**2 J**-1)
 Alpha(0;0):
               (au)            (10**-24 esu)      (10**-40 SI)
   iso        0.754447D+02      0.111798D+02      0.124392D+02
   aniso      0.996280D+02      0.147633D+02      0.164264D+02
   xx         0.141829D+03      0.210169D+02      0.233844D+02
   yx         0.495480D+00      0.734226D-01      0.816936D-01
   yy         0.422382D+02      0.625906D+01      0.696414D+01
   zx         0.179040D+01      0.265309D+00      0.295197D+00
   zy         0.195269D-01      0.289359D-02      0.321956D-02
   zz         0.422672D+02      0.626336D+01      0.696893D+01

 ----------------------------------------------------------------------
 1\1\GINC-PITOMBA\Freq\RM08HX\6-311++G(d,p)\C6H6\VALTER\20-Sep-2025\0\\
 #N Geom=AllCheck Guess=TCheck SCRF=Check GenChk RM08HX/6-311++G(d,p) F
 req\\HEDI0121\\0,1\C,-3.3508130278,-0.0000511244,0.0001549213\C,3.3508
 232107,-0.0001261357,0.0001019074\C,-1.8937663377,0.00047451,-0.000497
 1514\C,1.893772608,0.0003440399,-0.0009394603\C,-0.6874752586,0.000658
 5321,-0.0009367985\C,0.6874815984,0.0005931719,-0.0011483331\H,-3.7395
 718882,-0.8885491297,-0.5112233286\H,-3.739150122,0.0008481747,1.02546
 25703\H,-3.740354879,0.8870019199,-0.5131281533\H,3.7407042347,0.33876
 81587,-0.9669511375\H,3.7391469387,-1.0076199613,0.1904285536\H,3.7392
 029229,0.6680578439,0.77777641\\Version=ES64L-G16RevB.01\State=1-A\HF=
 -232.1286327\RMSD=2.832e-09\RMSF=9.320e-06\ZeroPoint=0.0947671\Thermal
 =0.1023155\Dipole=0.0000185,-0.0005327,0.0008782\DipoleDeriv=0.0913866
 ,-0.000879,-0.0003991,-0.0016268,0.1147107,-0.0012702,-0.0010375,0.000
 8914,0.1161176,0.0926317,-0.0001801,0.0011047,-0.0006257,0.116629,0.00
 19658,0.0025459,-0.0004822,0.1151294,0.1852056,0.0006415,-0.0001918,0.
 0002913,-0.2042916,0.0005734,0.000335,-0.0002087,-0.2047501,0.1851623,
 -0.0000797,0.0000377,-0.0009251,-0.2047935,-0.0008094,0.0012184,0.0002
 64,-0.2041911,-0.0683818,-0.0001417,0.0002627,-0.0004006,-0.0092568,0.
 0000718,0.00028,0.0001013,-0.0091437,-0.0686686,0.0000546,-0.0003982,0
 .000426,-0.0093714,0.0000268,-0.0007012,-0.0000617,-0.0091985,-0.06909
 7,-0.0224185,-0.0134737,-0.0643999,-0.0014957,-0.0609153,-0.0377881,-0
 .0611968,0.0679322,-0.0699596,-0.0006449,0.0267689,-0.0002045,0.102882
 9,0.0001962,0.0758997,-0.0005078,-0.0381304,-0.0691629,0.0234767,-0.01
 29772,0.0661631,-0.002496,0.0613494,-0.0373702,0.06102,0.0679361,-0.06
 93883,-0.0082089,0.0247816,-0.0242244,0.0877897,0.0429958,0.0700861,0.
 0436394,-0.0216156,-0.0696478,0.0264387,-0.0053849,0.0754636,-0.033477
 9,0.0259511,-0.0150112,0.0264361,0.0984756,-0.0700802,-0.0180588,-0.02
 01305,-0.0499369,0.0431707,-0.0701354,-0.058457,-0.069895,0.0214385\Po
 lar=141.8634129,-0.0028474,42.2261406,-0.0071424,0.0052126,42.2446545\
 Quadrupole=8.8320031,-4.4158492,-4.4161539,0.0000154,0.0001676,0.00015
 18\PG=C01 [X(C6H6)]\NImag=0\\0.52351817,0.00027128,0.53729222,-0.00017
 567,0.00040261,0.53704397,0.00027468,0.00000035,0.00000015,0.52320962,
 0.00000006,-0.00055117,0.00036801,0.00003202,0.53762235,-0.00000033,-0
 .00036885,-0.00055163,-0.00009382,0.00004790,0.53744719,-0.29722698,-0
 .00011049,0.00008452,-0.00268928,0.00000110,0.00000041,1.43652406,-0.0
 0006605,-0.06307075,0.00000015,-0.00000049,0.00011769,0.00019385,0.000
 25058,0.09538840,0.00006255,-0.00005649,-0.06305694,0.00000127,-0.0001
 9244,0.00011838,-0.00047099,-0.00001476,0.09536136,-0.00269074,-0.0000
 0033,0.00000006,-0.29717263,0.00007554,-0.00010369,0.02325282,0.000001
 55,-0.00000614,1.43654205,0.00000024,0.00011937,-0.00019328,0.00012002
 ,-0.06292673,0.00001595,-0.00000310,-0.00017753,0.00007765,-0.00033229
 ,0.09541026,0.00000016,0.00019264,0.00011636,-0.00016117,0.00004899,-0
 .06306844,-0.00000111,-0.00007933,-0.00017583,0.00041738,0.00001240,0.
 09535985,-0.00847455,-0.00001963,0.00001910,0.00737222,-0.00000164,0.0
 0000698,-1.04477495,-0.00015998,0.00035426,-0.05882055,0.00000500,0.00
 000767,1.50289989,-0.00001880,0.00635500,0.00000735,0.00000074,0.00516
 666,0.00000955,-0.00013805,-0.04545646,-0.00000295,0.00000560,0.008591
 02,-0.00001744,0.00013991,0.08143518,0.00002302,-0.00001372,0.00635530
 ,-0.00000755,-0.00001240,0.00516752,0.00033855,0.00001052,-0.04543569,
 0.00000799,0.00002072,0.00859126,-0.00042294,0.00000103,0.08141954,0.0
 0736565,-0.00000013,-0.00000504,-0.00849706,0.00000350,0.00000077,-0.0
 5881460,0.00000192,0.00001256,-1.04476286,0.00021293,-0.00021486,-0.39
 677779,0.00000946,0.00005607,1.50291982,-0.00000156,0.00516885,-0.0000
 0968,-0.00000383,0.00634223,-0.00001009,-0.00000386,0.00859143,0.00001
 975,0.00020623,-0.04546057,0.00000985,0.00002082,-0.05664333,-0.000018
 17,-0.00021809,0.08143717,0.00000357,0.00001424,0.00517253,-0.00001760
 ,0.00000423,0.00636126,0.00001363,-0.00001863,0.00858973,-0.00017493,-
 0.00000500,-0.04545401,0.00004016,0.00001551,-0.05664057,0.00013806,-0
 .00000219,0.08143594,-0.07424738,-0.07469443,-0.04293501,-0.00002393,-
 0.00007045,-0.00020274,-0.01896370,-0.02814579,-0.01622791,0.00021274,
 0.00001390,0.00007726,0.00037794,0.00114843,0.00066755,-0.00085243,0.0
 0102053,0.00059125,0.08634743,-0.07347415,-0.22163381,-0.10280022,-0.0
 0003268,0.00007137,0.00001025,-0.00308065,0.00344987,0.00327658,0.0003
 2064,-0.00004813,-0.00002871,0.00241760,-0.00013747,-0.00068272,-0.000
 81408,-0.00007815,-0.00001059,0.08200291,0.23717360,-0.04215689,-0.102
 74692,-0.10213360,-0.00001880,-0.00010409,0.00000620,-0.00180537,0.003
 27050,-0.00030420,0.00018424,0.00004103,-0.00000161,0.00139721,-0.0006
 8679,0.00064089,-0.00047002,-0.00000913,-0.00006365,0.04714231,0.11176
 469,0.10723419,-0.07403234,0.00007667,0.08610411,-0.00002390,-0.000141
 60,0.00016344,-0.01896332,0.00001843,0.03251771,0.00021280,0.00005966,
 -0.00004944,0.00035958,0.00000171,-0.00132987,-0.00084884,0.00000186,-
 0.00118059,0.00368608,0.00130732,-0.01080902,0.08615497,0.00008811,-0.
 04308549,-0.00028840,0.00000003,0.00006297,0.00010886,-0.00002568,-0.0
 0221063,0.00003461,-0.00000054,-0.00001891,-0.00005730,0.00000359,0.00
 104415,0.00000374,-0.00000013,-0.00005768,-0.00000518,0.01000222,0.000
 63040,-0.02443308,-0.00006266,0.04300464,0.08462947,-0.00026721,-0.280
 47232,0.00003754,-0.00000496,0.00001430,0.00360527,0.00001243,0.005291
 36,-0.00036965,0.00001168,-0.00003094,-0.00277850,-0.00000493,-0.00053
 599,0.00094087,-0.00000119,-0.00008302,0.00423936,0.00123904,-0.012691
 94,-0.09455432,0.00030332,0.30124551,-0.07441320,0.07447892,-0.0430905
 9,-0.00002408,0.00021092,0.00004232,-0.01898191,0.02809902,-0.01624387
 ,0.00021227,-0.00007422,-0.00002638,0.00039008,-0.00114858,0.00066542,
 -0.00085348,-0.00102209,0.00058795,0.00369579,-0.00864763,0.00653684,0
 .00368842,-0.01000455,0.00424867,0.08651859,0.07320074,-0.22070968,0.1
 0268401,0.00003246,-0.00001842,0.00005192,0.00311047,0.00344180,-0.003
 24551,-0.00031959,-0.00000810,-0.00001745,-0.00240806,-0.00014765,0.00
 068680,0.00081464,-0.00007426,0.00000905,0.00872164,-0.01939998,0.0128
 5346,-0.00134157,0.00065925,-0.00128257,-0.08181229,0.23623703,-0.0423
 8579,0.10267238,-0.10259040,-0.00001871,-0.00006177,0.00009587,-0.0017
 6540,-0.00327055,-0.00031297,0.00018521,0.00005135,-0.00004109,0.00138
 273,0.00068215,0.00064636,-0.00046788,0.00001289,-0.00006754,0.0065566
 2,-0.01277422,0.00731043,-0.01081395,0.02438332,-0.01274137,0.04732686
 ,-0.11171713,0.10774537,-0.00002429,0.00007952,0.00019953,-0.07435820,
 -0.02843986,0.08155154,0.00021282,-0.00003984,-0.00006713,-0.01903075,
 -0.01073932,0.03066287,-0.00085018,0.00038822,-0.00111569,0.00037282,0
 .00043648,-0.00125151,-0.00003273,-0.00000357,-0.00001825,-0.00012368,
 -0.00003305,-0.00001167,-0.00007577,-0.00002292,-0.00004023,0.08648775
 ,-0.00001238,0.00009005,-0.00008263,-0.02799201,-0.06895771,0.07419727
 ,0.00012223,-0.00003424,0.00005651,-0.00115793,-0.00139976,-0.00236858
 ,-0.00030890,-0.00006186,0.00001031,0.00091378,0.00087187,0.00048886,0
 .00000932,-0.00001726,0.00002923,0.00003532,-0.00002694,-0.00000253,-0
 .00004370,0.00000187,0.00000688,0.03122323,0.07114992,0.00003537,0.000
 03189,-0.00001201,0.08019675,0.07413187,-0.25462937,-0.00034875,-0.000
 01312,-0.00001583,0.00334657,-0.00235096,0.00455390,0.00088368,0.00000
 861,-0.00007780,-0.00261781,0.00049239,-0.00037283,0.00001589,-0.00000
 549,0.00001017,-0.00000093,-0.00000982,0.00000805,-0.00001586,0.000004
 28,-0.00000042,-0.08952979,-0.08066501,0.27305181,-0.00002462,0.000132
 23,-0.00016971,-0.07405524,0.08455541,-0.01602411,0.00021225,-0.000038
 04,0.00006845,-0.01897024,0.03192315,-0.00604730,-0.00085234,-0.001159
 84,0.00022261,0.00038064,-0.00130363,0.00024546,-0.00007597,-0.0000228
 2,0.00004032,-0.00003330,-0.00001380,0.00001257,-0.00012355,0.00000660
 ,0.00003461,0.00370569,-0.01087393,0.00069510,0.08615546,0.00003692,0.
 00003492,0.00000050,0.08312917,-0.27276528,0.04335483,-0.00036322,-0.0
 0003888,0.00001563,0.00356832,0.00497090,-0.00138186,0.00092376,-0.000
 07951,0.00000263,-0.00274136,-0.00047296,0.00028948,0.00000922,-0.0000
 0459,-0.00000066,0.00001004,-0.00000692,-0.00000065,-0.00001721,0.0000
 0452,-0.00000853,0.00231126,-0.00804604,0.00041670,-0.09287490,0.29283
 922,-0.00000700,0.00011411,0.00004226,-0.01571878,0.04331403,-0.051151
 10,0.00006864,-0.00005346,-0.00001069,-0.00070370,-0.00134803,-0.00194
 947,-0.00017661,-0.00000119,-0.00005793,0.00052441,0.00029477,0.000986
 50,0.00004534,-0.00000318,0.00000609,-0.00001617,-0.00003505,-0.000000
 14,-0.00003047,-0.00001561,-0.00002344,-0.01062385,0.02605945,-0.00402
 453,0.01760524,-0.04715741,0.05172608,-0.00002439,-0.00021394,-0.00003
 145,-0.07401219,-0.05622501,-0.06534077,0.00021279,0.00007868,-0.00000
 077,-0.01898492,-0.02118597,-0.02466510,-0.00084936,0.00077120,0.00089
 484,0.00036813,0.00086713,0.00100455,-0.00012383,0.00002711,-0.0000225
 8,-0.00007647,0.00004646,0.00000039,-0.00003317,0.00001788,0.00000592,
 0.00371653,0.00808497,0.00733980,0.00368121,0.00600802,0.00903296,0.08
 612569,-0.00002441,-0.00000951,-0.00008841,-0.05528579,-0.14416396,-0.
 11761143,0.00024067,-0.00000069,0.00003142,-0.00236719,0.00094817,0.00
 368679,-0.00061244,-0.00006574,-0.00000873,0.00181756,0.00037541,-0.00
 077978,-0.00001750,-0.00000585,0.00002176,0.00003480,0.00000515,-0.000
 00243,-0.00001859,0.00001362,0.00002321,0.00483985,0.00643010,0.007958
 66,-0.01033042,-0.01643538,-0.02116842,0.06172347,0.15290868,-0.000028
 45,0.00002532,0.00008649,-0.06419927,-0.11753938,-0.17981017,0.0002806
 0,-0.00003758,-0.00004869,-0.00278335,0.00366649,0.00210003,-0.0007137
 5,-0.00001090,-0.00007288,0.00210287,-0.00077919,0.00013565,0.00003008
 ,0.00001457,-0.00001297,-0.00003098,-0.00000501,-0.00000349,-0.0000008
 9,-0.00001125,-0.00002078,-0.00975582,-0.01772976,-0.01849114,0.003316
 76,0.00446932,0.00445637,0.07178219,0.12793736,0.19168158\\0.00002142,
 0.00000235,-0.00002028,0.00000783,0.00000520,0.00000344,-0.00000878,0.
 00000165,0.00000617,0.00000851,0.00000031,-0.00000596,-0.00000255,0.00
 000320,0.00000419,0.00000274,-0.00000020,-0.00000684,-0.00000985,0.000
 00028,0.00001346,0.00000203,-0.00000461,-0.00000214,-0.00001057,-0.000
 00068,0.00000696,0.00001186,-0.00001388,0.00001057,-0.00000379,-0.0000
 0474,-0.00001822,-0.00001885,0.00001112,0.00000865\\\@


 Any fool can criticize, condemn, and complain -- and most do.
 -- Dale Carnegie
 Job cpu time:       0 days  0 hours 27 minutes 50.9 seconds.
 Elapsed time:       0 days  0 hours  1 minutes 46.0 seconds.
 File lengths (MBytes):  RWF=     37 Int=      0 D2E=      0 Chk=      4 Scr=      1
 Normal termination of Gaussian 16 at Sat Sep 20 03:51:29 2025.
