 Entering Gaussian System, Link 0=g16
 Input=HEYN0122.gjf
 Output=HEYN0122.log
 Initial command:
 /usr/local/g16/l1.exe "/dados_01/scratch/Gau-2106142.inp" -scrdir="/dados_01/scratch/"
 Entering Link 1 = /usr/local/g16/l1.exe PID=   2106143.
  
 Copyright (c) 1988-2017, Gaussian, Inc.  All Rights Reserved.
  
 This is part of the Gaussian(R) 16 program.  It is based on
 the Gaussian(R) 09 system (copyright 2009, Gaussian, Inc.),
 the Gaussian(R) 03 system (copyright 2003, Gaussian, Inc.),
 the Gaussian(R) 98 system (copyright 1998, Gaussian, Inc.),
 the Gaussian(R) 94 system (copyright 1995, Gaussian, Inc.),
 the Gaussian 92(TM) system (copyright 1992, Gaussian, Inc.),
 the Gaussian 90(TM) system (copyright 1990, Gaussian, Inc.),
 the Gaussian 88(TM) system (copyright 1988, Gaussian, Inc.),
 the Gaussian 86(TM) system (copyright 1986, Carnegie Mellon
 University), and the Gaussian 82(TM) system (copyright 1983,
 Carnegie Mellon University). Gaussian is a federally registered
 trademark of Gaussian, Inc.
  
 This software contains proprietary and confidential information,
 including trade secrets, belonging to Gaussian, Inc.
  
 This software is provided under written license and may be
 used, copied, transmitted, or stored only in accord with that
 written license.
  
 The following legend is applicable only to US Government
 contracts under FAR:
  
                    RESTRICTED RIGHTS LEGEND
  
 Use, reproduction and disclosure by the US Government is
 subject to restrictions as set forth in subparagraphs (a)
 and (c) of the Commercial Computer Software - Restricted
 Rights clause in FAR 52.227-19.
  
 Gaussian, Inc.
 340 Quinnipiac St., Bldg. 40, Wallingford CT 06492
  
  
 ---------------------------------------------------------------
 Warning -- This program may not be used in any manner that
 competes with the business of Gaussian, Inc. or will provide
 assistance to any competitor of Gaussian, Inc.  The licensee
 of this program is prohibited from giving any competitor of
 Gaussian, Inc. access to this program.  By using this program,
 the user acknowledges that Gaussian, Inc. is engaged in the
 business of creating and licensing software in the field of
 computational chemistry and represents and warrants to the
 licensee that it is not a competitor of Gaussian, Inc. and that
 it will not use this program in any manner prohibited above.
 ---------------------------------------------------------------
  

 Cite this work as:
 Gaussian 16, Revision B.01,
 M. J. Frisch, G. W. Trucks, H. B. Schlegel, G. E. Scuseria, 
 M. A. Robb, J. R. Cheeseman, G. Scalmani, V. Barone, 
 G. A. Petersson, H. Nakatsuji, X. Li, M. Caricato, A. V. Marenich, 
 J. Bloino, B. G. Janesko, R. Gomperts, B. Mennucci, H. P. Hratchian, 
 J. V. Ortiz, A. F. Izmaylov, J. L. Sonnenberg, D. Williams-Young, 
 F. Ding, F. Lipparini, F. Egidi, J. Goings, B. Peng, A. Petrone, 
 T. Henderson, D. Ranasinghe, V. G. Zakrzewski, J. Gao, N. Rega, 
 G. Zheng, W. Liang, M. Hada, M. Ehara, K. Toyota, R. Fukuda, 
 J. Hasegawa, M. Ishida, T. Nakajima, Y. Honda, O. Kitao, H. Nakai, 
 T. Vreven, K. Throssell, J. A. Montgomery, Jr., J. E. Peralta, 
 F. Ogliaro, M. J. Bearpark, J. J. Heyd, E. N. Brothers, K. N. Kudin, 
 V. N. Staroverov, T. A. Keith, R. Kobayashi, J. Normand, 
 K. Raghavachari, A. P. Rendell, J. C. Burant, S. S. Iyengar, 
 J. Tomasi, M. Cossi, J. M. Millam, M. Klene, C. Adamo, R. Cammi, 
 J. W. Ochterski, R. L. Martin, K. Morokuma, O. Farkas, 
 J. B. Foresman, and D. J. Fox, Gaussian, Inc., Wallingford CT, 2016.
 
 ******************************************
 Gaussian 16:  ES64L-G16RevB.01 20-Dec-2017
                20-Sep-2025 
 ******************************************
 %nprocs=16
 Will use up to   16 processors via shared memory.
 %mem=40GB
 %chk=HEYN0122.chk
 ----------------------------------------------------------------------
 # opt freq=noraman M08HX/6-311++G** scf=xqc Empiricaldispersion=pfd In
 t(Grid=ultraFine)
 ----------------------------------------------------------------------
 1/18=20,19=15,26=4,38=1/1,3;
 2/9=110,12=2,17=6,18=5,40=1/2;
 3/5=4,6=6,7=1111,11=2,25=1,30=1,71=1,74=-74,75=-5,124=11/1,2,3;
 4//1;
 5/5=2,8=3,13=1,38=5/2,8;
 6/7=2,8=2,9=2,10=2,28=1/1;
 7//1,2,3,16;
 1/18=20,19=15,26=4/3(2);
 2/9=110/2;
 99//99;
 2/9=110/2;
 3/5=4,6=6,7=1111,11=2,25=1,30=1,71=1,74=-74,75=-5,124=11/1,2,3;
 4/5=5,16=3,69=1/1;
 5/5=2,8=3,13=1,38=5/2,8;
 7//1,2,3,16;
 1/18=20,19=15,26=4/3(-5);
 2/9=110/2;
 6/7=2,8=2,9=2,10=2,19=2,28=1/1;
 99/9=1/99;
 --------
 HEYN0122
 --------
 Symbolic Z-matrix:
 Charge =  0 Multiplicity = 1
 C                    -1.2754    0.4201    0.0238 
 C                     0.089    -0.2711   -0.0046 
 C                    -2.4153   -0.5977   -0.0021 
 C                     1.229     0.7473   -0.0122 
 C                    -3.7728    0.0868   -0.0075 
 C                     2.5373    0.0786   -0.0029 
 C                     3.6082   -0.464     0.0054 
 H                    -1.3559    1.0405    0.9247 
 H                    -1.3638    1.0909   -0.8395 
 H                     0.1604   -0.9119   -0.8929 
 H                     0.1838   -0.9303    0.8681 
 H                    -2.3464   -1.2562    0.8716 
 H                    -2.3299   -1.2307   -0.8931 
 H                     1.1485    1.4015    0.8638 
 H                     1.1502    1.3867   -0.8992 
 H                    -4.5735   -0.6593   -0.0248 
 H                    -3.8861    0.7271   -0.8882 
 H                    -3.9039    0.7051    0.8863 
 H                     4.558    -0.9456    0.0127 
 

 GradGradGradGradGradGradGradGradGradGradGradGradGradGradGradGradGradGrad
 Berny optimization.
 Initialization pass.
                           ----------------------------
                           !    Initial Parameters    !
                           ! (Angstroms and Degrees)  !
 --------------------------                            --------------------------
 ! Name  Definition              Value          Derivative Info.                !
 --------------------------------------------------------------------------------
 ! R1    R(1,2)                  1.5298         estimate D2E/DX2                !
 ! R2    R(1,3)                  1.5284         estimate D2E/DX2                !
 ! R3    R(1,8)                  1.0968         estimate D2E/DX2                !
 ! R4    R(1,9)                  1.0968         estimate D2E/DX2                !
 ! R5    R(2,4)                  1.5287         estimate D2E/DX2                !
 ! R6    R(2,10)                 1.0976         estimate D2E/DX2                !
 ! R7    R(2,11)                 1.0978         estimate D2E/DX2                !
 ! R8    R(3,5)                  1.5203         estimate D2E/DX2                !
 ! R9    R(3,12)                 1.0962         estimate D2E/DX2                !
 ! R10   R(3,13)                 1.0963         estimate D2E/DX2                !
 ! R11   R(4,6)                  1.4693         estimate D2E/DX2                !
 ! R12   R(4,14)                 1.0963         estimate D2E/DX2                !
 ! R13   R(4,15)                 1.0963         estimate D2E/DX2                !
 ! R14   R(5,16)                 1.0946         estimate D2E/DX2                !
 ! R15   R(5,17)                 1.0947         estimate D2E/DX2                !
 ! R16   R(5,18)                 1.0947         estimate D2E/DX2                !
 ! R17   R(6,7)                  1.2005         estimate D2E/DX2                !
 ! R18   R(7,19)                 1.0649         estimate D2E/DX2                !
 ! A1    A(2,1,3)              111.3458         estimate D2E/DX2                !
 ! A2    A(2,1,8)              109.6508         estimate D2E/DX2                !
 ! A3    A(2,1,9)              109.4875         estimate D2E/DX2                !
 ! A4    A(3,1,8)              109.6247         estimate D2E/DX2                !
 ! A5    A(3,1,9)              109.5007         estimate D2E/DX2                !
 ! A6    A(8,1,9)              107.1362         estimate D2E/DX2                !
 ! A7    A(1,2,4)              111.3595         estimate D2E/DX2                !
 ! A8    A(1,2,10)             109.6836         estimate D2E/DX2                !
 ! A9    A(1,2,11)             109.4863         estimate D2E/DX2                !
 ! A10   A(4,2,10)             109.6575         estimate D2E/DX2                !
 ! A11   A(4,2,11)             109.8522         estimate D2E/DX2                !
 ! A12   A(10,2,11)            106.6888         estimate D2E/DX2                !
 ! A13   A(1,3,5)              111.4803         estimate D2E/DX2                !
 ! A14   A(1,3,12)             109.8549         estimate D2E/DX2                !
 ! A15   A(1,3,13)             109.888          estimate D2E/DX2                !
 ! A16   A(5,3,12)             109.2326         estimate D2E/DX2                !
 ! A17   A(5,3,13)             109.0646         estimate D2E/DX2                !
 ! A18   A(12,3,13)            107.2186         estimate D2E/DX2                !
 ! A19   A(2,4,6)              111.1493         estimate D2E/DX2                !
 ! A20   A(2,4,14)             109.8051         estimate D2E/DX2                !
 ! A21   A(2,4,15)             109.8149         estimate D2E/DX2                !
 ! A22   A(6,4,14)             109.3847         estimate D2E/DX2                !
 ! A23   A(6,4,15)             109.5462         estimate D2E/DX2                !
 ! A24   A(14,4,15)            107.0496         estimate D2E/DX2                !
 ! A25   A(3,5,16)             110.2634         estimate D2E/DX2                !
 ! A26   A(3,5,17)             111.0145         estimate D2E/DX2                !
 ! A27   A(3,5,18)             110.9978         estimate D2E/DX2                !
 ! A28   A(16,5,17)            108.0748         estimate D2E/DX2                !
 ! A29   A(16,5,18)            108.0771         estimate D2E/DX2                !
 ! A30   A(17,5,18)            108.3064         estimate D2E/DX2                !
 ! A31   L(4,6,7,11,-1)        180.1709         estimate D2E/DX2                !
 ! A32   L(6,7,19,11,-1)       179.9857         estimate D2E/DX2                !
 ! A33   L(4,6,7,11,-2)        180.1422         estimate D2E/DX2                !
 ! A34   L(6,7,19,11,-2)       179.9833         estimate D2E/DX2                !
 ! D1    D(3,1,2,4)            178.6516         estimate D2E/DX2                !
 ! D2    D(3,1,2,10)            57.0827         estimate D2E/DX2                !
 ! D3    D(3,1,2,11)           -59.668          estimate D2E/DX2                !
 ! D4    D(8,1,2,4)            -59.8521         estimate D2E/DX2                !
 ! D5    D(8,1,2,10)           178.5789         estimate D2E/DX2                !
 ! D6    D(8,1,2,11)            61.8283         estimate D2E/DX2                !
 ! D7    D(9,1,2,4)             57.4214         estimate D2E/DX2                !
 ! D8    D(9,1,2,10)           -64.1476         estimate D2E/DX2                !
 ! D9    D(9,1,2,11)           179.1018         estimate D2E/DX2                !
 ! D10   D(2,1,3,5)           -178.6415         estimate D2E/DX2                !
 ! D11   D(2,1,3,12)            60.1292         estimate D2E/DX2                !
 ! D12   D(2,1,3,13)           -57.6017         estimate D2E/DX2                !
 ! D13   D(8,1,3,5)             59.847          estimate D2E/DX2                !
 ! D14   D(8,1,3,12)           -61.3823         estimate D2E/DX2                !
 ! D15   D(8,1,3,13)          -179.1132         estimate D2E/DX2                !
 ! D16   D(9,1,3,5)            -57.419          estimate D2E/DX2                !
 ! D17   D(9,1,3,12)          -178.6482         estimate D2E/DX2                !
 ! D18   D(9,1,3,13)            63.6208         estimate D2E/DX2                !
 ! D19   D(1,2,4,6)            178.4701         estimate D2E/DX2                !
 ! D20   D(1,2,4,14)            57.3008         estimate D2E/DX2                !
 ! D21   D(1,2,4,15)           -60.1509         estimate D2E/DX2                !
 ! D22   D(10,2,4,6)           -59.9458         estimate D2E/DX2                !
 ! D23   D(10,2,4,14)          178.8849         estimate D2E/DX2                !
 ! D24   D(10,2,4,15)           61.4331         estimate D2E/DX2                !
 ! D25   D(11,2,4,6)            57.0026         estimate D2E/DX2                !
 ! D26   D(11,2,4,14)          -64.1668         estimate D2E/DX2                !
 ! D27   D(11,2,4,15)          178.3815         estimate D2E/DX2                !
 ! D28   D(1,3,5,16)          -179.9269         estimate D2E/DX2                !
 ! D29   D(1,3,5,17)            60.3298         estimate D2E/DX2                !
 ! D30   D(1,3,5,18)           -60.1914         estimate D2E/DX2                !
 ! D31   D(12,3,5,16)          -58.3359         estimate D2E/DX2                !
 ! D32   D(12,3,5,17)         -178.0792         estimate D2E/DX2                !
 ! D33   D(12,3,5,18)           61.3996         estimate D2E/DX2                !
 ! D34   D(13,3,5,16)           58.554          estimate D2E/DX2                !
 ! D35   D(13,3,5,17)          -61.1893         estimate D2E/DX2                !
 ! D36   D(13,3,5,18)          178.2895         estimate D2E/DX2                !
 --------------------------------------------------------------------------------
 Trust Radius=3.00D-01 FncErr=1.00D-07 GrdErr=1.00D-06 EigMax=2.50D+02 EigMin=1.00D-04
 Number of steps in this run=     98 maximum allowed number of steps=    114.
 GradGradGradGradGradGradGradGradGradGradGradGradGradGradGradGradGradGrad

                          Input orientation:                          
 ---------------------------------------------------------------------
 Center     Atomic      Atomic             Coordinates (Angstroms)
 Number     Number       Type             X           Y           Z
 ---------------------------------------------------------------------
      1          6           0       -1.275400    0.420100    0.023800
      2          6           0        0.089000   -0.271100   -0.004600
      3          6           0       -2.415300   -0.597700   -0.002100
      4          6           0        1.229000    0.747300   -0.012200
      5          6           0       -3.772800    0.086800   -0.007500
      6          6           0        2.537300    0.078600   -0.002900
      7          6           0        3.608200   -0.464000    0.005400
      8          1           0       -1.355900    1.040500    0.924700
      9          1           0       -1.363800    1.090900   -0.839500
     10          1           0        0.160400   -0.911900   -0.892900
     11          1           0        0.183800   -0.930300    0.868100
     12          1           0       -2.346400   -1.256200    0.871600
     13          1           0       -2.329900   -1.230700   -0.893100
     14          1           0        1.148500    1.401500    0.863800
     15          1           0        1.150200    1.386700   -0.899200
     16          1           0       -4.573500   -0.659300   -0.024800
     17          1           0       -3.886100    0.727100   -0.888200
     18          1           0       -3.903900    0.705100    0.886300
     19          1           0        4.558000   -0.945600    0.012700
 ---------------------------------------------------------------------
                    Distance matrix (angstroms):
                    1          2          3          4          5
     1  C    0.000000
     2  C    1.529755   0.000000
     3  C    1.528385   2.525508   0.000000
     4  C    2.525940   1.528658   3.884591   0.000000
     5  C    2.519737   3.878350   1.520321   5.045224   0.000000
     6  C    3.828056   2.473149   4.998563   1.469318   6.310107
     7  C    4.963015   3.524497   6.024988   2.669860   7.401534
     8  H    1.096812   2.161395   2.159858   2.765042   2.760425
     9  H    1.096847   2.159336   2.158300   2.743191   2.739292
    10  H    2.162426   1.097634   2.743443   2.161130   4.153480
    11  H    2.160020   1.097787   2.761013   2.163727   4.178020
    12  H    2.162357   2.769354   1.096230   4.192684   2.147343
    13  H    2.162826   2.749789   1.096295   4.165842   2.145240
    14  H    2.746641   2.162001   4.176991   1.096282   5.167862
    15  H    2.769437   2.162118   4.177969   1.096271   5.169216
    16  H    3.470581   4.678676   2.159198   5.970569   1.094571
    17  H    2.782400   4.192681   2.168760   5.189608   1.094739
    18  H    2.781033   4.205939   2.168518   5.211117   1.094697
    19  H    5.991145   4.519647   6.981989   3.734805   8.394551
                    6          7          8          9         10
     6  C    0.000000
     7  C    1.200546   0.000000
     8  H    4.116151   5.267914   0.000000
     9  H    4.116216   5.277533   1.764937   0.000000
    10  H    2.724490   3.590944   3.068339   2.517389   0.000000
    11  H    2.704715   3.562050   2.501586   3.065324   1.761252
    12  H    5.137798   6.069196   2.501748   3.066308   3.084809
    13  H    5.118238   6.054433   3.067804   2.515164   2.510623
    14  H    2.104756   3.204226   2.531017   3.051123   3.068250
    15  H    2.106781   3.207048   3.118814   2.532046   2.502660
    16  H    7.149018   8.184086   3.760827   3.745545   4.819462
    17  H    6.516470   7.640797   3.128376   2.548866   4.365834
    18  H    6.532399   7.653393   2.570267   3.095050   4.722158
    19  H    2.265493   1.064947   6.304804   6.319912   4.490004
                   11         12         13         14         15
    11  H    0.000000
    12  H    2.551105   0.000000
    13  H    3.083951   1.764961   0.000000
    14  H    2.523481   4.390644   4.702599   0.000000
    15  H    3.070141   4.727247   4.354528   1.763063   0.000000
    16  H    4.847950   2.473822   2.472688   6.146364   6.140964
    17  H    4.732404   3.066113   2.500952   5.373222   5.079322
    18  H    4.402744   2.504540   3.064484   5.100218   5.403380
    19  H    4.457081   6.964547   6.953051   4.225866   4.228982
                   16         17         18         19
    16  H    0.000000
    17  H    1.772028   0.000000
    18  H    1.772020   1.774726   0.000000
    19  H    9.136064   8.655193   8.665549   0.000000
 Stoichiometry    C7H12
 Framework group  C1[X(C7H12)]
 Deg. of freedom    51
 Full point group                 C1      NOp   1
 Largest Abelian subgroup         C1      NOp   1
 Largest concise Abelian subgroup C1      NOp   1
                         Standard orientation:                         
 ---------------------------------------------------------------------
 Center     Atomic      Atomic             Coordinates (Angstroms)
 Number     Number       Type             X           Y           Z
 ---------------------------------------------------------------------
      1          6           0       -1.044075    0.409207    0.024055
      2          6           0        0.322410   -0.277862   -0.004359
      3          6           0       -2.180888   -0.612054   -0.001301
      4          6           0        1.459315    0.743987   -0.012503
      5          6           0       -3.540458    0.068325   -0.006686
      6          6           0        2.769639    0.079261   -0.003215
      7          6           0        3.842180   -0.460087    0.005074
      8          1           0       -1.126295    1.029661    0.924762
      9          1           0       -1.134662    1.079447   -0.839453
     10          1           0        0.395594   -0.918740   -0.892458
     11          1           0        0.419364   -0.936480    0.868544
     12          1           0       -2.109835   -1.270050    0.872607
     13          1           0       -2.093728   -1.245089   -0.892105
     14          1           0        1.376988    1.398233    0.863293
     15          1           0        1.378418    1.382849   -0.899703
     16          1           0       -4.338895   -0.680205   -0.023593
     17          1           0       -3.655856    0.707984   -0.887579
     18          1           0       -3.673273    0.686523    0.886932
     19          1           0        4.793438   -0.938802    0.012364
 ---------------------------------------------------------------------
 Rotational constants (GHZ):          13.2959986           0.8307948           0.8014513
 Standard basis: 6-311++G(d,p) (5D, 7F)
 There are   245 symmetry adapted cartesian basis functions of A   symmetry.
 There are   238 symmetry adapted basis functions of A   symmetry.
   238 basis functions,   360 primitive gaussians,   245 cartesian basis functions
    27 alpha electrons       27 beta electrons
       nuclear repulsion energy       272.8546860028 Hartrees.
 NAtoms=   19 NActive=   19 NUniq=   19 SFac= 1.00D+00 NAtFMM=   60 NAOKFM=F Big=F
 Integral buffers will be    131072 words long.
 Raffenetti 2 integral format.
 Two-electron integral symmetry is turned on.
 R6APFD:  NTU= -4 IXU= 1 FactS= 1.050
 Nuclear repulsion after empirical dispersion term =      272.8446601913 Hartrees.
 One-electron integrals computed using PRISM.
 NBasis=   238 RedAO= T EigKep=  4.81D-06  NBF=   238
 NBsUse=   237 1.00D-06 EigRej=  7.09D-07 NBFU=   237
 ExpMin= 3.60D-02 ExpMax= 4.56D+03 ExpMxC= 6.82D+02 IAcc=3 IRadAn=         5 AccDes= 0.00D+00
 Harris functional with IExCor= 1009 and IRadAn=       5 diagonalized for initial guess.
 HarFok:  IExCor= 1009 AccDes= 0.00D+00 IRadAn=         5 IDoV= 1 UseB2=F ITyADJ=14
 ICtDFT=  3500011 ScaDFX=  1.000000  1.000000  1.000000  1.000000
 FoFCou: FMM=F IPFlag=           0 FMFlag=      100000 FMFlg1=           0
         NFxFlg=           0 DoJE=T BraDBF=F KetDBF=T FulRan=T
         wScrn=  0.000000 ICntrl=       500 IOpCl=  0 I1Cent=   200000004 NGrid=           0
         NMat0=    1 NMatS0=      1 NMatT0=    0 NMatD0=    1 NMtDS0=    0 NMtDT0=    0
 Petite list used in FoFCou.
 Requested convergence on RMS density matrix=1.00D-08 within  32 cycles.
 Requested convergence on MAX density matrix=1.00D-06.
 Requested convergence on             energy=1.00D-06.
 No special actions if energy rises.
 SCF Done:  E(RM08HX) =  -273.920838264     A.U. after   12 cycles
            NFock= 12  Conv=0.75D-08     -V/T= 2.0056
 QCSCF skips out because SCF is already converged.

 **********************************************************************

            Population analysis using the SCF Density.

 **********************************************************************

 Orbital symmetries:
       Occupied  (A) (A) (A) (A) (A) (A) (A) (A) (A) (A) (A) (A)
                 (A) (A) (A) (A) (A) (A) (A) (A) (A) (A) (A) (A)
                 (A) (A) (A)
       Virtual   (A) (A) (A) (A) (A) (A) (A) (A) (A) (A) (A) (A)
                 (A) (A) (A) (A) (A) (A) (A) (A) (A) (A) (A) (A)
                 (A) (A) (A) (A) (A) (A) (A) (A) (A) (A) (A) (A)
                 (A) (A) (A) (A) (A) (A) (A) (A) (A) (A) (A) (A)
                 (A) (A) (A) (A) (A) (A) (A) (A) (A) (A) (A) (A)
                 (A) (A) (A) (A) (A) (A) (A) (A) (A) (A) (A) (A)
                 (A) (A) (A) (A) (A) (A) (A) (A) (A) (A) (A) (A)
                 (A) (A) (A) (A) (A) (A) (A) (A) (A) (A) (A) (A)
                 (A) (A) (A) (A) (A) (A) (A) (A) (A) (A) (A) (A)
                 (A) (A) (A) (A) (A) (A) (A) (A) (A) (A) (A) (A)
                 (A) (A) (A) (A) (A) (A) (A) (A) (A) (A) (A) (A)
                 (A) (A) (A) (A) (A) (A) (A) (A) (A) (A) (A) (A)
                 (A) (A) (A) (A) (A) (A) (A) (A) (A) (A) (A) (A)
                 (A) (A) (A) (A) (A) (A) (A) (A) (A) (A) (A) (A)
                 (A) (A) (A) (A) (A) (A) (A) (A) (A) (A) (A) (A)
                 (A) (A) (A) (A) (A) (A) (A) (A) (A) (A) (A) (A)
                 (A) (A) (A) (A) (A) (A) (A) (A) (A) (A) (A) (A)
                 (A) (A) (A) (A) (A) (A)
 The electronic state is 1-A.
 Alpha  occ. eigenvalues --  -10.55283 -10.53140 -10.53077 -10.52640 -10.52451
 Alpha  occ. eigenvalues --  -10.51648 -10.51479  -0.92949  -0.88837  -0.83728
 Alpha  occ. eigenvalues --   -0.78225  -0.70208  -0.66976  -0.60350  -0.56441
 Alpha  occ. eigenvalues --   -0.53872  -0.52210  -0.49301  -0.48716  -0.46290
 Alpha  occ. eigenvalues --   -0.43511  -0.41080  -0.40106  -0.39339  -0.39204
 Alpha  occ. eigenvalues --   -0.33189  -0.33011
 Alpha virt. eigenvalues --   -0.02738  -0.01408  -0.01294  -0.01120  -0.00012
 Alpha virt. eigenvalues --    0.01238   0.01640   0.02397   0.02434   0.03556
 Alpha virt. eigenvalues --    0.04196   0.04339   0.04853   0.05048   0.06412
 Alpha virt. eigenvalues --    0.06843   0.07452   0.09011   0.10437   0.10848
 Alpha virt. eigenvalues --    0.11156   0.11225   0.11679   0.12230   0.12393
 Alpha virt. eigenvalues --    0.12866   0.13309   0.13748   0.13936   0.14670
 Alpha virt. eigenvalues --    0.14925   0.15489   0.15814   0.16377   0.17181
 Alpha virt. eigenvalues --    0.17772   0.18424   0.18933   0.19579   0.20709
 Alpha virt. eigenvalues --    0.21898   0.22116   0.23301   0.23610   0.24934
 Alpha virt. eigenvalues --    0.26173   0.26868   0.27251   0.29116   0.30080
 Alpha virt. eigenvalues --    0.31089   0.32272   0.32742   0.33100   0.34305
 Alpha virt. eigenvalues --    0.35499   0.36595   0.37058   0.43960   0.45637
 Alpha virt. eigenvalues --    0.46344   0.46894   0.47957   0.51497   0.54627
 Alpha virt. eigenvalues --    0.55226   0.58279   0.58344   0.63101   0.63757
 Alpha virt. eigenvalues --    0.66006   0.66905   0.67707   0.69048   0.69766
 Alpha virt. eigenvalues --    0.70015   0.70518   0.70706   0.71142   0.72045
 Alpha virt. eigenvalues --    0.73758   0.74940   0.75269   0.75313   0.76224
 Alpha virt. eigenvalues --    0.77235   0.77820   0.78442   0.79181   0.79716
 Alpha virt. eigenvalues --    0.84375   0.86428   0.94068   0.98475   1.00487
 Alpha virt. eigenvalues --    1.01441   1.04048   1.04987   1.09108   1.15148
 Alpha virt. eigenvalues --    1.18041   1.20424   1.20738   1.23572   1.28119
 Alpha virt. eigenvalues --    1.29030   1.29614   1.30796   1.32858   1.35661
 Alpha virt. eigenvalues --    1.41377   1.49293   1.50329   1.51566   1.53032
 Alpha virt. eigenvalues --    1.57889   1.58444   1.59014   1.60782   1.61304
 Alpha virt. eigenvalues --    1.61878   1.64690   1.65858   1.66551   1.67819
 Alpha virt. eigenvalues --    1.68282   1.70130   1.74161   1.74288   1.76160
 Alpha virt. eigenvalues --    1.77196   1.79000   1.80154   1.83427   1.84212
 Alpha virt. eigenvalues --    1.85583   1.89658   1.93658   1.98280   2.01712
 Alpha virt. eigenvalues --    2.02798   2.06553   2.08668   2.13593   2.16681
 Alpha virt. eigenvalues --    2.19879   2.21137   2.24166   2.25024   2.28414
 Alpha virt. eigenvalues --    2.31898   2.37064   2.41223   2.41721   2.44572
 Alpha virt. eigenvalues --    2.48675   2.50253   2.51987   2.52545   2.56146
 Alpha virt. eigenvalues --    2.56946   2.58873   2.60629   2.63135   2.64103
 Alpha virt. eigenvalues --    2.64807   2.67135   2.67303   2.70641   2.71219
 Alpha virt. eigenvalues --    2.72511   2.75268   2.75784   2.77918   2.78956
 Alpha virt. eigenvalues --    2.81211   2.82984   2.83209   2.87517   2.90297
 Alpha virt. eigenvalues --    2.93627   2.93744   2.98624   3.09373   3.09776
 Alpha virt. eigenvalues --    3.10690   3.15092   3.21032   3.32001   3.41435
 Alpha virt. eigenvalues --    3.52082   3.62424   3.81094   3.81650   3.84572
 Alpha virt. eigenvalues --    3.84758   3.86981   3.93418   4.12265   4.16974
 Alpha virt. eigenvalues --    4.25516   4.36647   4.42902  23.62307  23.94155
 Alpha virt. eigenvalues --   23.94900  23.96814  23.98212  24.03997  25.18103
          Condensed to atoms (all electrons):
               1          2          3          4          5          6
     1  C    7.164129  -1.115422  -0.994143   0.355131   0.284477  -0.135498
     2  C   -1.115422   7.347132   0.094628  -0.531818  -0.197681   0.074547
     3  C   -0.994143   0.094628   7.084150  -0.116616  -0.379621  -0.239153
     4  C    0.355131  -0.531818  -0.116616   7.024667  -0.036268  -1.426436
     5  C    0.284477  -0.197681  -0.379621  -0.036268   6.104137  -0.011369
     6  C   -0.135498   0.074547  -0.239153  -1.426436  -0.011369   7.449310
     7  C    0.073390  -0.150966   0.038798   0.899358  -0.002068  -0.424424
     8  H    0.478181  -0.072706  -0.064966   0.009513   0.003581   0.007680
     9  H    0.496420  -0.088836  -0.077960   0.015485   0.007335   0.002582
    10  H   -0.070520   0.478425   0.007968  -0.057597  -0.001257   0.011307
    11  H   -0.072436   0.486704  -0.002025  -0.062440  -0.001236   0.020436
    12  H   -0.061326   0.005241   0.458031   0.000314  -0.056621   0.002557
    13  H   -0.074760   0.018691   0.466117  -0.001527  -0.065043   0.002984
    14  H    0.029934  -0.087465   0.002931   0.483900   0.001060  -0.118780
    15  H    0.000491  -0.056540  -0.004405   0.461325  -0.000253  -0.078418
    16  H    0.043172   0.005345  -0.070032  -0.000544   0.380334  -0.001123
    17  H   -0.046438  -0.008846   0.003707  -0.001070   0.409816  -0.001121
    18  H   -0.041228  -0.006331   0.000318  -0.000870   0.404943  -0.001230
    19  H   -0.001180   0.008000   0.000846   0.019081  -0.000018  -0.038139
               7          8          9         10         11         12
     1  C    0.073390   0.478181   0.496420  -0.070520  -0.072436  -0.061326
     2  C   -0.150966  -0.072706  -0.088836   0.478425   0.486704   0.005241
     3  C    0.038798  -0.064966  -0.077960   0.007968  -0.002025   0.458031
     4  C    0.899358   0.009513   0.015485  -0.057597  -0.062440   0.000314
     5  C   -0.002068   0.003581   0.007335  -0.001257  -0.001236  -0.056621
     6  C   -0.424424   0.007680   0.002582   0.011307   0.020436   0.002557
     7  C    5.850650  -0.001056   0.000651   0.003352   0.001700  -0.000317
     8  H   -0.001056   0.570856  -0.095929   0.010624  -0.022570  -0.022705
     9  H    0.000651  -0.095929   0.576739  -0.021686   0.011107   0.012619
    10  H    0.003352   0.010624  -0.021686   0.523612  -0.066346   0.002176
    11  H    0.001700  -0.022570   0.011107  -0.066346   0.519717  -0.002180
    12  H   -0.000317  -0.022705   0.012619   0.002176  -0.002180   0.553757
    13  H   -0.000737   0.012413  -0.021478  -0.002136   0.002688  -0.078440
    14  H    0.030395  -0.004386   0.002903   0.010713  -0.016619   0.003202
    15  H    0.022069   0.004020  -0.003948  -0.018717   0.009904  -0.001981
    16  H    0.000160  -0.001583  -0.001711   0.000538   0.000091  -0.002436
    17  H    0.000149   0.000332   0.004463   0.001512  -0.000273   0.013495
    18  H    0.000139   0.004080  -0.000190  -0.000305   0.001774  -0.024256
    19  H    0.373986  -0.000074   0.000001   0.000087   0.000203   0.000004
              13         14         15         16         17         18
     1  C   -0.074760   0.029934   0.000491   0.043172  -0.046438  -0.041228
     2  C    0.018691  -0.087465  -0.056540   0.005345  -0.008846  -0.006331
     3  C    0.466117   0.002931  -0.004405  -0.070032   0.003707   0.000318
     4  C   -0.001527   0.483900   0.461325  -0.000544  -0.001070  -0.000870
     5  C   -0.065043   0.001060  -0.000253   0.380334   0.409816   0.404943
     6  C    0.002984  -0.118780  -0.078418  -0.001123  -0.001121  -0.001230
     7  C   -0.000737   0.030395   0.022069   0.000160   0.000149   0.000139
     8  H    0.012413  -0.004386   0.004020  -0.001583   0.000332   0.004080
     9  H   -0.021478   0.002903  -0.003948  -0.001711   0.004463  -0.000190
    10  H   -0.002136   0.010713  -0.018717   0.000538   0.001512  -0.000305
    11  H    0.002688  -0.016619   0.009904   0.000091  -0.000273   0.001774
    12  H   -0.078440   0.003202  -0.001981  -0.002436   0.013495  -0.024256
    13  H    0.556928  -0.002140   0.003552  -0.004031  -0.024060   0.014178
    14  H   -0.002140   0.521566  -0.076621   0.000105   0.000382  -0.000387
    15  H    0.003552  -0.076621   0.518561  -0.000056  -0.000325   0.000428
    16  H   -0.004031   0.000105  -0.000056   0.491054  -0.023199  -0.025378
    17  H   -0.024060   0.000382  -0.000325  -0.023199   0.556976  -0.070728
    18  H    0.014178  -0.000387   0.000428  -0.025378  -0.070728   0.559676
    19  H    0.000002   0.000774   0.000815  -0.000000   0.000005   0.000006
              19
     1  C   -0.001180
     2  C    0.008000
     3  C    0.000846
     4  C    0.019081
     5  C   -0.000018
     6  C   -0.038139
     7  C    0.373986
     8  H   -0.000074
     9  H    0.000001
    10  H    0.000087
    11  H    0.000203
    12  H    0.000004
    13  H    0.000002
    14  H    0.000774
    15  H    0.000815
    16  H   -0.000000
    17  H    0.000005
    18  H    0.000006
    19  H    0.384148
 Mulliken charges:
               1
     1  C   -0.312372
     2  C   -0.202103
     3  C   -0.208573
     4  C   -1.033587
     5  C   -0.844248
     6  C    0.904291
     7  C   -0.715229
     8  H    0.184696
     9  H    0.181434
    10  H    0.188253
    11  H    0.191803
    12  H    0.198865
    13  H    0.196801
    14  H    0.218533
    15  H    0.220100
    16  H    0.209296
    17  H    0.185224
    18  H    0.185362
    19  H    0.251454
 Sum of Mulliken charges =  -0.00000
 Mulliken charges with hydrogens summed into heavy atoms:
               1
     1  C    0.053758
     2  C    0.177954
     3  C    0.187093
     4  C   -0.594955
     5  C   -0.264366
     6  C    0.904291
     7  C   -0.463775
 Electronic spatial extent (au):  <R**2>=           1431.5212
 Charge=             -0.0000 electrons
 Dipole moment (field-independent basis, Debye):
    X=             -0.9318    Y=              0.1701    Z=             -0.0012  Tot=              0.9472
 Quadrupole moment (field-independent basis, Debye-Ang):
   XX=            -46.7044   YY=            -45.9946   ZZ=            -46.2519
   XY=             -1.2870   XZ=              0.0277   YZ=             -0.0327
 Traceless Quadrupole moment (field-independent basis, Debye-Ang):
   XX=             -0.3874   YY=              0.3223   ZZ=              0.0651
   XY=             -1.2870   XZ=              0.0277   YZ=             -0.0327
 Octapole moment (field-independent basis, Debye-Ang**2):
  XXX=             18.4435  YYY=              1.3677  ZZZ=             -0.0149  XYY=             -0.9987
  XXY=            -17.2703  XXZ=              0.2369  XZZ=             -6.8577  YZZ=              1.6235
  YYZ=             -0.0033  XYZ=             -0.0831
 Hexadecapole moment (field-independent basis, Debye-Ang**3):
 XXXX=          -1653.6991 YYYY=           -164.1013 ZZZZ=            -89.2290 XXXY=            -80.4930
 XXXZ=              1.4465 YYYX=              3.3204 YYYZ=             -0.1769 ZZZX=             -0.2319
 ZZZY=              0.0187 XXYY=           -322.5962 XXZZ=           -335.0737 YYZZ=            -37.9858
 XXYZ=             -0.3154 YYXZ=              0.1434 ZZXY=              1.6565
 N-N= 2.728446601913D+02 E-N=-1.179155984314D+03  KE= 2.724058397412D+02
 R6APFD:  NTU= -4 IXU= 1 FactS= 1.050
 Calling FoFJK, ICntrl=      2127 FMM=F ISym2X=0 I1Cent= 0 IOpClX= 0 NMat=1 NMatS=1 NMatT=0.
 ***** Axes restored to original set *****
 -------------------------------------------------------------------
 Center     Atomic                   Forces (Hartrees/Bohr)
 Number     Number              X              Y              Z
 -------------------------------------------------------------------
      1        6           0.003193955   -0.010047737   -0.000960343
      2        6          -0.006010918    0.003004210    0.000557002
      3        6          -0.000397783    0.006236851    0.000081395
      4        6           0.006347069   -0.007201521    0.000436529
      5        6          -0.003254411   -0.003219650    0.000205968
      6        6          -0.002338031    0.006624483   -0.000270280
      7        6          -0.000285135   -0.000958715   -0.000013730
      8        1          -0.000626927    0.002493038    0.001979742
      9        1          -0.000768017    0.002713832   -0.001955883
     10        1           0.000835687   -0.000788278   -0.000809277
     11        1           0.001245859   -0.000729749    0.000673866
     12        1           0.002148910   -0.002407479    0.001290612
     13        1           0.002384622   -0.002267268   -0.001341537
     14        1           0.000395759    0.001525440    0.001452599
     15        1           0.000462299    0.001442392   -0.001394003
     16        1          -0.003165077    0.001069606    0.000000464
     17        1          -0.000628875    0.001664376   -0.001009605
     18        1          -0.000740816    0.001707070    0.001055976
     19        1           0.001201832   -0.000860900    0.000020506
 -------------------------------------------------------------------
 Cartesian Forces:  Max     0.010047737 RMS     0.002787318

 GradGradGradGradGradGradGradGradGradGradGradGradGradGradGradGradGradGrad
 Berny optimization.
 FormGI is forming the generalized inverse of G from B-inverse, IUseBI=4.
 Internal  Forces:  Max     0.007503100 RMS     0.001768554
 Search for a local minimum.
 Step number   1 out of a maximum of   98
 All quantities printed in internal units (Hartrees-Bohrs-Radians)
 Mixed Optimization -- RFO/linear search
 Second derivative matrix not updated -- first step.
 ITU=  0
     Eigenvalues ---    0.00372   0.00387   0.00390   0.00497   0.00566
     Eigenvalues ---    0.00566   0.03661   0.03682   0.03723   0.04727
     Eigenvalues ---    0.04727   0.04873   0.04888   0.04929   0.05537
     Eigenvalues ---    0.05607   0.05702   0.06059   0.08114   0.08132
     Eigenvalues ---    0.08166   0.12037   0.12052   0.12067   0.16000
     Eigenvalues ---    0.16000   0.16000   0.16000   0.16000   0.21881
     Eigenvalues ---    0.21899   0.21906   0.22337   0.29446   0.29548
     Eigenvalues ---    0.29573   0.30336   0.33928   0.33945   0.34033
     Eigenvalues ---    0.34037   0.34095   0.34097   0.34098   0.34102
     Eigenvalues ---    0.34271   0.34275   0.34290   0.35822   0.37876
     Eigenvalues ---    1.04549
 RFO step:  Lambda=-1.52917674D-03 EMin= 3.72341596D-03
 Linear search not attempted -- first point.
 Iteration  1 RMS(Cart)=  0.02960951 RMS(Int)=  0.00106406
 Iteration  2 RMS(Cart)=  0.00143956 RMS(Int)=  0.00007485
 Iteration  3 RMS(Cart)=  0.00000240 RMS(Int)=  0.00007483
 Iteration  4 RMS(Cart)=  0.00000000 RMS(Int)=  0.00007483
 Variable       Old X    -DE/DX   Delta X   Delta X   Delta X     New X
                                 (Linear)    (Quad)   (Total)
    R1        2.89082   0.00071   0.00000   0.00240   0.00240   2.89322
    R2        2.88823   0.00087   0.00000   0.00292   0.00292   2.89115
    R3        2.07267   0.00308   0.00000   0.00901   0.00901   2.08169
    R4        2.07274   0.00326   0.00000   0.00954   0.00954   2.08228
    R5        2.88875   0.00469   0.00000   0.01581   0.01581   2.90455
    R6        2.07423   0.00117   0.00000   0.00343   0.00343   2.07766
    R7        2.07452   0.00108   0.00000   0.00317   0.00317   2.07769
    R8        2.87299   0.00750   0.00000   0.02461   0.02461   2.89760
    R9        2.07158   0.00261   0.00000   0.00762   0.00762   2.07920
   R10        2.07170   0.00258   0.00000   0.00755   0.00755   2.07924
   R11        2.77661  -0.00345   0.00000  -0.00960  -0.00960   2.76701
   R12        2.07167   0.00204   0.00000   0.00596   0.00596   2.07763
   R13        2.07165   0.00194   0.00000   0.00565   0.00565   2.07731
   R14        2.06844   0.00159   0.00000   0.00461   0.00461   2.07305
   R15        2.06876   0.00185   0.00000   0.00538   0.00538   2.07413
   R16        2.06868   0.00191   0.00000   0.00556   0.00556   2.07424
   R17        2.26870   0.00164   0.00000   0.00157   0.00157   2.27027
   R18        2.01246   0.00146   0.00000   0.00384   0.00384   2.01630
    A1        1.94335   0.00394   0.00000   0.02197   0.02191   1.96526
    A2        1.91377  -0.00098   0.00000  -0.00245  -0.00244   1.91133
    A3        1.91092  -0.00070   0.00000   0.00239   0.00234   1.91325
    A4        1.91331  -0.00127   0.00000  -0.00647  -0.00652   1.90680
    A5        1.91115  -0.00123   0.00000  -0.00359  -0.00373   1.90742
    A6        1.86988   0.00008   0.00000  -0.01324  -0.01328   1.85660
    A7        1.94359   0.00221   0.00000   0.01172   0.01172   1.95531
    A8        1.91434  -0.00033   0.00000   0.00238   0.00240   1.91674
    A9        1.91090   0.00017   0.00000   0.00698   0.00702   1.91791
   A10        1.91389  -0.00094   0.00000  -0.00692  -0.00698   1.90691
   A11        1.91728  -0.00140   0.00000  -0.01026  -0.01034   1.90695
   A12        1.86207   0.00020   0.00000  -0.00459  -0.00467   1.85740
   A13        1.94570   0.00253   0.00000   0.01586   0.01585   1.96154
   A14        1.91733  -0.00161   0.00000  -0.01388  -0.01410   1.90323
   A15        1.91791  -0.00183   0.00000  -0.01468  -0.01494   1.90296
   A16        1.90647   0.00039   0.00000   0.01177   0.01186   1.91833
   A17        1.90354   0.00072   0.00000   0.01547   0.01555   1.91909
   A18        1.87132  -0.00030   0.00000  -0.01544  -0.01576   1.85556
   A19        1.93992   0.00468   0.00000   0.02176   0.02170   1.96162
   A20        1.91646  -0.00002   0.00000   0.00111   0.00107   1.91753
   A21        1.91663  -0.00004   0.00000   0.00011   0.00009   1.91672
   A22        1.90912  -0.00203   0.00000  -0.00703  -0.00710   1.90202
   A23        1.91194  -0.00223   0.00000  -0.00996  -0.00999   1.90195
   A24        1.86837  -0.00059   0.00000  -0.00718  -0.00718   1.86118
   A25        1.92446   0.00420   0.00000   0.03012   0.03001   1.95447
   A26        1.93757   0.00001   0.00000  -0.00206  -0.00212   1.93545
   A27        1.93728   0.00018   0.00000  -0.00092  -0.00100   1.93628
   A28        1.88626  -0.00177   0.00000  -0.00711  -0.00720   1.87906
   A29        1.88630  -0.00183   0.00000  -0.00729  -0.00740   1.87890
   A30        1.89030  -0.00098   0.00000  -0.01377  -0.01380   1.87651
   A31        3.14457  -0.00291   0.00000  -0.05971  -0.05971   3.08486
   A32        3.14134  -0.00042   0.00000  -0.05831  -0.05831   3.08303
   A33        3.14407  -0.00103   0.00000  -0.02112  -0.02112   3.12296
   A34        3.14130  -0.00010   0.00000  -0.01379  -0.01379   3.12751
    D1        3.11806   0.00020   0.00000   0.01168   0.01169   3.12975
    D2        0.99628   0.00016   0.00000   0.01105   0.01106   1.00734
    D3       -1.04140   0.00000   0.00000   0.01119   0.01124  -1.03017
    D4       -1.04462   0.00053   0.00000   0.01633   0.01634  -1.02828
    D5        3.11679   0.00049   0.00000   0.01571   0.01571   3.13250
    D6        1.07911   0.00033   0.00000   0.01585   0.01588   1.09499
    D7        1.00219  -0.00035   0.00000   0.00027   0.00023   1.00242
    D8       -1.11959  -0.00039   0.00000  -0.00035  -0.00040  -1.11998
    D9        3.12592  -0.00054   0.00000  -0.00021  -0.00022   3.12569
   D10       -3.11788  -0.00027   0.00000  -0.01614  -0.01614  -3.13402
   D11        1.04945  -0.00135   0.00000  -0.03205  -0.03192   1.01753
   D12       -1.00534   0.00107   0.00000   0.00387   0.00372  -1.00162
   D13        1.04453  -0.00078   0.00000  -0.02313  -0.02309   1.02143
   D14       -1.07132  -0.00185   0.00000  -0.03904  -0.03888  -1.11020
   D15       -3.12612   0.00057   0.00000  -0.00311  -0.00323  -3.12934
   D16       -1.00215   0.00058   0.00000  -0.00124  -0.00125  -1.00340
   D17       -3.11800  -0.00049   0.00000  -0.01715  -0.01703  -3.13503
   D18        1.11039   0.00193   0.00000   0.01877   0.01862   1.12901
   D19        3.11489   0.00025   0.00000   0.01286   0.01286   3.12775
   D20        1.00009  -0.00025   0.00000   0.00670   0.00667   1.00676
   D21       -1.04983   0.00050   0.00000   0.01472   0.01473  -1.03511
   D22       -1.04625   0.00065   0.00000   0.01889   0.01886  -1.02739
   D23        3.12213   0.00015   0.00000   0.01273   0.01268   3.13481
   D24        1.07221   0.00090   0.00000   0.02075   0.02073   1.09294
   D25        0.99488  -0.00048   0.00000   0.00326   0.00332   0.99820
   D26       -1.11992  -0.00098   0.00000  -0.00289  -0.00287  -1.12279
   D27        3.11334  -0.00023   0.00000   0.00513   0.00518   3.11853
   D28       -3.14032  -0.00002   0.00000   0.00132   0.00133  -3.13899
   D29        1.05295  -0.00057   0.00000  -0.00814  -0.00814   1.04481
   D30       -1.05054   0.00055   0.00000   0.01127   0.01130  -1.03923
   D31       -1.01815  -0.00013   0.00000   0.00217   0.00221  -1.01594
   D32       -3.10807  -0.00068   0.00000  -0.00728  -0.00726  -3.11532
   D33        1.07162   0.00044   0.00000   0.01213   0.01219   1.08382
   D34        1.02196   0.00014   0.00000  -0.00095  -0.00101   1.02095
   D35       -1.06795  -0.00040   0.00000  -0.01041  -0.01048  -1.07843
   D36        3.11174   0.00072   0.00000   0.00901   0.00897   3.12071
         Item               Value     Threshold  Converged?
 Maximum Force            0.007503     0.000450     NO 
 RMS     Force            0.001769     0.000300     NO 
 Maximum Displacement     0.149395     0.001800     NO 
 RMS     Displacement     0.029655     0.001200     NO 
 Predicted change in Energy=-7.781765D-04
 GradGradGradGradGradGradGradGradGradGradGradGradGradGradGradGradGradGrad

                          Input orientation:                          
 ---------------------------------------------------------------------
 Center     Atomic      Atomic             Coordinates (Angstroms)
 Number     Number       Type             X           Y           Z
 ---------------------------------------------------------------------
      1          6           0       -1.273420    0.408388    0.009903
      2          6           0        0.101975   -0.263914   -0.008526
      3          6           0       -2.422063   -0.602066   -0.007013
      4          6           0        1.245684    0.762910   -0.008138
      5          6           0       -3.797039    0.076554    0.000813
      6          6           0        2.565186    0.128166   -0.006977
      7          6           0        3.615740   -0.454503    0.004635
      8          1           0       -1.360884    1.042738    0.906248
      9          1           0       -1.367944    1.081429   -0.857423
     10          1           0        0.191288   -0.905850   -0.896629
     11          1           0        0.207208   -0.924315    0.864184
     12          1           0       -2.327692   -1.267592    0.864050
     13          1           0       -2.324094   -1.241792   -0.896838
     14          1           0        1.161911    1.415143    0.872960
     15          1           0        1.162804    1.413474   -0.890339
     16          1           0       -4.615510   -0.653816   -0.008748
     17          1           0       -3.918711    0.724568   -0.876662
     18          1           0       -3.920287    0.702937    0.893711
     19          1           0        4.517249   -1.024656    0.030188
 ---------------------------------------------------------------------
                    Distance matrix (angstroms):
                    1          2          3          4          5
     1  C    0.000000
     2  C    1.531026   0.000000
     3  C    1.529930   2.546590   0.000000
     4  C    2.543992   1.537023   3.913506   0.000000
     5  C    2.545358   3.913862   1.533344   5.089225   0.000000
     6  C    3.848858   2.494221   5.040426   1.464237   6.362439
     7  C    4.964725   3.518954   6.039617   2.664475   7.431778
     8  H    1.101582   2.164280   2.159984   2.776436   2.772756
     9  H    1.101896   2.165926   2.160676   2.766548   2.765293
    10  H    2.166654   1.099448   2.777284   2.164701   4.204434
    11  H    2.167522   1.099466   2.788529   2.164742   4.216769
    12  H    2.156377   2.769844   1.100263   4.201507   2.170457
    13  H    2.156198   2.762455   1.100289   4.189503   2.171032
    14  H    2.772951   2.172490   4.205753   1.099436   5.209956
    15  H    2.784927   2.171770   4.206417   1.099264   5.213592
    16  H    3.506878   4.733571   2.194058   6.029984   1.097008
    17  H    2.807763   4.230446   2.180872   5.237058   1.097583
    18  H    2.806026   4.234079   2.181516   5.244443   1.097640
    19  H    5.965389   4.480499   6.952267   3.728271   8.386948
                    6          7          8          9         10
     6  C    0.000000
     7  C    1.201375   0.000000
     8  H    4.133334   5.274601   0.000000
     9  H    4.135394   5.285767   1.764109   0.000000
    10  H    2.737895   3.569715   3.075158   2.526266   0.000000
    11  H    2.725197   3.546497   2.515945   3.077019   1.760982
    12  H    5.162081   6.060040   2.504820   3.066347   3.094528
    13  H    5.154969   6.059217   3.065611   2.512595   2.537716
    14  H    2.097565   3.204815   2.550350   3.083140   3.075803
    15  H    2.097384   3.210485   3.119963   2.552650   2.514587
    16  H    7.223150   8.233674   3.782606   3.778626   4.894605
    17  H    6.569092   7.676903   3.134084   2.575681   4.421623
    18  H    6.572896   7.676055   2.581892   3.118362   4.764301
    19  H    2.267362   1.066980   6.292380   6.313394   4.425726
                   11         12         13         14         15
    11  H    0.000000
    12  H    2.558037   0.000000
    13  H    3.099916   1.761080   0.000000
    14  H    2.526777   4.401644   4.726914   0.000000
    15  H    3.075187   4.738096   4.382801   1.763300   0.000000
    16  H    4.908542   2.524402   2.526857   6.199725   6.199985
    17  H    4.772061   3.087089   2.531755   5.417637   5.128019
    18  H    4.436782   2.533815   3.088020   5.131900   5.433738
    19  H    4.391136   6.899823   6.907279   4.233342   4.247841
                   16         17         18         19
    16  H    0.000000
    17  H    1.771651   0.000000
    18  H    1.771594   1.770506   0.000000
    19  H    9.140368   8.663001   8.655765   0.000000
 Stoichiometry    C7H12
 Framework group  C1[X(C7H12)]
 Deg. of freedom    51
 Full point group                 C1      NOp   1
 Largest Abelian subgroup         C1      NOp   1
 Largest concise Abelian subgroup C1      NOp   1
                         Standard orientation:                         
 ---------------------------------------------------------------------
 Center     Atomic      Atomic             Coordinates (Angstroms)
 Number     Number       Type             X           Y           Z
 ---------------------------------------------------------------------
      1          6           0       -1.043760    0.396650    0.011486
      2          6           0        0.330900   -0.277156   -0.006865
      3          6           0       -2.193505   -0.612556   -0.005097
      4          6           0        1.475727    0.748421   -0.006814
      5          6           0       -3.567739    0.067565    0.002649
      6          6           0        2.794537    0.112239   -0.005580
      7          6           0        3.844456   -0.471572    0.006110
      8          1           0       -1.130472    1.031322    0.907675
      9          1           0       -1.137608    1.069574   -0.856004
     10          1           0        0.419453   -0.919414   -0.894811
     11          1           0        0.435471   -0.937450    0.866005
     12          1           0       -2.099801   -1.277963    0.866127
     13          1           0       -2.096293   -1.252614   -0.894767
     14          1           0        1.392725    1.400968    0.874125
     15          1           0        1.393498    1.398851   -0.889174
     16          1           0       -4.387007   -0.661915   -0.006672
     17          1           0       -3.688764    0.715489   -0.874982
     18          1           0       -3.690245    0.694308    0.895397
     19          1           0        4.745345   -1.042701    0.031747
 ---------------------------------------------------------------------
 Rotational constants (GHZ):          13.1504791           0.8228190           0.7934447
 Standard basis: 6-311++G(d,p) (5D, 7F)
 There are   245 symmetry adapted cartesian basis functions of A   symmetry.
 There are   238 symmetry adapted basis functions of A   symmetry.
   238 basis functions,   360 primitive gaussians,   245 cartesian basis functions
    27 alpha electrons       27 beta electrons
       nuclear repulsion energy       271.7964208318 Hartrees.
 NAtoms=   19 NActive=   19 NUniq=   19 SFac= 1.00D+00 NAtFMM=   60 NAOKFM=F Big=F
 Integral buffers will be    131072 words long.
 Raffenetti 2 integral format.
 Two-electron integral symmetry is turned on.
 R6APFD:  NTU= -4 IXU= 1 FactS= 1.050
 Nuclear repulsion after empirical dispersion term =      271.7864082270 Hartrees.
 One-electron integrals computed using PRISM.
 NBasis=   238 RedAO= T EigKep=  4.72D-06  NBF=   238
 NBsUse=   237 1.00D-06 EigRej=  6.36D-07 NBFU=   237
 Initial guess from the checkpoint file:  "HEYN0122.chk"
 B after Tr=     0.000000   -0.000000   -0.000000
         Rot=    1.000000   -0.000255   -0.000042    0.000374 Ang=  -0.05 deg.
 ExpMin= 3.60D-02 ExpMax= 4.56D+03 ExpMxC= 6.82D+02 IAcc=3 IRadAn=         5 AccDes= 0.00D+00
 Harris functional with IExCor= 1009 and IRadAn=       5 diagonalized for initial guess.
 HarFok:  IExCor= 1009 AccDes= 0.00D+00 IRadAn=         5 IDoV= 1 UseB2=F ITyADJ=14
 ICtDFT=  3500011 ScaDFX=  1.000000  1.000000  1.000000  1.000000
 FoFCou: FMM=F IPFlag=           0 FMFlag=      100000 FMFlg1=           0
         NFxFlg=           0 DoJE=T BraDBF=F KetDBF=T FulRan=T
         wScrn=  0.000000 ICntrl=       500 IOpCl=  0 I1Cent=   200000004 NGrid=           0
         NMat0=    1 NMatS0=      1 NMatT0=    0 NMatD0=    1 NMtDS0=    0 NMtDT0=    0
 Petite list used in FoFCou.
 Requested convergence on RMS density matrix=1.00D-08 within  32 cycles.
 Requested convergence on MAX density matrix=1.00D-06.
 Requested convergence on             energy=1.00D-06.
 No special actions if energy rises.
 SCF Done:  E(RM08HX) =  -273.921239355     A.U. after   11 cycles
            NFock= 11  Conv=0.60D-08     -V/T= 2.0059
 QCSCF skips out because SCF is already converged.
 R6APFD:  NTU= -4 IXU= 1 FactS= 1.050
 Calling FoFJK, ICntrl=      2127 FMM=F ISym2X=0 I1Cent= 0 IOpClX= 0 NMat=1 NMatS=1 NMatT=0.
 ***** Axes restored to original set *****
 -------------------------------------------------------------------
 Center     Atomic                   Forces (Hartrees/Bohr)
 Number     Number              X              Y              Z
 -------------------------------------------------------------------
      1        6           0.001033090   -0.000896072    0.000026872
      2        6          -0.001901196    0.000330019   -0.000041759
      3        6          -0.001055909    0.001090527    0.000087902
      4        6           0.001490155    0.000490865   -0.000483515
      5        6           0.001819427   -0.001160577   -0.000053365
      6        6          -0.001947763   -0.001262197    0.000490388
      7        6          -0.001115855   -0.002369936    0.000513758
      8        1           0.000010936    0.000756523    0.000092891
      9        1           0.000127634    0.000499143   -0.000044568
     10        1           0.000430676   -0.000115524   -0.000096902
     11        1           0.000279748   -0.000070455    0.000078541
     12        1          -0.000051247   -0.000441250    0.000012557
     13        1          -0.000179957   -0.000373397   -0.000062949
     14        1          -0.000455487    0.000411984    0.000036249
     15        1          -0.000650842    0.000615523   -0.000031704
     16        1           0.000588985    0.000107472   -0.000004582
     17        1           0.000166629    0.000228053   -0.000148331
     18        1           0.000242710    0.000174713    0.000148797
     19        1           0.001168265    0.001984584   -0.000520278
 -------------------------------------------------------------------
 Cartesian Forces:  Max     0.002369936 RMS     0.000804197

 GradGradGradGradGradGradGradGradGradGradGradGradGradGradGradGradGradGrad
 Berny optimization.
 Using GEDIIS/GDIIS optimizer.
 FormGI is forming the generalized inverse of G from B-inverse, IUseBI=4.
 Internal  Forces:  Max     0.004688913 RMS     0.000888463
 Search for a local minimum.
 Step number   2 out of a maximum of   98
 All quantities printed in internal units (Hartrees-Bohrs-Radians)
 Mixed Optimization -- En-DIIS/RFO-DIIS
 Update second derivatives using D2CorX and points    1    2
 DE= -4.01D-04 DEPred=-7.78D-04 R= 5.15D-01
 TightC=F SS=  1.41D+00  RLast= 1.43D-01 DXNew= 5.0454D-01 4.2916D-01
 Trust test= 5.15D-01 RLast= 1.43D-01 DXMaxT set to 4.29D-01
 ITU=  1  0
 Use linear search instead of GDIIS.
     Eigenvalues ---    0.00369   0.00382   0.00389   0.00497   0.00566
     Eigenvalues ---    0.00692   0.03541   0.03591   0.03607   0.04504
     Eigenvalues ---    0.04737   0.04849   0.04869   0.05383   0.05492
     Eigenvalues ---    0.05500   0.06008   0.06179   0.08086   0.08339
     Eigenvalues ---    0.08456   0.12140   0.12201   0.12210   0.15819
     Eigenvalues ---    0.16000   0.16000   0.16000   0.16060   0.21784
     Eigenvalues ---    0.21888   0.22116   0.23377   0.28835   0.29562
     Eigenvalues ---    0.29772   0.32269   0.33225   0.33931   0.33950
     Eigenvalues ---    0.34039   0.34066   0.34096   0.34099   0.34109
     Eigenvalues ---    0.34248   0.34273   0.34480   0.35705   0.37869
     Eigenvalues ---    1.04465
 RFO step:  Lambda=-1.54235773D-03 EMin= 3.68926164D-03
 Quartic linear search produced a step of -0.32210.
 Iteration  1 RMS(Cart)=  0.04951613 RMS(Int)=  0.02252219
 Iteration  2 RMS(Cart)=  0.03794662 RMS(Int)=  0.00412964
 Iteration  3 RMS(Cart)=  0.00419549 RMS(Int)=  0.00004097
 Iteration  4 RMS(Cart)=  0.00002559 RMS(Int)=  0.00003701
 Iteration  5 RMS(Cart)=  0.00000000 RMS(Int)=  0.00003701
 Variable       Old X    -DE/DX   Delta X   Delta X   Delta X     New X
                                 (Linear)    (Quad)   (Total)
    R1        2.89322  -0.00244  -0.00077  -0.00236  -0.00313   2.89009
    R2        2.89115  -0.00090  -0.00094   0.00189   0.00095   2.89210
    R3        2.08169   0.00051  -0.00290   0.01320   0.01030   2.09199
    R4        2.08228   0.00033  -0.00307   0.01355   0.01048   2.09276
    R5        2.90455  -0.00121  -0.00509   0.01859   0.01350   2.91805
    R6        2.07766   0.00018  -0.00110   0.00499   0.00389   2.08155
    R7        2.07769   0.00013  -0.00102   0.00454   0.00352   2.08121
    R8        2.89760  -0.00282  -0.00793   0.02696   0.01904   2.91663
    R9        2.07920   0.00027  -0.00245   0.01085   0.00839   2.08759
   R10        2.07924   0.00025  -0.00243   0.01070   0.00827   2.08752
   R11        2.76701  -0.00099   0.00309  -0.01486  -0.01177   2.75524
   R12        2.07763   0.00031  -0.00192   0.00867   0.00675   2.08438
   R13        2.07731   0.00044  -0.00182   0.00852   0.00670   2.08401
   R14        2.07305  -0.00051  -0.00148   0.00522   0.00374   2.07678
   R15        2.07413   0.00023  -0.00173   0.00773   0.00600   2.08013
   R16        2.07424   0.00019  -0.00179   0.00790   0.00611   2.08035
   R17        2.27027   0.00023  -0.00050   0.00227   0.00177   2.27204
   R18        2.01630  -0.00009  -0.00124   0.00504   0.00380   2.02010
    A1        1.96526  -0.00098  -0.00706   0.02672   0.01962   1.98487
    A2        1.91133   0.00031   0.00079  -0.00241  -0.00163   1.90970
    A3        1.91325   0.00021  -0.00075   0.00295   0.00215   1.91540
    A4        1.90680   0.00043   0.00210  -0.00667  -0.00460   1.90219
    A5        1.90742   0.00046   0.00120  -0.00323  -0.00211   1.90531
    A6        1.85660  -0.00039   0.00428  -0.02008  -0.01582   1.84078
    A7        1.95531  -0.00129  -0.00377   0.01138   0.00762   1.96292
    A8        1.91674   0.00064  -0.00077   0.00616   0.00539   1.92214
    A9        1.91791   0.00055  -0.00226   0.01152   0.00928   1.92719
   A10        1.90691   0.00018   0.00225  -0.00990  -0.00769   1.89922
   A11        1.90695   0.00022   0.00333  -0.01446  -0.01117   1.89578
   A12        1.85740  -0.00024   0.00151  -0.00580  -0.00438   1.85302
   A13        1.96154  -0.00148  -0.00510   0.01646   0.01135   1.97290
   A14        1.90323   0.00056   0.00454  -0.01670  -0.01225   1.89099
   A15        1.90296   0.00062   0.00481  -0.01761  -0.01290   1.89006
   A16        1.91833   0.00041  -0.00382   0.01637   0.01257   1.93090
   A17        1.91909   0.00033  -0.00501   0.02077   0.01579   1.93487
   A18        1.85556  -0.00038   0.00508  -0.02196  -0.01704   1.83851
   A19        1.96162  -0.00147  -0.00699   0.02534   0.01832   1.97994
   A20        1.91753  -0.00001  -0.00034   0.00044   0.00007   1.91760
   A21        1.91672  -0.00004  -0.00003  -0.00048  -0.00052   1.91620
   A22        1.90202   0.00081   0.00229  -0.00663  -0.00437   1.89765
   A23        1.90195   0.00098   0.00322  -0.00881  -0.00562   1.89633
   A24        1.86118  -0.00018   0.00231  -0.01194  -0.00963   1.85155
   A25        1.95447  -0.00033  -0.00967   0.03900   0.02927   1.98374
   A26        1.93545  -0.00010   0.00068  -0.00335  -0.00271   1.93273
   A27        1.93628  -0.00024   0.00032  -0.00250  -0.00223   1.93405
   A28        1.87906   0.00028   0.00232  -0.00846  -0.00620   1.87286
   A29        1.87890   0.00033   0.00238  -0.00869  -0.00636   1.87254
   A30        1.87651   0.00010   0.00444  -0.01849  -0.01408   1.86243
   A31        3.08486   0.00405   0.01923  -0.02221  -0.00298   3.08188
   A32        3.08303   0.00469   0.01878   0.37960   0.39839   3.48142
   A33        3.12296   0.00048   0.00680  -0.02110  -0.01430   3.10866
   A34        3.12751   0.00056   0.00444   0.03754   0.04199   3.16950
    D1        3.12975   0.00002  -0.00376   0.01545   0.01169   3.14143
    D2        1.00734   0.00022  -0.00356   0.01609   0.01254   1.01988
    D3       -1.03017  -0.00019  -0.00362   0.01277   0.00916  -1.02100
    D4       -1.02828   0.00012  -0.00526   0.02325   0.01800  -1.01028
    D5        3.13250   0.00032  -0.00506   0.02390   0.01884  -3.13184
    D6        1.09499  -0.00009  -0.00512   0.02058   0.01547   1.11046
    D7        1.00242  -0.00006  -0.00007  -0.00066  -0.00075   1.00167
    D8       -1.11998   0.00014   0.00013  -0.00002   0.00009  -1.11989
    D9        3.12569  -0.00027   0.00007  -0.00334  -0.00328   3.12242
   D10       -3.13402   0.00002   0.00520  -0.02036  -0.01516   3.13400
   D11        1.01753   0.00009   0.01028  -0.04038  -0.03004   0.98749
   D12       -1.00162  -0.00010  -0.00120   0.00462   0.00335  -0.99826
   D13        1.02143  -0.00001   0.00744  -0.03049  -0.02304   0.99839
   D14       -1.11020   0.00006   0.01252  -0.05052  -0.03793  -1.14813
   D15       -3.12934  -0.00014   0.00104  -0.00551  -0.00453  -3.13388
   D16       -1.00340  -0.00004   0.00040  -0.00089  -0.00048  -1.00388
   D17       -3.13503   0.00003   0.00549  -0.02091  -0.01536   3.13279
   D18        1.12901  -0.00016  -0.00600   0.02409   0.01803   1.14704
   D19        3.12775  -0.00007  -0.00414   0.01550   0.01135   3.13911
   D20        1.00676  -0.00010  -0.00215   0.00650   0.00434   1.01110
   D21       -1.03511   0.00015  -0.00474   0.02104   0.01629  -1.01881
   D22       -1.02739   0.00000  -0.00608   0.02398   0.01787  -1.00952
   D23        3.13481  -0.00002  -0.00408   0.01498   0.01086  -3.13752
   D24        1.09294   0.00022  -0.00668   0.02951   0.02281   1.11575
   D25        0.99820  -0.00006  -0.00107   0.00339   0.00235   1.00055
   D26       -1.12279  -0.00008   0.00092  -0.00561  -0.00466  -1.12745
   D27        3.11853   0.00016  -0.00167   0.00893   0.00729   3.12582
   D28       -3.13899   0.00002  -0.00043   0.00142   0.00100  -3.13799
   D29        1.04481  -0.00005   0.00262  -0.01192  -0.00930   1.03551
   D30       -1.03923   0.00005  -0.00364   0.01510   0.01147  -1.02776
   D31       -1.01594   0.00002  -0.00071   0.00285   0.00216  -1.01378
   D32       -3.11532  -0.00005   0.00234  -0.01049  -0.00814  -3.12346
   D33        1.08382   0.00005  -0.00393   0.01654   0.01263   1.09644
   D34        1.02095  -0.00001   0.00033  -0.00199  -0.00168   1.01927
   D35       -1.07843  -0.00007   0.00338  -0.01533  -0.01198  -1.09041
   D36        3.12071   0.00002  -0.00289   0.01169   0.00879   3.12950
         Item               Value     Threshold  Converged?
 Maximum Force            0.004689     0.000450     NO 
 RMS     Force            0.000888     0.000300     NO 
 Maximum Displacement     0.568399     0.001800     NO 
 RMS     Displacement     0.084689     0.001200     NO 
 Predicted change in Energy=-1.013149D-03
 GradGradGradGradGradGradGradGradGradGradGradGradGradGradGradGradGradGrad

                          Input orientation:                          
 ---------------------------------------------------------------------
 Center     Atomic      Atomic             Coordinates (Angstroms)
 Number     Number       Type             X           Y           Z
 ---------------------------------------------------------------------
      1          6           0       -1.275109    0.378095   -0.000242
      2          6           0        0.091913   -0.307587    0.007473
      3          6           0       -2.453649   -0.598213   -0.009695
      4          6           0        1.259123    0.703344    0.016689
      5          6           0       -3.824887    0.110188   -0.006611
      6          6           0        2.573272    0.071930    0.027477
      7          6           0        3.620669   -0.518364    0.035597
      8          1           0       -1.360956    1.037777    0.884613
      9          1           0       -1.352007    1.049364   -0.877686
     10          1           0        0.193810   -0.959896   -0.874246
     11          1           0        0.187839   -0.963489    0.886970
     12          1           0       -2.358702   -1.266343    0.864924
     13          1           0       -2.352399   -1.255405   -0.891814
     14          1           0        1.176261    1.363654    0.896319
     15          1           0        1.190842    1.360559   -0.866257
     16          1           0       -4.678738   -0.581692   -0.009717
     17          1           0       -3.928656    0.762350   -0.887283
     18          1           0       -3.929843    0.755399    0.879169
     19          1           0        4.662618   -0.723873   -0.086282
 ---------------------------------------------------------------------
                    Distance matrix (angstroms):
                    1          2          3          4          5
     1  C    0.000000
     2  C    1.529368   0.000000
     3  C    1.530432   2.562156   0.000000
     4  C    2.555075   1.544165   3.934390   0.000000
     5  C    2.563822   3.939043   1.543417   5.118549   0.000000
     6  C    3.860640   2.510294   5.071530   1.458009   6.398365
     7  C    4.977305   3.535157   6.075012   2.658915   7.472159
     8  H    1.107031   2.165688   2.161071   2.780279   2.779507
     9  H    1.107441   2.170191   2.163685   2.781661   2.784953
    10  H    2.170673   1.101507   2.808434   2.166800   4.248270
    11  H    2.174214   1.101328   2.813342   2.164110   4.248910
    12  H    2.151014   2.767662   1.104704   4.205691   2.191827
    13  H    2.150297   2.771595   1.104666   4.207751   2.194686
    14  H    2.790047   2.181491   4.224456   1.103007   5.234305
    15  H    2.792155   2.180311   4.225257   1.102808   5.240225
    16  H    3.536378   4.778550   2.225150   6.075378   1.098985
    17  H    2.824146   4.255623   2.190191   5.266279   1.100757
    18  H    2.821938   4.250213   2.191231   5.260414   1.100873
    19  H    6.039729   4.590580   7.117788   3.692062   8.528760
                    6          7          8          9         10
     6  C    0.000000
     7  C    1.202311   0.000000
     8  H    4.140736   5.287626   0.000000
     9  H    4.145180   5.293332   1.762360   0.000000
    10  H    2.745835   3.572972   3.082463   2.535091   0.000000
    11  H    2.738816   3.564729   2.530580   3.088157   1.761229
    12  H    5.178481   6.082774   2.510947   3.068000   3.103859
    13  H    5.183546   6.089406   3.065507   2.512557   2.563360
    14  H    2.091669   3.202806   2.558086   3.104515   3.082044
    15  H    2.090560   3.201211   3.111495   2.561846   2.525598
    16  H    7.281501   8.299772   3.798708   3.805372   4.963081
    17  H    6.602161   7.712602   3.131861   2.592602   4.467776
    18  H    6.594165   7.703526   2.584366   3.133400   4.798042
    19  H    2.238662   1.068993   6.350550   6.320317   4.543879
                   11         12         13         14         15
    11  H    0.000000
    12  H    2.564581   0.000000
    13  H    3.114818   1.756783   0.000000
    14  H    2.528371   4.406113   4.744294   0.000000
    15  H    3.079126   4.743086   4.404370   1.762639   0.000000
    16  H    4.963203   2.572219   2.577564   6.235887   6.241632
    17  H    4.803334   3.106538   2.560457   5.440862   5.154372
    18  H    4.462055   2.560493   3.109348   5.142233   5.443725
    19  H    4.585661   7.106195   7.081092   4.180664   4.123887
                   16         17         18         19
    16  H    0.000000
    17  H    1.771777   0.000000
    18  H    1.771659   1.766466   0.000000
    19  H    9.342751   8.755594   8.772156   0.000000
 Stoichiometry    C7H12
 Framework group  C1[X(C7H12)]
 Deg. of freedom    51
 Full point group                 C1      NOp   1
 Largest Abelian subgroup         C1      NOp   1
 Largest concise Abelian subgroup C1      NOp   1
                         Standard orientation:                         
 ---------------------------------------------------------------------
 Center     Atomic      Atomic             Coordinates (Angstroms)
 Number     Number       Type             X           Y           Z
 ---------------------------------------------------------------------
      1          6           0       -1.044491    0.377728   -0.005197
      2          6           0        0.327428   -0.298108    0.002107
      3          6           0       -2.216037   -0.607002   -0.001962
      4          6           0        1.487395    0.721161   -0.001590
      5          6           0       -3.592289    0.091606    0.001371
      6          6           0        2.806067    0.099237    0.008585
      7          6           0        3.857690   -0.483492    0.016901
      8          1           0       -1.131352    1.043750    0.874795
      9          1           0       -1.129872    1.041480   -0.887562
     10          1           0        0.430298   -0.956618   -0.874876
     11          1           0        0.431734   -0.946342    0.886322
     12          1           0       -2.112642   -1.267509    0.877476
     13          1           0       -2.113780   -1.270403   -0.879304
     14          1           0        1.403492    1.387791    0.873161
     15          1           0        1.410708    1.370877   -0.889382
     16          1           0       -4.441168   -0.606346    0.007336
     17          1           0       -3.704416    0.736035   -0.883957
     18          1           0       -3.698150    0.743030    0.882485
     19          1           0        4.900564   -0.682523   -0.107781
 ---------------------------------------------------------------------
 Rotational constants (GHZ):          13.5353362           0.8121393           0.7848177
 Standard basis: 6-311++G(d,p) (5D, 7F)
 There are   245 symmetry adapted cartesian basis functions of A   symmetry.
 There are   238 symmetry adapted basis functions of A   symmetry.
   238 basis functions,   360 primitive gaussians,   245 cartesian basis functions
    27 alpha electrons       27 beta electrons
       nuclear repulsion energy       270.9331911178 Hartrees.
 NAtoms=   19 NActive=   19 NUniq=   19 SFac= 1.00D+00 NAtFMM=   60 NAOKFM=F Big=F
 Integral buffers will be    131072 words long.
 Raffenetti 2 integral format.
 Two-electron integral symmetry is turned on.
 R6APFD:  NTU= -4 IXU= 1 FactS= 1.050
 Nuclear repulsion after empirical dispersion term =      270.9232102481 Hartrees.
 One-electron integrals computed using PRISM.
 NBasis=   238 RedAO= T EigKep=  5.93D-06  NBF=   238
 NBsUse=   237 1.00D-06 EigRej=  6.63D-07 NBFU=   237
 Initial guess from the checkpoint file:  "HEYN0122.chk"
 B after Tr=     0.000000    0.000000    0.000000
         Rot=    0.999993    0.003769    0.000057    0.000155 Ang=   0.43 deg.
 ExpMin= 3.60D-02 ExpMax= 4.56D+03 ExpMxC= 6.82D+02 IAcc=3 IRadAn=         5 AccDes= 0.00D+00
 Harris functional with IExCor= 1009 and IRadAn=       5 diagonalized for initial guess.
 HarFok:  IExCor= 1009 AccDes= 0.00D+00 IRadAn=         5 IDoV= 1 UseB2=F ITyADJ=14
 ICtDFT=  3500011 ScaDFX=  1.000000  1.000000  1.000000  1.000000
 FoFCou: FMM=F IPFlag=           0 FMFlag=      100000 FMFlg1=           0
         NFxFlg=           0 DoJE=T BraDBF=F KetDBF=T FulRan=T
         wScrn=  0.000000 ICntrl=       500 IOpCl=  0 I1Cent=   200000004 NGrid=           0
         NMat0=    1 NMatS0=      1 NMatT0=    0 NMatD0=    1 NMtDS0=    0 NMtDT0=    0
 Petite list used in FoFCou.
 Requested convergence on RMS density matrix=1.00D-08 within  32 cycles.
 Requested convergence on MAX density matrix=1.00D-06.
 Requested convergence on             energy=1.00D-06.
 No special actions if energy rises.
 SCF Done:  E(RM08HX) =  -273.917614680     A.U. after   13 cycles
            NFock= 13  Conv=0.76D-09     -V/T= 2.0062
 QCSCF skips out because SCF is already converged.
 R6APFD:  NTU= -4 IXU= 1 FactS= 1.050
 Calling FoFJK, ICntrl=      2127 FMM=F ISym2X=0 I1Cent= 0 IOpClX= 0 NMat=1 NMatS=1 NMatT=0.
 ***** Axes restored to original set *****
 -------------------------------------------------------------------
 Center     Atomic                   Forces (Hartrees/Bohr)
 Number     Number              X              Y              Z
 -------------------------------------------------------------------
      1        6          -0.001642078    0.008162183    0.000847248
      2        6           0.002001950   -0.001858253   -0.000490552
      3        6          -0.001123697   -0.004403815    0.000137937
      4        6          -0.005837773    0.002922417    0.001232327
      5        6           0.005318222    0.001603497   -0.000259413
      6        6          -0.005480844   -0.005436257    0.000730653
      7        6           0.008478662    0.012756030   -0.005627037
      8        1           0.000611821   -0.001436400   -0.001799816
      9        1           0.000852798   -0.001972518    0.001848900
     10        1          -0.000193577    0.000635493    0.000744228
     11        1          -0.000869078    0.000630523   -0.000647038
     12        1          -0.002138573    0.001747821   -0.001271560
     13        1          -0.002542167    0.001731338    0.001226154
     14        1          -0.000888499   -0.001152160   -0.001256060
     15        1          -0.000347446   -0.001167108    0.001094136
     16        1           0.003696566   -0.001024156   -0.000038889
     17        1           0.000815535   -0.001361549    0.000808528
     18        1           0.000992270   -0.001476891   -0.000842928
     19        1          -0.001704093   -0.008900194    0.003563182
 -------------------------------------------------------------------
 Cartesian Forces:  Max     0.012756030 RMS     0.003401001

 GradGradGradGradGradGradGradGradGradGradGradGradGradGradGradGradGradGrad
 Berny optimization.
 Using GEDIIS/GDIIS optimizer.
 FormGI is forming the generalized inverse of G from B-inverse, IUseBI=4.
 Internal  Forces:  Max     0.019645356 RMS     0.002922898
 Search for a local minimum.
 Step number   3 out of a maximum of   98
 All quantities printed in internal units (Hartrees-Bohrs-Radians)
 Mixed Optimization -- RFO/linear search
 Update second derivatives using D2CorX and points    1    3    2
 DE=  3.62D-03 DEPred=-1.01D-03 R=-3.58D+00
 Trust test=-3.58D+00 RLast= 4.16D-01 DXMaxT set to 2.15D-01
 ITU= -1  1  0
 Use linear search instead of GDIIS.
     Eigenvalues ---    0.00372   0.00386   0.00390   0.00497   0.00563
     Eigenvalues ---    0.03408   0.03514   0.03543   0.03721   0.04652
     Eigenvalues ---    0.04741   0.04827   0.04838   0.05249   0.05294
     Eigenvalues ---    0.05587   0.06002   0.08009   0.08185   0.08459
     Eigenvalues ---    0.08568   0.12197   0.12302   0.12367   0.15865
     Eigenvalues ---    0.16000   0.16000   0.16008   0.16054   0.21788
     Eigenvalues ---    0.21879   0.22144   0.22815   0.28899   0.29562
     Eigenvalues ---    0.29725   0.31980   0.32840   0.33931   0.33950
     Eigenvalues ---    0.34037   0.34067   0.34097   0.34098   0.34103
     Eigenvalues ---    0.34249   0.34273   0.34369   0.35591   0.37862
     Eigenvalues ---    1.04619
 RFO step:  Lambda=-3.25139818D-04 EMin= 3.71756058D-03
 Quartic linear search produced a step of -0.83677.
 Iteration  1 RMS(Cart)=  0.03566325 RMS(Int)=  0.01533488
 Iteration  2 RMS(Cart)=  0.02654333 RMS(Int)=  0.00200219
 Iteration  3 RMS(Cart)=  0.00193971 RMS(Int)=  0.00002580
 Iteration  4 RMS(Cart)=  0.00000258 RMS(Int)=  0.00002570
 Iteration  5 RMS(Cart)=  0.00000000 RMS(Int)=  0.00002570
 Variable       Old X    -DE/DX   Delta X   Delta X   Delta X     New X
                                 (Linear)    (Quad)   (Total)
    R1        2.89009  -0.00363   0.00262  -0.00783  -0.00521   2.88488
    R2        2.89210  -0.00183  -0.00079  -0.00304  -0.00383   2.88827
    R3        2.09199  -0.00234  -0.00862   0.00043  -0.00818   2.08380
    R4        2.09276  -0.00272  -0.00877  -0.00010  -0.00887   2.08389
    R5        2.91805  -0.00502  -0.01129  -0.00486  -0.01616   2.90189
    R6        2.08155  -0.00099  -0.00326   0.00009  -0.00317   2.07838
    R7        2.08121  -0.00097  -0.00295  -0.00003  -0.00297   2.07824
    R8        2.91663  -0.01065  -0.01593  -0.01109  -0.02702   2.88961
    R9        2.08759  -0.00225  -0.00702  -0.00009  -0.00711   2.08047
   R10        2.08752  -0.00224  -0.00692  -0.00014  -0.00706   2.08045
   R11        2.75524   0.00185   0.00985  -0.00166   0.00818   2.76342
   R12        2.08438  -0.00162  -0.00565   0.00019  -0.00546   2.07892
   R13        2.08401  -0.00155  -0.00560   0.00049  -0.00512   2.07889
   R14        2.07678  -0.00223  -0.00313  -0.00188  -0.00501   2.07177
   R15        2.08013  -0.00153  -0.00502   0.00005  -0.00497   2.07516
   R16        2.08035  -0.00164  -0.00511  -0.00008  -0.00519   2.07516
   R17        2.27204   0.00400  -0.00148   0.00087  -0.00061   2.27142
   R18        2.02010  -0.00036  -0.00318  -0.00011  -0.00330   2.01681
    A1        1.98487  -0.00450  -0.01641  -0.00543  -0.02183   1.96305
    A2        1.90970   0.00117   0.00137   0.00160   0.00299   1.91269
    A3        1.91540   0.00082  -0.00180  -0.00021  -0.00199   1.91341
    A4        1.90219   0.00165   0.00385   0.00363   0.00748   1.90967
    A5        1.90531   0.00168   0.00176   0.00301   0.00474   1.91005
    A6        1.84078  -0.00051   0.01324  -0.00235   0.01086   1.85164
    A7        1.96292  -0.00330  -0.00637  -0.00679  -0.01317   1.94975
    A8        1.92214   0.00100  -0.00451   0.00390  -0.00060   1.92154
    A9        1.92719   0.00037  -0.00776   0.00231  -0.00544   1.92175
   A10        1.89922   0.00099   0.00643  -0.00014   0.00629   1.90551
   A11        1.89578   0.00154   0.00934   0.00024   0.00956   1.90534
   A12        1.85302  -0.00042   0.00366   0.00085   0.00455   1.85757
   A13        1.97290  -0.00425  -0.00950  -0.00787  -0.01737   1.95553
   A14        1.89099   0.00237   0.01025   0.00469   0.01486   1.90585
   A15        1.89006   0.00267   0.01080   0.00517   0.01587   1.90593
   A16        1.93090   0.00006  -0.01052  -0.00012  -0.01060   1.92031
[...]
 0003279,0.48946185,0.00925095,0.01130857,0.00009700,-0.05889209,-0.132
 51756,-0.00046257,0.00293919,-0.00259987,-0.00001435,-0.04526205,0.512
 96523,0.00005675,0.00008130,-0.00067690,-0.00047616,-0.00045902,-0.076
 01074,0.00002072,-0.00001202,-0.00064076,-0.00037940,-0.00035238,0.555
 45685,-0.03102664,0.01102264,0.00007486,-0.00205958,-0.00368878,-0.000
 02929,-0.17550727,0.05085912,0.00037128,-0.00062395,0.00103160,0.00000
 732,0.50351952,-0.02075026,0.01272033,0.00009522,-0.00305844,-0.004545
 73,-0.00003206,0.05460036,-0.10750268,-0.00020761,-0.00159445,0.001055
 28,0.00000217,0.04213065,0.54603193,-0.00018028,0.00010902,-0.00032428
 ,-0.00002545,-0.00003455,-0.00055522,0.00040193,-0.00020969,-0.0787734
 1,-0.00001351,0.00000407,0.00063101,0.00031954,-0.00010401,0.56069708,
 -0.00371316,-0.00347295,-0.00002910,-0.03766070,0.00735507,0.00003734,
 -0.00036939,0.00073202,0.00000539,-0.24170758,0.08843757,0.00057843,-0
 .00025570,-0.00020522,-0.00000172,1.18155953,-0.00248026,-0.00502587,-
 0.00004157,-0.01595398,0.01664887,0.00013393,-0.00135632,0.00160695,0.
 00000745,0.08941411,-0.11030576,-0.00028463,-0.00037398,-0.00064952,-0
 .00000529,-0.54903695,0.38105937,-0.00002084,-0.00004089,0.00018771,-0
 .00014045,0.00014619,-0.00201245,-0.00001084,0.00000781,0.00060199,0.0
 0058414,-0.00028434,-0.06651817,-0.00000298,-0.00000492,-0.00001747,-0
 .00356594,0.00186211,0.09559285,-0.00019246,-0.00208149,-0.00001649,0.
 00253277,0.00493517,0.00003877,-0.00035986,0.00077994,0.00000610,0.000
 48119,0.00487042,0.00003270,-0.00015279,-0.00039044,-0.00000325,-0.895
 00617,0.44286461,0.00288155,1.23584633,0.00039482,0.00189373,0.0000126
 9,-0.00097172,-0.00421682,-0.00003619,0.00031725,-0.00061478,-0.000004
 38,0.00385639,0.00459262,-0.00001258,0.00011960,0.00026461,0.00000221,
 0.44414940,-0.26542827,-0.00149234,-0.61068383,0.36761325,0.00000276,0
 .00001090,0.00029022,-0.00000624,-0.00003279,0.00046957,0.00000223,-0.
 00000384,-0.00004875,0.00002639,-0.00001278,0.00660551,0.00000083,0.00
 000180,-0.00000036,0.00289124,-0.00149302,-0.03613730,-0.00397778,0.00
 205786,0.05192414,-0.04691418,0.01143924,0.01513529,-0.00444293,0.0178
 3390,0.02591348,0.00007125,-0.01524116,-0.02154679,0.00141609,0.000946
 92,0.00092658,0.00169244,-0.00053715,-0.00103423,0.00014566,-0.0000179
 0,-0.00033544,0.00014786,-0.00019220,-0.00007258,0.05633125,0.01154713
 ,-0.12876548,-0.11477075,0.00198629,-0.00974696,-0.01298894,0.00027950
 ,-0.01441831,-0.01914259,-0.00068312,0.00047024,0.00031871,0.00118607,
 0.00060004,0.00024738,-0.00011644,0.00005306,0.00033963,0.00001897,0.0
 0000645,0.00000481,-0.01200476,0.14276596,0.01544267,-0.11560732,-0.21
 243287,-0.00016853,0.00034260,0.00030309,0.00005168,0.00010024,-0.0000
 8093,-0.00010139,0.00008421,0.00014850,0.00012521,0.00022461,0.0001905
 8,0.00004385,0.00032646,0.00021254,0.00000890,0.00001114,0.00000904,-0
 .01712834,0.12905615,0.22770933,-0.04687934,0.01154570,-0.01477177,-0.
 00441559,0.01823722,-0.02563669,0.00004935,-0.01557894,0.02130381,0.00
 141681,0.00096121,-0.00091064,0.00169143,-0.00055340,0.00102649,0.0001
 4550,-0.00002262,0.00033467,0.00014790,-0.00019339,0.00006985,-0.00058
 757,-0.00153327,0.00196769,0.05629136,0.01166088,-0.13240034,0.1160404
 1,0.00196855,-0.00994149,0.01283080,0.00025968,-0.01471697,0.01891198,
 -0.00068497,0.00047694,-0.00031372,0.00118704,0.00060624,-0.00024037,-
 0.00011558,0.00006335,-0.00034244,0.00001904,0.00000677,-0.00000475,-0
 .00148530,0.01104841,-0.01499049,-0.01212628,0.14683825,-0.01507787,0.
 11687718,-0.20882741,0.00019289,-0.00048216,0.00046988,-0.00004856,-0.
 00034885,0.00023928,0.00009244,-0.00007814,0.00014206,-0.00010439,-0.0
 0021810,0.00018317,-0.00004555,-0.00032887,0.00020246,-0.00000840,-0.0
 0001141,0.00000887,-0.00196891,0.01548803,-0.02075287,0.01675168,-0.13
 033920,0.22367195,-0.00422531,0.01743267,0.02555382,-0.04725125,0.0141
 2997,0.01902526,0.00171105,0.00098652,0.00100980,-0.00064113,-0.016001
 61,-0.02147460,-0.00013288,-0.00001388,-0.00018654,0.00210312,-0.00076
 648,-0.00085777,-0.00027091,0.00066087,0.00035559,-0.00523200,0.002568
 88,-0.00026415,0.00110021,-0.00035295,-0.00051433,0.05657438,0.0022695
 9,-0.00930014,-0.01249443,0.01289172,-0.13073191,-0.11795771,-0.000792
 09,0.00037164,0.00032586,-0.00009379,-0.01406036,-0.01825453,-0.000028
 09,0.00007598,0.00025113,0.00131974,0.00007148,0.00017608,-0.00051768,
 0.00039066,0.00018900,0.00251474,-0.00073102,0.00023937,-0.00036504,-0
 .00014809,0.00001984,-0.01337045,0.14438101,0.00000727,0.00068318,0.00
 074580,0.01770639,-0.11939210,-0.21857661,-0.00019858,0.00004262,0.000
 08597,0.00000358,0.00099222,0.00072071,0.00014126,0.00030562,0.0002900
 7,0.00012570,-0.00021702,0.00017208,-0.00034017,0.00038663,0.00001127,
 -0.00034011,0.00028194,0.00157687,0.00051921,-0.00003885,0.00066757,-0
 .02012853,0.13151127,0.23276631,-0.00420083,0.01782535,-0.02528669,-0.
 04721700,0.01430434,-0.01864665,0.00171177,0.00100290,-0.00099282,-0.0
 0066235,-0.01632815,0.02122537,-0.00013302,-0.00001639,0.00018625,0.00
 210227,-0.00077999,0.00084833,-0.00027077,0.00066660,-0.00034575,0.001
 10070,-0.00036101,0.00050918,-0.00523269,0.00256416,0.00029662,-0.0004
 8281,-0.00152618,0.00221688,0.05653783,0.00225816,-0.00948133,0.012339
 46,0.01304649,-0.13439896,0.11926418,-0.00079410,0.00037664,-0.0003231
 5,-0.00011094,-0.01432089,0.01802315,-0.00002571,0.00008488,-0.0002538
 1,0.00132193,0.00007123,-0.00017604,-0.00052259,0.00039939,-0.00018374
 ,-0.00035692,-0.00014797,-0.00003286,0.00251014,-0.00072253,-0.0002721
 3,-0.00147758,0.01122252,-0.01503776,-0.01355096,0.14844350,0.00002415
 ,-0.00082419,0.00090164,-0.01734704,0.12070054,-0.21494695,0.00018749,
 -0.00003684,0.00007863,-0.00000646,-0.00123844,0.00100223,-0.00014207,
 -0.00030892,0.00028157,-0.00010370,0.00021469,0.00017361,0.00033197,-0
 .00038010,0.00000255,-0.00052433,0.00002574,0.00066830,0.00037245,-0.0
 0031547,0.00156895,-0.00222093,0.01552341,-0.02048089,0.01975571,-0.13
 282014,0.22874499,-0.00002944,-0.01565196,0.02142114,0.00160779,-0.000
 69524,0.00109479,-0.04678385,0.01164465,-0.01549303,0.00000972,-0.0000
 7039,-0.00008846,-0.00369976,0.01858079,-0.02536620,-0.00003376,0.0001
 0197,-0.00009248,-0.00000787,0.00001140,-0.00000562,0.00091288,0.00071
 659,-0.00046139,-0.00380873,-0.00345568,-0.00018144,0.00000402,0.00008
 080,0.00000832,-0.00058491,0.00036176,-0.00059888,0.05647150,0.0001708
 0,-0.01478784,0.01900099,0.00119012,0.00035115,-0.00001181,0.01174464,
 -0.13477037,0.11802449,0.00001522,0.00007529,-0.00027878,0.00184198,-0
 .00881333,0.01170744,-0.00002400,0.00003298,-0.00007807,-0.00005942,0.
 00003294,-0.00000912,0.00070738,0.00019083,-0.00015676,-0.00353859,-0.
 00242883,-0.00030891,-0.00008872,0.00000280,-0.00011175,-0.00068169,0.
 00056272,-0.00019357,-0.01219434,0.14838244,0.00015151,-0.00044974,0.0
 0031343,-0.00020546,-0.00004899,0.00005796,-0.01566428,0.11912624,-0.2
 1157967,0.00021341,-0.00025653,0.00028674,0.00009933,-0.00129681,0.001
 26470,0.00004637,0.00006490,-0.00000359,0.00005624,-0.00006019,0.00001
 291,0.00047983,0.00014171,0.00070073,-0.00015600,-0.00035444,0.0016090
 0,-0.00002384,0.00011553,-0.00008842,0.00065955,-0.00002004,0.00013899
 ,0.01729050,-0.13197221,0.22600675,-0.00001144,-0.01530599,-0.02166962
 ,0.00160896,-0.00067768,-0.00110418,-0.04681484,0.01148616,0.01580686,
 0.00000959,-0.00007215,0.00008761,-0.00372129,0.01816890,0.02565882,-0
 .00003375,0.00010044,0.00009406,-0.00000788,0.00001129,0.00000577,-0.0
 0380917,-0.00345764,0.00012107,0.00091361,0.00070942,0.00047286,-0.000
 58489,0.00035294,0.00060353,0.00000386,0.00008046,-0.00000665,-0.00058
 710,-0.00152099,-0.00192802,0.05650531,0.00018937,-0.01448846,-0.01923
 816,0.00118614,0.00034930,0.00001859,0.01158329,-0.13097208,-0.1167154
 5,0.00001826,0.00006688,0.00027485,0.00185314,-0.00864253,-0.01186595,
 -0.00002330,0.00003276,0.00007866,-0.00005853,0.00003183,0.00000932,-0
 .00354195,-0.00243862,0.00024050,0.00071495,0.00019110,0.00014922,-0.0
 0067075,0.00055942,0.00019911,-0.00008878,0.00000300,0.00011308,-0.001
 56383,0.01128398,0.01549231,-0.01201773,0.14415579,-0.00014692,0.00020
 148,-0.00000524,0.00022522,0.00005257,0.00005717,0.01597885,-0.1178188
 3,-0.21535814,-0.00021346,0.00025300,0.00029520,-0.00007270,0.00115044
 ,0.00111397,-0.00004676,-0.00006424,-0.00000326,-0.00005720,0.00006051
 ,0.00001393,0.00009483,0.00028762,0.00161876,-0.00046816,-0.00014891,0
 .00070179,-0.00067126,0.00002724,0.00014240,0.00002291,-0.00011390,-0.
 00008789,0.00191889,-0.01497694,-0.02078563,-0.01761813,0.13064215,0.2
 3021294,0.00168706,-0.00062546,-0.00115344,0.00071720,-0.01487881,-0.0
 2091740,-0.00010804,-0.00012687,0.00006974,-0.04510100,0.01286005,0.01
 622561,0.00001782,0.00008967,0.00007009,-0.00677248,0.01993259,0.02689
 458,-0.00199890,0.00029712,-0.00162626,-0.00059753,0.00037402,0.000662
 78,0.00001774,0.00010106,0.00001941,-0.00373835,-0.00335082,0.00021811
 ,0.00091466,0.00076778,0.00042283,0.00003354,0.00000310,-0.00002579,0.
 00005746,0.00020868,0.00017674,0.05542237,0.00134482,0.00070657,0.0000
 7302,-0.00043443,-0.01480762,-0.01904870,0.00002006,-0.00005085,0.0002
 7656,0.01220492,-0.12895165,-0.11964604,0.00000777,0.00006884,0.000070
 66,0.00518809,-0.01097514,-0.01115440,0.00009697,0.00073192,0.00035979
 ,-0.00065963,0.00053957,0.00015693,-0.00008090,-0.00001931,0.00013944,
 -0.00353851,-0.00226066,0.00053961,0.00078003,0.00019173,0.00012825,-0
 .00001090,-0.00006897,-0.00001083,0.00019352,0.00012835,0.00010019,-0.
 01320332,0.14312923,0.00018778,0.00024469,0.00012331,-0.00049489,0.000
 22763,0.00054710,-0.00021115,0.00022042,0.00026887,0.01542937,-0.11996
 012,-0.21534233,-0.00004519,-0.00003829,-0.00002504,0.00321117,0.00107
 469,0.00223738,-0.00148377,0.00041613,0.00015998,-0.00059722,-0.000017
 75,0.00009359,-0.00001697,-0.00010891,-0.00012869,0.00024234,0.0003280
 2,0.00140689,-0.00038092,0.00002578,0.00065082,0.00002888,0.00002513,-
 0.00002688,0.00015962,0.00009025,-0.00001514,-0.01802829,0.13238408,0.
 23069311,0.00168626,-0.00064312,0.00114559,0.00069443,-0.01519507,0.02
 068802,-0.00010821,-0.00012583,-0.00007238,-0.04506952,0.01297474,-0.0
 1584707,0.00001784,0.00009070,-0.00006864,-0.00673949,0.02034064,-0.02
 659784,-0.00200259,0.00027307,0.00162811,0.00001761,0.00010093,-0.0000
 1791,-0.00059772,0.00038457,-0.00065743,0.00091499,0.00077426,-0.00041
 075,-0.00373788,-0.00334635,-0.00027432,0.00005775,0.00021166,-0.00017
 333,0.00003335,0.00000267,0.00002576,-0.00037129,-0.00203290,0.0020727
 9,0.05538583,0.00134744,0.00071075,-0.00006313,-0.00046188,-0.01509154
 ,0.01880974,0.00001721,-0.00004313,-0.00028105,0.01230797,-0.13262126,
 0.12092190,0.00000715,0.00006938,-0.00006925,0.00522408,-0.01112540,0.
 01095661,0.00007489,0.00074344,-0.00035082,-0.00008069,-0.00001877,-0.
 00013783,-0.00066824,0.00054181,-0.00015056,0.00077432,0.00019434,-0.0
 0013448,-0.00353418,-0.00224658,-0.00059889,0.00019593,0.00013131,-0.0
 0009767,-0.00001056,-0.00006879,0.00001001,-0.00198506,0.01139837,-0.0
 1479683,-0.01333206,0.14718297,-0.00016544,-0.00023609,0.00011893,0.00
 048733,-0.00048296,0.00085323,0.00021105,-0.00022546,0.00026147,-0.015
 06043,0.12123755,-0.21171391,0.00004532,0.00003981,-0.00002555,-0.0031
 4178,-0.00125617,0.00235555,0.00148272,-0.00040696,0.00015171,0.000015
 63,0.00011065,-0.00012878,0.00058657,0.00002485,0.00009169,0.00039300,
 -0.00003205,0.00064863,-0.00030175,-0.00038756,0.00139218,-0.00015661,
 -0.00008780,-0.00001839,-0.00002888,-0.00002565,-0.00002714,-0.0020815
 1,0.01528114,-0.02055426,0.01763941,-0.13367272,0.22668575,-0.00438043
 ,0.00530363,0.00004010,-0.00070258,-0.00185533,-0.00001496,-0.01981763
 ,-0.02089502,-0.00017713,-0.00053197,0.00047311,0.00000336,-0.19414804
 ,-0.13172110,-0.00113605,-0.00004740,-0.00027629,-0.00000213,-0.000223
 95,0.00012993,0.00000087,0.00026336,0.00014080,-0.00014182,0.00026324,
 0.00013849,0.00014423,-0.00000252,0.00002227,0.00009352,-0.00000254,0.
 00002376,-0.00009313,0.00065687,-0.00000337,-0.00066620,0.00065576,-0.
 00001418,0.00066645,0.00002425,0.00001396,-0.00001584,0.00002423,0.000
 01371,0.00001607,0.21295201,0.00244844,-0.00156730,-0.00001357,0.00071
 925,0.00080354,0.00000184,0.01355510,0.01262498,0.00011964,0.00028941,
 -0.00015578,-0.00000096,-0.13280330,-0.16502500,-0.00102056,0.00005660
 ,0.00007557,0.00000059,0.00001207,-0.00002037,-0.00000009,0.00017502,0
 .00002993,0.00024480,0.00017967,0.00003946,-0.00024743,-0.00007465,0.0
 0003269,-0.00002313,-0.00007584,0.00003287,0.00002388,-0.00081221,0.00
 060484,0.00011733,-0.00081591,0.00060197,-0.00010722,-0.00000631,-0.00
 001243,0.00001283,-0.00000625,-0.00001231,-0.00001307,0.14254786,0.175
 85845,0.00001832,-0.00001286,0.00022109,0.00000524,0.00000107,0.000608
 61,0.00010262,0.00010496,-0.00141938,0.00000212,-0.00000101,-0.0000096
 7,-0.00114467,-0.00101950,-0.04659035,0.00000044,0.00000050,0.00000108
 ,0.00000001,-0.00000005,-0.00000805,0.00027499,0.00035240,0.00022476,-
 0.00027252,-0.00035497,0.00021515,-0.00007795,0.00003582,-0.00002078,0
 .00007679,-0.00003500,-0.00002096,-0.00027659,-0.00028707,-0.00005752,
 0.00026399,0.00029779,-0.00005355,0.00000331,-0.00000504,0.00000294,-0
 .00000339,0.00000482,0.00000283,0.00123237,0.00112007,0.04563082,0.001
 92685,0.00095269,-0.00116329,-0.00010744,0.00007974,0.00017971,-0.0037
 9795,0.01790402,-0.02554209,0.00002612,-0.00009316,0.00009804,-0.04772
 996,0.01266753,-0.01858258,0.00001493,0.00002092,-0.00001101,0.0000269
 2,-0.00002166,0.00001405,-0.00001015,-0.00009814,0.00003287,-0.0005193
 4,-0.00066229,0.00065095,0.00003673,0.00002370,-0.00003025,0.00016523,
 -0.00018717,0.00017685,-0.00536329,0.00263548,0.00025398,0.00115169,-0
 .00041822,0.00040295,-0.00000328,0.00000231,-0.00000509,-0.00005248,-0
 .00004005,0.00001144,0.00248439,-0.01286071,0.02035065,0.05285052,-0.0
 0091075,0.00045243,-0.00050159,-0.00007460,0.00009667,-0.00021824,0.00
 176599,-0.01010120,0.01299078,0.00002632,0.00000972,-0.00004464,0.0129
 3560,-0.13519519,0.12286445,-0.00002196,0.00002992,-0.00000090,0.00004
 883,-0.00002120,-0.00000710,0.00007470,0.00000517,-0.00009488,0.000429
 11,0.00056657,-0.00001335,0.00002372,-0.00005725,0.00000101,-0.0001897
 9,0.00001416,-0.00004376,0.00306709,-0.00055337,-0.00060583,-0.0002906
 9,-0.00022248,-0.00012041,-0.00000485,-0.00000108,-0.00000140,0.000023
 53,0.00001667,0.00000768,0.00296932,-0.01207842,0.01704098,-0.01804549
 ,0.14532627,0.00025188,-0.00015881,0.00013254,-0.00010276,-0.00031009,
 0.00028821,0.00014381,-0.00080288,0.00110038,-0.00007859,0.00004005,-0
 .00002916,-0.01912483,0.12320700,-0.21719643,-0.00001259,-0.00003709,0
 .00000300,-0.00001885,0.00000419,0.00000496,-0.00001206,0.00011608,-0.
 00011214,-0.00067335,-0.00016549,0.00007284,0.00002576,-0.00000582,-0.
 00002329,0.00017899,-0.00003918,-0.00002218,0.00039656,-0.00028165,0.0
 0152325,-0.00055732,0.00000051,0.00064974,0.,0.00000442,-0.00001080,-0
 .00001176,0.00000198,0.00001751,0.00030447,-0.00175938,0.00077000,0.02
 123267,-0.13579442,0.23274955,0.00192528,0.00093519,0.00118038,-0.0001
 0745,0.00008237,-0.00017902,-0.00382094,0.01748624,0.02582468,0.000026
 13,-0.00009150,-0.00009947,-0.04776767,0.01246805,0.01893496,0.0000148
 9,0.00002069,0.00001134,0.00002690,-0.00002142,-0.00001435,-0.00051946
 ,-0.00065243,-0.00066177,-0.00001011,-0.00009714,-0.00003465,0.0001655
 3,-0.00018454,-0.00017953,0.00003650,0.00002323,0.00003053,0.00115189,
 -0.00041171,-0.00040925,-0.00536200,0.00263828,-0.00021660,-0.00005248
 ,-0.00003987,-0.00001211,-0.00000324,0.00000226,0.00000512,0.00250193,
 -0.01252928,-0.02055576,-0.00109719,-0.00181823,-0.00194751,0.05289378
 ,-0.00090650,0.00044095,0.00050656,-0.00007653,0.00008839,0.00021451,0
 .00178057,-0.00990168,-0.01316863,0.00002501,0.00000966,0.00004535,0.0
 1272677,-0.13121866,-0.12145299,-0.00002217,0.00002931,0.00000127,0.00
 004852,-0.00002124,0.00000676,0.00041766,0.00056352,0.00002154,0.00007
 398,0.00000551,0.00009671,-0.00018685,0.00001286,0.00004411,0.00002417
 ,-0.00005734,-0.00000141,-0.00029978,-0.00022398,0.00010609,0.00307272
 ,-0.00056715,0.00057438,0.00002334,0.00001682,-0.00000768,-0.00000486,
 -0.00000105,0.00000155,0.00298911,-0.01182674,-0.01724286,-0.00186338,
 0.01171288,0.01597580,-0.01781402,0.14093806,-0.00026513,0.00016443,0.
 00014343,0.00010104,0.00030705,0.00029678,-0.00011936,0.00063876,0.000
 92161,0.00007902,-0.00003950,-0.00002909,0.01948108,-0.12179657,-0.221
 14521,0.00001223,0.00003754,0.00000362,0.00001967,-0.00000463,0.000005
 02,0.00067981,0.00017317,0.00007594,0.00001308,-0.00011429,-0.00011204
 ,-0.00018192,0.00003959,-0.00002119,-0.00002519,0.00000520,-0.00002325
 ,0.00055287,-0.00001493,0.00065188,-0.00035253,0.00025016,0.00153666,0
 .00001209,-0.00000200,0.00001735,-0.00000007,-0.00000427,-0.00001082,-
 0.00025419,0.00154448,0.00050019,0.00193407,-0.01546239,-0.01991544,-0
 .02168096,0.13428294,0.23710725,0.00003036,0.00020455,0.00000162,0.000
 47830,-0.00050798,-0.00000371,0.00005018,-0.00009764,-0.00000074,0.001
 52843,0.00206533,0.00001332,0.00001950,0.00004408,0.00000037,0.0062536
 8,-0.00173120,-0.00001095,-0.33871572,0.16119646,0.00105090,0.00001390
 ,-0.00001236,-0.00002060,0.00001391,-0.00001272,0.00002045,-0.00004799
 ,-0.00002108,-0.00001586,-0.00004802,-0.00002139,0.00001553,-0.0000072
 6,0.00000245,0.00000146,-0.00000724,0.00000249,-0.00000142,-0.00014877
 ,0.00014800,-0.00004052,-0.00014988,0.00014776,0.00004275,0.00003100,0
 .00000105,0.00000002,-0.00000231,-0.00000786,0.00000547,-0.00000231,-0
 .00000776,-0.00000559,0.33071024,0.00009477,0.00021213,0.00000199,0.00
 096354,-0.00048195,-0.00000441,0.00005080,-0.00004893,-0.00000013,0.00
 149842,0.00450270,-0.00000813,0.00001071,0.00001514,0.00000012,-0.0007
 4594,0.00373512,0.00000539,0.16054454,-0.10638492,-0.00054218,0.000008
 12,-0.00000605,-0.00002840,0.00000869,-0.00000687,0.00002868,-0.000034
 52,-0.00002597,-0.00003224,-0.00003461,-0.00002705,0.00003215,-0.00000
 665,-0.00000457,0.00000918,-0.00000650,-0.00000425,-0.00000915,-0.0004
 7593,0.00023631,-0.00011867,-0.00049034,0.00023980,0.00012329,-0.00000
 065,-0.00000594,-0.00000007,0.00000388,-0.00000026,0.00000478,0.000003
 82,-0.00000012,-0.00000474,-0.16139217,0.09805569,0.00000074,0.0000020
 1,-0.00003899,0.00000749,-0.00000521,0.00016135,0.00000044,-0.00000018
 ,-0.00003135,0.00000926,-0.00000796,0.00568190,0.00000009,0.00000013,0
 .00000118,-0.00000502,0.00000564,0.00294835,0.00104730,-0.00054251,-0.
 02347523,0.00003958,-0.00002399,-0.00002445,-0.00003940,0.00002426,-0.
 00002365,-0.00000374,-0.00003763,-0.00002342,0.00000317,0.00003755,-0.
 00002234,0.00000875,0.00001133,-0.00000623,-0.00000886,-0.00001129,-0.
 00000657,-0.00094260,0.00035291,-0.00009820,0.00093522,-0.00034757,-0.
 00010062,0.00000001,-0.00000007,0.00000280,-0.00000392,0.00000402,-0.0
 0000254,0.00000398,-0.00000399,-0.00000268,-0.00105248,0.00054255,0.01
 506068\\0.00000274,0.00000068,0.00000085,-0.00000044,0.00000210,-0.000
 00024,-0.00000445,0.00000055,0.00000079,0.00000081,0.00000207,-0.00000
 140,0.00000599,-0.00000027,0.00000035,-0.00000362,0.00000252,-0.000000
 67,0.00000379,-0.00000250,0.00000116,-0.00000087,0.00000024,0.00000014
 ,-0.00000005,-0.00000054,-0.00000077,0.00000040,-0.00000123,0.00000043
 ,0.00000046,-0.00000064,-0.00000009,-0.00000045,-0.00000024,-0.0000002
 9,-0.00000150,0.00000053,-0.00000064,-0.00000066,-0.00000035,0.0000001
 6,-0.00000123,-0.00000113,0.00000090,-0.00000084,-0.00000091,-0.000000
 26,-0.00000050,-0.00000003,0.00000003,-0.00000046,-0.00000054,-0.00000
 015,0.00000089,-0.00000030,-0.00000030\\\@


 ...THE PHYSICISTS HAVE MADE THEIR UNIVERSE, AND IF YOU DO NOT LIKE
 IT, YOU MUST MAKE YOUR OWN.
                               -- E. R. HARRISON IN "COSMOLOGY" (1980)
 Job cpu time:       0 days  1 hours 36 minutes 15.5 seconds.
 Elapsed time:       0 days  0 hours  6 minutes  4.1 seconds.
 File lengths (MBytes):  RWF=     96 Int=      0 D2E=      0 Chk=      6 Scr=      1
 Normal termination of Gaussian 16 at Sat Sep 20 04:01:52 2025.
