 Entering Gaussian System, Link 0=g16
 Input=HPTE0123.gjf
 Output=HPTE0123.log
 Initial command:
 /usr/local/g16/l1.exe "/dados_01/scratch/Gau-2108220.inp" -scrdir="/dados_01/scratch/"
 Entering Link 1 = /usr/local/g16/l1.exe PID=   2108221.
  
 Copyright (c) 1988-2017, Gaussian, Inc.  All Rights Reserved.
  
 This is part of the Gaussian(R) 16 program.  It is based on
 the Gaussian(R) 09 system (copyright 2009, Gaussian, Inc.),
 the Gaussian(R) 03 system (copyright 2003, Gaussian, Inc.),
 the Gaussian(R) 98 system (copyright 1998, Gaussian, Inc.),
 the Gaussian(R) 94 system (copyright 1995, Gaussian, Inc.),
 the Gaussian 92(TM) system (copyright 1992, Gaussian, Inc.),
 the Gaussian 90(TM) system (copyright 1990, Gaussian, Inc.),
 the Gaussian 88(TM) system (copyright 1988, Gaussian, Inc.),
 the Gaussian 86(TM) system (copyright 1986, Carnegie Mellon
 University), and the Gaussian 82(TM) system (copyright 1983,
 Carnegie Mellon University). Gaussian is a federally registered
 trademark of Gaussian, Inc.
  
 This software contains proprietary and confidential information,
 including trade secrets, belonging to Gaussian, Inc.
  
 This software is provided under written license and may be
 used, copied, transmitted, or stored only in accord with that
 written license.
  
 The following legend is applicable only to US Government
 contracts under FAR:
  
                    RESTRICTED RIGHTS LEGEND
  
 Use, reproduction and disclosure by the US Government is
 subject to restrictions as set forth in subparagraphs (a)
 and (c) of the Commercial Computer Software - Restricted
 Rights clause in FAR 52.227-19.
  
 Gaussian, Inc.
 340 Quinnipiac St., Bldg. 40, Wallingford CT 06492
  
  
 ---------------------------------------------------------------
 Warning -- This program may not be used in any manner that
 competes with the business of Gaussian, Inc. or will provide
 assistance to any competitor of Gaussian, Inc.  The licensee
 of this program is prohibited from giving any competitor of
 Gaussian, Inc. access to this program.  By using this program,
 the user acknowledges that Gaussian, Inc. is engaged in the
 business of creating and licensing software in the field of
 computational chemistry and represents and warrants to the
 licensee that it is not a competitor of Gaussian, Inc. and that
 it will not use this program in any manner prohibited above.
 ---------------------------------------------------------------
  

 Cite this work as:
 Gaussian 16, Revision B.01,
 M. J. Frisch, G. W. Trucks, H. B. Schlegel, G. E. Scuseria, 
 M. A. Robb, J. R. Cheeseman, G. Scalmani, V. Barone, 
 G. A. Petersson, H. Nakatsuji, X. Li, M. Caricato, A. V. Marenich, 
 J. Bloino, B. G. Janesko, R. Gomperts, B. Mennucci, H. P. Hratchian, 
 J. V. Ortiz, A. F. Izmaylov, J. L. Sonnenberg, D. Williams-Young, 
 F. Ding, F. Lipparini, F. Egidi, J. Goings, B. Peng, A. Petrone, 
 T. Henderson, D. Ranasinghe, V. G. Zakrzewski, J. Gao, N. Rega, 
 G. Zheng, W. Liang, M. Hada, M. Ehara, K. Toyota, R. Fukuda, 
 J. Hasegawa, M. Ishida, T. Nakajima, Y. Honda, O. Kitao, H. Nakai, 
 T. Vreven, K. Throssell, J. A. Montgomery, Jr., J. E. Peralta, 
 F. Ogliaro, M. J. Bearpark, J. J. Heyd, E. N. Brothers, K. N. Kudin, 
 V. N. Staroverov, T. A. Keith, R. Kobayashi, J. Normand, 
 K. Raghavachari, A. P. Rendell, J. C. Burant, S. S. Iyengar, 
 J. Tomasi, M. Cossi, J. M. Millam, M. Klene, C. Adamo, R. Cammi, 
 J. W. Ochterski, R. L. Martin, K. Morokuma, O. Farkas, 
 J. B. Foresman, and D. J. Fox, Gaussian, Inc., Wallingford CT, 2016.
 
 ******************************************
 Gaussian 16:  ES64L-G16RevB.01 20-Dec-2017
                20-Sep-2025 
 ******************************************
 %nprocs=16
 Will use up to   16 processors via shared memory.
 %mem=40GB
 %chk=HPTE0123.chk
 ----------------------------------------------------------------------
 # opt freq=noraman M08HX/6-311++G** scf=xqc Empiricaldispersion=pfd In
 t(Grid=ultraFine)
 ----------------------------------------------------------------------
 1/18=20,19=15,26=4,38=1/1,3;
 2/9=110,12=2,17=6,18=5,40=1/2;
 3/5=4,6=6,7=1111,11=2,25=1,30=1,71=1,74=-74,75=-5,124=11/1,2,3;
 4//1;
 5/5=2,8=3,13=1,38=5/2,8;
 6/7=2,8=2,9=2,10=2,28=1/1;
 7//1,2,3,16;
 1/18=20,19=15,26=4/3(2);
 2/9=110/2;
 99//99;
 2/9=110/2;
 3/5=4,6=6,7=1111,11=2,25=1,30=1,71=1,74=-74,75=-5,124=11/1,2,3;
 4/5=5,16=3,69=1/1;
 5/5=2,8=3,13=1,38=5/2,8;
 7//1,2,3,16;
 1/18=20,19=15,26=4/3(-5);
 2/9=110/2;
 6/7=2,8=2,9=2,10=2,19=2,28=1/1;
 99/9=1/99;
 --------
 HPTE0123
 --------
 Symbolic Z-matrix:
 Charge =  0 Multiplicity = 1
 C                     0.0121   -0.5058    0.0205 
 C                    -1.2561    0.3507    0.0091 
 C                     1.2696    0.3664    0.0269 
 C                    -2.5446   -0.474    -0.0216 
 C                     2.5379   -0.4864   -0.0003 
 C                    -3.8081    0.3723   -0.0071 
 C                     3.7891    0.3768   -0.0275 
 H                     0.0085   -1.1562    0.9034 
 H                     0.0194   -1.1571   -0.8618 
 H                    -1.2376    1.0153   -0.8636 
 H                    -1.2639    0.9951    0.8971 
 H                     1.2722    1.003     0.9199 
 H                     1.258     1.0323   -0.8446 
 H                    -2.5505   -1.1044   -0.9187 
 H                    -2.5631   -1.1499    0.8416 
 H                     2.5674   -1.1374    0.8812 
 H                     2.5317   -1.1359   -0.8834 
 H                    -4.6953   -0.2679   -0.0307 
 H                    -3.8427    1.036    -0.8768 
 H                    -3.855     0.9877    0.8968 
 H                     3.8059    1.0157   -0.9163 
 H                     3.8425    1.018     0.8581 
 H                     4.6839   -0.2533   -0.0453 
 

 GradGradGradGradGradGradGradGradGradGradGradGradGradGradGradGradGradGrad
 Berny optimization.
 Initialization pass.
                           ----------------------------
                           !    Initial Parameters    !
                           ! (Angstroms and Degrees)  !
 --------------------------                            --------------------------
 ! Name  Definition              Value          Derivative Info.                !
 --------------------------------------------------------------------------------
 ! R1    R(1,2)                  1.5304         estimate D2E/DX2                !
 ! R2    R(1,3)                  1.5304         estimate D2E/DX2                !
 ! R3    R(1,8)                  1.0966         estimate D2E/DX2                !
 ! R4    R(1,9)                  1.0967         estimate D2E/DX2                !
 ! R5    R(2,4)                  1.5301         estimate D2E/DX2                !
 ! R6    R(2,10)                 1.0971         estimate D2E/DX2                !
 ! R7    R(2,11)                 1.0972         estimate D2E/DX2                !
 ! R8    R(3,5)                  1.5286         estimate D2E/DX2                !
 ! R9    R(3,12)                 1.0967         estimate D2E/DX2                !
 ! R10   R(3,13)                 1.0968         estimate D2E/DX2                !
 ! R11   R(4,6)                  1.5208         estimate D2E/DX2                !
 ! R12   R(4,14)                 1.0965         estimate D2E/DX2                !
 ! R13   R(4,15)                 1.0965         estimate D2E/DX2                !
 ! R14   R(5,7)                  1.5203         estimate D2E/DX2                !
 ! R15   R(5,16)                 1.0962         estimate D2E/DX2                !
 ! R16   R(5,17)                 1.0962         estimate D2E/DX2                !
 ! R17   R(6,18)                 1.0943         estimate D2E/DX2                !
 ! R18   R(6,19)                 1.0946         estimate D2E/DX2                !
 ! R19   R(6,20)                 1.0945         estimate D2E/DX2                !
 ! R20   R(7,21)                 1.0947         estimate D2E/DX2                !
 ! R21   R(7,22)                 1.0947         estimate D2E/DX2                !
 ! R22   R(7,23)                 1.0945         estimate D2E/DX2                !
 ! A1    A(2,1,3)              111.2222         estimate D2E/DX2                !
 ! A2    A(2,1,8)              109.5857         estimate D2E/DX2                !
 ! A3    A(2,1,9)              109.3842         estimate D2E/DX2                !
 ! A4    A(3,1,8)              109.7157         estimate D2E/DX2                !
 ! A5    A(3,1,9)              109.6555         estimate D2E/DX2                !
 ! A6    A(8,1,9)              107.189          estimate D2E/DX2                !
 ! A7    A(1,2,4)              113.3487         estimate D2E/DX2                !
 ! A8    A(1,2,10)             109.3285         estimate D2E/DX2                !
 ! A9    A(1,2,11)             109.1814         estimate D2E/DX2                !
 ! A10   A(4,2,10)             108.9496         estimate D2E/DX2                !
 ! A11   A(4,2,11)             109.0745         estimate D2E/DX2                !
 ! A12   A(10,2,11)            106.7459         estimate D2E/DX2                !
 ! A13   A(1,3,5)              111.3298         estimate D2E/DX2                !
 ! A14   A(1,3,12)             109.6443         estimate D2E/DX2                !
 ! A15   A(1,3,13)             109.5111         estimate D2E/DX2                !
 ! A16   A(5,3,12)             109.6559         estimate D2E/DX2                !
 ! A17   A(5,3,13)             109.4716         estimate D2E/DX2                !
 ! A18   A(12,3,13)            107.1333         estimate D2E/DX2                !
 ! A19   A(2,4,6)              113.5463         estimate D2E/DX2                !
 ! A20   A(2,4,14)             109.3188         estimate D2E/DX2                !
 ! A21   A(2,4,15)             109.308          estimate D2E/DX2                !
 ! A22   A(6,4,14)             108.861          estimate D2E/DX2                !
 ! A23   A(6,4,15)             108.7538         estimate D2E/DX2                !
 ! A24   A(14,4,15)            106.8343         estimate D2E/DX2                !
 ! A25   A(3,5,7)              111.494          estimate D2E/DX2                !
 ! A26   A(3,5,16)             109.8361         estimate D2E/DX2                !
 ! A27   A(3,5,17)             109.8881         estimate D2E/DX2                !
 ! A28   A(7,5,16)             109.2334         estimate D2E/DX2                !
 ! A29   A(7,5,17)             109.0648         estimate D2E/DX2                !
 ! A30   A(16,5,17)            107.2224         estimate D2E/DX2                !
 ! A31   A(4,6,18)             110.353          estimate D2E/DX2                !
 ! A32   A(4,6,19)             110.8617         estimate D2E/DX2                !
 ! A33   A(4,6,20)             110.8769         estimate D2E/DX2                !
 ! A34   A(18,6,19)            108.178          estimate D2E/DX2                !
 ! A35   A(18,6,20)            108.1801         estimate D2E/DX2                !
 ! A36   A(19,6,20)            108.2945         estimate D2E/DX2                !
 ! A37   A(5,7,21)             111.0092         estimate D2E/DX2                !
 ! A38   A(5,7,22)             110.9928         estimate D2E/DX2                !
 ! A39   A(5,7,23)             110.2575         estimate D2E/DX2                !
 ! A40   A(21,7,22)            108.3144         estimate D2E/DX2                !
 ! A41   A(21,7,23)            108.0727         estimate D2E/DX2                !
 ! A42   A(22,7,23)            108.0883         estimate D2E/DX2                !
 ! D1    D(3,1,2,4)            179.0234         estimate D2E/DX2                !
 ! D2    D(3,1,2,10)            57.2716         estimate D2E/DX2                !
 ! D3    D(3,1,2,11)           -59.1712         estimate D2E/DX2                !
 ! D4    D(8,1,2,4)            -59.491          estimate D2E/DX2                !
 ! D5    D(8,1,2,10)           178.7572         estimate D2E/DX2                !
 ! D6    D(8,1,2,11)            62.3145         estimate D2E/DX2                !
 ! D7    D(9,1,2,4)             57.7484         estimate D2E/DX2                !
 ! D8    D(9,1,2,10)           -64.0034         estimate D2E/DX2                !
 ! D9    D(9,1,2,11)           179.5539         estimate D2E/DX2                !
 ! D10   D(2,1,3,5)           -178.447          estimate D2E/DX2                !
 ! D11   D(2,1,3,12)            60.0323         estimate D2E/DX2                !
 ! D12   D(2,1,3,13)           -57.2478         estimate D2E/DX2                !
 ! D13   D(8,1,3,5)             60.1432         estimate D2E/DX2                !
 ! D14   D(8,1,3,12)           -61.3775         estimate D2E/DX2                !
 ! D15   D(8,1,3,13)          -178.6576         estimate D2E/DX2                !
 ! D16   D(9,1,3,5)            -57.3309         estimate D2E/DX2                !
 ! D17   D(9,1,3,12)          -178.8516         estimate D2E/DX2                !
 ! D18   D(9,1,3,13)            63.8683         estimate D2E/DX2                !
 ! D19   D(1,2,4,6)            178.9342         estimate D2E/DX2                !
 ! D20   D(1,2,4,14)           -59.3004         estimate D2E/DX2                !
 ! D21   D(1,2,4,15)            57.3146         estimate D2E/DX2                !
 ! D22   D(10,2,4,6)           -59.1024         estimate D2E/DX2                !
 ! D23   D(10,2,4,14)           62.6629         estimate D2E/DX2                !
 ! D24   D(10,2,4,15)          179.278          estimate D2E/DX2                !
 ! D25   D(11,2,4,6)            57.069          estimate D2E/DX2                !
 ! D26   D(11,2,4,14)          178.8344         estimate D2E/DX2                !
 ! D27   D(11,2,4,15)          -64.5506         estimate D2E/DX2                !
 ! D28   D(1,3,5,7)            178.6442         estimate D2E/DX2                !
 ! D29   D(1,3,5,16)           -60.1293         estimate D2E/DX2                !
 ! D30   D(1,3,5,17)            57.5951         estimate D2E/DX2                !
 ! D31   D(12,3,5,7)           -59.8419         estimate D2E/DX2                !
 ! D32   D(12,3,5,16)           61.3846         estimate D2E/DX2                !
 ! D33   D(12,3,5,17)          179.109          estimate D2E/DX2                !
 ! D34   D(13,3,5,7)            57.4219         estimate D2E/DX2                !
 ! D35   D(13,3,5,16)          178.6484         estimate D2E/DX2                !
 ! D36   D(13,3,5,17)          -63.6272         estimate D2E/DX2                !
 ! D37   D(2,4,6,18)           179.9714         estimate D2E/DX2                !
 ! D38   D(2,4,6,19)            60.1393         estimate D2E/DX2                !
 ! D39   D(2,4,6,20)           -60.184          estimate D2E/DX2                !
 ! D40   D(14,4,6,18)           57.9515         estimate D2E/DX2                !
 ! D41   D(14,4,6,19)          -61.8807         estimate D2E/DX2                !
 ! D42   D(14,4,6,20)          177.7961         estimate D2E/DX2                !
 ! D43   D(15,4,6,18)          -58.1003         estimate D2E/DX2                !
 ! D44   D(15,4,6,19)         -177.9325         estimate D2E/DX2                !
 ! D45   D(15,4,6,20)           61.7443         estimate D2E/DX2                !
 ! D46   D(3,5,7,21)           -60.3438         estimate D2E/DX2                !
 ! D47   D(3,5,7,22)            60.1805         estimate D2E/DX2                !
 ! D48   D(3,5,7,23)           179.9228         estimate D2E/DX2                !
 ! D49   D(16,5,7,21)          178.0793         estimate D2E/DX2                !
 ! D50   D(16,5,7,22)          -61.3963         estimate D2E/DX2                !
 ! D51   D(16,5,7,23)           58.346          estimate D2E/DX2                !
 ! D52   D(17,5,7,21)           61.1844         estimate D2E/DX2                !
 ! D53   D(17,5,7,22)         -178.2913         estimate D2E/DX2                !
 ! D54   D(17,5,7,23)          -58.549          estimate D2E/DX2                !
 --------------------------------------------------------------------------------
 Trust Radius=3.00D-01 FncErr=1.00D-07 GrdErr=1.00D-06 EigMax=2.50D+02 EigMin=1.00D-04
 Number of steps in this run=    128 maximum allowed number of steps=    138.
 GradGradGradGradGradGradGradGradGradGradGradGradGradGradGradGradGradGrad

                          Input orientation:                          
 ---------------------------------------------------------------------
 Center     Atomic      Atomic             Coordinates (Angstroms)
 Number     Number       Type             X           Y           Z
 ---------------------------------------------------------------------
      1          6           0        0.012100   -0.505800    0.020500
      2          6           0       -1.256100    0.350700    0.009100
      3          6           0        1.269600    0.366400    0.026900
      4          6           0       -2.544600   -0.474000   -0.021600
      5          6           0        2.537900   -0.486400   -0.000300
      6          6           0       -3.808100    0.372300   -0.007100
      7          6           0        3.789100    0.376800   -0.027500
      8          1           0        0.008500   -1.156200    0.903400
      9          1           0        0.019400   -1.157100   -0.861800
     10          1           0       -1.237600    1.015300   -0.863600
     11          1           0       -1.263900    0.995100    0.897100
     12          1           0        1.272200    1.003000    0.919900
     13          1           0        1.258000    1.032300   -0.844600
     14          1           0       -2.550500   -1.104400   -0.918700
     15          1           0       -2.563100   -1.149900    0.841600
     16          1           0        2.567400   -1.137400    0.881200
     17          1           0        2.531700   -1.135900   -0.883400
     18          1           0       -4.695300   -0.267900   -0.030700
     19          1           0       -3.842700    1.036000   -0.876800
     20          1           0       -3.855000    0.987700    0.896800
     21          1           0        3.805900    1.015700   -0.916300
     22          1           0        3.842500    1.018000    0.858100
     23          1           0        4.683900   -0.253300   -0.045300
 ---------------------------------------------------------------------
                    Distance matrix (angstroms):
                    1          2          3          4          5
     1  C    0.000000
     2  C    1.530377   0.000000
     3  C    1.530386   2.525812   0.000000
     4  C    2.557244   1.530132   3.905988   0.000000
     5  C    2.525960   3.885262   1.528592   5.082560   0.000000
     6  C    3.919917   2.552143   5.077817   1.520811   6.403837
     7  C    3.879048   5.045400   2.520109   6.390591   1.520314
     8  H    1.096606   2.160957   2.162623   2.799882   2.768243
     9  H    1.096676   2.158432   2.161907   2.783282   2.744970
    10  H    2.158038   1.097106   2.738633   2.152958   4.153889
    11  H    2.156225   1.097204   2.751569   2.154636   4.177781
    12  H    2.161770   2.765385   1.096684   4.199513   2.160342
    13  H    2.160189   2.741182   1.096845   4.172054   2.158109
    14  H    2.794161   2.157220   4.201259   1.096461   5.207418
    15  H    2.778619   2.157106   4.201487   1.096493   5.212411
    16  H    2.769347   4.194538   2.162297   5.233325   1.096227
    17  H    2.749990   4.165809   2.162972   5.191304   1.096246
    18  H    4.713686   3.494617   5.998807   2.160572   7.236563
    19  H    4.247561   2.818680   5.234563   2.167148   6.618007
    20  H    4.237087   2.819231   5.234908   2.167296   6.621701
    21  H    4.193504   5.188683   2.782811   6.583961   2.168683
    22  H    4.206602   5.211700   2.781239   6.617778   2.168421
    23  H    4.679081   5.970877   3.470834   7.231907   2.159092
                    6          7          8          9         10
     6  C    0.000000
     7  C    7.597229   0.000000
     8  H    4.210909   4.184447   0.000000
     9  H    4.209434   4.154461   1.765234   0.000000
    10  H    2.784692   5.135607   3.064387   2.509855   0.000000
    11  H    2.770995   5.173972   2.499427   3.061463   1.761012
    12  H    5.202553   2.761246   2.501870   3.067571   3.078980
    13  H    5.177101   2.739306   3.066967   2.515531   2.495730
    14  H    2.143179   6.571052   3.141849   2.571070   2.493967
    15  H    2.141824   6.590644   2.572350   3.093692   3.058226
    16  H    6.611753   2.147344   2.559065   3.087190   4.707066
    17  H    6.575381   2.145199   3.091861   2.512482   4.340009
    18  H    1.094320   8.508860   4.877228   4.869271   3.781007
    19  H    1.094565   7.707154   4.775625   4.441366   2.605216
    20  H    1.094510   7.723975   4.418482   4.764852   3.154450
    21  H    7.695038   1.094733   4.738006   4.365961   5.043775
    22  H    7.726395   1.094658   4.407806   4.722839   5.363923
    23  H    8.515098   1.094536   4.855371   4.820901   6.110902
                   11         12         13         14         15
    11  H    0.000000
    12  H    2.536215   0.000000
    13  H    3.065107   1.764800   0.000000
    14  H    3.059472   4.736520   4.367568   0.000000
    15  H    2.508391   4.398936   4.712332   1.760933   0.000000
    16  H    4.384823   2.502070   3.066025   5.425277   5.130668
    17  H    4.702969   3.068082   2.514937   5.082420   5.378923
    18  H    3.772332   6.174940   6.147742   2.467477   2.466801
    19  H    3.130272   5.421386   5.100803   2.500570   3.060790
    20  H    2.591111   5.127275   5.401595   3.061804   2.498277
    21  H    5.384396   3.129126   2.548963   6.700646   6.952999
    22  H    5.106600   2.571087   3.095001   6.966495   6.762527
    23  H    6.150036   3.761595   3.745456   7.336467   7.355915
                   16         17         18         19         20
    16  H    0.000000
    17  H    1.764962   0.000000
    18  H    7.371187   7.328714   0.000000
    19  H    6.993112   6.734253   1.772842   0.000000
    20  H    6.764874   6.961948   1.772820   1.774300   0.000000
    21  H    3.066061   2.500810   8.643050   7.648729   7.872579
    22  H    2.504429   3.064360   8.679720   7.878610   7.697657
    23  H    2.473784   2.472521   9.379223   8.663521   8.679887
                   21         22         23
    21  H    0.000000
    22  H    1.774779   0.000000
    23  H    1.771972   1.772086   0.000000
 Stoichiometry    C7H16
 Framework group  C1[X(C7H16)]
 Deg. of freedom    63
 Full point group                 C1      NOp   1
 Largest Abelian subgroup         C1      NOp   1
 Largest concise Abelian subgroup C1      NOp   1
                         Standard orientation:                         
 ---------------------------------------------------------------------
 Center     Atomic      Atomic             Coordinates (Angstroms)
 Number     Number       Type             X           Y           Z
 ---------------------------------------------------------------------
      1          6           0       -0.012347    0.518564    0.021583
      2          6           0        1.255720   -0.338121    0.009304
      3          6           0       -1.269978   -0.353449    0.027737
      4          6           0        2.544338    0.486402   -0.021189
      5          6           0       -2.538155    0.499561    0.001414
      6          6           0        3.807712   -0.360099   -0.007560
      7          6           0       -3.789493   -0.363430   -0.026028
      8          1           0       -0.008423    1.168390    0.904904
      9          1           0       -0.019772    1.170437   -0.860292
     10          1           0        1.236897   -1.002152   -0.863822
     11          1           0        1.263648   -0.983099    0.896884
     12          1           0       -1.272447   -0.990628    0.920324
     13          1           0       -1.258701   -1.018785   -0.844198
     14          1           0        2.550105    1.117384   -0.917881
     15          1           0        2.563160    1.161739    0.842445
     16          1           0       -2.567331    1.149994    0.883343
     17          1           0       -2.532081    1.149633   -0.881266
     18          1           0        4.695004    0.279981   -0.030971
     19          1           0        3.841990   -1.023240   -0.877699
     20          1           0        3.854749   -0.976093    0.895928
     21          1           0       -3.806617   -1.001751   -0.915238
     22          1           0       -3.842765   -1.005197    0.859169
     23          1           0       -4.684202    0.266817   -0.043191
 ---------------------------------------------------------------------
 Rotational constants (GHZ):          11.9270454           0.7356875           0.7145902
 Standard basis: 6-311++G(d,p) (5D, 7F)
 There are   273 symmetry adapted cartesian basis functions of A   symmetry.
 There are   266 symmetry adapted basis functions of A   symmetry.
   266 basis functions,   396 primitive gaussians,   273 cartesian basis functions
    29 alpha electrons       29 beta electrons
       nuclear repulsion energy       308.4460425538 Hartrees.
 NAtoms=   23 NActive=   23 NUniq=   23 SFac= 1.00D+00 NAtFMM=   60 NAOKFM=F Big=F
 Integral buffers will be    131072 words long.
 Raffenetti 2 integral format.
 Two-electron integral symmetry is turned on.
 R6APFD:  NTU= -4 IXU= 1 FactS= 1.050
 Nuclear repulsion after empirical dispersion term =      308.4329353831 Hartrees.
 One-electron integrals computed using PRISM.
 NBasis=   266 RedAO= T EigKep=  5.69D-06  NBF=   266
 NBsUse=   266 1.00D-06 EigRej= -1.00D+00 NBFU=   266
 ExpMin= 3.60D-02 ExpMax= 4.56D+03 ExpMxC= 6.82D+02 IAcc=3 IRadAn=         5 AccDes= 0.00D+00
 Harris functional with IExCor= 1009 and IRadAn=       5 diagonalized for initial guess.
 HarFok:  IExCor= 1009 AccDes= 0.00D+00 IRadAn=         5 IDoV= 1 UseB2=F ITyADJ=14
 ICtDFT=  3500011 ScaDFX=  1.000000  1.000000  1.000000  1.000000
 FoFCou: FMM=F IPFlag=           0 FMFlag=      100000 FMFlg1=           0
         NFxFlg=           0 DoJE=T BraDBF=F KetDBF=T FulRan=T
         wScrn=  0.000000 ICntrl=       500 IOpCl=  0 I1Cent=   200000004 NGrid=           0
         NMat0=    1 NMatS0=      1 NMatT0=    0 NMatD0=    1 NMtDS0=    0 NMtDT0=    0
 Petite list used in FoFCou.
 Requested convergence on RMS density matrix=1.00D-08 within  32 cycles.
 Requested convergence on MAX density matrix=1.00D-06.
 Requested convergence on             energy=1.00D-06.
 No special actions if energy rises.
 SCF Done:  E(RM08HX) =  -276.414129549     A.U. after   11 cycles
            NFock= 11  Conv=0.54D-08     -V/T= 2.0059
 QCSCF skips out because SCF is already converged.

 **********************************************************************

            Population analysis using the SCF Density.

 **********************************************************************

 Orbital symmetries:
       Occupied  (A) (A) (A) (A) (A) (A) (A) (A) (A) (A) (A) (A)
                 (A) (A) (A) (A) (A) (A) (A) (A) (A) (A) (A) (A)
                 (A) (A) (A) (A) (A)
       Virtual   (A) (A) (A) (A) (A) (A) (A) (A) (A) (A) (A) (A)
                 (A) (A) (A) (A) (A) (A) (A) (A) (A) (A) (A) (A)
                 (A) (A) (A) (A) (A) (A) (A) (A) (A) (A) (A) (A)
                 (A) (A) (A) (A) (A) (A) (A) (A) (A) (A) (A) (A)
                 (A) (A) (A) (A) (A) (A) (A) (A) (A) (A) (A) (A)
                 (A) (A) (A) (A) (A) (A) (A) (A) (A) (A) (A) (A)
                 (A) (A) (A) (A) (A) (A) (A) (A) (A) (A) (A) (A)
                 (A) (A) (A) (A) (A) (A) (A) (A) (A) (A) (A) (A)
                 (A) (A) (A) (A) (A) (A) (A) (A) (A) (A) (A) (A)
                 (A) (A) (A) (A) (A) (A) (A) (A) (A) (A) (A) (A)
                 (A) (A) (A) (A) (A) (A) (A) (A) (A) (A) (A) (A)
                 (A) (A) (A) (A) (A) (A) (A) (A) (A) (A) (A) (A)
                 (A) (A) (A) (A) (A) (A) (A) (A) (A) (A) (A) (A)
                 (A) (A) (A) (A) (A) (A) (A) (A) (A) (A) (A) (A)
                 (A) (A) (A) (A) (A) (A) (A) (A) (A) (A) (A) (A)
                 (A) (A) (A) (A) (A) (A) (A) (A) (A) (A) (A) (A)
                 (A) (A) (A) (A) (A) (A) (A) (A) (A) (A) (A) (A)
                 (A) (A) (A) (A) (A) (A) (A) (A) (A) (A) (A) (A)
                 (A) (A) (A) (A) (A) (A) (A) (A) (A) (A) (A) (A)
                 (A) (A) (A) (A) (A) (A) (A) (A) (A)
 The electronic state is 1-A.
 Alpha  occ. eigenvalues --  -10.51795 -10.51779 -10.51743 -10.51707 -10.51671
 Alpha  occ. eigenvalues --  -10.51035 -10.50981  -0.91730  -0.88491  -0.83358
 Alpha  occ. eigenvalues --   -0.76648  -0.69764  -0.66121  -0.65732  -0.55856
 Alpha  occ. eigenvalues --   -0.52970  -0.50536  -0.49468  -0.48781  -0.46923
 Alpha  occ. eigenvalues --   -0.44091  -0.43444  -0.42214  -0.40372  -0.39781
 Alpha  occ. eigenvalues --   -0.38587  -0.38506  -0.38187  -0.35943
 Alpha virt. eigenvalues --   -0.02595  -0.01646  -0.01295  -0.01197  -0.00023
 Alpha virt. eigenvalues --    0.00650   0.00899   0.02239   0.02309   0.03119
 Alpha virt. eigenvalues --    0.03666   0.03732   0.04278   0.05183   0.05904
 Alpha virt. eigenvalues --    0.06163   0.07346   0.07426   0.09366   0.09553
 Alpha virt. eigenvalues --    0.09612   0.11276   0.11481   0.12188   0.12230
 Alpha virt. eigenvalues --    0.12304   0.12698   0.13351   0.13619   0.14091
 Alpha virt. eigenvalues --    0.14669   0.14893   0.15370   0.15601   0.15975
 Alpha virt. eigenvalues --    0.17124   0.17126   0.17752   0.17925   0.18127
 Alpha virt. eigenvalues --    0.19651   0.19828   0.20613   0.20925   0.21750
 Alpha virt. eigenvalues --    0.23154   0.23819   0.24400   0.24619   0.24910
 Alpha virt. eigenvalues --    0.26159   0.26655   0.27079   0.28405   0.30235
 Alpha virt. eigenvalues --    0.30804   0.31658   0.31718   0.33057   0.33554
 Alpha virt. eigenvalues --    0.34029   0.35481   0.35757   0.36366   0.37233
 Alpha virt. eigenvalues --    0.38638   0.43722   0.45911   0.46577   0.46911
 Alpha virt. eigenvalues --    0.47960   0.48962   0.51840   0.52906   0.54404
 Alpha virt. eigenvalues --    0.54573   0.59138   0.59703   0.64265   0.66174
 Alpha virt. eigenvalues --    0.67859   0.68552   0.69038   0.69544   0.70687
 Alpha virt. eigenvalues --    0.70863   0.70977   0.71106   0.71651   0.72837
 Alpha virt. eigenvalues --    0.73004   0.73772   0.75298   0.75904   0.76622
 Alpha virt. eigenvalues --    0.77173   0.77681   0.79311   0.80079   0.80497
 Alpha virt. eigenvalues --    0.81320   0.82102   0.84002   0.86141   0.97022
 Alpha virt. eigenvalues --    0.98732   0.99888   1.01727   1.02623   1.05297
 Alpha virt. eigenvalues --    1.05778   1.10326   1.15318   1.19716   1.27846
 Alpha virt. eigenvalues --    1.27937   1.29564   1.31155   1.31498   1.32134
 Alpha virt. eigenvalues --    1.36837   1.46566   1.49688   1.49933   1.51286
 Alpha virt. eigenvalues --    1.52921   1.57561   1.58069   1.59464   1.60341
 Alpha virt. eigenvalues --    1.60926   1.62437   1.62985   1.63519   1.64609
 Alpha virt. eigenvalues --    1.64725   1.65314   1.67035   1.67741   1.69476
 Alpha virt. eigenvalues --    1.69815   1.72269   1.75435   1.75773   1.76344
 Alpha virt. eigenvalues --    1.76992   1.78092   1.78812   1.81432   1.85189
 Alpha virt. eigenvalues --    1.86710   1.88450   1.88880   1.90547   1.93144
 Alpha virt. eigenvalues --    1.98102   2.01748   2.04630   2.08153   2.13619
 Alpha virt. eigenvalues --    2.13855   2.14634   2.16018   2.21103   2.22016
 Alpha virt. eigenvalues --    2.24147   2.26442   2.27781   2.30004   2.33420
 Alpha virt. eigenvalues --    2.33737   2.39550   2.40688   2.42839   2.44702
 Alpha virt. eigenvalues --    2.47175   2.47580   2.47728   2.50799   2.52469
 Alpha virt. eigenvalues --    2.52718   2.54701   2.55376   2.58735   2.59725
 Alpha virt. eigenvalues --    2.60619   2.61721   2.63096   2.63694   2.64918
 Alpha virt. eigenvalues --    2.65878   2.66947   2.69079   2.69338   2.72883
 Alpha virt. eigenvalues --    2.73534   2.76025   2.76619   2.77701   2.79855
 Alpha virt. eigenvalues --    2.80526   2.85037   2.85719   2.86545   2.89005
 Alpha virt. eigenvalues --    2.92614   2.92729   2.95801   2.97444   3.10092
 Alpha virt. eigenvalues --    3.10641   3.22259   3.35079   3.46035   3.53001
 Alpha virt. eigenvalues --    3.81273   3.81426   3.84346   3.85094   3.85187
 Alpha virt. eigenvalues --    3.85302   3.86469   3.90496   3.96066   4.12103
 Alpha virt. eigenvalues --    4.16217   4.23351   4.33055   4.41949   4.46197
 Alpha virt. eigenvalues --   23.94481  23.95224  23.96224  23.97048  23.99024
 Alpha virt. eigenvalues --   24.04447  24.04562
          Condensed to atoms (all electrons):
               1          2          3          4          5          6
     1  C    6.849778  -0.653857  -0.578532   0.162156   0.078922  -0.178010
     2  C   -0.653857   7.191830   0.201480  -1.104063  -0.214153   0.286354
     3  C   -0.578532   0.201480   7.032192  -0.238201  -0.949390  -0.081033
     4  C    0.162156  -1.104063  -0.238201   7.239829  -0.181739  -0.349520
     5  C    0.078922  -0.214153  -0.949390  -0.181739   7.080120  -0.006604
     6  C   -0.178010   0.286354  -0.081033  -0.349520  -0.006604   6.133597
     7  C   -0.156058  -0.094175   0.223350  -0.007155  -0.289444  -0.003253
     8  H    0.506648  -0.093511  -0.078908   0.010178   0.014734  -0.002100
     9  H    0.519829  -0.095637  -0.105725   0.022033   0.016160  -0.000779
    10  H   -0.090485   0.503365   0.004056  -0.060739  -0.007391   0.012200
    11  H   -0.097877   0.517275  -0.005149  -0.067976  -0.003586   0.016874
    12  H   -0.083172  -0.001849   0.502329  -0.003860  -0.063254  -0.002768
    13  H   -0.097988  -0.000748   0.515391  -0.007928  -0.064480  -0.003309
    14  H   -0.005726  -0.054997   0.004100   0.454699   0.000145  -0.054511
    15  H    0.013867  -0.075784   0.007819   0.467525  -0.000250  -0.072264
    16  H    0.005837   0.006369  -0.067605   0.000411   0.463077   0.000528
    17  H    0.003908   0.007068  -0.060718  -0.000496   0.459621   0.000394
    18  H    0.014673   0.043937   0.000565  -0.058674  -0.000835   0.358396
    19  H   -0.007180  -0.044328  -0.002067   0.000366   0.000045   0.407833
    20  H   -0.010007  -0.042955  -0.002493  -0.003534  -0.000016   0.415056
    21  H   -0.009239  -0.002988  -0.047247   0.000078  -0.000735   0.000084
    22  H   -0.011183  -0.001948  -0.035573  -0.000013  -0.009881   0.000036
    23  H    0.013729   0.000683   0.046850  -0.000964  -0.059953  -0.000057
               7          8          9         10         11         12
     1  C   -0.156058   0.506648   0.519829  -0.090485  -0.097877  -0.083172
     2  C   -0.094175  -0.093511  -0.095637   0.503365   0.517275  -0.001849
     3  C    0.223350  -0.078908  -0.105725   0.004056  -0.005149   0.502329
     4  C   -0.007155   0.010178   0.022033  -0.060739  -0.067976  -0.003860
     5  C   -0.289444   0.014734   0.016160  -0.007391  -0.003586  -0.063254
     6  C   -0.003253  -0.002100  -0.000779   0.012200   0.016874  -0.002768
     7  C    6.112068   0.000387  -0.002759  -0.002987  -0.003440   0.013423
     8  H    0.000387   0.559103  -0.087090   0.011309  -0.021898  -0.020599
     9  H   -0.002759  -0.087090   0.566087  -0.020801   0.011941   0.010623
    10  H   -0.002987   0.011309  -0.020801   0.574561  -0.094680   0.008058
    11  H   -0.003440  -0.021898   0.011941  -0.094680   0.572612  -0.007204
    12  H    0.013423  -0.020599   0.010623   0.008058  -0.007204   0.560550
    13  H    0.017331   0.010551  -0.019817  -0.007961   0.007925  -0.090319
    14  H    0.000423   0.002965  -0.002290  -0.022340   0.010799  -0.000843
    15  H    0.000461  -0.002225   0.002105   0.011241  -0.020505   0.002722
    16  H   -0.062416  -0.003240   0.002994  -0.000946   0.002956  -0.019826
    17  H   -0.064825   0.003388  -0.003106   0.003012  -0.001037   0.009513
    18  H   -0.000057   0.000401   0.000574  -0.001045  -0.000521  -0.000105
    19  H    0.000068  -0.000118   0.001180   0.002188   0.000885  -0.000006
    20  H    0.000074   0.001294  -0.000063   0.001586   0.001891   0.000195
    21  H    0.415929  -0.000164   0.001295   0.000157   0.000032   0.001736
    22  H    0.414682   0.001443  -0.000155   0.000050   0.000120   0.001292
    23  H    0.357424   0.000384   0.000662  -0.000129  -0.000088  -0.000796
              13         14         15         16         17         18
     1  C   -0.097988  -0.005726   0.013867   0.005837   0.003908   0.014673
     2  C   -0.000748  -0.054997  -0.075784   0.006369   0.007068   0.043937
     3  C    0.515391   0.004100   0.007819  -0.067605  -0.060718   0.000565
     4  C   -0.007928   0.454699   0.467525   0.000411  -0.000496  -0.058674
     5  C   -0.064480   0.000145  -0.000250   0.463077   0.459621  -0.000835
     6  C   -0.003309  -0.054511  -0.072264   0.000528   0.000394   0.358396
     7  C    0.017331   0.000423   0.000461  -0.062416  -0.064825  -0.000057
     8  H    0.010551   0.002965  -0.002225  -0.003240   0.003388   0.000401
     9  H   -0.019817  -0.002290   0.002105   0.002994  -0.003106   0.000574
    10  H   -0.007961  -0.022340   0.011241  -0.000946   0.003012  -0.001045
    11  H    0.007925   0.010799  -0.020505   0.002956  -0.001037  -0.000521
    12  H   -0.090319  -0.000843   0.002722  -0.019826   0.009513  -0.000105
    13  H    0.567868   0.002985  -0.000879   0.009575  -0.018670  -0.000119
    14  H    0.002985   0.558761  -0.076825   0.000349  -0.000355  -0.002831
    15  H   -0.000879  -0.076825   0.562815  -0.000355   0.000474  -0.004098
    16  H    0.009575   0.000349  -0.000355   0.552122  -0.074417  -0.000013
    17  H   -0.018670  -0.000355   0.000474  -0.074417   0.555463  -0.000018
    18  H   -0.000119  -0.002831  -0.004098  -0.000013  -0.000018   0.489234
    19  H    0.000229  -0.023340   0.013688   0.000008  -0.000035  -0.024608
    20  H   -0.000023   0.012927  -0.023340  -0.000038   0.000004  -0.023954
    21  H    0.001595  -0.000031  -0.000005   0.012795  -0.023130   0.000001
    22  H    0.001367   0.000001  -0.000026  -0.022999   0.013206   0.000002
    23  H   -0.000922  -0.000013  -0.000015  -0.002443  -0.003942  -0.000004
              19         20         21         22         23
     1  C   -0.007180  -0.010007  -0.009239  -0.011183   0.013729
     2  C   -0.044328  -0.042955  -0.002988  -0.001948   0.000683
     3  C   -0.002067  -0.002493  -0.047247  -0.035573   0.046850
     4  C    0.000366  -0.003534   0.000078  -0.000013  -0.000964
     5  C    0.000045  -0.000016  -0.000735  -0.009881  -0.059953
     6  C    0.407833   0.415056   0.000084   0.000036  -0.000057
     7  C    0.000068   0.000074   0.415929   0.414682   0.357424
     8  H   -0.000118   0.001294  -0.000164   0.001443   0.000384
     9  H    0.001180  -0.000063   0.001295  -0.000155   0.000662
    10  H    0.002188   0.001586   0.000157   0.000050  -0.000129
    11  H    0.000885   0.001891   0.000032   0.000120  -0.000088
    12  H   -0.000006   0.000195   0.001736   0.001292  -0.000796
    13  H    0.000229  -0.000023   0.001595   0.001367  -0.000922
    14  H   -0.023340   0.012927  -0.000031   0.000001  -0.000013
    15  H    0.013688  -0.023340  -0.000005  -0.000026  -0.000015
    16  H    0.000008  -0.000038   0.012795  -0.022999  -0.002443
    17  H   -0.000035   0.000004  -0.023130   0.013206  -0.003942
    18  H   -0.024608  -0.023954   0.000001   0.000002  -0.000004
    19  H    0.559389  -0.069881   0.000003  -0.000004   0.000001
    20  H   -0.069881   0.557967  -0.000002   0.000002   0.000001
    21  H    0.000003  -0.000002   0.557927  -0.070786  -0.022646
    22  H   -0.000004   0.000002  -0.070786   0.560278  -0.024958
    23  H    0.000001   0.000001  -0.022646  -0.024958   0.487541
 Mulliken charges:
               1
     1  C   -0.190031
     2  C   -0.277366
     3  C   -0.285488
     4  C   -0.272413
     5  C   -0.261111
     6  C   -0.877142
     7  C   -0.869050
     8  H    0.187067
     9  H    0.182737
    10  H    0.177722
    11  H    0.180654
    12  H    0.184161
    13  H    0.178346
    14  H    0.195949
    15  H    0.193855
    16  H    0.197277
    17  H    0.194697
    18  H    0.209099
    19  H    0.185683
    20  H    0.185310
    21  H    0.185343
    22  H    0.185046
    23  H    0.209655
 Sum of Mulliken charges =  -0.00000
 Mulliken charges with hydrogens summed into heavy atoms:
               1
     1  C    0.179774
     2  C    0.081010
     3  C    0.077019
     4  C    0.117391
     5  C    0.130863
     6  C   -0.297050
     7  C   -0.289006
 Electronic spatial extent (au):  <R**2>=           1680.6752
 Charge=             -0.0000 electrons
 Dipole moment (field-independent basis, Debye):
    X=             -0.0082    Y=              0.1129    Z=              0.0024  Tot=              0.1132
 Quadrupole moment (field-independent basis, Debye-Ang):
   XX=            -50.6169   YY=            -49.9877   ZZ=            -48.1452
   XY=             -0.0096   XZ=             -0.0192   YZ=              0.0117
 Traceless Quadrupole moment (field-independent basis, Debye-Ang):
   XX=             -1.0336   YY=             -0.4044   ZZ=              1.4380
   XY=             -0.0096   XZ=             -0.0192   YZ=              0.0117
 Octapole moment (field-independent basis, Debye-Ang**2):
  XXX=              0.9718  YYY=              0.3940  ZZZ=              0.0807  XYY=             -0.1501
  XXY=              4.9788  XXZ=              0.0449  XZZ=             -0.0965  YZZ=             -0.4730
  YYZ=             -0.0329  XYZ=              0.0402
 Hexadecapole moment (field-independent basis, Debye-Ang**3):
 XXXX=          -2165.2701 YYYY=           -182.4970 ZZZZ=           -105.6969 XXXY=              0.1726
 XXXZ=             -0.5110 YYYX=             -0.0846 YYYZ=              0.2226 ZZZX=             -0.0232
 ZZZY=             -0.0660 XXYY=           -385.9085 XXZZ=           -368.5056 YYZZ=            -42.4590
 XXYZ=             -0.2653 YYXZ=             -0.0854 ZZXY=             -0.0577
 N-N= 3.084329353831D+02 E-N=-1.255438464221D+03  KE= 2.747866434460D+02
 R6APFD:  NTU= -4 IXU= 1 FactS= 1.050
 Calling FoFJK, ICntrl=      2127 FMM=F ISym2X=0 I1Cent= 0 IOpClX= 0 NMat=1 NMatS=1 NMatT=0.
 ***** Axes restored to original set *****
 -------------------------------------------------------------------
 Center     Atomic                   Forces (Hartrees/Bohr)
 Number     Number              X              Y              Z
 -------------------------------------------------------------------
      1        6          -0.003398435    0.010947741   -0.000333094
      2        6          -0.003369505   -0.005997833    0.000330624
      3        6          -0.000662934   -0.012962859   -0.000554961
      4        6           0.003064440    0.000096105    0.000419557
      5        6          -0.000102454    0.007123491    0.000180630
      6        6          -0.000012680   -0.000324565   -0.000220991
      7        6           0.003850616   -0.003115366    0.000161463
      8        1           0.000210412   -0.002651143    0.001794314
      9        1           0.000454515   -0.002639080   -0.001878203
     10        1           0.000450695    0.002843129   -0.001928493
     11        1           0.000098795    0.002853685    0.001964702
     12        1           0.000120018    0.002556297    0.001888732
     13        1           0.000027382    0.002553651   -0.001856347
     14        1           0.001582719   -0.003006516   -0.001563494
     15        1           0.001606229   -0.003130741    0.001457386
     16        1          -0.001727876   -0.002763441    0.001389224
     17        1          -0.002046819   -0.002681439   -0.001358657
     18        1          -0.002629828    0.001026515   -0.000004224
     19        1          -0.000807180    0.002093877   -0.001073367
     20        1          -0.000789968    0.001999132    0.001197537
     21        1           0.000348764    0.001795972   -0.001026270
     22        1           0.000489210    0.001871674    0.001056644
     23        1           0.003243883    0.001511713   -0.000042715
 -------------------------------------------------------------------
 Cartesian Forces:  Max     0.012962859 RMS     0.002935188

 GradGradGradGradGradGradGradGradGradGradGradGradGradGradGradGradGradGrad
 Berny optimization.
 FormGI is forming the generalized inverse of G from B-inverse, IUseBI=4.
 Internal  Forces:  Max     0.007697661 RMS     0.001865735
 Search for a local minimum.
 Step number   1 out of a maximum of  128
 All quantities printed in internal units (Hartrees-Bohrs-Radians)
 Mixed Optimization -- RFO/linear search
 Second derivative matrix not updated -- first step.
 ITU=  0
     Eigenvalues ---    0.00364   0.00364   0.00367   0.00388   0.00491
     Eigenvalues ---    0.00497   0.03478   0.03515   0.03679   0.03682
     Eigenvalues ---    0.03721   0.04827   0.04870   0.04879   0.04884
     Eigenvalues ---    0.04928   0.05608   0.05630   0.05694   0.05703
     Eigenvalues ---    0.08083   0.08109   0.08167   0.08442   0.08502
     Eigenvalues ---    0.12017   0.12034   0.12068   0.12282   0.12318
     Eigenvalues ---    0.16000   0.16000   0.16000   0.16000   0.16000
     Eigenvalues ---    0.16000   0.21898   0.21898   0.21906   0.21931
     Eigenvalues ---    0.21940   0.29388   0.29389   0.29411   0.29554
     Eigenvalues ---    0.30289   0.30336   0.33993   0.34004   0.34033
     Eigenvalues ---    0.34052   0.34052   0.34060   0.34073   0.34077
     Eigenvalues ---    0.34101   0.34103   0.34271   0.34280   0.34290
     Eigenvalues ---    0.34294   0.34297   0.34318
 RFO step:  Lambda=-2.06512327D-03 EMin= 3.64004441D-03
 Linear search not attempted -- first point.
 Iteration  1 RMS(Cart)=  0.02364117 RMS(Int)=  0.00021541
 Iteration  2 RMS(Cart)=  0.00041927 RMS(Int)=  0.00008004
 Iteration  3 RMS(Cart)=  0.00000007 RMS(Int)=  0.00008004
 Variable       Old X    -DE/DX   Delta X   Delta X   Delta X     New X
                                 (Linear)    (Quad)   (Total)
    R1        2.89199  -0.00020   0.00000  -0.00068  -0.00068   2.89131
    R2        2.89201   0.00057   0.00000   0.00191   0.00191   2.89392
    R3        2.07229   0.00302   0.00000   0.00880   0.00880   2.08109
    R4        2.07242   0.00308   0.00000   0.00899   0.00899   2.08141
    R5        2.89153  -0.00103   0.00000  -0.00347  -0.00347   2.88806
    R6        2.07323   0.00326   0.00000   0.00954   0.00954   2.08277
    R7        2.07341   0.00327   0.00000   0.00955   0.00955   2.08296
    R8        2.88862   0.00127   0.00000   0.00427   0.00427   2.89289
    R9        2.07243   0.00302   0.00000   0.00882   0.00882   2.08125
   R10        2.07274   0.00303   0.00000   0.00884   0.00884   2.08157
   R11        2.87392   0.00619   0.00000   0.02030   0.02030   2.89421
   R12        2.07201   0.00300   0.00000   0.00875   0.00875   2.08076
   R13        2.07207   0.00305   0.00000   0.00890   0.00890   2.08097
   R14        2.87298   0.00770   0.00000   0.02520   0.02520   2.89818
   R15        2.07157   0.00271   0.00000   0.00790   0.00790   2.07947
   R16        2.07160   0.00269   0.00000   0.00785   0.00785   2.07946
   R17        2.06797   0.00153   0.00000   0.00444   0.00444   2.07240
   R18        2.06843   0.00215   0.00000   0.00623   0.00623   2.07465
   R19        2.06832   0.00215   0.00000   0.00622   0.00622   2.07455
   R20        2.06875   0.00189   0.00000   0.00547   0.00547   2.07422
   R21        2.06860   0.00197   0.00000   0.00573   0.00573   2.07433
   R22        2.06837   0.00178   0.00000   0.00517   0.00517   2.07354
    A1        1.94119   0.00464   0.00000   0.02555   0.02547   1.96666
    A2        1.91263  -0.00125   0.00000  -0.00344  -0.00344   1.90919
    A3        1.90911  -0.00088   0.00000   0.00165   0.00159   1.91071
    A4        1.91490  -0.00137   0.00000  -0.00603  -0.00610   1.90880
    A5        1.91385  -0.00148   0.00000  -0.00491  -0.00506   1.90878
    A6        1.87080   0.00016   0.00000  -0.01430  -0.01436   1.85644
    A7        1.97831  -0.00162   0.00000  -0.00550  -0.00549   1.97282
    A8        1.90814   0.00028   0.00000   0.00024   0.00025   1.90839
    A9        1.90558   0.00067   0.00000   0.00387   0.00388   1.90945
   A10        1.90153   0.00095   0.00000   0.00669   0.00669   1.90822
   A11        1.90371   0.00061   0.00000   0.00442   0.00442   1.90813
   A12        1.86307  -0.00085   0.00000  -0.01008  -0.01008   1.85299
   A13        1.94307   0.00546   0.00000   0.02939   0.02931   1.97238
   A14        1.91365  -0.00149   0.00000  -0.00519  -0.00521   1.90845
   A15        1.91133  -0.00141   0.00000  -0.00211  -0.00223   1.90910
   A16        1.91386  -0.00167   0.00000  -0.00703  -0.00707   1.90679
   A17        1.91064  -0.00144   0.00000  -0.00279  -0.00293   1.90771
   A18        1.86983   0.00034   0.00000  -0.01398  -0.01405   1.85578
   A19        1.98176  -0.00442   0.00000  -0.01829  -0.01821   1.96355
   A20        1.90797   0.00052   0.00000  -0.00431  -0.00422   1.90376
   A21        1.90778   0.00049   0.00000  -0.00331  -0.00320   1.90459
   A22        1.89998   0.00245   0.00000   0.01802   0.01791   1.91789
   A23        1.89811   0.00259   0.00000   0.02037   0.02028   1.91839
   A24        1.86461  -0.00149   0.00000  -0.01213  -0.01236   1.85225
   A25        1.94594   0.00297   0.00000   0.01805   0.01802   1.96396
   A26        1.91700  -0.00168   0.00000  -0.01361  -0.01385   1.90315
   A27        1.91791  -0.00196   0.00000  -0.01510  -0.01538   1.90252
   A28        1.90648   0.00023   0.00000   0.01099   0.01107   1.91756
   A29        1.90354   0.00059   0.00000   0.01470   0.01479   1.91833
   A30        1.87138  -0.00025   0.00000  -0.01604  -0.01635   1.85503
   A31        1.92602   0.00316   0.00000   0.02246   0.02236   1.94839
   A32        1.93490   0.00074   0.00000   0.00309   0.00304   1.93794
   A33        1.93517   0.00065   0.00000   0.00250   0.00246   1.93762
   A34        1.88806  -0.00169   0.00000  -0.00750  -0.00760   1.88046
   A35        1.88810  -0.00166   0.00000  -0.00744  -0.00753   1.88057
   A36        1.89010  -0.00139   0.00000  -0.01425  -0.01424   1.87585
   A37        1.93748  -0.00004   0.00000  -0.00250  -0.00258   1.93490
   A38        1.93719   0.00012   0.00000  -0.00145  -0.00154   1.93565
   A39        1.92436   0.00447   0.00000   0.03199   0.03188   1.95623
   A40        1.89044  -0.00101   0.00000  -0.01450  -0.01454   1.87590
   A41        1.88622  -0.00183   0.00000  -0.00711  -0.00720   1.87902
   A42        1.88650  -0.00190   0.00000  -0.00748  -0.00760   1.87890
    D1        3.12455   0.00012   0.00000   0.00911   0.00914   3.13369
    D2        0.99958  -0.00020   0.00000   0.00409   0.00411   1.00369
    D3       -1.03273   0.00029   0.00000   0.01386   0.01389  -1.01884
    D4       -1.03831   0.00060   0.00000   0.01595   0.01596  -1.02235
    D5        3.11990   0.00028   0.00000   0.01092   0.01093   3.13084
    D6        1.08759   0.00076   0.00000   0.02070   0.02071   1.10830
    D7        1.00790  -0.00044   0.00000  -0.00238  -0.00242   1.00548
    D8       -1.11707  -0.00076   0.00000  -0.00740  -0.00744  -1.12451
    D9        3.13381  -0.00027   0.00000   0.00237   0.00233   3.13614
   D10       -3.11449  -0.00031   0.00000  -0.01852  -0.01854  -3.13303
   D11        1.04776  -0.00079   0.00000  -0.02551  -0.02551   1.02225
   D12       -0.99916   0.00049   0.00000  -0.00432  -0.00431  -1.00347
   D13        1.04970  -0.00086   0.00000  -0.02691  -0.02690   1.02280
   D14       -1.07124  -0.00135   0.00000  -0.03389  -0.03387  -1.10511
   D15       -3.11816  -0.00007   0.00000  -0.01271  -0.01267  -3.13083
   D16       -1.00061   0.00062   0.00000  -0.00309  -0.00313  -1.00374
   D17       -3.12155   0.00014   0.00000  -0.01007  -0.01010  -3.13164
   D18        1.11471   0.00142   0.00000   0.01111   0.01110   1.12582
   D19        3.12299   0.00018   0.00000   0.00915   0.00915   3.13214
   D20       -1.03499   0.00070   0.00000   0.01671   0.01673  -1.01826
   D21        1.00033  -0.00051   0.00000  -0.00220  -0.00221   0.99812
   D22       -1.03153   0.00013   0.00000   0.01059   0.01058  -1.02095
   D23        1.09367   0.00065   0.00000   0.01814   0.01816   1.11183
   D24        3.12899  -0.00056   0.00000  -0.00076  -0.00078   3.12821
   D25        0.99604  -0.00002   0.00000   0.00471   0.00470   1.00075
   D26        3.12125   0.00050   0.00000   0.01226   0.01228   3.13353
   D27       -1.12662  -0.00071   0.00000  -0.00664  -0.00665  -1.13327
   D28        3.11793   0.00023   0.00000   0.01476   0.01477   3.13270
   D29       -1.04945   0.00134   0.00000   0.03130   0.03118  -1.01828
   D30        1.00522  -0.00114   0.00000  -0.00544  -0.00527   0.99995
   D31       -1.04444   0.00082   0.00000   0.02282   0.02279  -1.02165
   D32        1.07136   0.00193   0.00000   0.03935   0.03920   1.11056
   D33        3.12604  -0.00056   0.00000   0.00261   0.00275   3.12879
   D34        1.00220  -0.00058   0.00000   0.00017   0.00016   1.00236
   D35        3.11800   0.00053   0.00000   0.01671   0.01657   3.13457
   D36       -1.11050  -0.00196   0.00000  -0.02003  -0.01988  -1.13039
   D37        3.14109  -0.00003   0.00000  -0.00191  -0.00190   3.13919
   D38        1.04963  -0.00045   0.00000  -0.00918  -0.00920   1.04043
   D39       -1.05041   0.00038   0.00000   0.00506   0.00509  -1.04532
   D40        1.01144   0.00051   0.00000   0.00287   0.00297   1.01441
   D41       -1.08002   0.00008   0.00000  -0.00440  -0.00433  -1.08435
   D42        3.10313   0.00091   0.00000   0.00984   0.00996   3.11309
   D43       -1.01404  -0.00048   0.00000  -0.00366  -0.00375  -1.01779
   D44       -3.10551  -0.00091   0.00000  -0.01092  -0.01105  -3.11656
   D45        1.07764  -0.00007   0.00000   0.00332   0.00324   1.08088
   D46       -1.05320   0.00064   0.00000   0.01009   0.01009  -1.04311
   D47        1.05035  -0.00058   0.00000  -0.01090  -0.01093   1.03942
   D48        3.14025   0.00004   0.00000  -0.00030  -0.00031   3.13993
   D49        3.10807   0.00067   0.00000   0.00801   0.00797   3.11604
   D50       -1.07157  -0.00055   0.00000  -0.01298  -0.01306  -1.08462
   D51        1.01833   0.00006   0.00000  -0.00239  -0.00244   1.01589
   D52        1.06787   0.00051   0.00000   0.01273   0.01282   1.08069
   D53       -3.11177  -0.00071   0.00000  -0.00826  -0.00821  -3.11998
   D54       -1.02187  -0.00009   0.00000   0.00233   0.00241  -1.01946
         Item               Value     Threshold  Converged?
 Maximum Force            0.007698     0.000450     NO 
 RMS     Force            0.001866     0.000300     NO 
 Maximum Displacement     0.092647     0.001800     NO 
 RMS     Displacement     0.023357     0.001200     NO 
 Predicted change in Energy=-1.051885D-03
 GradGradGradGradGradGradGradGradGradGradGradGradGradGradGradGradGradGrad

                          Input orientation:                          
 ---------------------------------------------------------------------
 Center     Atomic      Atomic             Coordinates (Angstroms)
 Number     Number       Type             X           Y           Z
 ---------------------------------------------------------------------
      1          6           0       -0.001939   -0.495612    0.002946
      2          6           0       -1.275967    0.351619    0.003930
      3          6           0        1.272190    0.353941    0.008483
      4          6           0       -2.552668   -0.488289   -0.012693
      5          6           0        2.551729   -0.486365   -0.004534
      6          6           0       -3.820108    0.371383    0.001839
      7          6           0        3.820458    0.375240   -0.011446
      8          1           0       -0.002865   -1.158237    0.882554
      9          1           0        0.001239   -1.152968   -0.880814
     10          1           0       -1.269033    1.022310   -0.870638
     11          1           0       -1.280602    1.004919    0.891706
     12          1           0        1.273555    1.003771    0.897693
     13          1           0        1.268149    1.024694   -0.865258
     14          1           0       -2.547651   -1.133092   -0.905219
     15          1           0       -2.549564   -1.166660    0.854745
     16          1           0        2.554748   -1.149441    0.873658
     17          1           0        2.540052   -1.143353   -0.887208
     18          1           0       -4.726987   -0.245087   -0.012783
     19          1           0       -3.854384    1.037660   -0.870055
     20          1           0       -3.858216    1.001473    0.900007
     21          1           0        3.846727    1.025224   -0.895541
     22          1           0        3.859513    1.022011    0.874602
     23          1           0        4.732926   -0.234141   -0.019075
 ---------------------------------------------------------------------
                    Distance matrix (angstroms):
                    1          2          3          4          5
     1  C    0.000000
     2  C    1.530015   0.000000
     3  C    1.531397   2.548162   0.000000
     4  C    2.550787   1.528295   3.916547   0.000000
     5  C    2.553696   3.918360   1.530850   5.104404   0.000000
     6  C    3.915366   2.544218   5.092332   1.531552   6.429314
     7  C    3.920372   5.096503   2.548435   6.431362   1.533651
     8  H    1.101265   2.161581   2.162510   2.784204   2.786447
     9  H    1.101435   2.162825   2.162624   2.778106   2.777989
    10  H    2.161657   1.102154   2.770810   2.160022   4.198150
    11  H    2.162514   1.102256   2.778598   2.160037   4.208793
    12  H    2.162315   2.779241   1.101352   4.206546   2.160612
    13  H    2.162922   2.771469   1.101521   4.196978   2.161417
    14  H    2.777012   2.155945   4.199679   1.101090   5.218541
    15  H    2.768802   2.156643   4.199309   1.101202   5.217696
    16  H    2.778899   4.205233   2.157230   5.225747   1.100409
    17  H    2.770138   4.194171   2.156763   5.208616   1.100402
    18  H    4.731711   3.502268   6.029048   2.187878   7.282719
    19  H    4.237261   2.807621   5.246052   2.181296   6.641540
    20  H    4.232830   2.809497   5.247398   2.181024   6.642232
    21  H    4.234672   5.244500   2.810003   6.634938   2.180783
    22  H    4.239549   5.251728   2.809042   6.647132   2.181370
    23  H    4.742131   6.037420   3.510455   7.290029   2.195780
                    6          7          8          9         10
     6  C    0.000000
     7  C    7.640578   0.000000
     8  H    4.205561   4.215281   0.000000
     9  H    4.207780   4.204481   1.763381   0.000000
    10  H    2.773608   5.201907   3.071099   2.519034   0.000000
    11  H    2.764475   5.218524   2.512358   3.072690   1.762468
    12  H    5.210362   2.776382   2.510728   3.071384   3.097111
    13  H    5.202790   2.768586   3.071728   2.519428   2.537189
    14  H    2.169181   6.605052   3.110097   2.549085   2.506356
    15  H    2.169633   6.610971   2.546865   3.085280   3.067295
    16  H    6.611487   2.170274   2.557643   3.098159   4.730790
    17  H    6.598217   2.170835   3.098178   2.538839   4.381724
    18  H    1.096668   8.569926   4.894160   4.892224   3.781489
    19  H    1.097860   7.751078   4.767368   4.434501   2.585396
    20  H    1.097803   7.757896   4.419094   4.765326   3.136795
    21  H    7.746815   1.097630   4.769537   4.419561   5.115822
    22  H    7.756391   1.097688   4.435257   4.764273   5.417365
    23  H    8.574467   1.097270   4.908626   4.896499   6.190909
                   11         12         13         14         15
    11  H    0.000000
    12  H    2.554165   0.000000
    13  H    3.095714   1.763083   0.000000
    14  H    3.066830   4.734796   4.383830   0.000000
    15  H    2.515430   4.396460   4.726032   1.760285   0.000000
    16  H    4.399034   2.505664   3.066925   5.403623   5.104376
    17  H    4.730434   3.065947   2.513692   5.087745   5.379511
    18  H    3.776002   6.196380   6.187141   2.516843   2.518546
    19  H    3.119170   5.424190   5.122551   2.533959   3.088125
    20  H    2.577630   5.131773   5.421837   3.087521   2.532868
    21  H    5.429933   3.136456   2.578756   6.748814   6.984297
    22  H    5.140172   2.586125   3.121263   6.990278   6.772514
    23  H    6.207038   3.786837   3.782245   7.389193   7.393770
                   16         17         18         19         20
    16  H    0.000000
    17  H    1.760939   0.000000
    18  H    7.391028   7.374372   0.000000
    19  H    6.992919   6.756176   1.772509   0.000000
    20  H    6.764114   6.980849   1.772530   1.770435   0.000000
    21  H    3.086818   2.531836   8.712148   7.701163   7.911429
    22  H    2.533302   3.087678   8.724733   7.908746   7.717798
    23  H    2.525710   2.527652   9.459922   8.722588   8.728069
                   21         22         23
    21  H    0.000000
    22  H    1.770192   0.000000
    23  H    1.771875   1.771843   0.000000
 Stoichiometry    C7H16
 Framework group  C1[X(C7H16)]
 Deg. of freedom    63
 Full point group                 C1      NOp   1
 Largest Abelian subgroup         C1      NOp   1
 Largest concise Abelian subgroup C1      NOp   1
                         Standard orientation:                         
 ---------------------------------------------------------------------
 Center     Atomic      Atomic             Coordinates (Angstroms)
 Number     Number       Type             X           Y           Z
 ---------------------------------------------------------------------
      1          6           0        0.001377    0.506788    0.007888
      2          6           0        1.274902   -0.341181    0.002694
      3          6           0       -1.273252   -0.342032    0.008855
      4          6           0        2.552090    0.498063   -0.009422
      5          6           0       -2.552301    0.499092    0.001976
      6          6           0        3.819029   -0.362430   -0.001143
      7          6           0       -3.821545   -0.361705   -0.009585
      8          1           0        0.003252    1.163829    0.891674
      9          1           0       -0.001972    1.169731   -0.871689
     10          1           0        1.267017   -1.006316   -0.876099
     11          1           0        1.279713   -1.000094    0.886312
     12          1           0       -1.274440   -0.997480    0.893933
     13          1           0       -1.270162   -1.007240   -0.869119
     14          1           0        2.546890    1.148509   -0.897843
     15          1           0        2.549938    1.170929    0.862297
     16          1           0       -2.554370    1.156594    0.884352
     17          1           0       -2.540793    1.161651   -0.876527
     18          1           0        4.726265    0.253587   -0.012438
     19          1           0        3.852358   -1.023190   -0.877260
     20          1           0        3.857333   -0.998218    0.892992
     21          1           0       -3.848758   -1.006060   -0.897761
     22          1           0       -3.860421   -1.014052    0.872374
     23          1           0       -4.733656    0.248249   -0.012772
 ---------------------------------------------------------------------
 Rotational constants (GHZ):          11.9087288           0.7279566           0.7071119
 Standard basis: 6-311++G(d,p) (5D, 7F)
 There are   273 symmetry adapted cartesian basis functions of A   symmetry.
 There are   266 symmetry adapted basis functions of A   symmetry.
   266 basis functions,   396 primitive gaussians,   273 cartesian basis functions
    29 alpha electrons       29 beta electrons
       nuclear repulsion energy       307.2043056982 Hartrees.
 NAtoms=   23 NActive=   23 NUniq=   23 SFac= 1.00D+00 NAtFMM=   60 NAOKFM=F Big=F
 Integral buffers will be    131072 words long.
 Raffenetti 2 integral format.
 Two-electron integral symmetry is turned on.
 R6APFD:  NTU= -4 IXU= 1 FactS= 1.050
 Nuclear repulsion after empirical dispersion term =      307.1911262757 Hartrees.
 One-electron integrals computed using PRISM.
 NBasis=   266 RedAO= T EigKep=  5.44D-06  NBF=   266
 NBsUse=   266 1.00D-06 EigRej= -1.00D+00 NBFU=   266
 Initial guess from the checkpoint file:  "HPTE0123.chk"
 B after Tr=    -0.000000   -0.000000    0.000000
         Rot=    0.999997   -0.002304   -0.000054    0.000153 Ang=  -0.26 deg.
 ExpMin= 3.60D-02 ExpMax= 4.56D+03 ExpMxC= 6.82D+02 IAcc=3 IRadAn=         5 AccDes= 0.00D+00
 Harris functional with IExCor= 1009 and IRadAn=       5 diagonalized for initial guess.
 HarFok:  IExCor= 1009 AccDes= 0.00D+00 IRadAn=         5 IDoV= 1 UseB2=F ITyADJ=14
 ICtDFT=  3500011 ScaDFX=  1.000000  1.000000  1.000000  1.000000
 FoFCou: FMM=F IPFlag=           0 FMFlag=      100000 FMFlg1=           0
         NFxFlg=           0 DoJE=T BraDBF=F KetDBF=T FulRan=T
         wScrn=  0.000000 ICntrl=       500 IOpCl=  0 I1Cent=   200000004 NGrid=           0
         NMat0=    1 NMatS0=      1 NMatT0=    0 NMatD0=    1 NMtDS0=    0 NMtDT0=    0
 Petite list used in FoFCou.
 Requested convergence on RMS density matrix=1.00D-08 within  32 cycles.
 Requested convergence on MAX density matrix=1.00D-06.
 Requested convergence on             energy=1.00D-06.
 No special actions if energy rises.
 SCF Done:  E(RM08HX) =  -276.415107392     A.U. after    9 cycles
            NFock=  9  Conv=0.59D-08     -V/T= 2.0064
 QCSCF skips out because SCF is already converged.
 R6APFD:  NTU= -4 IXU= 1 FactS= 1.050
 Calling FoFJK, ICntrl=      2127 FMM=F ISym2X=0 I1Cent= 0 IOpClX= 0 NMat=1 NMatS=1 NMatT=0.
 ***** Axes restored to original set *****
 -------------------------------------------------------------------
 Center     Atomic                   Forces (Hartrees/Bohr)
 Number     Number              X              Y              Z
 -------------------------------------------------------------------
      1        6           0.000722279    0.002676395    0.000073453
      2        6           0.000675937   -0.000577733   -0.000012549
      3        6           0.000094626   -0.001988090    0.000063216
      4        6          -0.000562927    0.000357825   -0.000039833
      5        6           0.000657758    0.001547881    0.000050609
      6        6           0.000926290   -0.001407396   -0.000024311
      7        6          -0.001743561   -0.001422718   -0.000020900
      8        1           0.000015951   -0.000781238    0.000164294
      9        1          -0.000109010   -0.000583992   -0.000195003
     10        1          -0.000025303    0.000440994    0.000062836
     11        1           0.000120952    0.000363734   -0.000077823
     12        1          -0.000100512    0.000886293    0.000149982
     13        1          -0.000070865    0.000667795   -0.000167250
     14        1          -0.000118448   -0.000131346    0.000145578
     15        1          -0.000134751   -0.000005557   -0.000142221
     16        1           0.000095388   -0.000474644    0.000032392
     17        1           0.000235573   -0.000424613   -0.000087588
     18        1          -0.000134747    0.000362058    0.000007521
     19        1           0.000307957    0.000024379   -0.000084486
     20        1           0.000267318    0.000050883    0.000104789
     21        1          -0.000201208    0.000234581   -0.000148719
     22        1          -0.000258585    0.000183059    0.000146067
     23        1          -0.000660110    0.000001449   -0.000000054
 -------------------------------------------------------------------
 Cartesian Forces:  Max     0.002676395 RMS     0.000635741

 GradGradGradGradGradGradGradGradGradGradGradGradGradGradGradGradGradGrad
 Berny optimization.
 Using GEDIIS/GDIIS optimizer.
 FormGI is forming the generalized inverse of G from B-inverse, IUseBI=4.
 Internal  Forces:  Max     0.002932546 RMS     0.000520224
 Search for a local minimum.
 Step number   2 out of a maximum of  128
 All quantities printed in internal units (Hartrees-Bohrs-Radians)
 Mixed Optimization -- En-DIIS/RFO-DIIS
 Update second derivatives using D2CorX and points    1    2
 DE= -9.78D-04 DEPred=-1.05D-03 R= 9.30D-01
 TightC=F SS=  1.41D+00  RLast= 1.40D-01 DXNew= 5.0454D-01 4.2030D-01
 Trust test= 9.30D-01 RLast= 1.40D-01 DXMaxT set to 4.20D-01
 ITU=  1  0
 Use linear search instead of GDIIS.
     Eigenvalues ---    0.00364   0.00364   0.00367   0.00388   0.00491
     Eigenvalues ---    0.00497   0.03482   0.03500   0.03521   0.03578
     Eigenvalues ---    0.03593   0.04620   0.04818   0.04829   0.04872
     Eigenvalues ---    0.04891   0.05487   0.05524   0.05543   0.05631
     Eigenvalues ---    0.08349   0.08355   0.08383   0.08412   0.08435
     Eigenvalues ---    0.12216   0.12216   0.12221   0.12257   0.12265
     Eigenvalues ---    0.15604   0.16000   0.16000   0.16000   0.16000
     Eigenvalues ---    0.16267   0.20750   0.21894   0.21899   0.21902
     Eigenvalues ---    0.23036   0.29127   0.29390   0.29421   0.29560
     Eigenvalues ---    0.30291   0.32629   0.33794   0.33999   0.34021
     Eigenvalues ---    0.34038   0.34052   0.34057   0.34075   0.34094
     Eigenvalues ---    0.34102   0.34194   0.34256   0.34276   0.34288
     Eigenvalues ---    0.34295   0.34315   0.36482
 RFO step:  Lambda=-1.21171922D-04 EMin= 3.63745464D-03
 Quartic linear search produced a step of -0.04336.
 Iteration  1 RMS(Cart)=  0.00966196 RMS(Int)=  0.00002376
 Iteration  2 RMS(Cart)=  0.00003999 RMS(Int)=  0.00000382
 Iteration  3 RMS(Cart)=  0.00000000 RMS(Int)=  0.00000382
 Variable       Old X    -DE/DX   Delta X   Delta X   Delta X     New X
                                 (Linear)    (Quad)   (Total)
    R1        2.89131  -0.00139   0.00003  -0.00459  -0.00456   2.88675
    R2        2.89392  -0.00206  -0.00008  -0.00652  -0.00660   2.88732
    R3        2.08109   0.00060  -0.00038   0.00255   0.00217   2.08326
    R4        2.08141   0.00050  -0.00039   0.00230   0.00191   2.08332
    R5        2.88806  -0.00005   0.00015  -0.00050  -0.00035   2.88771
    R6        2.08277   0.00022  -0.00041   0.00155   0.00114   2.08391
    R7        2.08296   0.00015  -0.00041   0.00137   0.00095   2.08392
    R8        2.89289  -0.00137  -0.00019  -0.00402  -0.00420   2.88868
    R9        2.08125   0.00064  -0.00038   0.00267   0.00229   2.08354
   R10        2.08157   0.00054  -0.00038   0.00238   0.00200   2.08357
   R11        2.89421  -0.00168  -0.00088  -0.00329  -0.00417   2.89004
   R12        2.08076  -0.00004  -0.00038   0.00074   0.00036   2.08112
   R13        2.08097  -0.00011  -0.00039   0.00057   0.00018   2.08115
   R14        2.89818  -0.00293  -0.00109  -0.00677  -0.00786   2.89032
   R15        2.07947   0.00031  -0.00034   0.00165   0.00131   2.08078
   R16        2.07946   0.00032  -0.00034   0.00167   0.00133   2.08079
   R17        2.07240  -0.00009  -0.00019   0.00018  -0.00001   2.07239
   R18        2.07465   0.00007  -0.00027   0.00081   0.00054   2.07520
   R19        2.07455   0.00011  -0.00027   0.00091   0.00064   2.07518
   R20        2.07422   0.00025  -0.00024   0.00125   0.00101   2.07523
   R21        2.07433   0.00022  -0.00025   0.00117   0.00092   2.07525
   R22        2.07354  -0.00055  -0.00022  -0.00102  -0.00125   2.07229
    A1        1.96666  -0.00013  -0.00110   0.00285   0.00175   1.96841
    A2        1.90919   0.00013   0.00015   0.00089   0.00104   1.91022
    A3        1.91071   0.00001  -0.00007   0.00009   0.00002   1.91073
    A4        1.90880   0.00009   0.00026   0.00055   0.00081   1.90961
    A5        1.90878   0.00016   0.00022   0.00085   0.00108   1.90986
    A6        1.85644  -0.00026   0.00062  -0.00573  -0.00510   1.85134
    A7        1.97282  -0.00071   0.00024  -0.00313  -0.00289   1.96993
    A8        1.90839   0.00028  -0.00001   0.00163   0.00162   1.91001
    A9        1.90945   0.00018  -0.00017   0.00095   0.00078   1.91023
   A10        1.90822   0.00026  -0.00029   0.00227   0.00198   1.91020
   A11        1.90813   0.00032  -0.00019   0.00228   0.00209   1.91022
   A12        1.85299  -0.00031   0.00044  -0.00406  -0.00362   1.84937
   A13        1.97238  -0.00095  -0.00127  -0.00052  -0.00179   1.97059
   A14        1.90845   0.00030   0.00023   0.00105   0.00128   1.90973
   A15        1.90910   0.00030   0.00010   0.00095   0.00106   1.91016
   A16        1.90679   0.00043   0.00031   0.00221   0.00251   1.90930
   A17        1.90771   0.00038   0.00013   0.00187   0.00200   1.90971
   A18        1.85578  -0.00043   0.00061  -0.00590  -0.00529   1.85049
   A19        1.96355  -0.00109   0.00079  -0.00672  -0.00593   1.95762
   A20        1.90376   0.00044   0.00018   0.00216   0.00234   1.90609
   A21        1.90459   0.00041   0.00014   0.00169   0.00182   1.90641
   A22        1.91789   0.00027  -0.00078   0.00251   0.00174   1.91963
   A23        1.91839   0.00026  -0.00088   0.00236   0.00148   1.91988
   A24        1.85225  -0.00024   0.00054  -0.00170  -0.00116   1.85109
   A25        1.96396  -0.00165  -0.00078  -0.00544  -0.00622   1.95774
   A26        1.90315   0.00060   0.00060   0.00179   0.00240   1.90555
   A27        1.90252   0.00069   0.00067   0.00235   0.00303   1.90555
   A28        1.91756   0.00047  -0.00048   0.00260   0.00212   1.91967
   A29        1.91833   0.00039  -0.00064   0.00227   0.00163   1.91996
   A30        1.85503  -0.00043   0.00071  -0.00345  -0.00273   1.85230
   A31        1.94839   0.00074  -0.00097   0.00768   0.00672   1.95510
   A32        1.93794  -0.00048  -0.00013  -0.00316  -0.00330   1.93464
   A33        1.93762  -0.00041  -0.00011  -0.00273  -0.00285   1.93478
   A34        1.88046  -0.00002   0.00033   0.00006   0.00040   1.88087
   A35        1.88057  -0.00005   0.00033   0.00002   0.00035   1.88092
   A36        1.87585   0.00023   0.00062  -0.00205  -0.00145   1.87440
   A37        1.93490  -0.00008   0.00011  -0.00084  -0.00073   1.93417
   A38        1.93565  -0.00020   0.00007  -0.00155  -0.00148   1.93417
   A39        1.95623  -0.00041  -0.00138   0.00105  -0.00032   1.95591
   A40        1.87590   0.00006   0.00063  -0.00176  -0.00113   1.87477
   A41        1.87902   0.00031   0.00031   0.00156   0.00188   1.88090
   A42        1.87890   0.00035   0.00033   0.00158   0.00191   1.88081
    D1        3.13369   0.00002  -0.00040   0.00501   0.00461   3.13830
    D2        1.00369  -0.00003  -0.00018   0.00305   0.00287   1.00657
    D3       -1.01884   0.00008  -0.00060   0.00648   0.00587  -1.01297
    D4       -1.02235   0.00013  -0.00069   0.00826   0.00757  -1.01479
    D5        3.13084   0.00008  -0.00047   0.00631   0.00583   3.13667
    D6        1.10830   0.00019  -0.00090   0.00973   0.00883   1.11713
    D7        1.00548  -0.00011   0.00010   0.00193   0.00203   1.00752
    D8       -1.12451  -0.00015   0.00032  -0.00003   0.00030  -1.12421
    D9        3.13614  -0.00005  -0.00010   0.00340   0.00330   3.13943
   D10       -3.13303   0.00002   0.00080  -0.00840  -0.00760  -3.14063
   D11        1.02225  -0.00010   0.00111  -0.01163  -0.01052   1.01173
   D12       -1.00347   0.00008   0.00019  -0.00568  -0.00549  -1.00896
   D13        1.02280  -0.00011   0.00117  -0.01185  -0.01068   1.01211
   D14       -1.10511  -0.00023   0.00147  -0.01507  -0.01361  -1.11872
   D15       -3.13083  -0.00005   0.00055  -0.00912  -0.00857  -3.13941
   D16       -1.00374   0.00006   0.00014  -0.00576  -0.00562  -1.00936
   D17       -3.13164  -0.00006   0.00044  -0.00898  -0.00854  -3.14019
   D18        1.12582   0.00012  -0.00048  -0.00303  -0.00351   1.12231
   D19        3.13214  -0.00001  -0.00040   0.00564   0.00525   3.13739
   D20       -1.01826  -0.00009  -0.00073   0.00587   0.00514  -1.01312
   D21        0.99812   0.00009   0.00010   0.00596   0.00606   1.00418
   D22       -1.02095   0.00005  -0.00046   0.00724   0.00678  -1.01417
   D23        1.11183  -0.00003  -0.00079   0.00746   0.00667   1.11851
   D24        3.12821   0.00015   0.00003   0.00755   0.00759   3.13580
   D25        1.00075   0.00000  -0.00020   0.00492   0.00472   1.00546
   D26        3.13353  -0.00007  -0.00053   0.00515   0.00461   3.13814
   D27       -1.13327   0.00011   0.00029   0.00523   0.00552  -1.12775
   D28        3.13270   0.00000  -0.00064   0.00733   0.00669   3.13939
   D29       -1.01828  -0.00007  -0.00135   0.00827   0.00692  -1.01136
   D30        0.99995   0.00012   0.00023   0.00642   0.00665   1.00659
   D31       -1.02165   0.00005  -0.00099   0.00991   0.00892  -1.01272
   D32        1.11056  -0.00003  -0.00170   0.01084   0.00915   1.11971
   D33        3.12879   0.00017  -0.00012   0.00900   0.00887   3.13766
   D34        1.00236  -0.00002  -0.00001   0.00512   0.00512   1.00748
   D35        3.13457  -0.00009  -0.00072   0.00605   0.00534   3.13991
   D36       -1.13039   0.00011   0.00086   0.00421   0.00507  -1.12532
   D37        3.13919   0.00001   0.00008  -0.00012  -0.00004   3.13915
   D38        1.04043  -0.00013   0.00040  -0.00323  -0.00283   1.03760
   D39       -1.04532   0.00016  -0.00022   0.00323   0.00301  -1.04231
   D40        1.01441  -0.00001  -0.00013  -0.00008  -0.00022   1.01420
   D41       -1.08435  -0.00015   0.00019  -0.00320  -0.00301  -1.08736
   D42        3.11309   0.00015  -0.00043   0.00327   0.00283   3.11592
   D43       -1.01779  -0.00002   0.00016  -0.00087  -0.00070  -1.01850
   D44       -3.11656  -0.00016   0.00048  -0.00398  -0.00350  -3.12005
   D45        1.08088   0.00013  -0.00014   0.00248   0.00234   1.08322
   D46       -1.04311   0.00004  -0.00044   0.00210   0.00166  -1.04145
   D47        1.03942  -0.00006   0.00047  -0.00168  -0.00120   1.03821
   D48        3.13993  -0.00002   0.00001  -0.00003  -0.00001   3.13992
   D49        3.11604   0.00006  -0.00035   0.00167   0.00133   3.11736
   D50       -1.08462  -0.00004   0.00057  -0.00210  -0.00153  -1.08616
   D51        1.01589  -0.00001   0.00011  -0.00045  -0.00034   1.01555
   D52        1.08069   0.00007  -0.00056   0.00301   0.00245   1.08313
   D53       -3.11998  -0.00003   0.00036  -0.00077  -0.00041  -3.12039
   D54       -1.01946   0.00001  -0.00010   0.00088   0.00078  -1.01869
         Item               Value     Threshold  Converged?
 Maximum Force            0.002933     0.000450     NO 
 RMS     Force            0.000520     0.000300     NO 
 Maximum Displacement     0.039203     0.001800     NO 
 RMS     Displacement     0.009666     0.001200     NO 
 Predicted change in Energy=-6.315440D-05
 GradGradGradGradGradGradGradGradGradGradGradGradGradGradGradGradGradGrad

                          Input orientation:                          
 ---------------------------------------------------------------------
 Center     Atomic      Atomic             Coordinates (Angstroms)
 Number     Number       Type             X           Y           Z
 ---------------------------------------------------------------------
      1          6           0       -0.000914   -0.492393   -0.004367
      2          6           0       -1.273542    0.352557    0.002259
      3          6           0        1.271180    0.353915    0.001172
      4          6           0       -2.547091   -0.491894   -0.007907
      5          6           0        2.546499   -0.488815   -0.006800
      6          6           0       -3.810662    0.369566    0.004850
      7          6           0        3.808924    0.374682   -0.004229
      8          1           0        0.000153   -1.161243    0.871965
      9          1           0       -0.000445   -1.149297   -0.889728
     10          1           0       -1.272002    1.025117   -0.871659
     11          1           0       -1.274579    1.007849    0.889204
[...]
 00021293,0.00007892,0.00008010,-0.00000672,-0.00006301,-0.00000589,-0.
 00016817,0.14493994,0.00026014,0.00004971,0.00004737,-0.00004871,0.000
 14722,-0.00005490,-0.00020226,0.00032216,0.00031915,0.00027767,-0.1179
 7758,-0.21511701,-0.00006015,-0.00006573,-0.00003871,0.00007190,0.0010
 9874,0.00097558,-0.00002624,0.00002477,0.00000858,0.00000450,-0.000107
 36,-0.00008361,-0.00066426,0.00014359,0.00017783,-0.00047488,-0.000092
 61,0.00070509,0.00009436,0.00023220,0.00162071,0.00019343,0.00008066,-
 0.00000870,0.00002418,0.00000608,-0.00002785,-0.00029220,0.13095196,0.
 23012371,0.00172371,-0.00086115,0.00105080,-0.00214348,-0.01727729,0.0
 2361858,-0.00015204,-0.00007258,-0.00011538,-0.04564572,0.00033313,-0.
 00045017,0.00002049,0.00007955,-0.00007999,-0.00139770,0.01768622,-0.0
 2361925,0.00001534,-0.00000610,0.00000004,-0.00059781,0.00050970,-0.00
 064511,-0.00000595,0.00009005,-0.00000580,-0.00449889,-0.00306290,-0.0
 0020482,0.00095975,0.00052293,-0.00048380,0.00003927,-0.00000612,0.000
 02415,0.00010255,0.00020967,-0.00018531,-0.00094659,-0.00005196,-0.000
 07609,0.05551977,0.00101501,0.00028785,-0.00015623,-0.00134603,-0.0126
 3892,0.01615682,-0.00005239,0.00011555,-0.00027538,0.00052527,-0.13652
 987,0.11855451,-0.00001410,0.00001294,-0.00005558,0.00083896,-0.011417
 38,0.01477272,-0.00000037,0.00000968,0.00000607,-0.00051026,0.00059603
 ,-0.00013971,-0.00008524,0.00000827,-0.00010736,-0.00315541,-0.0015208
 2,-0.00028094,0.00051557,-0.00002421,-0.00012017,-0.00000598,-0.000062
 79,0.00000591,0.00021711,0.00008190,-0.00007893,-0.00008128,0.01138512
 ,-0.01503609,-0.00041776,0.15042903,-0.00024416,-0.00004582,0.00004607
 ,0.00003137,-0.00037388,0.00023213,0.00020200,-0.00032545,0.00030648,-
 0.00057583,0.11960708,-0.21015908,0.00005988,0.00006653,-0.00003852,-0
 .00004793,-0.00139367,0.00130497,0.00002624,-0.00002466,0.00000821,0.0
 0065406,-0.00013465,0.00017214,-0.00000486,0.00010931,-0.00008601,-0.0
 0014840,-0.00028897,0.00161064,0.00048508,0.00007755,0.00070125,-0.000
 02510,-0.00000741,-0.00002780,-0.00018916,-0.00007906,-0.00001111,0.00
 003827,0.01570572,-0.02077884,0.00059218,-0.13260397,0.22460547,0.0017
 2457,0.00086184,-0.00105554,-0.00015247,0.00007333,0.00011776,-0.00220
 629,0.01723631,-0.02367523,0.00002062,-0.00007939,0.00008012,-0.045627
 79,-0.00001280,0.00001150,0.00001529,0.00000609,-0.00000004,-0.0013411
 2,-0.01761019,0.02365354,-0.00059841,-0.00051302,0.00064605,-0.0000067
 3,-0.00008824,0.00000709,0.00010359,-0.00021033,0.00018509,0.00003831,
 0.00000643,-0.00002366,0.00096271,-0.00052073,0.00048405,-0.00450725,0
 .00305635,0.00020649,-0.00000254,0.00000138,-0.00000223,-0.00005040,-0
 .00003567,0.00001656,0.05550546,-0.00101135,0.00028419,-0.00016010,0.0
 0005054,0.00011498,-0.00027287,0.00138889,-0.01258109,0.01615274,0.000
 01394,0.00001310,-0.00005601,-0.00020968,-0.13594816,0.11837861,0.0000
 0034,0.00000966,0.00000628,-0.00080177,-0.01140029,0.01483850,0.000505
 53,0.00059596,-0.00013923,0.00008329,0.00000885,-0.00010745,-0.0002164
 7,0.00008127,-0.00007825,0.00000643,-0.00006296,0.00000527,-0.00051525
 ,-0.00002497,-0.00011718,0.00315391,-0.00151349,-0.00027775,-0.0000013
 6,0.00000326,0.00000113,0.00003552,0.00002479,-0.00000614,0.00006701,0
 .14977678,0.00024245,-0.00004535,0.00004437,-0.00020095,-0.00032614,0.
 00030820,-0.00002483,-0.00037413,0.00023541,-0.00006002,0.00006657,-0.
 00003851,0.00013600,0.11942808,-0.21076635,-0.00002620,-0.00002478,0.0
 0000822,0.00005765,-0.00132921,0.00123130,-0.00065479,-0.00013672,0.00
 017282,0.00000559,0.00010906,-0.00008405,0.00018968,-0.00007876,-0.000
 01154,0.00002439,-0.00000675,-0.00002785,-0.00048455,0.00007886,0.0007
 0372,0.00015173,-0.00028845,0.00161135,-0.00000226,-0.00000089,-0.0000
 1041,-0.00001656,-0.00000629,0.00002653,-0.00013397,-0.13242440,0.2252
 7814,0.00172407,0.00084366,0.00106572,-0.00015236,0.00007418,-0.000114
 86,-0.00217013,0.01685605,0.02395239,0.00002057,-0.00007798,-0.0000815
 1,-0.04564420,-0.00019107,-0.00027303,0.00001531,0.00000609,0.00000017
 ,-0.00137228,-0.01723493,-0.02392177,-0.00000613,-0.00008954,-0.000007
 81,-0.00059749,-0.00050007,-0.00065412,0.00003916,0.00000588,0.0000242
 4,0.00010320,-0.00020628,-0.00018906,-0.00450728,0.00306133,-0.0001493
 1,0.00096173,-0.00051279,-0.00049327,-0.00005040,-0.00003531,-0.000017
 22,-0.00000271,0.00000126,0.00000230,-0.00094654,0.00003905,-0.0000932
 2,0.05551827,-0.00100736,0.00028299,0.00016278,0.00004841,0.00010505,0
 .00027119,0.00136122,-0.01232249,-0.01635433,0.00001302,0.00001297,0.0
 0005641,-0.00038240,-0.13218227,-0.11712192,-0.00000008,0.00000937,-0.
 00000604,-0.00082273,-0.01118979,-0.01503430,0.00008493,0.00000840,0.0
 0010899,0.00049626,0.00059079,0.00014601,0.00000656,-0.00006281,-0.000
 00646,-0.00021352,0.00007839,0.00008026,0.00315435,-0.00152163,0.00022
 323,-0.00052303,-0.00002591,0.00010619,0.00003526,0.00002457,0.0000062
 3,-0.00000130,0.00000337,-0.00000089,0.00006155,0.01138656,0.01562671,
 0.00026558,0.14558513,-0.00026181,0.00004946,0.00004903,0.00020246,0.0
 0032204,0.00031742,0.00005396,0.00014694,-0.00005735,0.00006020,-0.000
 06553,-0.00003873,-0.00040121,-0.11817463,-0.21450484,0.00002622,0.000
 02472,0.00000857,-0.00006581,0.00116112,0.00105122,-0.00000343,-0.0001
 0758,-0.00008557,0.00066321,0.00014326,0.00017706,-0.00002491,0.000006
 67,-0.00002780,-0.00019313,0.00008043,-0.00000826,-0.00009181,0.000232
 53,0.00161995,0.00047566,-0.00009001,0.00070263,0.00001720,0.00000613,
 0.00002677,0.00000226,0.00000114,-0.00001056,0.00006307,-0.01511476,-0
 .02078102,0.00039941,0.13115126,0.22944767,-0.00085532,-0.00173366,-0.
 00001500,-0.00334115,0.00562417,0.00005860,-0.00039760,0.00066119,0.00
 000619,-0.01996643,-0.01683880,-0.00018152,-0.00012475,-0.00027064,-0.
 00000211,-0.22693393,-0.12358618,-0.00135227,-0.00007524,0.00010338,0.
 00000081,-0.00000785,0.00004544,-0.00010221,-0.00000773,0.00004368,0.0
 0010320,0.00028861,0.00008598,0.00011476,0.00028993,0.00008982,-0.0001
 1272,0.00001723,-0.00001267,-0.00002944,0.00001716,-0.00001324,0.00002
 922,0.00052208,0.00002883,0.00067428,0.00051600,0.00004485,-0.00067308
 ,0.00000484,0.00000925,-0.00001446,0.00000485,0.00000902,0.00001460,0.
 24824859,0.00096716,0.00091938,0.00000177,0.00251874,-0.00260478,-0.00
 003095,0.00027675,-0.00030798,-0.00000292,0.01776748,0.01306062,0.0001
 5389,0.00007471,0.00009682,0.00000066,-0.12469994,-0.13149929,-0.00094
 325,0.00003204,-0.00003120,-0.00000018,-0.00007418,0.00003770,0.000034
 56,-0.00007289,0.00003742,-0.00003347,0.00016053,0.00001931,-0.0002680
 7,0.00015407,0.00000729,0.00026400,-0.00000709,-0.00000354,0.00001843,
 -0.00000710,-0.00000327,-0.00001854,-0.00079034,0.00068895,-0.00019003
 ,-0.00078349,0.00068584,0.00020793,-0.00000204,0.00000058,0.00000407,-
 0.00000205,0.00000071,-0.00000399,0.13313867,0.13990165,0.00001148,0.0
 0000563,0.00060297,0.00003298,-0.00003624,0.00022798,0.00000317,-0.000
 00377,-0.00000556,0.00021012,0.00016584,-0.00142390,0.00000095,0.00000
 123,0.00000550,-0.00136777,-0.00094597,-0.04614087,0.00000041,-0.00000
 035,-0.00000948,0.00007361,-0.00004361,-0.00001925,-0.00007499,0.00004
 433,-0.00001917,-0.00030894,-0.00031112,0.00021628,0.00031087,0.000307
 96,0.00022708,0.00000113,-0.00000373,0.00000425,-0.00000126,0.00000370
 ,0.00000392,0.00027877,0.00025767,-0.00005770,-0.00029551,-0.00024183,
 -0.00006063,-0.00000088,0.00000214,-0.00000273,0.00000080,-0.00000211,
 -0.00000284,0.00145030,0.00105304,0.04517841,-0.00013866,0.00009105,0.
 00013848,0.00188779,0.00080465,-0.00119860,0.00003629,-0.00010045,0.00
 008433,-0.00150256,0.01687081,-0.02361032,0.00001911,0.00002116,0.0000
 0425,-0.04600444,0.00137039,-0.00258617,0.00000761,-0.00000984,-0.0000
 0185,0.00011108,-0.00021004,0.00018167,0.00003985,0.00000649,-0.000030
 65,-0.00050857,-0.00051061,0.00066055,-0.00001685,-0.00009912,0.000022
 17,-0.00000234,0.00000185,-0.00000284,-0.00005413,-0.00003370,0.000017
 59,0.00101812,-0.00057981,0.00037623,-0.00449121,0.00312338,0.00018513
 ,0.00000832,-0.00000498,0.00000671,0.00000071,0.00000068,-0.00000403,0
 .00093017,-0.01458535,0.02229276,0.05005757,-0.00000496,0.00011880,-0.
 00023612,-0.00110697,0.00041991,-0.00035569,0.00001201,-0.00000687,-0.
 00005796,0.00072758,-0.01254708,0.01611596,-0.00000389,0.00002296,0.00
 001021,0.00167045,-0.13771471,0.12420070,0.00000665,-0.00001339,0.0000
 0107,-0.00020469,0.00007025,-0.00007273,0.00000997,-0.00006375,-0.0000
 0063,0.00055333,0.00057363,-0.00010022,0.00007920,0.00001106,-0.000096
 21,-0.00000327,0.00000356,0.00000086,0.00003426,0.00002372,-0.00000335
 ,-0.00045996,-0.00009818,-0.00016619,0.00354293,-0.00134033,-0.0006423
 9,-0.00000286,-0.00000152,-0.00000402,0.00000186,-0.00000704,-0.000002
 39,0.00130592,-0.01064995,0.01419207,-0.00601355,0.14926554,-0.0001678
 7,-0.00030492,0.00028261,0.00023742,-0.00017238,0.00011899,-0.00005979
 ,0.00006937,-0.00003214,0.00003009,-0.00087793,0.00113961,-0.00001853,
 -0.00002731,0.00000501,-0.00309422,0.12444291,-0.21580126,-0.00000724,
 0.00001102,-0.00000400,0.00017272,-0.00006544,-0.00001745,0.00002505,-
 0.00001046,-0.00002502,-0.00067610,-0.00007909,0.00008194,-0.00000156,
 0.00011372,-0.00010759,-0.00000290,-0.00000062,-0.00001088,-0.00001403
 ,-0.00000445,0.00002384,-0.00053850,0.00005748,0.00063876,0.00036412,-
 0.00031887,0.00151519,0.00000478,-0.00000471,0.00000335,0.00000178,0.0
 0000074,-0.00000171,0.00011199,-0.00178736,0.00077466,0.00355825,-0.13
 726873,0.23126096,-0.00013910,0.00009551,-0.00013793,0.00189073,0.0007
 7902,0.00121258,0.00003599,-0.00009853,-0.00008666,-0.00148234,0.01633
 429,0.02398238,0.00001906,0.00002117,-0.00000389,-0.04598735,0.0012650
 7,0.00253169,0.00000756,-0.00000982,0.00000172,0.00003872,0.00000626,0
 .00003001,0.00011060,-0.00020701,-0.00018568,-0.00001769,-0.00009663,-
 0.00002577,-0.00050856,-0.00049955,-0.00066875,-0.00005416,-0.00003343
 ,-0.00001803,-0.00000205,0.00000190,0.00000280,-0.00449141,0.00312362,
 -0.00010861,0.00102175,-0.00057204,-0.00038823,0.00000067,0.00000064,0
 .00000400,0.00000830,-0.00000488,-0.00000679,0.00091944,-0.01407666,-0
 .02261814,-0.00140026,-0.00015371,0.00008253,0.05002771,-0.00000873,0.
 00010764,0.00022967,-0.00109659,0.00040455,0.00036715,0.00001083,-0.00
 000637,0.00005910,0.00071663,-0.01220677,-0.01641480,-0.00000426,0.000
 02261,-0.00001013,0.00155106,-0.13216084,-0.12233163,0.00000651,-0.000
 01314,-0.00000111,0.00001076,-0.00006408,0.00000055,-0.00020029,0.0000
 6745,0.00007461,0.00007746,0.00001180,0.00009826,0.00053637,0.00056951
 ,0.00010835,0.00003394,0.00002355,0.00000310,-0.00000339,0.00000344,-0
 .00000061,0.00355594,-0.00135995,0.00057369,-0.00047204,-0.00009803,0.
 00015049,0.00000190,-0.00000706,0.00000237,-0.00000274,-0.00000169,0.0
 0000392,0.00129924,-0.01036318,-0.01444497,-0.00014496,0.01192599,0.01
 623253,-0.00587718,0.14313732,0.00016803,0.00030169,0.00029464,-0.0002
 6042,0.00017517,0.00012465,0.00005987,-0.00006883,-0.00003235,-0.00002
 045,0.00057419,0.00078113,0.00001842,0.00002778,0.00000533,0.00304572,
 -0.12257978,-0.22143931,0.00000740,-0.00001127,-0.00000427,-0.00002421
 ,0.00000896,-0.00002483,-0.00017733,0.00006754,-0.00001418,0.00000155,
 -0.00011092,-0.00010556,0.00068935,0.00009112,0.00008609,0.00001490,0.
 00000466,0.00002401,0.00000276,0.00000089,-0.00001073,-0.00028121,0.00
 025630,0.00153519,0.00052786,-0.00007242,0.00064450,-0.00000172,-0.000
 00093,-0.00000165,-0.00000485,0.00000463,0.00000352,-0.00008094,0.0015
 4038,0.00049828,-0.00009479,-0.01551271,-0.01984805,-0.00359812,0.1352
 9793,0.23748025,-0.00013890,-0.00009316,-0.00013890,0.00003590,0.00010
 023,-0.00008473,0.00189022,-0.00079885,0.00119846,0.00001911,-0.000021
 11,-0.00000429,-0.00145730,-0.01676522,0.02365223,0.00000757,0.0000098
 3,0.00000190,-0.04598321,-0.00117544,0.00232234,0.00011004,0.00021028,
 -0.00018188,0.00003897,-0.00000658,0.00003002,-0.00005416,0.00003364,-
 0.00001743,-0.00000209,-0.00000194,0.00000277,-0.00001755,0.00009751,-
 0.00002352,-0.00050842,0.00050965,-0.00065971,0.00000068,-0.00000070,0
 .00000399,0.00000829,0.00000501,-0.00000669,-0.00448259,-0.00312601,-0
 .00016616,0.00101970,0.00058060,-0.00037751,0.00000767,-0.00000025,0.,
 -0.00000340,-0.00000021,-0.00000110,-0.00000187,-0.00000150,-0.0000000
 6,0.05001258,0.00000520,0.00011729,-0.00023365,-0.00001187,-0.00000646
 ,-0.00005865,0.00110398,0.00041571,-0.00035927,0.00000392,0.00002290,0
 .00001043,-0.00069984,-0.01251930,0.01619817,-0.00000662,-0.00001336,0
 .00000095,-0.00147140,-0.13677999,0.12392285,0.00020369,0.00007057,-0.
 00007335,-0.00001014,-0.00006388,-0.00000109,-0.00003431,0.00002369,-0
 .00000316,0.00000332,0.00000347,0.00000087,-0.00007795,0.00001146,-0.0
 0009621,-0.00055107,0.00057292,-0.00010058,-0.00000186,-0.00000704,-0.
 00000246,0.00000284,-0.00000152,-0.00000402,-0.00355322,-0.00135243,-0
 .00062780,0.00046356,-0.00009535,-0.00016475,-0.00001139,-0.00000001,0
 .00000101,0.00000021,0.00000569,-0.00000267,0.00000149,0.00000167,0.00
 000022,0.00579527,0.14824851,0.00016860,-0.00030461,0.00028457,0.00005
 958,0.00006937,-0.00003216,-0.00024029,-0.00017058,0.00011571,0.000018
 53,-0.00002741,0.00000500,-0.00003097,-0.00081993,0.00106957,0.0000072
 6,0.00001110,-0.00000404,0.00283033,0.12417007,-0.21682390,-0.00017348
 ,-0.00006619,-0.00001673,-0.00002453,-0.00000983,-0.00002500,0.0000142
 6,-0.00000462,0.00002386,0.00000284,-0.00000063,-0.00001075,0.00000033
 ,0.00011312,-0.00010581,0.00067920,-0.00008091,0.00008253,-0.00000176,
 0.00000083,-0.00000168,-0.00000479,-0.00000473,0.00000336,-0.00034659,
 -0.00030960,0.00151872,0.00053649,0.00005951,0.00064201,0.00000695,-0.
 00000268,0.00000008,0.00000111,-0.00000274,0.00000619,-0.00000003,-0.0
 0000013,-0.00000305,-0.00328421,-0.13697655,0.23238375,-0.00013865,-0.
 00009401,0.00013697,0.00003614,0.00009886,0.00008611,0.00188757,-0.000
 78062,-0.00121363,0.00001912,-0.00002122,0.00000387,-0.00148081,-0.016
 41150,-0.02389877,0.00000759,0.00000988,-0.00000167,-0.04599912,-0.001
 22214,-0.00246938,0.00003965,-0.00000588,-0.00003064,0.00011059,0.0002
 0687,0.00018524,-0.00000231,-0.00000182,-0.00000287,-0.00005413,0.0000
 3328,0.00001819,-0.00050847,0.00049765,0.00066931,-0.00001708,0.000098
 18,0.00002418,0.00000831,0.00000488,0.00000679,0.00000071,-0.00000060,
 -0.00000404,0.00101742,0.00057437,0.00038657,-0.00448213,-0.00312982,0
 .00012593,0.00000769,-0.00000024,-0.00000001,-0.00000189,-0.00000149,0
 .00000001,-0.00000339,-0.00000024,0.00000111,-0.00140039,0.00012698,-0
 .00011569,0.05003777,0.00000780,0.00010889,0.00023255,-0.00001085,-0.0
 0000654,0.00005863,0.00110340,0.00040962,0.00036035,0.00000421,0.00002
 262,-0.00000989,-0.00071473,-0.01228218,-0.01639758,-0.00000648,-0.000
 01316,-0.00000124,-0.00151208,-0.13309972,-0.12266513,-0.00001033,-0.0
 0006399,0.00000002,0.00020140,0.00006823,0.00007447,0.00000333,0.00000
 354,-0.00000060,-0.00003409,0.00002358,0.00000335,-0.00054163,0.000570
 09,0.00010977,-0.00007876,0.00001147,0.00009835,0.00000278,-0.00000167
 ,0.00000394,-0.00000188,-0.00000707,0.00000229,0.00047147,-0.00009810,
 0.00015300,-0.00355421,-0.00136610,0.00058884,-0.00001127,-0.00000003,
 -0.00000098,0.00000149,0.00000169,-0.00000014,0.00000021,0.00000559,0.
 00000273,0.00013643,0.01192870,0.01610768,0.00583815,0.14418091,-0.000
 16811,0.00030157,0.00029268,-0.00005988,-0.00006899,-0.00003235,0.0002
 5700,0.00017761,0.00012783,-0.00001849,0.00002763,0.00000534,0.0000175
 1,0.00063058,0.00085376,-0.00000735,-0.00001121,-0.00000423,-0.0029825
 3,-0.12290898,-0.22043845,0.00002471,0.00000965,-0.00002485,0.00017638
 ,0.00006726,-0.00001492,-0.00000283,0.00000088,-0.00001086,-0.00001467
 ,0.00000445,0.00002399,-0.00068652,0.00008743,0.00008543,-0.00000251,-
 0.00011150,-0.00010734,0.00000482,0.00000462,0.00000350,0.00000175,-0.
 00000084,-0.00000168,-0.00052976,-0.00007180,0.00064127,0.00029820,0.0
 0026671,0.00153198,-0.00000711,0.00000269,0.00000013,0.00000004,0.0000
 0023,-0.00000309,-0.00000111,0.00000266,0.00000629,0.00010398,-0.01563
 765,-0.01985125,0.00351137,0.13565063,0.23638100,-0.00085634,0.0017312
 6,0.00001580,-0.00039634,-0.00066130,-0.00000566,-0.00333011,-0.005625
 28,-0.00004354,-0.00012501,0.00027033,0.00000282,-0.01996618,0.0167949
 9,0.00013368,-0.00007506,-0.00010343,-0.00000112,-0.22725398,0.1234581
 6,0.00098416,-0.00000773,-0.00004554,0.00010233,-0.00000795,-0.0000437
 2,-0.00010299,0.00001722,0.00001321,-0.00002918,0.00001711,0.00001275,
 0.00002943,0.00028912,-0.00008795,0.00011271,0.00029009,-0.00008712,-0
 .00011409,0.00000484,-0.00000899,-0.00001463,0.00000488,-0.00000927,0.
 00001442,0.00052030,-0.00004183,0.00067321,0.00051577,-0.00003232,-0.0
 0067374,-0.00006425,0.00001149,0.00000017,0.00000768,0.00001141,-0.000
 00689,0.00000765,0.00001127,0.00000717,0.00089916,-0.00128079,-0.00010
 314,0.00091582,-0.00129436,0.00008512,0.24859330,-0.00096953,0.0009204
 0,0.00000371,-0.00027687,-0.00030924,-0.00000252,-0.00251986,-0.002615
 87,-0.00002124,-0.00007501,0.00009708,0.00000100,-0.01781242,0.0130597
 0,0.00011735,-0.00003210,-0.00003138,-0.00000023,0.12457203,-0.1311742
 6,-0.00067048,0.00007416,0.00003764,0.00003461,0.00007277,0.00003753,-
 0.00003370,0.00000711,-0.00000325,-0.00001860,0.00000714,-0.00000349,0
 .00001845,-0.00015444,0.00000846,0.00026452,-0.00015937,0.00001748,-0.
 00026786,0.00000205,0.00000068,-0.00000402,0.00000204,0.00000058,0.000
 00407,0.00078481,0.00069009,0.00020497,0.00078849,0.00068680,-0.000194
 81,-0.00001158,0.00000695,0.00000007,0.00000026,0.00000002,-0.00000270
 ,0.00000026,-0.00000003,0.00000269,0.01451253,-0.01058323,-0.00175052,
 0.01418049,-0.01039635,0.00157637,-0.13299296,0.13955369,-0.00000655,0
 .00000080,0.00060291,-0.00000196,-0.00000193,-0.00000554,-0.00001516,-
 0.00001752,0.00022824,-0.00000047,0.00000049,0.00000550,-0.00012208,0.
 00010242,-0.00142460,-0.00000020,-0.00000006,-0.00000947,0.00099063,-0
 .00066841,-0.04613720,-0.00007360,-0.00004345,-0.00001932,0.00007487,0
 .00004468,-0.00001909,0.00000125,0.00000361,0.00000397,-0.00000113,-0.
 00000382,0.00000419,-0.00031190,0.00030721,0.00022661,0.00030875,-0.00
 031104,0.00021672,-0.00000084,-0.00000207,-0.00000284,0.00000084,0.000
 00217,-0.00000273,0.00029353,-0.00024347,-0.00005928,-0.00028149,0.000
 25520,-0.00005917,-0.00000005,0.00000002,0.00000258,0.,0.00000098,0.00
 000009,0.00000001,-0.00000101,0.00000011,-0.02236950,0.01420737,0.0007
 3902,0.02258107,-0.01437102,0.00053581,-0.00106602,0.00073887,0.045173
 46\\0.00000064,0.00000470,-0.00000042,-0.00002434,-0.00000915,-0.00000
 032,0.00001684,-0.00001069,-0.00000175,0.00001768,0.00000571,-0.000002
 57,-0.00001233,0.00000490,0.00000254,-0.00000877,-0.00000897,0.0000050
 9,0.00000963,-0.00000162,-0.00000360,0.00000108,0.00000037,-0.00000022
 ,-0.00000272,-0.00000048,0.00000137,0.00000356,0.00000021,0.00000317,0
 .00000162,0.00000102,-0.00000339,-0.00000310,0.00000414,-0.00000078,-0
 .00000179,0.00000178,0.00000177,-0.00000093,-0.00000018,0.00000452,0.0
 0000347,0.00000048,-0.00000335,-0.00000051,-0.00000330,-0.00000384,-0.
 00000203,-0.00000116,0.00000268,0.00000895,0.00000692,-0.00000319,0.00
 000507,0.00000301,-0.00000131,0.00000082,-0.00000145,0.00000176,-0.000
 00141,-0.00000117,0.00000194,-0.00000427,0.00000152,-0.00000193,-0.000
 00716,0.00000343,0.00000182\\\@


 PENOTUS DIED A HUNDRED YEARS OLD WANTING BUT TWO...
 AND HE USED TO SAY BEFORE HE DIED, HAVING SPENT HIS
 WHOLE LIFE IN VAINLY SEARCHING AFTER THE PHILOSOPHER'S
 STONE, THAT IF HE HAD A MORTAL ENEMY HE DID NOT DARE
 TO ENCOUNTER OPENLY, HE WOULD ADVISE HIM ABOVE ALL
 THINGS TO GIVE HIMSELF UP TO THE STUDY AND PRACTICE
 OF ALCHEMY.  --  NICOLAS LEMERY, M.D.
 "A COURSE OF CHYMISTRY", WALTER KETTILBY, LONDON, 1686
 Job cpu time:       0 days  2 hours 44 minutes 52.9 seconds.
 Elapsed time:       0 days  0 hours 10 minutes 21.5 seconds.
 File lengths (MBytes):  RWF=    137 Int=      0 D2E=      0 Chk=      7 Scr=      1
 Normal termination of Gaussian 16 at Sat Sep 20 04:16:32 2025.
