 Entering Gaussian System, Link 0=g16
 Input=HQUE0055.gjf
 Output=HQUE0055.log
 Initial command:
 /usr/local/g16/l1.exe "/dados_01/scratch/Gau-2109566.inp" -scrdir="/dados_01/scratch/"
 Entering Link 1 = /usr/local/g16/l1.exe PID=   2109567.
  
 Copyright (c) 1988-2017, Gaussian, Inc.  All Rights Reserved.
  
 This is part of the Gaussian(R) 16 program.  It is based on
 the Gaussian(R) 09 system (copyright 2009, Gaussian, Inc.),
 the Gaussian(R) 03 system (copyright 2003, Gaussian, Inc.),
 the Gaussian(R) 98 system (copyright 1998, Gaussian, Inc.),
 the Gaussian(R) 94 system (copyright 1995, Gaussian, Inc.),
 the Gaussian 92(TM) system (copyright 1992, Gaussian, Inc.),
 the Gaussian 90(TM) system (copyright 1990, Gaussian, Inc.),
 the Gaussian 88(TM) system (copyright 1988, Gaussian, Inc.),
 the Gaussian 86(TM) system (copyright 1986, Carnegie Mellon
 University), and the Gaussian 82(TM) system (copyright 1983,
 Carnegie Mellon University). Gaussian is a federally registered
 trademark of Gaussian, Inc.
  
 This software contains proprietary and confidential information,
 including trade secrets, belonging to Gaussian, Inc.
  
 This software is provided under written license and may be
 used, copied, transmitted, or stored only in accord with that
 written license.
  
 The following legend is applicable only to US Government
 contracts under FAR:
  
                    RESTRICTED RIGHTS LEGEND
  
 Use, reproduction and disclosure by the US Government is
 subject to restrictions as set forth in subparagraphs (a)
 and (c) of the Commercial Computer Software - Restricted
 Rights clause in FAR 52.227-19.
  
 Gaussian, Inc.
 340 Quinnipiac St., Bldg. 40, Wallingford CT 06492
  
  
 ---------------------------------------------------------------
 Warning -- This program may not be used in any manner that
 competes with the business of Gaussian, Inc. or will provide
 assistance to any competitor of Gaussian, Inc.  The licensee
 of this program is prohibited from giving any competitor of
 Gaussian, Inc. access to this program.  By using this program,
 the user acknowledges that Gaussian, Inc. is engaged in the
 business of creating and licensing software in the field of
 computational chemistry and represents and warrants to the
 licensee that it is not a competitor of Gaussian, Inc. and that
 it will not use this program in any manner prohibited above.
 ---------------------------------------------------------------
  

 Cite this work as:
 Gaussian 16, Revision B.01,
 M. J. Frisch, G. W. Trucks, H. B. Schlegel, G. E. Scuseria, 
 M. A. Robb, J. R. Cheeseman, G. Scalmani, V. Barone, 
 G. A. Petersson, H. Nakatsuji, X. Li, M. Caricato, A. V. Marenich, 
 J. Bloino, B. G. Janesko, R. Gomperts, B. Mennucci, H. P. Hratchian, 
 J. V. Ortiz, A. F. Izmaylov, J. L. Sonnenberg, D. Williams-Young, 
 F. Ding, F. Lipparini, F. Egidi, J. Goings, B. Peng, A. Petrone, 
 T. Henderson, D. Ranasinghe, V. G. Zakrzewski, J. Gao, N. Rega, 
 G. Zheng, W. Liang, M. Hada, M. Ehara, K. Toyota, R. Fukuda, 
 J. Hasegawa, M. Ishida, T. Nakajima, Y. Honda, O. Kitao, H. Nakai, 
 T. Vreven, K. Throssell, J. A. Montgomery, Jr., J. E. Peralta, 
 F. Ogliaro, M. J. Bearpark, J. J. Heyd, E. N. Brothers, K. N. Kudin, 
 V. N. Staroverov, T. A. Keith, R. Kobayashi, J. Normand, 
 K. Raghavachari, A. P. Rendell, J. C. Burant, S. S. Iyengar, 
 J. Tomasi, M. Cossi, J. M. Millam, M. Klene, C. Adamo, R. Cammi, 
 J. W. Ochterski, R. L. Martin, K. Morokuma, O. Farkas, 
 J. B. Foresman, and D. J. Fox, Gaussian, Inc., Wallingford CT, 2016.
 
 ******************************************
 Gaussian 16:  ES64L-G16RevB.01 20-Dec-2017
                20-Sep-2025 
 ******************************************
 %nprocs=16
 Will use up to   16 processors via shared memory.
 %mem=40GB
 %chk=HQUE0055.chk
 ----------------------------------------------------------------------
 # opt freq=noraman M08HX/6-311++G** scf=xqc Empiricaldispersion=pfd In
 t(Grid=ultraFine)
 ----------------------------------------------------------------------
 1/18=20,19=15,26=4,38=1/1,3;
 2/9=110,12=2,17=6,18=5,40=1/2;
 3/5=4,6=6,7=1111,11=2,25=1,30=1,71=1,74=-74,75=-5,124=11/1,2,3;
 4//1;
 5/5=2,8=3,13=1,38=5/2,8;
 6/7=2,8=2,9=2,10=2,28=1/1;
 7//1,2,3,16;
 1/18=20,19=15,26=4/3(2);
 2/9=110/2;
 99//99;
 2/9=110/2;
 3/5=4,6=6,7=1111,11=2,25=1,30=1,71=1,74=-74,75=-5,124=11/1,2,3;
 4/5=5,16=3,69=1/1;
 5/5=2,8=3,13=1,38=5/2,8;
 7//1,2,3,16;
 1/18=20,19=15,26=4/3(-5);
 2/9=110/2;
 6/7=2,8=2,9=2,10=2,19=2,28=1/1;
 99/9=1/99;
 --------
 HQUE0055
 --------
 Symbolic Z-matrix:
 Charge =  0 Multiplicity = 1
 O                     2.7558    0.       -0.0001 
 O                    -2.7561   -0.0001   -0.0002 
 C                     1.3949    0.        0. 
 C                    -1.3948    0.        0.0001 
 C                     0.6976   -1.208     0.0001 
 C                    -0.6973   -1.208     0. 
 C                     0.6974    1.208     0. 
 C                    -0.6975    1.2079    0.0001 
 H                     1.2354   -2.1522    0.0001 
 H                    -1.2288   -2.1559    0. 
 H                     1.2289    2.1559   -0.0001 
 H                    -1.2353    2.1521    0. 
 H                     3.0709    0.9202   -0.0001 
 H                    -3.071    -0.9203   -0.0002 
 

 GradGradGradGradGradGradGradGradGradGradGradGradGradGradGradGradGradGrad
 Berny optimization.
 Initialization pass.
                           ----------------------------
                           !    Initial Parameters    !
                           ! (Angstroms and Degrees)  !
 --------------------------                            --------------------------
 ! Name  Definition              Value          Derivative Info.                !
 --------------------------------------------------------------------------------
 ! R1    R(1,3)                  1.3609         estimate D2E/DX2                !
 ! R2    R(1,13)                 0.9727         estimate D2E/DX2                !
 ! R3    R(2,4)                  1.3613         estimate D2E/DX2                !
 ! R4    R(2,14)                 0.9726         estimate D2E/DX2                !
 ! R5    R(3,5)                  1.3948         estimate D2E/DX2                !
 ! R6    R(3,7)                  1.3949         estimate D2E/DX2                !
 ! R7    R(4,6)                  1.3949         estimate D2E/DX2                !
 ! R8    R(4,8)                  1.3947         estimate D2E/DX2                !
 ! R9    R(5,6)                  1.3949         estimate D2E/DX2                !
 ! R10   R(5,9)                  1.0866         estimate D2E/DX2                !
 ! R11   R(6,10)                 1.0867         estimate D2E/DX2                !
 ! R12   R(7,8)                  1.3949         estimate D2E/DX2                !
 ! R13   R(7,11)                 1.0867         estimate D2E/DX2                !
 ! R14   R(8,12)                 1.0866         estimate D2E/DX2                !
 ! A1    A(3,1,13)             108.9025         estimate D2E/DX2                !
 ! A2    A(4,2,14)             108.8956         estimate D2E/DX2                !
 ! A3    A(1,3,5)              119.9951         estimate D2E/DX2                !
 ! A4    A(1,3,7)              120.0022         estimate D2E/DX2                !
 ! A5    A(5,3,7)              120.0028         estimate D2E/DX2                !
 ! A6    A(2,4,6)              119.998          estimate D2E/DX2                !
 ! A7    A(2,4,8)              120.0013         estimate D2E/DX2                !
 ! A8    A(6,4,8)              120.0007         estimate D2E/DX2                !
 ! A9    A(3,5,6)              119.9951         estimate D2E/DX2                !
 ! A10   A(3,5,9)              120.3399         estimate D2E/DX2                !
 ! A11   A(6,5,9)              119.6651         estimate D2E/DX2                !
 ! A12   A(4,6,5)              120.0022         estimate D2E/DX2                !
 ! A13   A(4,6,10)             120.7179         estimate D2E/DX2                !
 ! A14   A(5,6,10)             119.2799         estimate D2E/DX2                !
 ! A15   A(3,7,8)              119.9981         estimate D2E/DX2                !
 ! A16   A(3,7,11)             120.7179         estimate D2E/DX2                !
 ! A17   A(8,7,11)             119.284          estimate D2E/DX2                !
 ! A18   A(4,8,7)              120.0012         estimate D2E/DX2                !
 ! A19   A(4,8,12)             120.3378         estimate D2E/DX2                !
 ! A20   A(7,8,12)             119.661          estimate D2E/DX2                !
 ! D1    D(13,1,3,5)          -179.9962         estimate D2E/DX2                !
 ! D2    D(13,1,3,7)             0.0039         estimate D2E/DX2                !
 ! D3    D(14,2,4,6)             0.0164         estimate D2E/DX2                !
 ! D4    D(14,2,4,8)           179.997          estimate D2E/DX2                !
 ! D5    D(1,3,5,6)           -179.9904         estimate D2E/DX2                !
 ! D6    D(1,3,5,9)              0.0001         estimate D2E/DX2                !
 ! D7    D(7,3,5,6)              0.0095         estimate D2E/DX2                !
 ! D8    D(7,3,5,9)            180.0            estimate D2E/DX2                !
 ! D9    D(1,3,7,8)            179.9999         estimate D2E/DX2                !
 ! D10   D(1,3,7,11)             0.0013         estimate D2E/DX2                !
 ! D11   D(5,3,7,8)              0.0            estimate D2E/DX2                !
 ! D12   D(5,3,7,11)          -179.9986         estimate D2E/DX2                !
 ! D13   D(2,4,6,5)            179.9902         estimate D2E/DX2                !
 ! D14   D(2,4,6,10)            -0.0194         estimate D2E/DX2                !
 ! D15   D(8,4,6,5)              0.0095         estimate D2E/DX2                !
 ! D16   D(8,4,6,10)           179.9999         estimate D2E/DX2                !
 ! D17   D(2,4,8,7)           -179.9807         estimate D2E/DX2                !
 ! D18   D(2,4,8,12)             0.0085         estimate D2E/DX2                !
 ! D19   D(6,4,8,7)              0.0            estimate D2E/DX2                !
 ! D20   D(6,4,8,12)           179.9891         estimate D2E/DX2                !
 ! D21   D(3,5,6,4)             -0.0142         estimate D2E/DX2                !
 ! D22   D(3,5,6,10)           179.9952         estimate D2E/DX2                !
 ! D23   D(9,5,6,4)            179.9952         estimate D2E/DX2                !
 ! D24   D(9,5,6,10)             0.0046         estimate D2E/DX2                !
 ! D25   D(3,7,8,4)             -0.0047         estimate D2E/DX2                !
 ! D26   D(3,7,8,12)          -179.994          estimate D2E/DX2                !
 ! D27   D(11,7,8,4)           179.9939         estimate D2E/DX2                !
 ! D28   D(11,7,8,12)            0.0047         estimate D2E/DX2                !
 --------------------------------------------------------------------------------
 Trust Radius=3.00D-01 FncErr=1.00D-07 GrdErr=1.00D-06 EigMax=2.50D+02 EigMin=1.00D-04
 Number of steps in this run=     72 maximum allowed number of steps=    100.
 GradGradGradGradGradGradGradGradGradGradGradGradGradGradGradGradGradGrad

                          Input orientation:                          
 ---------------------------------------------------------------------
 Center     Atomic      Atomic             Coordinates (Angstroms)
 Number     Number       Type             X           Y           Z
 ---------------------------------------------------------------------
      1          8           0        2.755800    0.000000   -0.000100
      2          8           0       -2.756100   -0.000100   -0.000200
      3          6           0        1.394900    0.000000    0.000000
      4          6           0       -1.394800    0.000000    0.000100
      5          6           0        0.697600   -1.208000    0.000100
      6          6           0       -0.697300   -1.208000    0.000000
      7          6           0        0.697400    1.208000    0.000000
      8          6           0       -0.697500    1.207900    0.000100
      9          1           0        1.235400   -2.152200    0.000100
     10          1           0       -1.228800   -2.155900    0.000000
     11          1           0        1.228900    2.155900   -0.000100
     12          1           0       -1.235300    2.152100    0.000000
     13          1           0        3.070900    0.920200   -0.000100
     14          1           0       -3.071000   -0.920300   -0.000200
 ---------------------------------------------------------------------
                    Distance matrix (angstroms):
                    1          2          3          4          5
     1  O    0.000000
     2  O    5.511900   0.000000
     3  C    1.360900   4.151000   0.000000
     4  C    4.150600   1.361300   2.789700   0.000000
     5  C    2.386514   3.658834   1.394809   2.416072   0.000000
     6  C    3.658301   2.386981   2.415898   1.394909   1.394900
     7  C    2.386687   3.658711   1.394909   2.415898   2.416000
     8  C    3.658456   2.386859   2.416022   1.394722   2.789781
     9  H    2.635068   4.534711   2.158102   3.398517   1.086620
    10  H    4.530446   2.641991   3.395837   2.162281   2.146982
    11  H    2.641842   4.530846   2.162281   3.395837   3.405599
    12  H    4.534359   2.635298   3.398454   2.158002   3.876387
    13  H    0.972654   5.899227   1.912000   4.559522   3.187756
    14  H    5.899030   0.972589   4.559738   1.912223   3.779566
                    6          7          8          9         10
     6  C    0.000000
     7  C    2.789667   0.000000
     8  C    2.415900   1.394900   0.000000
     9  H    2.151010   3.402997   3.876387   0.000000
    10  H    1.086741   3.876347   3.405500   2.464203   0.000000
    11  H    3.876347   1.086741   2.147026   4.308105   4.963054
    12  H    3.402898   2.150966   1.086620   4.962999   4.308005
    13  H    4.327651   2.390885   3.779366   3.578925   5.286758
    14  H    2.391072   4.327875   3.187905   4.479136   2.218199
                   11         12         13         14
    11  H    0.000000
    12  H    2.464203   0.000000
    13  H    2.218089   4.478944   0.000000
    14  H    5.286979   3.579027   6.411737   0.000000
 Stoichiometry    C6H6O2
 Framework group  C1[X(C6H6O2)]
 Deg. of freedom    36
 Full point group                 C1      NOp   1
 Largest Abelian subgroup         C1      NOp   1
 Largest concise Abelian subgroup C1      NOp   1
                         Standard orientation:                         
 ---------------------------------------------------------------------
 Center     Atomic      Atomic             Coordinates (Angstroms)
 Number     Number       Type             X           Y           Z
 ---------------------------------------------------------------------
      1          8           0        2.753080    0.122609    0.000084
      2          8           0       -2.753364   -0.122577    0.000184
      3          6           0        1.393528    0.062047   -0.000016
      4          6           0       -1.393408   -0.062097   -0.000116
      5          6           0        0.643161    1.237820   -0.000116
      6          6           0       -0.750357    1.175745   -0.000016
      7          6           0        0.750476   -1.175795   -0.000016
      8          6           0       -0.643046   -1.237770   -0.000116
      9          1           0        1.138411    2.205017   -0.000116
     10          1           0       -1.323513    2.099054   -0.000016
     11          1           0        1.323632   -2.099104    0.000084
     12          1           0       -1.138296   -2.204967   -0.000016
     13          1           0        3.108818   -0.782657    0.000084
     14          1           0       -3.108902    0.782698    0.000184
 ---------------------------------------------------------------------
 Rotational constants (GHZ):           5.5952265           1.4939951           1.1791479
 Standard basis: 6-311++G(d,p) (5D, 7F)
 There are   226 symmetry adapted cartesian basis functions of A   symmetry.
 There are   218 symmetry adapted basis functions of A   symmetry.
   218 basis functions,   342 primitive gaussians,   226 cartesian basis functions
    29 alpha electrons       29 beta electrons
       nuclear repulsion energy       344.9951178906 Hartrees.
 NAtoms=   14 NActive=   14 NUniq=   14 SFac= 1.00D+00 NAtFMM=   60 NAOKFM=F Big=F
 Integral buffers will be    131072 words long.
 Raffenetti 2 integral format.
 Two-electron integral symmetry is turned on.
 R6APFD:  NTU= -4 IXU= 1 FactS= 1.050
 Nuclear repulsion after empirical dispersion term =      344.9894650765 Hartrees.
 One-electron integrals computed using PRISM.
 NBasis=   218 RedAO= T EigKep=  1.20D-06  NBF=   218
 NBsUse=   218 1.00D-06 EigRej= -1.00D+00 NBFU=   218
 ExpMin= 3.60D-02 ExpMax= 8.59D+03 ExpMxC= 1.30D+03 IAcc=3 IRadAn=         5 AccDes= 0.00D+00
 Harris functional with IExCor= 1009 and IRadAn=       5 diagonalized for initial guess.
 HarFok:  IExCor= 1009 AccDes= 0.00D+00 IRadAn=         5 IDoV= 1 UseB2=F ITyADJ=14
 ICtDFT=  3500011 ScaDFX=  1.000000  1.000000  1.000000  1.000000
 FoFCou: FMM=F IPFlag=           0 FMFlag=      100000 FMFlg1=           0
         NFxFlg=           0 DoJE=T BraDBF=F KetDBF=T FulRan=T
         wScrn=  0.000000 ICntrl=       500 IOpCl=  0 I1Cent=   200000004 NGrid=           0
         NMat0=    1 NMatS0=      1 NMatT0=    0 NMatD0=    1 NMtDS0=    0 NMtDT0=    0
 Petite list used in FoFCou.
 Requested convergence on RMS density matrix=1.00D-08 within  32 cycles.
 Requested convergence on MAX density matrix=1.00D-06.
 Requested convergence on             energy=1.00D-06.
 No special actions if energy rises.
 SCF Done:  E(RM08HX) =  -382.676707228     A.U. after   13 cycles
            NFock= 13  Conv=0.73D-08     -V/T= 2.0043
 QCSCF skips out because SCF is already converged.

 **********************************************************************

            Population analysis using the SCF Density.

 **********************************************************************

 Orbital symmetries:
       Occupied  (A) (A) (A) (A) (A) (A) (A) (A) (A) (A) (A) (A)
                 (A) (A) (A) (A) (A) (A) (A) (A) (A) (A) (A) (A)
                 (A) (A) (A) (A) (A)
       Virtual   (A) (A) (A) (A) (A) (A) (A) (A) (A) (A) (A) (A)
                 (A) (A) (A) (A) (A) (A) (A) (A) (A) (A) (A) (A)
                 (A) (A) (A) (A) (A) (A) (A) (A) (A) (A) (A) (A)
                 (A) (A) (A) (A) (A) (A) (A) (A) (A) (A) (A) (A)
                 (A) (A) (A) (A) (A) (A) (A) (A) (A) (A) (A) (A)
                 (A) (A) (A) (A) (A) (A) (A) (A) (A) (A) (A) (A)
                 (A) (A) (A) (A) (A) (A) (A) (A) (A) (A) (A) (A)
                 (A) (A) (A) (A) (A) (A) (A) (A) (A) (A) (A) (A)
                 (A) (A) (A) (A) (A) (A) (A) (A) (A) (A) (A) (A)
                 (A) (A) (A) (A) (A) (A) (A) (A) (A) (A) (A) (A)
                 (A) (A) (A) (A) (A) (A) (A) (A) (A) (A) (A) (A)
                 (A) (A) (A) (A) (A) (A) (A) (A) (A) (A) (A) (A)
                 (A) (A) (A) (A) (A) (A) (A) (A) (A) (A) (A) (A)
                 (A) (A) (A) (A) (A) (A) (A) (A) (A) (A) (A) (A)
                 (A) (A) (A) (A) (A) (A) (A) (A) (A) (A) (A) (A)
                 (A) (A) (A) (A) (A) (A) (A) (A) (A)
 The electronic state is 1-A.
 Alpha  occ. eigenvalues --  -19.64084 -19.64078 -10.59759 -10.59756 -10.54440
 Alpha  occ. eigenvalues --  -10.54438 -10.54131 -10.54129  -1.18697  -1.18562
 Alpha  occ. eigenvalues --   -0.96741  -0.86400  -0.83948  -0.73607  -0.69994
 Alpha  occ. eigenvalues --   -0.64497  -0.63316  -0.56663  -0.52467  -0.52345
 Alpha  occ. eigenvalues --   -0.50671  -0.50344  -0.48105  -0.46141  -0.45120
 Alpha  occ. eigenvalues --   -0.41108  -0.39041  -0.32201  -0.26645
 Alpha virt. eigenvalues --   -0.02934  -0.02666  -0.00664  -0.00338   0.00187
 Alpha virt. eigenvalues --    0.01758   0.02287   0.03932   0.04478   0.05091
 Alpha virt. eigenvalues --    0.05680   0.06036   0.06659   0.08505   0.09027
 Alpha virt. eigenvalues --    0.10152   0.10509   0.11162   0.11200   0.11642
 Alpha virt. eigenvalues --    0.12207   0.12951   0.13382   0.13665   0.14733
 Alpha virt. eigenvalues --    0.15199   0.16296   0.18009   0.18474   0.19340
 Alpha virt. eigenvalues --    0.21061   0.21292   0.21907   0.22060   0.22275
 Alpha virt. eigenvalues --    0.23157   0.23859   0.27263   0.27295   0.28315
 Alpha virt. eigenvalues --    0.29951   0.30470   0.31423   0.32310   0.32762
 Alpha virt. eigenvalues --    0.35211   0.35451   0.37799   0.38748   0.40027
 Alpha virt. eigenvalues --    0.41417   0.41875   0.44683   0.53527   0.55177
 Alpha virt. eigenvalues --    0.55203   0.56363   0.56873   0.58366   0.59470
 Alpha virt. eigenvalues --    0.59869   0.60282   0.61170   0.64289   0.64706
 Alpha virt. eigenvalues --    0.65221   0.66710   0.70890   0.71385   0.76149
 Alpha virt. eigenvalues --    0.78055   0.79877   0.80238   0.83193   0.86800
 Alpha virt. eigenvalues --    0.88697   0.89270   0.90744   0.91853   0.93077
 Alpha virt. eigenvalues --    0.94383   0.94907   1.02737   1.02753   1.04100
 Alpha virt. eigenvalues --    1.05014   1.11054   1.11390   1.12405   1.14351
 Alpha virt. eigenvalues --    1.16807   1.19483   1.23288   1.26387   1.27359
 Alpha virt. eigenvalues --    1.27435   1.28598   1.40399   1.44160   1.44802
 Alpha virt. eigenvalues --    1.51674   1.52304   1.55795   1.59485   1.59695
 Alpha virt. eigenvalues --    1.62729   1.62841   1.64800   1.66306   1.70196
 Alpha virt. eigenvalues --    1.72241   1.75041   1.77665   1.80040   1.81408
 Alpha virt. eigenvalues --    1.88280   1.91572   1.93323   1.95668   1.97157
 Alpha virt. eigenvalues --    1.97731   1.98948   1.99624   2.04638   2.10077
 Alpha virt. eigenvalues --    2.11118   2.11428   2.12792   2.14871   2.22034
 Alpha virt. eigenvalues --    2.35506   2.36606   2.36752   2.44105   2.46279
 Alpha virt. eigenvalues --    2.58775   2.59731   2.63409   2.67779   2.68568
 Alpha virt. eigenvalues --    2.70416   2.70976   2.71425   2.72225   2.74502
 Alpha virt. eigenvalues --    2.77891   2.80279   2.85805   2.91432   2.95915
 Alpha virt. eigenvalues --    2.96235   3.11703   3.15356   3.16848   3.17116
 Alpha virt. eigenvalues --    3.20878   3.23213   3.25615   3.26910   3.39685
 Alpha virt. eigenvalues --    3.45034   3.45312   3.54063   3.56446   3.61924
 Alpha virt. eigenvalues --    3.67841   3.74159   3.92776   3.95721   4.03263
 Alpha virt. eigenvalues --    4.16787   4.19888   4.20761   4.25757   4.91391
 Alpha virt. eigenvalues --    5.10863   5.13785   5.55011   5.55735   5.80762
 Alpha virt. eigenvalues --    5.88712  23.63944  23.95677  24.02296  24.09967
 Alpha virt. eigenvalues --   24.14581  24.23190  49.94188  49.97364
          Condensed to atoms (all electrons):
               1          2          3          4          5          6
     1  O    7.985901   0.000621   0.490748  -0.021912  -0.628330   0.091554
     2  O    0.000621   7.985918  -0.021983   0.491317   0.038504   0.025489
     3  C    0.490748  -0.021983  13.058022  -2.696587  -5.952634   2.746950
     4  C   -0.021912   0.491317  -2.696587  13.062347   2.310043  -2.844969
     5  C   -0.628330   0.038504  -5.952634   2.310043  16.139371  -4.684914
     6  C    0.091554   0.025489   2.746950  -2.844969  -4.684914  11.258802
     7  C    0.025562   0.091698  -2.842203   2.746887  -1.101461   0.198364
     8  C    0.038335  -0.628830   2.308869  -5.955439  -0.854439  -1.103312
     9  H   -0.034041  -0.001400  -0.230578   0.106167   0.672657  -0.171067
    10  H    0.001753  -0.013177   0.072981  -0.202129  -0.100884   0.543283
    11  H   -0.013173   0.001756  -0.201775   0.072854  -0.070963   0.072282
    12  H   -0.001401  -0.034046   0.106174  -0.230791   0.046864  -0.139351
    13  H    0.256153  -0.000111   0.087471   0.019247   0.156946  -0.024676
    14  H   -0.000111   0.256119   0.019241   0.087501  -0.027190  -0.204254
               7          8          9         10         11         12
     1  O    0.025562   0.038335  -0.034041   0.001753  -0.013173  -0.001401
     2  O    0.091698  -0.628830  -0.001400  -0.013177   0.001756  -0.034046
     3  C   -2.842203   2.308869  -0.230578   0.072981  -0.201775   0.106174
     4  C    2.746887  -5.955439   0.106167  -0.202129   0.072854  -0.230791
     5  C   -1.101461  -0.854439   0.672657  -0.100884  -0.070963   0.046864
     6  C    0.198364  -1.103312  -0.171067   0.543283   0.072282  -0.139351
     7  C   11.252755  -4.683144  -0.139417   0.072140   0.542716  -0.171103
     8  C   -4.683144  16.143527   0.046959  -0.070849  -0.100542   0.672912
     9  H   -0.139417   0.046959   0.432961  -0.012023  -0.003019   0.002910
    10  H    0.072140  -0.070849  -0.012023   0.457835   0.002959  -0.003014
    11  H    0.542716  -0.100542  -0.003019   0.002959   0.457776  -0.012011
    12  H   -0.171103   0.672912   0.002910  -0.003014  -0.012011   0.432973
    13  H   -0.204086  -0.027171   0.005855  -0.000820   0.002346   0.000865
    14  H   -0.024709   0.157170   0.000866   0.002335  -0.000820   0.005860
              13         14
     1  O    0.256153  -0.000111
     2  O   -0.000111   0.256119
     3  C    0.087471   0.019241
     4  C    0.019247   0.087501
     5  C    0.156946  -0.027190
     6  C   -0.024676  -0.204254
     7  C   -0.204086  -0.024709
     8  C   -0.027171   0.157170
     9  H    0.005855   0.000866
    10  H   -0.000820   0.002335
    11  H    0.002346  -0.000820
    12  H    0.000865   0.005860
    13  H    0.456245   0.000208
    14  H    0.000208   0.456311
 Mulliken charges:
               1
     1  O   -0.191661
     2  O   -0.191876
     3  C   -0.944695
     4  C   -0.944535
     5  C    0.056431
     6  C    0.235820
     7  C    0.236001
     8  C    0.055955
     9  H    0.323171
    10  H    0.249610
    11  H    0.249616
    12  H    0.323160
    13  H    0.271528
    14  H    0.271476
 Sum of Mulliken charges =  -0.00000
 Mulliken charges with hydrogens summed into heavy atoms:
               1
     1  O    0.079868
     2  O    0.079600
     3  C   -0.944695
     4  C   -0.944535
     5  C    0.379601
     6  C    0.485430
     7  C    0.485616
     8  C    0.379115
 Electronic spatial extent (au):  <R**2>=            946.5553
 Charge=             -0.0000 electrons
 Dipole moment (field-independent basis, Debye):
    X=              0.0029    Y=              0.0001    Z=              0.0001  Tot=              0.0029
 Quadrupole moment (field-independent basis, Debye-Ang):
   XX=            -45.4699   YY=            -39.3013   ZZ=            -51.2021
   XY=            -10.8780   XZ=              0.0001   YZ=             -0.0002
 Traceless Quadrupole moment (field-independent basis, Debye-Ang):
   XX=             -0.1455   YY=              6.0231   ZZ=             -5.8777
   XY=            -10.8780   XZ=              0.0001   YZ=             -0.0002
 Octapole moment (field-independent basis, Debye-Ang**2):
  XXX=              0.0343  YYY=              0.0006  ZZZ=              0.0024  XYY=              0.0004
  XXY=              0.0017  XXZ=              0.0007  XZZ=              0.0021  YZZ=              0.0001
  YYZ=              0.0016  XYZ=             -0.0020
 Hexadecapole moment (field-independent basis, Debye-Ang**3):
 XXXX=           -793.2401 YYYY=           -278.0818 ZZZZ=            -56.9188 XXXY=           -123.1119
 XXXZ=              0.0010 YYYX=             -7.3140 YYYZ=             -0.0015 ZZZX=              0.0026
 ZZZY=              0.0009 XXYY=           -156.3992 XXZZ=           -156.6768 YYZZ=            -69.3552
 XXYZ=              0.0017 YYXZ=              0.0002 ZZXY=             -1.4620
 N-N= 3.449894650765D+02 E-N=-1.583845968824D+03  KE= 3.810550959942D+02
 R6APFD:  NTU= -4 IXU= 1 FactS= 1.050
 Calling FoFJK, ICntrl=      2127 FMM=F ISym2X=0 I1Cent= 0 IOpClX= 0 NMat=1 NMatS=1 NMatT=0.
 ***** Axes restored to original set *****
 -------------------------------------------------------------------
 Center     Atomic                   Forces (Hartrees/Bohr)
 Number     Number              X              Y              Z
 -------------------------------------------------------------------
      1        8           0.008482996    0.007023366    0.000001434
      2        8          -0.008196371   -0.006953218    0.000012307
      3        6          -0.000984735    0.006209676    0.000002849
      4        6           0.000725819   -0.006268114   -0.000029421
      5        6          -0.001301444    0.000304596   -0.000010900
      6        6           0.012317190    0.007067860    0.000022433
      7        6          -0.012314601   -0.007106280    0.000006945
      8        6           0.001289184   -0.000223297   -0.000008346
      9        1           0.002688292    0.000816064   -0.000000067
     10        1          -0.001911016   -0.001584536   -0.000002366
     11        1           0.001907562    0.001585037    0.000000598
     12        1          -0.002690016   -0.000812971    0.000003668
     13        1          -0.003423636   -0.014440857    0.000000285
     14        1           0.003410777    0.014382672    0.000000581
 -------------------------------------------------------------------
 Cartesian Forces:  Max     0.014440857 RMS     0.005323661

 GradGradGradGradGradGradGradGradGradGradGradGradGradGradGradGradGradGrad
 Berny optimization.
 FormGI is forming the generalized inverse of G from B-inverse, IUseBI=4.
 Internal  Forces:  Max     0.014773218 RMS     0.004316926
 Search for a local minimum.
 Step number   1 out of a maximum of   72
 All quantities printed in internal units (Hartrees-Bohrs-Radians)
 Mixed Optimization -- RFO/linear search
 Second derivative matrix not updated -- first step.
 ITU=  0
     Eigenvalues ---    0.02156   0.02156   0.02156   0.02157   0.02157
     Eigenvalues ---    0.02157   0.02158   0.02165   0.02167   0.02204
     Eigenvalues ---    0.02209   0.16000   0.16000   0.16000   0.16000
     Eigenvalues ---    0.16000   0.16000   0.22000   0.22982   0.24000
     Eigenvalues ---    0.25000   0.25000   0.35192   0.35192   0.35206
     Eigenvalues ---    0.35206   0.42133   0.42512   0.46475   0.46476
     Eigenvalues ---    0.46482   0.46500   0.52686   0.52766   0.52838
     Eigenvalues ---    0.52851
 RFO step:  Lambda=-3.53756989D-03 EMin= 2.15616019D-02
 Linear search not attempted -- first point.
 Iteration  1 RMS(Cart)=  0.03409905 RMS(Int)=  0.00042044
 Iteration  2 RMS(Cart)=  0.00063226 RMS(Int)=  0.00000197
 Iteration  3 RMS(Cart)=  0.00000019 RMS(Int)=  0.00000197
 Variable       Old X    -DE/DX   Delta X   Delta X   Delta X     New X
                                 (Linear)    (Quad)   (Total)
    R1        2.57173   0.00506   0.00000   0.00953   0.00953   2.58125
    R2        1.83805  -0.01477   0.00000  -0.02777  -0.02777   1.81028
    R3        2.57248   0.00479   0.00000   0.00902   0.00902   2.58151
    R4        1.83793  -0.01471   0.00000  -0.02766  -0.02766   1.81027
    R5        2.63581  -0.00532   0.00000  -0.01136  -0.01136   2.62445
    R6        2.63600   0.00163   0.00000   0.00348   0.00348   2.63948
    R7        2.63600   0.00163   0.00000   0.00349   0.00349   2.63948
    R8        2.63564  -0.00527   0.00000  -0.01125  -0.01125   2.62439
    R9        2.63598  -0.00248   0.00000  -0.00529  -0.00529   2.63069
   R10        2.05341   0.00062   0.00000   0.00175   0.00175   2.05516
   R11        2.05364   0.00232   0.00000   0.00652   0.00652   2.06016
   R12        2.63598  -0.00247   0.00000  -0.00527  -0.00527   2.63071
   R13        2.05364   0.00232   0.00000   0.00651   0.00651   2.06016
   R14        2.05341   0.00062   0.00000   0.00176   0.00176   2.05517
    A1        1.90071   0.00265   0.00000   0.01619   0.01619   1.91690
    A2        1.90059   0.00263   0.00000   0.01608   0.01608   1.91667
    A3        2.09431  -0.00928   0.00000  -0.03635  -0.03635   2.05795
    A4        2.09443   0.01245   0.00000   0.04937   0.04937   2.14381
    A5        2.09444  -0.00317   0.00000  -0.01302  -0.01302   2.08142
    A6        2.09436   0.01246   0.00000   0.04938   0.04938   2.14374
    A7        2.09442  -0.00930   0.00000  -0.03643  -0.03643   2.05799
    A8        2.09441  -0.00316   0.00000  -0.01295  -0.01295   2.08146
    A9        2.09431  -0.00024   0.00000  -0.00166  -0.00166   2.09265
   A10        2.10033  -0.00269   0.00000  -0.01636  -0.01636   2.08397
   A11        2.08855   0.00293   0.00000   0.01802   0.01802   2.10657
   A12        2.09443   0.00341   0.00000   0.01466   0.01466   2.10910
   A13        2.10693  -0.00262   0.00000  -0.01294  -0.01294   2.09398
   A14        2.08183  -0.00079   0.00000  -0.00172  -0.00172   2.08011
   A15        2.09436   0.00343   0.00000   0.01475   0.01475   2.10911
   A16        2.10693  -0.00263   0.00000  -0.01297  -0.01297   2.09396
   A17        2.08190  -0.00080   0.00000  -0.00178  -0.00178   2.08012
   A18        2.09442  -0.00027   0.00000  -0.00178  -0.00178   2.09263
   A19        2.10029  -0.00268   0.00000  -0.01630  -0.01630   2.08399
   A20        2.08848   0.00295   0.00000   0.01808   0.01808   2.10656
    D1       -3.14153   0.00000   0.00000   0.00003   0.00003  -3.14150
    D2        0.00007  -0.00000   0.00000  -0.00000  -0.00000   0.00007
    D3        0.00029  -0.00000   0.00000  -0.00015  -0.00015   0.00014
    D4        3.14154   0.00000   0.00000   0.00021   0.00021  -3.14144
    D5       -3.14143  -0.00000   0.00000  -0.00016  -0.00016  -3.14159
    D6        0.00000  -0.00000   0.00000  -0.00000  -0.00000   0.00000
    D7        0.00017  -0.00000   0.00000  -0.00013  -0.00013   0.00003
    D8        3.14159   0.00000   0.00000   0.00003   0.00003  -3.14156
    D9        3.14159  -0.00000   0.00000  -0.00001  -0.00001   3.14158
   D10        0.00002  -0.00000   0.00000  -0.00001  -0.00001   0.00001
   D11       -0.00000  -0.00000   0.00000  -0.00004  -0.00004  -0.00004
   D12       -3.14157  -0.00000   0.00000  -0.00004  -0.00004   3.14158
   D13        3.14142   0.00000   0.00000   0.00019   0.00019  -3.14157
   D14       -0.00034   0.00001   0.00000   0.00030   0.00031  -0.00003
   D15        0.00017  -0.00000   0.00000  -0.00016  -0.00016   0.00000
   D16        3.14159  -0.00000   0.00000  -0.00005  -0.00005   3.14154
   D17       -3.14126  -0.00001   0.00000  -0.00038  -0.00037   3.14156
   D18        0.00015  -0.00001   0.00000  -0.00016  -0.00015  -0.00000
   D19        0.00000   0.00000   0.00000  -0.00001  -0.00001  -0.00001
   D20        3.14140   0.00001   0.00000   0.00021   0.00020  -3.14158
   D21       -0.00025   0.00001   0.00000   0.00023   0.00024  -0.00001
   D22        3.14151   0.00000   0.00000   0.00012   0.00012  -3.14155
   D23        3.14151   0.00000   0.00000   0.00007   0.00007   3.14158
   D24        0.00008  -0.00000   0.00000  -0.00004  -0.00004   0.00004
   D25       -0.00008   0.00000   0.00000   0.00011   0.00011   0.00003
   D26       -3.14149  -0.00000   0.00000  -0.00010  -0.00010  -3.14159
   D27        3.14149   0.00000   0.00000   0.00011   0.00011  -3.14159
   D28        0.00008  -0.00000   0.00000  -0.00010  -0.00010  -0.00002
         Item               Value     Threshold  Converged?
 Maximum Force            0.014773     0.000450     NO 
 RMS     Force            0.004317     0.000300     NO 
 Maximum Displacement     0.099749     0.001800     NO 
 RMS     Displacement     0.033971     0.001200     NO 
 Predicted change in Energy=-1.790862D-03
 GradGradGradGradGradGradGradGradGradGradGradGradGradGradGradGradGradGrad

                          Input orientation:                          
 ---------------------------------------------------------------------
 Center     Atomic      Atomic             Coordinates (Angstroms)
 Number     Number       Type             X           Y           Z
 ---------------------------------------------------------------------
      1          8           0        2.765632   -0.024536    0.000000
      2          8           0       -2.765737    0.024453   -0.000080
      3          6           0        1.400200    0.012727   -0.000027
      4          6           0       -1.400169   -0.012744   -0.000074
      5          6           0        0.716842   -1.196315   -0.000013
      6          6           0       -0.675219   -1.206632   -0.000044
      7          6           0        0.675229    1.206601   -0.000033
      8          6           0       -0.716845    1.196283   -0.000075
      9          1           0        1.278954   -2.127327    0.000019
     10          1           0       -1.199702   -2.162368    0.000004
     11          1           0        1.199717    2.162333   -0.000029
     12          1           0       -1.278951    2.127305   -0.000084
     13          1           0        3.115068    0.867415    0.000073
     14          1           0       -3.114921   -0.867594    0.000063
 ---------------------------------------------------------------------
                    Distance matrix (angstroms):
                    1          2          3          4          5
     1  O    0.000000
     2  O    5.531586   0.000000
     3  C    1.365941   4.165953   0.000000
     4  C    4.165818   1.366075   2.800484   0.000000
     5  C    2.360213   3.690343   1.388799   2.425402   0.000000
     6  C    3.638242   2.426074   2.407114   1.396754   1.392099
     7  C    2.426001   3.638368   1.396752   2.407089   2.403276
     8  C    3.690264   2.360327   2.425424   1.388768   2.789262
     9  H    2.575256   4.581450   2.143486   3.413087   1.087544
    10  H    4.504908   2.689731   3.389768   2.158952   2.146252
    11  H    2.689700   4.505037   2.158934   3.389744   3.393182
    12  H    4.581383   2.575368   3.413105   2.143479   3.876808
    13  H    0.957957   5.940913   1.916054   4.600221   3.163932
    14  H    5.940677   0.957955   4.600139   1.916023   3.845837
                    6          7          8          9         10
     6  C    0.000000
     7  C    2.765394   0.000000
     8  C    2.403275   1.392113   0.000000
     9  H    2.160202   3.388150   3.876802   0.000000
    10  H    1.090190   3.855557   3.393182   2.478904   0.000000
    11  H    3.855555   1.090188   2.146268   4.290391   4.945730
    12  H    3.388159   2.160212   1.087550   4.964350   4.290405
    13  H    4.320641   2.463302   3.845999   3.512804   5.272269
    14  H    2.463147   4.320593   3.163914   4.570893   2.311818
                   11         12         13         14
    11  H    0.000000
    12  H    2.478916   0.000000
    13  H    2.312007   4.571074   0.000000
    14  H    5.272244   3.512863   6.467071   0.000000
 Stoichiometry    C6H6O2
 Framework group  C1[X(C6H6O2)]
 Deg. of freedom    36
 Full point group                 C1      NOp   1
 Largest Abelian subgroup         C1      NOp   1
 Largest concise Abelian subgroup C1      NOp   1
                         Standard orientation:                         
 ---------------------------------------------------------------------
 Center     Atomic      Atomic             Coordinates (Angstroms)
 Number     Number       Type             X           Y           Z
 ---------------------------------------------------------------------
      1          8           0        2.763737    0.105461   -0.000038
      2          8           0       -2.763828   -0.105428    0.000043
      3          6           0        1.399981    0.028243   -0.000011
      4          6           0       -1.399933   -0.028273    0.000036
      5          6           0        0.681523    1.216763   -0.000025
      6          6           0       -0.710243    1.186325    0.000007
      7          6           0        0.710270   -1.186341   -0.000005
      8          6           0       -0.681510   -1.216778    0.000037
      9          1           0        1.216140    2.163831   -0.000057
     10          1           0       -1.262479    2.126299   -0.000042
     11          1           0        1.262510   -2.126310   -0.000009
     12          1           0       -1.216121   -2.163856    0.000047
     13          1           0        3.139133   -0.775878   -0.000110
     14          1           0       -3.138975    0.776014   -0.000101
 ---------------------------------------------------------------------
 Rotational constants (GHZ):           5.6560227           1.4829294           1.1748899
 Standard basis: 6-311++G(d,p) (5D, 7F)
 There are   226 symmetry adapted cartesian basis functions of A   symmetry.
 There are   218 symmetry adapted basis functions of A   symmetry.
   218 basis functions,   342 primitive gaussians,   226 cartesian basis functions
    29 alpha electrons       29 beta electrons
       nuclear repulsion energy       344.9108939067 Hartrees.
 NAtoms=   14 NActive=   14 NUniq=   14 SFac= 1.00D+00 NAtFMM=   60 NAOKFM=F Big=F
 Integral buffers will be    131072 words long.
 Raffenetti 2 integral format.
 Two-electron integral symmetry is turned on.
 R6APFD:  NTU= -4 IXU= 1 FactS= 1.050
 Nuclear repulsion after empirical dispersion term =      344.9049748992 Hartrees.
 One-electron integrals computed using PRISM.
 NBasis=   218 RedAO= T EigKep=  1.11D-06  NBF=   218
 NBsUse=   218 1.00D-06 EigRej= -1.00D+00 NBFU=   218
 Initial guess from the checkpoint file:  "HQUE0055.chk"
 B after Tr=     0.000000    0.000000    0.000000
         Rot=    0.999974    0.000003   -0.000002    0.007203 Ang=   0.83 deg.
 ExpMin= 3.60D-02 ExpMax= 8.59D+03 ExpMxC= 1.30D+03 IAcc=3 IRadAn=         5 AccDes= 0.00D+00
 Harris functional with IExCor= 1009 and IRadAn=       5 diagonalized for initial guess.
 HarFok:  IExCor= 1009 AccDes= 0.00D+00 IRadAn=         5 IDoV= 1 UseB2=F ITyADJ=14
 ICtDFT=  3500011 ScaDFX=  1.000000  1.000000  1.000000  1.000000
 FoFCou: FMM=F IPFlag=           0 FMFlag=      100000 FMFlg1=           0
         NFxFlg=           0 DoJE=T BraDBF=F KetDBF=T FulRan=T
         wScrn=  0.000000 ICntrl=       500 IOpCl=  0 I1Cent=   200000004 NGrid=           0
         NMat0=    1 NMatS0=      1 NMatT0=    0 NMatD0=    1 NMtDS0=    0 NMtDT0=    0
 Petite list used in FoFCou.
 Requested convergence on RMS density matrix=1.00D-08 within  32 cycles.
 Requested convergence on MAX density matrix=1.00D-06.
 Requested convergence on             energy=1.00D-06.
 No special actions if energy rises.
 SCF Done:  E(RM08HX) =  -382.678583849     A.U. after   12 cycles
            NFock= 12  Conv=0.20D-08     -V/T= 2.0041
 QCSCF skips out because SCF is already converged.
 R6APFD:  NTU= -4 IXU= 1 FactS= 1.050
 Calling FoFJK, ICntrl=      2127 FMM=F ISym2X=0 I1Cent= 0 IOpClX= 0 NMat=1 NMatS=1 NMatT=0.
 ***** Axes restored to original set *****
 -------------------------------------------------------------------
 Center     Atomic                   Forces (Hartrees/Bohr)
 Number     Number              X              Y              Z
 -------------------------------------------------------------------
      1        8          -0.000621793   -0.000854978    0.000000033
      2        8           0.000726625    0.000845630   -0.000000239
      3        6          -0.000192177    0.003485186    0.000002432
      4        6           0.000098431   -0.003492590    0.000001546
      5        6          -0.002499225   -0.001189885   -0.000001203
      6        6           0.000463152   -0.000493516    0.000002451
      7        6          -0.000465925    0.000497000   -0.000003277
      8        6           0.002506637    0.001203771    0.000001080
      9        1           0.000390382    0.000271880   -0.000000021
     10        1          -0.000513352   -0.000116316   -0.000001748
     11        1           0.000512864    0.000118225    0.000000046
     12        1          -0.000389054   -0.000275733   -0.000000015
     13        1           0.000381301    0.000184903   -0.000000350
     14        1          -0.000397868   -0.000183578   -0.000000734
 -------------------------------------------------------------------
 Cartesian Forces:  Max     0.003492590 RMS     0.001028728

 GradGradGradGradGradGradGradGradGradGradGradGradGradGradGradGradGradGrad
 Berny optimization.
 Using GEDIIS/GDIIS optimizer.
 FormGI is forming the generalized inverse of G from B-inverse, IUseBI=4.
 Internal  Forces:  Max     0.002327874 RMS     0.000758896
 Search for a local minimum.
 Step number   2 out of a maximum of   72
 All quantities printed in internal units (Hartrees-Bohrs-Radians)
 Mixed Optimization -- En-DIIS/RFO-DIIS
 Update second derivatives using D2CorX and points    1    2
 DE= -1.88D-03 DEPred=-1.79D-03 R= 1.05D+00
 TightC=F SS=  1.41D+00  RLast= 1.12D-01 DXNew= 5.0454D-01 3.3519D-01
 Trust test= 1.05D+00 RLast= 1.12D-01 DXMaxT set to 3.35D-01
 ITU=  1  0
 Use linear search instead of GDIIS.
     Eigenvalues ---    0.02156   0.02156   0.02156   0.02157   0.02157
     Eigenvalues ---    0.02157   0.02158   0.02165   0.02167   0.02204
     Eigenvalues ---    0.02209   0.15317   0.16000   0.16000   0.16000
     Eigenvalues ---    0.16000   0.16013   0.21521   0.22974   0.23320
     Eigenvalues ---    0.25000   0.25444   0.35126   0.35192   0.35206
     Eigenvalues ---    0.35209   0.42062   0.42556   0.46143   0.46478
     Eigenvalues ---    0.46484   0.47708   0.52690   0.52769   0.52845
     Eigenvalues ---    0.55415
 RFO step:  Lambda=-1.23045510D-04 EMin= 2.15616039D-02
 Quartic linear search produced a step of  0.02189.
 Iteration  1 RMS(Cart)=  0.00532164 RMS(Int)=  0.00002089
 Iteration  2 RMS(Cart)=  0.00002833 RMS(Int)=  0.00000005
 Iteration  3 RMS(Cart)=  0.00000000 RMS(Int)=  0.00000005
 Variable       Old X    -DE/DX   Delta X   Delta X   Delta X     New X
                                 (Linear)    (Quad)   (Total)
    R1        2.58125  -0.00022   0.00021  -0.00032  -0.00011   2.58114
    R2        1.81028   0.00031  -0.00061   0.00029  -0.00032   1.80996
    R3        2.58151  -0.00031   0.00020  -0.00050  -0.00030   2.58120
    R4        1.81027   0.00032  -0.00061   0.00030  -0.00031   1.80996
    R5        2.62445   0.00232  -0.00025   0.00497   0.00472   2.62917
    R6        2.63948  -0.00122   0.00008  -0.00264  -0.00257   2.63691
    R7        2.63948  -0.00122   0.00008  -0.00265  -0.00258   2.63691
    R8        2.62439   0.00233  -0.00025   0.00499   0.00474   2.62913
    R9        2.63069  -0.00124  -0.00012  -0.00277  -0.00289   2.62780
   R10        2.05516  -0.00003   0.00004  -0.00007  -0.00003   2.05513
   R11        2.06016   0.00035   0.00014   0.00108   0.00122   2.06138
   R12        2.63071  -0.00124  -0.00012  -0.00278  -0.00290   2.62781
   R13        2.06016   0.00035   0.00014   0.00109   0.00123   2.06139
   R14        2.05517  -0.00003   0.00004  -0.00008  -0.00004   2.05513
    A1        1.91690   0.00052   0.00035   0.00345   0.00381   1.92071
    A2        1.91667   0.00055   0.00035   0.00364   0.00399   1.92066
    A3        2.05795  -0.00155  -0.00080  -0.00677  -0.00757   2.05039
    A4        2.14381   0.00072   0.00108   0.00333   0.00441   2.14821
    A5        2.08142   0.00084  -0.00028   0.00345   0.00316   2.08458
    A6        2.14374   0.00072   0.00108   0.00336   0.00444   2.14818
    A7        2.05799  -0.00156  -0.00080  -0.00680  -0.00760   2.05039
    A8        2.08146   0.00084  -0.00028   0.00344   0.00316   2.08461
    A9        2.09265   0.00072  -0.00004   0.00348   0.00344   2.09609
   A10        2.08397  -0.00085  -0.00036  -0.00498  -0.00534   2.07863
   A11        2.10657   0.00013   0.00039   0.00151   0.00190   2.10847
   A12        2.10910  -0.00155   0.00032  -0.00692  -0.00660   2.10250
   A13        2.09398   0.00037  -0.00028   0.00082   0.00054   2.09452
   A14        2.08011   0.00118  -0.00004   0.00610   0.00606   2.08617
   A15        2.10911  -0.00156   0.00032  -0.00692  -0.00660   2.10251
   A16        2.09396   0.00037  -0.00028   0.00083   0.00055   2.09451
   A17        2.08012   0.00118  -0.00004   0.00609   0.00605   2.08617
   A18        2.09263   0.00072  -0.00004   0.00348   0.00344   2.09607
   A19        2.08399  -0.00085  -0.00036  -0.00499  -0.00534   2.07865
   A20        2.10656   0.00013   0.00040   0.00151   0.00191   2.10846
    D1       -3.14150  -0.00000   0.00000  -0.00003  -0.00003  -3.14153
    D2        0.00007   0.00000  -0.00000   0.00000   0.00000   0.00007
    D3        0.00014  -0.00000  -0.00000  -0.00000  -0.00001   0.00013
    D4       -3.14144  -0.00000   0.00000  -0.00006  -0.00005  -3.14149
    D5       -3.14159   0.00000  -0.00000   0.00002   0.00001  -3.14157
    D6        0.00000   0.00000  -0.00000   0.00000   0.00000   0.00000
    D7        0.00003  -0.00000  -0.00000  -0.00002  -0.00002   0.00001
    D8       -3.14156  -0.00000   0.00000  -0.00003  -0.00003   3.14159
    D9        3.14158   0.00000  -0.00000   0.00001   0.00001   3.14159
   D10        0.00001  -0.00000  -0.00000  -0.00002  -0.00002  -0.00001
   D11       -0.00004   0.00000  -0.00000   0.00004   0.00004   0.00000
   D12        3.14158   0.00000  -0.00000   0.00002   0.00002  -3.14159
   D13       -3.14157  -0.00000   0.00000  -0.00004  -0.00004   3.14158
   D14       -0.00003   0.00000   0.00001   0.00000   0.00001  -0.00002
   D15        0.00000   0.00000  -0.00000   0.00001   0.00001   0.00001
   D16        3.14154   0.00000  -0.00000   0.00005   0.00005  -3.14159
   D17        3.14156   0.00000  -0.00001   0.00006   0.00006  -3.14157
   D18       -0.00000   0.00000  -0.00000   0.00003   0.00002   0.00002
   D19       -0.00001   0.00000  -0.00000   0.00001   0.00001   0.00000
   D20       -3.14158  -0.00000   0.00000  -0.00002  -0.00002   3.14159
   D21       -0.00001  -0.00000   0.00001  -0.00001  -0.00001  -0.00002
   D22       -3.14155  -0.00000   0.00000  -0.00005  -0.00005   3.14158
   D23        3.14158   0.00000   0.00000   0.00001   0.00001   3.14159
   D24        0.00004  -0.00000  -0.00000  -0.00004  -0.00004   0.00001
   D25        0.00003  -0.00000   0.00000  -0.00004  -0.00004  -0.00001
   D26       -3.14159  -0.00000  -0.00000  -0.00001  -0.00001   3.14159
   D27       -3.14159  -0.00000   0.00000  -0.00002  -0.00001   3.14158
   D28       -0.00002   0.00000  -0.00000   0.00002   0.00002  -0.00000
         Item               Value     Threshold  Converged?
 Maximum Force            0.002328     0.000450     NO 
 RMS     Force            0.000759     0.000300     NO 
 Maximum Displacement     0.012028     0.001800     NO 
 RMS     Displacement     0.005322     0.001200     NO 
 Predicted change in Energy=-6.307708D-05
 GradGradGradGradGradGradGradGradGradGradGradGradGradGradGradGradGradGrad

                          Input orientation:                          
 ---------------------------------------------------------------------
 Center     Atomic      Atomic             Coordinates (Angstroms)
 Number     Number       Type             X           Y           Z
 ---------------------------------------------------------------------
      1          8           0        2.762889   -0.027244   -0.000002
      2          8           0       -2.762896    0.027174   -0.000087
      3          6           0        1.397759    0.018017   -0.000009
      4          6           0       -1.397731   -0.018059   -0.000043
      5          6           0        0.715242   -1.194367    0.000006
      6          6           0       -0.675218   -1.211830   -0.000022
      7          6           0        0.675227    1.211780   -0.000039
      8          6           0       -0.715241    1.194320   -0.000050
      9          1           0        1.283892   -2.121379    0.000025
     10          1           0       -1.200884   -2.167655   -0.000018
     11          1           0        1.200894    2.167606   -0.000053
     12          1           0       -1.283885    2.121335   -0.000070
     13          1           0        3.120868    0.861130    0.000042
     14          1           0       -3.120814   -0.861229    0.000018
 ---------------------------------------------------------------------
                    Distance matrix (angstroms):
                    1          2          3          4          5
     1  O    0.000000
     2  O    5.526053   0.000000
     3  C    1.365881   4.160665   0.000000
     4  C    4.160630   1.365915   2.795722   0.000000
     5  C    2.356912   3.686409   1.391296   2.418337   0.000000
     6  C    3.636458   2.427659   2.410344   1.395390   1.390570
     7  C    2.427656   3.636480   1.395393   2.410324   2.406480
     8  C    3.686409   2.356930   2.418358   1.391278   2.784260
     9  H    2.563753   4.581788   2.142424   3.408087   1.087527
    10  H    4.504760   2.693911   3.395602   2.158591   2.149147
    11  H    2.693919   4.504784   2.158585   3.395582   3.396869
    12  H    4.581788   2.563783   3.408102   2.142421   3.871742
    13  H    0.957788   5.942572   1.918318   4.603336   3.164190
    14  H    5.942516   0.957792   4.603322   1.918320   3.850495
                    6          7          8          9         10
     6  C    0.000000
     7  C    2.774453   0.000000
     8  C    2.406483   1.390578   0.000000
     9  H    2.159952   3.388277   3.871743   0.000000
    10  H    1.090838   3.865279   3.396870   2.485207   0.000000
    11  H    3.865279   1.090838   2.149153   4.289788   4.956110
    12  H    3.388283   2.159957   1.087526   4.959244   4.289794
    13  H    4.325209   2.470650   3.850551   3.502833   5.277412
    14  H    2.470599   4.325194   3.164184   4.581421   2.322258
                   11         12         13         14
    11  H    0.000000
    12  H    2.485210   0.000000
    13  H    2.322322   4.581481   0.000000
    14  H    5.277405   3.502856   6.474960   0.000000
 Stoichiometry    C6H6O2
 Framework group  C1[X(C6H6O2)]
 Deg. of freedom    36
 Full point group                 C1      NOp   1
 Largest Abelian subgroup         C1      NOp   1
 Largest concise Abelian subgroup C1      NOp   1
                         Standard orientation:                         
 ---------------------------------------------------------------------
 Center     Atomic      Atomic             Coordinates (Angstroms)
 Number     Number       Type             X           Y           Z
 ---------------------------------------------------------------------
      1          8           0        2.760867    0.109022   -0.000027
      2          8           0       -2.760883   -0.109007    0.000057
      3          6           0        1.397676    0.023355   -0.000021
      4          6           0       -1.397656   -0.023368    0.000013
      5          6           0        0.679556    1.214996   -0.000035
      6          6           0       -0.710811    1.191276   -0.000008
      7          6           0        0.710812   -1.191281    0.000009
      8          6           0       -0.679564   -1.215004    0.000021
      9          1           0        1.220505    2.158441   -0.000054
     10          1           0       -1.264552    2.131116   -0.000011
     11          1           0        1.264553   -2.131121    0.000023
     12          1           0       -1.220507   -2.158452    0.000040
     13          1           0        3.144996   -0.768361   -0.000071
     14          1           0       -3.144952    0.768407   -0.000047
 ---------------------------------------------------------------------
 Rotational constants (GHZ):           5.6453689           1.4855720           1.1760863
 Standard basis: 6-311++G(d,p) (5D, 7F)
 There are   226 symmetry adapted cartesian basis functions of A   symmetry.
 There are   218 symmetry adapted basis functions of A   symmetry.
   218 basis functions,   342 primitive gaussians,   226 cartesian basis functions
    29 alpha electrons       29 beta electrons
       nuclear repulsion energy       344.9677201154 Hartrees.
 NAtoms=   14 NActive=   14 NUniq=   14 SFac= 1.00D+00 NAtFMM=   60 NAOKFM=F Big=F
 Integral buffers will be    131072 words long.
 Raffenetti 2 integral format.
 Two-electron integral symmetry is turned on.
 R6APFD:  NTU= -4 IXU= 1 FactS= 1.050
 Nuclear repulsion after empirical dispersion term =      344.9617763014 Hartrees.
 One-electron integrals computed using PRISM.
 NBasis=   218 RedAO= T EigKep=  1.11D-06  NBF=   218
 NBsUse=   218 1.00D-06 EigRej= -1.00D+00 NBFU=   218
 Initial guess from the checkpoint file:  "HQUE0055.chk"
 B after Tr=    -0.000000    0.000000   -0.000000
         Rot=    1.000000    0.000001    0.000000   -0.000173 Ang=   0.02 deg.
 Requested convergence on RMS density matrix=1.00D-08 within  32 cycles.
 Requested convergence on MAX density matrix=1.00D-06.
 Requested convergence on             energy=1.00D-06.
 No special actions if energy rises.
 SCF Done:  E(RM08HX) =  -382.678655081     A.U. after   10 cycles
            NFock= 10  Conv=0.39D-08     -V/T= 2.0041
 QCSCF skips out because SCF is already converged.
 R6APFD:  NTU= -4 IXU= 1 FactS= 1.050
 Calling FoFJK, ICntrl=      2127 FMM=F ISym2X=0 I1Cent= 0 IOpClX= 0 NMat=1 NMatS=1 NMatT=0.
 ***** Axes restored to original set *****
 -------------------------------------------------------------------
 Center     Atomic                   Forces (Hartrees/Bohr)
 Number     Number              X              Y              Z
 -------------------------------------------------------------------
      1        8          -0.000276651   -0.000547835    0.000000521
      2        8           0.000298238    0.000542791    0.000001281
      3        6          -0.000084196    0.000106770   -0.000000354
      4        6           0.000048916   -0.000113212   -0.000001820
      5        6          -0.000228150   -0.000053571   -0.000000720
      6        6          -0.000313477   -0.000363182    0.000001260
      7        6           0.000317461    0.000364541    0.000000458
      8        6           0.000240085    0.000058503    0.000000001
      9        1           0.000290134    0.000154738    0.000000169
     10        1           0.000011432    0.000207767   -0.000000202
     11        1          -0.000011862   -0.000207224    0.000000033
     12        1          -0.000290728   -0.000155253   -0.000000099
     13        1           0.000162334    0.000444906   -0.000000184
     14        1          -0.000163536   -0.000439739   -0.000000342
 -------------------------------------------------------------------
 Cartesian Forces:  Max     0.000547835 RMS     0.000224738

 GradGradGradGradGradGradGradGradGradGradGradGradGradGradGradGradGradGrad
 Berny optimization.
 Using GEDIIS/GDIIS optimizer.
 FormGI is forming the generalized inverse of G from B-inverse, IUseBI=4.
 Internal  Forces:  Max     0.000472237 RMS     0.000158179
 Search for a local minimum.
 Step number   3 out of a maximum of   72
 All quantities printed in internal units (Hartrees-Bohrs-Radians)
 Mixed Optimization -- En-DIIS/RFO-DIIS
 Swapping is turned off.
 Update second derivatives using D2CorX and points    1    2    3
 DE= -7.12D-05 DEPred=-6.31D-05 R= 1.13D+00
 TightC=F SS=  1.41D+00  RLast= 2.31D-02 DXNew= 5.6372D-01 6.9162D-02
 Trust test= 1.13D+00 RLast= 2.31D-02 DXMaxT set to 3.35D-01
 ITU=  1  1  0
     Eigenvalues ---    0.02156   0.02156   0.02156   0.02157   0.02157
     Eigenvalues ---    0.02157   0.02158   0.02165   0.02167   0.02204
     Eigenvalues ---    0.02209   0.13031   0.16000   0.16000   0.16000
     Eigenvalues ---    0.16008   0.16218   0.21060   0.22975   0.23285
     Eigenvalues ---    0.25000   0.25307   0.35192   0.35206   0.35207
     Eigenvalues ---    0.35459   0.42083   0.42536   0.46427   0.46483
     Eigenvalues ---    0.46573   0.49945   0.52708   0.52821   0.52845
     Eigenvalues ---    0.54549
 En-DIIS/RFO-DIIS/Sim-DIIS IScMMF=       -3 using points:     3    2
 RFO step:  Lambda=-7.87462541D-06.
 DidBck=F Rises=F RFO-DIIS coefs:    1.23568   -0.23568
 Iteration  1 RMS(Cart)=  0.00148577 RMS(Int)=  0.00000207
 Iteration  2 RMS(Cart)=  0.00000227 RMS(Int)=  0.00000002
 Iteration  3 RMS(Cart)=  0.00000000 RMS(Int)=  0.00000002
 Variable       Old X    -DE/DX   Delta X   Delta X   Delta X     New X
                                 (Linear)    (Quad)   (Total)
    R1        2.58114  -0.00011  -0.00003  -0.00016  -0.00018   2.58096
    R2        1.80996   0.00047  -0.00008   0.00091   0.00083   1.81079
    R3        2.58120  -0.00013  -0.00007  -0.00017  -0.00024   2.58097
    R4        1.80996   0.00047  -0.00007   0.00090   0.00082   1.81079
    R5        2.62917   0.00004   0.00111  -0.00092   0.00019   2.62936
    R6        2.63691  -0.00009  -0.00061   0.00030  -0.00031   2.63661
    R7        2.63691  -0.00009  -0.00061   0.00031  -0.00030   2.63661
    R8        2.62913   0.00005   0.00112  -0.00090   0.00022   2.62935
    R9        2.62780   0.00009  -0.00068   0.00076   0.00007   2.62787
   R10        2.05513   0.00002  -0.00001   0.00008   0.00008   2.05520
   R11        2.06138  -0.00019   0.00029  -0.00081  -0.00053   2.06086
   R12        2.62781   0.00008  -0.00068   0.00075   0.00007   2.62788
   R13        2.06139  -0.00019   0.00029  -0.00081  -0.00052   2.06086
   R14        2.05513   0.00002  -0.00001   0.00008   0.00007   2.05520
    A1        1.92071  -0.00003   0.00090  -0.00085   0.00005   1.92076
    A2        1.92066  -0.00002   0.00094  -0.00084   0.00010   1.92076
    A3        2.05039  -0.00023  -0.00178   0.00017  -0.00161   2.04877
    A4        2.14821   0.00002   0.00104  -0.00047   0.00057   2.14878
    A5        2.08458   0.00021   0.00074   0.00030   0.00105   2.08563
    A6        2.14818   0.00003   0.00105  -0.00045   0.00060   2.14878
    A7        2.05039  -0.00023  -0.00179   0.00017  -0.00162   2.04877
    A8        2.08461   0.00020   0.00074   0.00028   0.00102   2.08564
    A9        2.09609   0.00009   0.00081  -0.00019   0.00062   2.09671
   A10        2.07863  -0.00038  -0.00126  -0.00172  -0.00298   2.07565
   A11        2.10847   0.00029   0.00045   0.00191   0.00235   2.11082
   A12        2.10250  -0.00030  -0.00155  -0.00010  -0.00166   2.10084
   A13        2.09452   0.00005   0.00013  -0.00011   0.00001   2.09453
   A14        2.08617   0.00024   0.00143   0.00022   0.00165   2.08781
   A15        2.10251  -0.00030  -0.00155  -0.00012  -0.00167   2.10084
   A16        2.09451   0.00006   0.00013  -0.00010   0.00002   2.09453
   A17        2.08617   0.00024   0.00143   0.00022   0.00165   2.08781
   A18        2.09607   0.00009   0.00081  -0.00017   0.00064   2.09671
   A19        2.07865  -0.00038  -0.00126  -0.00173  -0.00299   2.07566
   A20        2.10846   0.00029   0.00045   0.00190   0.00235   2.11082
    D1       -3.14153  -0.00000  -0.00001   0.00000  -0.00001  -3.14154
    D2        0.00007  -0.00000   0.00000  -0.00001  -0.00001   0.00006
    D3        0.00013  -0.00000  -0.00000  -0.00003  -0.00003   0.00010
    D4       -3.14149  -0.00000  -0.00001   0.00001  -0.00001  -3.14149
    D5       -3.14157  -0.00000   0.00000  -0.00002  -0.00002  -3.14159
    D6        0.00000  -0.00000   0.00000  -0.00000  -0.00000   0.00000
    D7        0.00001  -0.00000  -0.00000  -0.00000  -0.00001   0.00000
    D8        3.14159   0.00000  -0.00001   0.00001   0.00001  -3.14159
    D9        3.14159   0.00000   0.00000   0.00000   0.00001  -3.14159
   D10       -0.00001   0.00000  -0.00000   0.00001   0.00001  -0.00000
   D11        0.00000  -0.00000   0.00001  -0.00001  -0.00000   0.00000
   D12       -3.14159  -0.00000   0.00000  -0.00001  -0.00000   3.14159
   D13        3.14158   0.00000  -0.00001   0.00002   0.00002  -3.14159
   D14       -0.00002   0.00000   0.00000   0.00002   0.00002   0.00000
   D15        0.00001  -0.00000   0.00000  -0.00001  -0.00001   0.00000
   D16       -3.14159  -0.00000   0.00001  -0.00002  -0.00000  -3.14159
   D17       -3.14157  -0.00000   0.00001  -0.00004  -0.00002  -3.14159
   D18        0.00002  -0.00000   0.00001  -0.00002  -0.00002   0.00000
   D19        0.00000   0.00000   0.00000  -0.00000   0.00000   0.00000
   D20        3.14159   0.00000  -0.00000   0.00001   0.00001  -3.14159
   D21       -0.00002   0.00000  -0.00000   0.00002   0.00001  -0.00000
   D22        3.14158   0.00000  -0.00001   0.00002   0.00001   3.14159
   D23        3.14159  -0.00000   0.00000  -0.00000  -0.00000   3.14159
   D24        0.00001  -0.00000  -0.00001  -0.00000  -0.00001  -0.00000
   D25       -0.00001   0.00000  -0.00001   0.00001   0.00000  -0.00000
   D26        3.14159  -0.00000  -0.00000   0.00000  -0.00000   3.14159
   D27        3.14158   0.00000  -0.00000   0.00001   0.00001   3.14159
   D28       -0.00000  -0.00000   0.00000  -0.00000  -0.00000  -0.00000
         Item               Value     Threshold  Converged?
 Maximum Force            0.000472     0.000450     NO 
 RMS     Force            0.000158     0.000300     YES
 Maximum Displacement     0.005180     0.001800     NO 
 RMS     Displacement     0.001486     0.001200     NO 
 Predicted change in Energy=-3.937483D-06
 GradGradGradGradGradGradGradGradGradGradGradGradGradGradGradGradGradGrad

                          Input orientation:                          
 ---------------------------------------------------------------------
 Center     Atomic      Atomic             Coordinates (Angstroms)
 Number     Number       Type             X           Y           Z
 ---------------------------------------------------------------------
      1          8           0        2.762102   -0.028449    0.000007
      2          8           0       -2.762090    0.028391   -0.000072
      3          6           0        1.397128    0.018602   -0.000012
      4          6           0       -1.397112   -0.018657   -0.000051
      5          6           0        0.714926   -1.194076   -0.000002
      6          6           0       -0.675557   -1.212825   -0.000024
      7          6           0        0.675571    1.212766   -0.000041
      8          6           0       -0.714915    1.194019   -0.000058
      9          1           0        1.286633   -2.119252    0.000023
     10          1           0       -1.201778   -2.168027   -0.000019
     11          1           0        1.201793    2.167969   -0.000049
     12          1           0       -1.286616    2.119198   -0.000076
     13          1           0        3.121457    0.859845    0.000048
     14          1           0       -3.121441   -0.859905    0.000025
 ---------------------------------------------------------------------
                    Distance matrix (angstroms):
                    1          2          3          4          5
     1  O    0.000000
     2  O    5.524485   0.000000
     3  C    1.365784   4.159230   0.000000
     4  C    4.159226   1.365789   2.794489   0.000000
     5  C    2.355762   3.685657   1.391398   2.417088   0.000000
     6  C    3.635966   2.427805   2.410900   1.395234   1.390609
     7  C    2.427802   3.635968   1.395231   2.410896   2.407163
     8  C    3.685658   2.355762   2.417092   1.391393   2.783423
     9  H    2.558997   4.583070   2.140708   3.408077   1.087567
    10  H    4.504458   2.694221   3.396420   2.158228   2.149962
    11  H    2.694219   4.504461   2.158224   3.396416   3.397114
    12  H    4.583067   2.559004   3.408077   2.140709   3.870911
    13  H    0.958229   5.942007   1.918593   4.603176   3.163856
    14  H    5.942003   0.958229   4.603178   1.918596   3.850894
                    6          7          8          9         10
     6  C    0.000000
     7  C    2.776515   0.000000
     8  C    2.407165   1.390613   0.000000
     9  H    2.161435   3.387586   3.870912   0.000000
    10  H    1.090560   3.867066   3.397115   2.488890   0.000000
    11  H    3.867067   1.090561   2.149965   4.288061   4.957622
    12  H    3.387590   2.161435   1.087566   4.958435   4.288065
    13  H    4.325884   2.471216   3.850899   3.498800   5.278103
    14  H    2.471215   4.325884   3.163854   4.584439   2.322992
                   11         12         13         14
    11  H    0.000000
    12  H    2.488887   0.000000
    13  H    2.322993   4.584439   0.000000
    14  H    5.278103   3.498805   6.475440   0.000000
 Stoichiometry    C6H6O2
 Framework group  C1[X(C6H6O2)]
 Deg. of freedom    36
 Full point group                 C1      NOp   1
 Largest Abelian subgroup         C1      NOp   1
 Largest concise Abelian subgroup C1      NOp   1
                         Standard orientation:                         
 ---------------------------------------------------------------------
 Center     Atomic      Atomic             Coordinates (Angstroms)
 Number     Number       Type             X           Y           Z
 ---------------------------------------------------------------------
      1          8           0        2.760068    0.109565   -0.000036
      2          8           0       -2.760070   -0.109564    0.000043
      3          6           0        1.397066    0.022428   -0.000017
      4          6           0       -1.397063   -0.022430    0.000022
      5          6           0        0.679527    1.214538   -0.000027
      6          6           0       -0.710907    1.192423   -0.000005
      7          6           0        0.710908   -1.192421    0.000012
      8          6           0       -0.679529   -1.214538    0.000029
      9          1           0        1.223803    2.156113   -0.000052
     10          1           0       -1.264967    2.131751   -0.000011
     11          1           0        1.264968   -2.131750    0.000019
     12          1           0       -1.223800   -2.156116    0.000047
     13          1           0        3.145367   -0.767787   -0.000077
     14          1           0       -3.145366    0.767789   -0.000054
 ---------------------------------------------------------------------
 Rotational constants (GHZ):           5.6438015           1.4862602           1.1764495
 Standard basis: 6-311++G(d,p) (5D, 7F)
 There are   226 symmetry adapted cartesian basis functions of A   symmetry.
 There are   218 symmetry adapted basis functions of A   symmetry.
   218 basis functions,   342 primitive gaussians,   226 cartesian basis functions
    29 alpha electrons       29 beta electrons
       nuclear repulsion energy       344.9910987581 Hartrees.
 NAtoms=   14 NActive=   14 NUniq=   14 SFac= 1.00D+00 NAtFMM=   60 NAOKFM=F Big=F
 Integral buffers will be    131072 words long.
 Raffenetti 2 integral format.
 Two-electron integral symmetry is turned on.
 R6APFD:  NTU= -4 IXU= 1 FactS= 1.050
 Nuclear repulsion after empirical dispersion term =      344.9851508480 Hartrees.
 One-electron integrals computed using PRISM.
 NBasis=   218 RedAO= T EigKep=  1.11D-06  NBF=   218
 NBsUse=   218 1.00D-06 EigRej= -1.00D+00 NBFU=   218
 Initial guess from the checkpoint file:  "HQUE0055.chk"
 B after Tr=    -0.000000    0.000000    0.000000
         Rot=    1.000000   -0.000000    0.000000    0.000036 Ang=  -0.00 deg.
 Requested convergence on RMS density matrix=1.00D-08 within  32 cycles.
 Requested convergence on MAX density matrix=1.00D-06.
 Requested convergence on             energy=1.00D-06.
 No special actions if energy rises.
 SCF Done:  E(RM08HX) =  -382.678659430     A.U. after    9 cycles
            NFock=  9  Conv=0.29D-08     -V/T= 2.0041
 QCSCF skips out because SCF is already converged.
 R6APFD:  NTU= -4 IXU= 1 FactS= 1.050
 Calling FoFJK, ICntrl=      2127 FMM=F ISym2X=0 I1Cent= 0 IOpClX= 0 NMat=1 NMatS=1 NMatT=0.
 ***** Axes restored to original set *****
 -------------------------------------------------------------------
 Center     Atomic                   Forces (Hartrees/Bohr)
 Number     Number              X              Y              Z
 -------------------------------------------------------------------
      1        8           0.000059817    0.000030884    0.000000185
      2        8          -0.000056815   -0.000030737    0.000000286
      3        6          -0.000084997   -0.000158657    0.000000137
      4        6           0.000079645    0.000155667    0.000000411
      5        6          -0.000076095   -0.000020386   -0.000000040
      6        6          -0.000045283   -0.000100734   -0.000000051
      7        6           0.000044535    0.000103066   -0.000000120
      8        6           0.000080398    0.000021123   -0.000000045
      9        1           0.000065831    0.000029554   -0.000000018
     10        1           0.000020339    0.000019963   -0.000000035
     11        1          -0.000020707   -0.000020217   -0.000000004
     12        1          -0.000066628   -0.000029371   -0.000000074
     13        1           0.000003432    0.000015067   -0.000000218
     14        1          -0.000003472   -0.000015222   -0.000000416
 -------------------------------------------------------------------
 Cartesian Forces:  Max     0.000158657 RMS     0.000053949

 GradGradGradGradGradGradGradGradGradGradGradGradGradGradGradGradGradGrad
 Berny optimization.
 Using GEDIIS/GDIIS optimizer.
 FormGI is forming the generalized inverse of G from B-inverse, IUseBI=4.
 Internal  Forces:  Max     0.000083514 RMS     0.000032424
 Search for a local minimum.
 Step number   4 out of a maximum of   72
 All quantities printed in internal units (Hartrees-Bohrs-Radians)
 Mixed Optimization -- En-DIIS/RFO-DIIS
 Swapping is turned off.
 Update second derivatives using D2CorX and points    1    2    3    4
 DE= -4.35D-06 DEPred=-3.94D-06 R= 1.10D+00
 TightC=F SS=  1.41D+00  RLast= 7.14D-03 DXNew= 5.6372D-01 2.1431D-02
 Trust test= 1.10D+00 RLast= 7.14D-03 DXMaxT set to 3.35D-01
 ITU=  1  1  1  0
     Eigenvalues ---    0.02156   0.02156   0.02156   0.02157   0.02157
     Eigenvalues ---    0.02157   0.02158   0.02165   0.02167   0.02204
     Eigenvalues ---    0.02209   0.11362   0.16000   0.16000   0.16000
     Eigenvalues ---    0.16071   0.16080   0.21929   0.22976   0.23345
     Eigenvalues ---    0.24882   0.25000   0.35192   0.35206   0.35208
     Eigenvalues ---    0.35297   0.42088   0.42532   0.46442   0.46483
     Eigenvalues ---    0.46837   0.50531   0.52591   0.52727   0.52845
     Eigenvalues ---    0.55574
 En-DIIS/RFO-DIIS/Sim-DIIS IScMMF=       -3 using points:     4    3    2
 RFO step:  Lambda=-3.23605827D-07.
 DidBck=F Rises=F RFO-DIIS coefs:    1.22828   -0.25812    0.02983
 Iteration  1 RMS(Cart)=  0.00022003 RMS(Int)=  0.00000007
 Iteration  2 RMS(Cart)=  0.00000008 RMS(Int)=  0.00000000
 Variable       Old X    -DE/DX   Delta X   Delta X   Delta X     New X
                                 (Linear)    (Quad)   (Total)
    R1        2.58096   0.00006  -0.00004   0.00018   0.00014   2.58110
    R2        1.81079   0.00001   0.00020  -0.00017   0.00003   1.81082
    R3        2.58097   0.00006  -0.00005   0.00018   0.00013   2.58110
    R4        1.81079   0.00001   0.00020  -0.00016   0.00004   1.81082
    R5        2.62936  -0.00001  -0.00010   0.00009  -0.00001   2.62935
    R6        2.63661   0.00007   0.00001   0.00014   0.00015   2.63675
    R7        2.63661   0.00006   0.00001   0.00013   0.00014   2.63675
    R8        2.62935  -0.00001  -0.00009   0.00009  -0.00000   2.62935
    R9        2.62787  -0.00000   0.00010  -0.00013  -0.00003   2.62784
   R10        2.05520   0.00001   0.00002   0.00002   0.00003   2.05524
   R11        2.06086  -0.00003  -0.00016   0.00006  -0.00009   2.06077
   R12        2.62788  -0.00000   0.00010  -0.00013  -0.00003   2.62785
   R13        2.06086  -0.00003  -0.00016   0.00006  -0.00009   2.06077
   R14        2.05520   0.00001   0.00002   0.00002   0.00004   2.05524
    A1        1.92076  -0.00000  -0.00010   0.00011   0.00001   1.92077
    A2        1.92076  -0.00000  -0.00010   0.00011   0.00001   1.92077
    A3        2.04877   0.00004  -0.00014   0.00021   0.00007   2.04884
    A4        2.14878  -0.00008  -0.00000  -0.00034  -0.00034   2.14844
    A5        2.08563   0.00005   0.00014   0.00013   0.00027   2.08590
    A6        2.14878  -0.00008   0.00000  -0.00034  -0.00033   2.14844
    A7        2.04877   0.00004  -0.00014   0.00021   0.00007   2.04884
    A8        2.08564   0.00005   0.00014   0.00013   0.00026   2.08590
    A9        2.09671  -0.00001   0.00004  -0.00004  -0.00000   2.09671
   A10        2.07565  -0.00007  -0.00052  -0.00010  -0.00062   2.07503
   A11        2.11082   0.00008   0.00048   0.00014   0.00063   2.11145
   A12        2.10084  -0.00004  -0.00018  -0.00008  -0.00026   2.10058
   A13        2.09453   0.00003  -0.00001   0.00016   0.00015   2.09468
   A14        2.08781   0.00001   0.00019  -0.00008   0.00012   2.08793
   A15        2.10084  -0.00004  -0.00018  -0.00008  -0.00027   2.10058
   A16        2.09453   0.00003  -0.00001   0.00016   0.00015   2.09468
   A17        2.08781   0.00001   0.00020  -0.00008   0.00012   2.08793
   A18        2.09671  -0.00001   0.00004  -0.00004   0.00000   2.09671
   A19        2.07566  -0.00007  -0.00052  -0.00011  -0.00063   2.07503
   A20        2.11082   0.00008   0.00048   0.00015   0.00063   2.11145
    D1       -3.14154  -0.00000  -0.00000  -0.00001  -0.00001  -3.14155
    D2        0.00006  -0.00000  -0.00000  -0.00000  -0.00001   0.00005
    D3        0.00010  -0.00000  -0.00001  -0.00001  -0.00001   0.00008
    D4       -3.14149  -0.00000   0.00000  -0.00002  -0.00002  -3.14152
    D5       -3.14159   0.00000  -0.00000   0.00001   0.00000  -3.14159
    D6        0.00000   0.00000  -0.00000   0.00000   0.00000   0.00000
    D7        0.00000   0.00000  -0.00000   0.00000  -0.00000   0.00000
    D8       -3.14159  -0.00000   0.00000  -0.00001  -0.00000   3.14159
    D9       -3.14159  -0.00000   0.00000  -0.00000  -0.00000   3.14159
   D10       -0.00000  -0.00000   0.00000  -0.00000  -0.00000  -0.00000
   D11        0.00000   0.00000  -0.00000   0.00000   0.00000   0.00000
   D12        3.14159   0.00000  -0.00000   0.00000   0.00000  -3.14159
   D13       -3.14159  -0.00000   0.00000  -0.00001  -0.00001   3.14159
   D14        0.00000  -0.00000   0.00001  -0.00001  -0.00000  -0.00000
   D15        0.00000   0.00000  -0.00000   0.00001   0.00000   0.00000
   D16       -3.14159   0.00000  -0.00000   0.00001   0.00000  -3.14159
   D17       -3.14159   0.00000  -0.00001   0.00002   0.00001  -3.14158
   D18        0.00000   0.00000  -0.00000   0.00001   0.00000   0.00001
   D19        0.00000  -0.00000  -0.00000  -0.00000  -0.00000   0.00000
   D20       -3.14159  -0.00000   0.00000  -0.00001  -0.00001   3.14159
   D21       -0.00000  -0.00000   0.00000  -0.00001  -0.00000  -0.00001
   D22        3.14159  -0.00000   0.00000  -0.00001  -0.00000   3.14159
   D23        3.14159   0.00000  -0.00000   0.00000   0.00000   3.14159
   D24       -0.00000  -0.00000  -0.00000  -0.00000  -0.00000  -0.00000
   D25       -0.00000  -0.00000   0.00000  -0.00001  -0.00000  -0.00001
   D26        3.14159   0.00000  -0.00000   0.00000   0.00000   3.14159
   D27        3.14159  -0.00000   0.00000  -0.00000  -0.00000   3.14159
   D28       -0.00000   0.00000  -0.00000   0.00000   0.00000  -0.00000
         Item               Value     Threshold  Converged?
 Maximum Force            0.000084     0.000450     YES
 RMS     Force            0.000032     0.000300     YES
 Maximum Displacement     0.000814     0.001800     YES
 RMS     Displacement     0.000220     0.001200     YES
 Predicted change in Energy=-1.610881D-07
 Optimization completed.
    -- Stationary point found.
                           ----------------------------
                           !   Optimized Parameters   !
                           ! (Angstroms and Degrees)  !
 --------------------------                            --------------------------
 ! Name  Definition              Value          Derivative Info.                !
 --------------------------------------------------------------------------------
 ! R1    R(1,3)                  1.3658         -DE/DX =    0.0001              !
[...]
 ! A16   A(3,7,11)             120.0077         -DE/DX =    0.0                 !
 ! A17   A(8,7,11)             119.6228         -DE/DX =    0.0                 !
 ! A18   A(4,8,7)              120.1326         -DE/DX =    0.0                 !
 ! A19   A(4,8,12)             118.9264         -DE/DX =   -0.0001              !
 ! A20   A(7,8,12)             120.941          -DE/DX =    0.0001              !
 ! D1    D(13,1,3,5)          -179.9968         -DE/DX =    0.0                 !
 ! D2    D(13,1,3,7)             0.0032         -DE/DX =    0.0                 !
 ! D3    D(14,2,4,6)             0.0057         -DE/DX =    0.0                 !
 ! D4    D(14,2,4,8)          -179.9943         -DE/DX =    0.0                 !
 ! D5    D(1,3,5,6)           -179.9998         -DE/DX =    0.0                 !
 ! D6    D(1,3,5,9)              0.0001         -DE/DX =    0.0                 !
 ! D7    D(7,3,5,6)              0.0001         -DE/DX =    0.0                 !
 ! D8    D(7,3,5,9)           -179.9999         -DE/DX =    0.0                 !
 ! D9    D(1,3,7,8)            180.0001         -DE/DX =    0.0                 !
 ! D10   D(1,3,7,11)             0.0            -DE/DX =    0.0                 !
 ! D11   D(5,3,7,8)              0.0001         -DE/DX =    0.0                 !
 ! D12   D(5,3,7,11)          -180.0            -DE/DX =    0.0                 !
 ! D13   D(2,4,6,5)           -179.9999         -DE/DX =    0.0                 !
 ! D14   D(2,4,6,10)             0.0001         -DE/DX =    0.0                 !
 ! D15   D(8,4,6,5)              0.0001         -DE/DX =    0.0                 !
 ! D16   D(8,4,6,10)           180.0            -DE/DX =    0.0                 !
 ! D17   D(2,4,8,7)            180.0001         -DE/DX =    0.0                 !
 ! D18   D(2,4,8,12)             0.0002         -DE/DX =    0.0                 !
 ! D19   D(6,4,8,7)              0.0002         -DE/DX =    0.0                 !
 ! D20   D(6,4,8,12)           180.0002         -DE/DX =    0.0                 !
 ! D21   D(3,5,6,4)             -0.0002         -DE/DX =    0.0                 !
 ! D22   D(3,5,6,10)          -180.0002         -DE/DX =    0.0                 !
 ! D23   D(9,5,6,4)            179.9998         -DE/DX =    0.0                 !
 ! D24   D(9,5,6,10)            -0.0002         -DE/DX =    0.0                 !
 ! D25   D(3,7,8,4)             -0.0002         -DE/DX =    0.0                 !
 ! D26   D(3,7,8,12)          -180.0003         -DE/DX =    0.0                 !
 ! D27   D(11,7,8,4)           179.9999         -DE/DX =    0.0                 !
 ! D28   D(11,7,8,12)           -0.0002         -DE/DX =    0.0                 !
 --------------------------------------------------------------------------------
 GradGradGradGradGradGradGradGradGradGradGradGradGradGradGradGradGradGrad


 ----------------------------------------------------------------------

 Electric dipole moment (input orientation):
 (Debye = 10**-18 statcoulomb cm , SI units = C m)
                  (au)            (Debye)         (10**-30 SI)
   Tot        0.923141D-04      0.234639D-03      0.782671D-03
   x          0.161736D-04      0.411092D-04      0.137126D-03
   y          0.000000D+00      0.000000D+00      0.000000D+00
   z          0.908862D-04      0.231010D-03      0.770565D-03

 Dipole polarizability, Alpha (input orientation).
 (esu units = cm**3 , SI units = C**2 m**2 J**-1)
 Alpha(0;0):
               (au)            (10**-24 esu)      (10**-40 SI)
   iso        0.747771D+02      0.110808D+02      0.123291D+02
   aniso      0.472703D+02      0.700473D+01      0.779381D+01
   xx         0.968933D+02      0.143581D+02      0.159755D+02
   yx         0.243373D+01      0.360641D+00      0.401267D+00
   yy         0.830077D+02      0.123005D+02      0.136861D+02
   zx         0.639981D-03      0.948354D-04      0.105519D-03
   zy        -0.603166D-03     -0.893800D-04     -0.994487D-04
   zz         0.444302D+02      0.658387D+01      0.732555D+01

 ----------------------------------------------------------------------

 Dipole orientation:
     8          5.13881330         -0.04539029          0.91532594
     8         -5.13877061          0.04527855         -0.91544008
     6          2.59942331          0.03937616          0.46183048
     6         -2.59937206         -0.03948143         -0.46194113
     6          1.32650869         -2.25393774          0.27760215
     6         -1.26054020         -2.29357181         -0.18208644
     6          1.26058791          2.29345825          0.18197266
     6         -1.32646870          2.25382851         -0.27770870
     1          2.38736416         -4.00024660          0.49862422
     1         -2.24247011         -4.09993616         -0.32351780
     1          2.24251944          4.09982385          0.32339955
     1         -2.38731509          4.00014239         -0.49871536
     1          5.81006958          1.63405302          1.00389966
     1         -5.81006547         -1.63416245         -1.00375638

 Electric dipole moment (dipole orientation):
 (Debye = 10**-18 statcoulomb cm , SI units = C m)
                  (au)            (Debye)         (10**-30 SI)
   Tot        0.923293D-04      0.234678D-03      0.782800D-03
   x          0.000000D+00      0.000000D+00      0.000000D+00
   y          0.000000D+00      0.000000D+00      0.000000D+00
   z          0.923293D-04      0.234678D-03      0.782800D-03

 Dipole polarizability, Alpha (dipole orientation).
 (esu units = cm**3 , SI units = C**2 m**2 J**-1)
 Alpha(0;0):
               (au)            (10**-24 esu)      (10**-40 SI)
   iso        0.747771D+02      0.110808D+02      0.123291D+02
   aniso      0.472703D+02      0.700473D+01      0.779381D+01
   xx         0.952909D+02      0.141207D+02      0.157113D+02
   yx         0.254034D+01      0.376439D+00      0.418845D+00
   yy         0.830028D+02      0.122997D+02      0.136853D+02
   zx         0.900471D+01      0.133436D+01      0.148468D+01
   zy        -0.259571D+00     -0.384645D-01     -0.427975D-01
   zz         0.460375D+02      0.682206D+01      0.759056D+01

 ----------------------------------------------------------------------
 1\1\GINC-PITOMBA\Freq\RM08HX\6-311++G(d,p)\C6H6O2\VALTER\20-Sep-2025\0
 \\#N Geom=AllCheck Guess=TCheck SCRF=Check GenChk RM08HX/6-311++G(d,p)
  Freq\\HQUE0055\\0,1\O,2.7621019684,-0.0284486936,0.00000726\O,-2.7620
 904026,0.0283907051,-0.0000717431\C,1.3971284231,0.0186023464,-0.00001
 1951\C,-1.3971120673,-0.0186569378,-0.0000514496\C,0.7149258724,-1.194
 0757424,-0.0000019945\C,-0.6755572235,-1.2128246251,-0.0000238752\C,0.
 6755714352,1.2127656755,-0.0000409068\C,-0.7149150079,1.1940190058,-0.
 0000582682\H,1.286633401,-2.1192523139,0.0000228103\H,-1.2017784931,-2
 .1680271568,-0.000018583\H,1.2017931393,2.1679689152,-0.0000486643\H,-
 1.2866163744,2.1191980947,-0.0000758384\H,3.1214567253,0.8598454612,0.
 000048103\H,-3.1214413958,-0.8599047344,0.0000251007\\Version=ES64L-G1
 6RevB.01\State=1-A\HF=-382.6786594\RMSD=1.372e-09\RMSF=5.395e-05\ZeroP
 oint=0.1088919\Thermal=0.1158069\Dipole=0.0000162,-0.0000017,0.0000909
 \DipoleDeriv=-1.6524378,-0.0709044,-0.0000191,-0.0623054,-0.1900139,0.
 0000081,-0.0000066,0.0000104,-0.3846631,-1.6524293,-0.0709115,-0.00001
 15,-0.0623098,-0.1900163,-0.0000255,-0.000034,-0.0000287,-0.3846657,1.
 4997453,0.033949,0.0000201,0.0938433,-0.1482892,0.0000012,0.0000205,-0
 .0000011,0.0580569,1.4997354,0.0339565,0.0000176,0.0938511,-0.1482864,
 0.0000111,0.0000144,0.0000085,0.0580568,-0.1442585,0.2155619,-0.000004
 ,-0.2593627,0.0916959,-0.0000087,-0.0000023,0.0000009,-0.1584307,-0.12
 74843,-0.2225815,0.0000065,0.2342558,0.1025854,0.0000009,-0.0000042,-0
 .0000092,-0.1628214,-0.1274839,-0.2225793,0.0000035,0.2342631,0.102584
 7,-0.0000018,-0.0000026,-0.000006,-0.1628236,-0.1442599,0.2155605,-0.0
 000023,-0.2593651,0.0916906,-0.0000069,0.0000149,-0.0000003,-0.158431,
 0.0417147,0.0519926,-0.0000024,0.056476,0.0045548,0.0000037,-0.0000021
 ,0.0000044,0.1528177,-0.0036735,-0.0836323,0.,-0.0844362,-0.0237752,0.
 0000013,-0.0000007,0.0000008,0.1514508,-0.0036754,-0.0836338,-0.000001
 3,-0.0844374,-0.0237775,0.0000016,-0.0000013,0.0000026,0.1514507,0.041
 7163,0.0519907,-0.0000024,0.0564756,0.0045565,0.0000024,-0.0000023,0.0
 000018,0.1528184,0.3863963,0.0756157,0.0000039,0.0215254,0.1632456,-0.
 0000052,-0.0000073,-0.0000067,0.3435924,0.3863945,0.0756158,-0.0000085
 ,0.0215262,0.163245,0.0000178,0.0000136,0.0000225,0.343592\Polar=96.89
 33169,2.4337266,83.0077122,0.00064,-0.0006032,44.4301742\Quadrupole=-0
 .0603288,4.5732727,-4.5129439,7.789275,-0.0002337,-0.000084\PG=C01 [X(
 C6H6O2)]\NImag=0\\0.50380491,0.15023704,0.59389349,0.00001504,0.000021
 98,0.02331091,-0.01189168,-0.00038609,0.,0.50379295,-0.00038616,-0.000
 12530,-0.00000004,0.15023727,0.59389602,-0.00000043,-0.00000003,-0.000
 46023,-0.00001442,-0.00005759,0.02331145,-0.30658307,-0.01472737,-0.00
 000555,0.00633642,0.00035698,0.00000023,0.70174869,0.03616708,-0.10648
 077,-0.00000074,0.00044653,0.00813705,0.00000036,0.01309196,0.71095295
 ,-0.00000323,-0.00000146,-0.03785103,0.00000010,-0.00000008,-0.0013843
 5,0.00000932,-0.00000621,0.13602978,0.00633633,0.00035695,0.00000003,-
 0.30657306,-0.01472816,-0.00000024,-0.00243583,-0.00002504,0.00000008,
 0.70173829,0.00044672,0.00813713,-0.00000042,0.03616616,-0.10648106,0.
 00000556,-0.00002499,-0.10304476,0.00000176,0.01310087,0.71095823,0.00
 000013,-0.00000016,-0.00138434,-0.00000667,0.00000494,-0.03785173,-0.0
 0000031,0.00000138,0.00305256,0.00000554,-0.00001198,0.13603012,-0.039
 47223,-0.05297103,-0.00000005,-0.00006849,-0.00689787,-0.00000048,-0.1
 6270082,-0.03325270,-0.00000125,-0.02530238,0.09232235,-0.00000118,0.7
 2461075,-0.01205368,0.00260661,0.00000023,-0.00049471,-0.00893955,-0.0
 0000020,-0.12032610,-0.29507231,0.00000217,0.03071857,0.04978756,-0.00
 000047,-0.02984859,0.72399074,-0.00000070,-0.00000064,0.00623165,-0.00
 000017,0.00000045,0.00763908,0.00000006,0.00000335,-0.05631554,-0.0000
 0089,0.00000046,-0.00664535,0.00001080,-0.00001098,0.11336392,0.001483
 17,0.00633208,-0.00000052,-0.05132800,0.05240444,-0.00000104,-0.024172
 41,-0.09302923,0.00000115,-0.17417026,0.02922879,-0.00000181,-0.357363
 73,0.03309974,-0.00000546,0.72383705,0.00168701,-0.00948308,0.00000009
 ,0.01118824,-0.00144936,0.00000031,-0.03048047,0.04586460,-0.00000148,
 0.12056200,-0.28125023,0.00000543,-0.03790329,-0.12667251,0.00000118,0
 .02278305,0.71780624,-0.00000034,0.00000036,0.00484192,-0.00000113,0.0
 0000062,0.00599027,0.00000055,-0.00000224,-0.00532501,-0.00000286,0.00
 000400,-0.05255833,-0.00000507,0.00000195,-0.04276130,0.00000919,-0.00
 000842,0.11064418,-0.05132847,0.05240502,-0.00000196,0.00148317,0.0063
 3203,0.00000049,-0.17417277,0.02923197,-0.00000233,-0.02417290,-0.0930
 2971,0.00000101,0.06876759,0.03166151,0.00000079,-0.05964563,0.0313239
 5,-0.00000147,0.72383170,0.01118874,-0.00144942,0.00000028,0.00168707,
 -0.00948300,0.00000048,0.12056520,-0.28125469,0.00000457,-0.03048059,0
 .04586448,-0.00000074,-0.02638706,-0.05402832,0.00000070,0.03132375,-0
 .02508414,0.00000082,0.02277787,0.71780960,-0.00000086,0.00000096,0.00
 599046,0.00000026,0.00000023,0.00484200,-0.00000398,0.00000355,-0.0525
 5812,-0.00000017,-0.00000192,-0.00532481,0.00000144,0.00000106,-0.0023
 0840,-0.00000124,0.00000093,0.00563427,0.00000827,-0.00000849,0.110644
 59,-0.00006845,-0.00689796,0.00000032,-0.03947210,-0.05297098,0.000000
 54,-0.02530215,0.09232192,-0.00000195,-0.16270272,-0.03325781,-0.00000
 070,-0.05618917,-0.03468712,-0.00000039,0.06876740,-0.02638712,0.00000
 129,-0.35735544,-0.03790267,-0.00000366,0.72460330,-0.00049491,-0.0089
 3954,0.00000051,-0.01205372,0.00260663,-0.00000073,0.03071846,0.049787
 53,-0.00000030,-0.12033110,-0.29508223,0.00000147,-0.03468733,-0.02604
 501,-0.00000039,0.03166159,-0.05402825,0.00000141,0.03310043,-0.126672
 62,0.00000133,-0.02984429,0.72400399,0.00000004,0.00000001,0.00763921,
 0.00000004,-0.00000079,0.00623170,-0.00000054,0.00000026,-0.00664553,0
 .00000045,0.00000288,-0.05631487,-0.00000040,0.00000048,0.00785888,0.0
 0000013,0.,-0.00230845,-0.00000518,0.00000009,-0.04276191,0.00000784,-
 0.00000733,0.11336360,0.00094597,0.00102623,0.00000007,-0.00128409,0.0
 0144347,0.,0.01133122,-0.01301722,0.00000034,-0.00461938,-0.00188275,-
 0.00000019,-0.13301258,0.12625510,-0.00000375,-0.00999216,0.02675282,-
 0.00000055,-0.00100596,-0.00306730,-0.00000005,-0.00081054,-0.00072956
 ,0.00000003,0.13696890,0.00065815,0.00152947,-0.00000006,-0.00000706,0
 .00006660,0.,0.01868817,-0.01731165,0.00000064,-0.00137572,0.00232182,
 0.00000008,0.12454974,-0.26586729,0.00000594,-0.00236041,0.00487620,-0
 .00000011,-0.00353787,-0.00408438,0.00000011,-0.00155920,0.00016890,-0
 .00000006,-0.13615639,0.27844630,0.00000011,-0.00000006,-0.00333836,-0
 .00000006,-0.00000001,0.00030155,-0.00000012,0.00000028,0.00454716,-0.
 00000010,0.00000008,0.00781472,-0.00000381,0.00000592,-0.03312007,-0.0
 0000014,0.00000030,0.00138619,-0.00000002,0.00000006,0.00601623,0.,-0.
 00000004,-0.00178258,0.00000406,-0.00000647,0.02357120,-0.00098297,-0.
 00176543,-0.00000005,0.00322763,0.00038576,-0.00000003,-0.00459127,0.0
 0157231,-0.00000022,0.00853829,0.01346197,-0.00000014,-0.00965583,-0.0
 2890612,0.00000027,-0.11939633,-0.11357180,0.00000032,-0.00112903,0.00
 072875,-0.00000001,-0.00063858,0.00343194,-0.00000015,0.00065521,0.000
 37928,0.00000009,0.12446257,-0.00028018,-0.00015741,0.,-0.00026525,0.0
 0236153,-0.00000007,0.00107441,0.00259154,0.00000009,-0.01843746,-0.01
 739309,0.,0.00111486,0.00279347,-0.00000002,-0.11398450,-0.27035647,0.
 00000157,0.00147636,0.00031183,-0.00000002,0.00397299,-0.00390352,0.00
 000023,-0.00026916,0.00061132,-0.00000006,0.12433008,0.28518642,0.,0.0
 0000002,0.00016104,-0.00000011,-0.00000028,-0.00368903,-0.00000022,0.0
 0000005,0.00775422,0.00000053,0.00000047,0.00307585,-0.00000013,-0.000
 00045,0.00177109,0.00000012,0.00000153,-0.03172788,-0.00000004,0.,-0.0
 0130957,-0.00000016,0.00000020,0.00601318,0.00000008,-0.00000007,-0.00
 410001,-0.00000029,-0.00000163,0.02222921,0.00322768,0.00038577,0.0000
 0017,-0.00098299,-0.00176543,0.00000011,0.00853827,0.01346200,-0.00000
 013,-0.00459129,0.00157231,-0.00000017,-0.00063856,0.00343193,-0.00000
 015,-0.00112903,0.00072876,0.,-0.11939599,-0.11357085,0.00000055,-0.00
 965582,-0.02890607,0.00000023,0.00053507,0.00071649,0.,0.00001341,-0.0
 0008635,0.,0.12446220,-0.00026524,0.00236155,-0.00000011,-0.00028017,-
 0.00015741,0.,-0.01843757,-0.01739333,0.00000008,0.00107440,0.00259156
 ,0.00000009,0.00397301,-0.00390354,0.00000018,0.00147637,0.00031182,0.
 ,-0.11398342,-0.27035498,0.00000214,0.00111487,0.00279344,0.00000002,-
 0.00082789,-0.00104528,0.,-0.00008635,-0.00008459,0.,0.12432908,0.2851
 8525,0.00000021,0.,-0.00368911,-0.00000004,-0.00000008,0.00016105,0.00
 000026,0.00000060,0.00307607,-0.00000015,0.00000017,0.00775409,-0.0000
 0019,0.00000016,0.00601327,0.00000002,-0.00000003,-0.00130956,0.000000
 73,0.00000214,-0.03172818,-0.00000024,-0.00000045,0.00177101,0.0000000
 2,0.00000001,-0.00024180,0.00000001,-0.00000001,-0.00048446,-0.0000004
 8,-0.00000246,0.02222941,-0.00128409,0.00144347,-0.00000007,0.00094595
 ,0.00102625,0.,-0.00461940,-0.00188273,-0.00000011,0.01133128,-0.01301
 724,0.00000026,-0.00081055,-0.00072958,0.00000003,-0.00100596,-0.00306
 732,-0.00000007,-0.00999221,0.02675291,-0.00000052,-0.13301164,0.12625
 553,-0.00000261,0.00002148,0.00007816,0.,0.00053507,-0.00082788,0.0000
 0002,0.00065521,-0.00026917,0.00000006,0.13696798,-0.00000706,0.000066
 60,0.,0.00065818,0.00152945,-0.00000007,-0.00137573,0.00232179,0.00000
 002,0.01868804,-0.01731139,0.00000052,-0.00155918,0.00016890,-0.000000
 03,-0.00353787,-0.00408429,0.00000007,-0.00236038,0.00487615,-0.000000
 04,0.12455030,-0.26587056,0.00000408,0.00007816,-0.00004405,0.,0.00071
 649,-0.00104525,0.00000004,0.00037927,0.00061132,-0.00000004,-0.136156
 90,0.27844928,0.,0.00000005,0.00030155,-0.00000003,-0.00000008,-0.0033
 3841,-0.00000019,-0.00000001,0.00781459,-0.00000033,-0.00000006,0.0045
 4710,0.00000011,-0.00000002,-0.00178257,-0.00000008,0.00000020,0.00601
 633,-0.00000017,0.00000033,0.00138613,-0.00000238,0.00000420,-0.033119
 64,0.,0.,-0.00037372,0.,0.,-0.00024178,0.00000003,-0.00000008,-0.00409
 991,0.00000295,-0.00000451,0.02357087,-0.10498806,-0.13560320,-0.00000
 748,0.00080097,0.00016451,-0.00000001,-0.02306570,-0.04590893,-0.00000
 177,-0.00031117,0.00082210,-0.00000005,-0.00737541,0.00223559,-0.00000
 022,0.00086359,-0.00212822,0.00000009,0.00325236,-0.00148761,0.0000000
 8,-0.00078858,-0.00035652,0.00000015,0.00000848,-0.00004519,-0.0000000
 2,-0.00042424,0.00004582,0.,-0.00061393,0.00213627,-0.00000017,0.00025
 839,-0.00002814,0.00000001,0.13244040,-0.18774759,-0.48191730,-0.00002
 174,0.00085008,-0.00004202,0.00000002,0.00147449,0.00090173,0.00000029
 ,-0.00059742,0.00000031,0.00000004,0.00132580,0.00189971,-0.00000003,0
 .00000566,-0.00026341,0.,0.00459656,0.00381290,0.00000003,0.00022130,-
 0.00071844,0.00000008,0.00021574,0.00032211,-0.00000001,0.00001933,0.0
 0005658,-0.00000001,-0.00069625,-0.00097238,-0.00000005,0.00017876,0.0
 0000995,-0.00000002,0.18020627,0.47698588,-0.00001016,-0.00002107,-0.0
 0170506,-0.00000011,-0.00000002,-0.00004860,0.00000058,-0.00000041,-0.
 00230031,0.00000005,0.00000015,0.00010549,0.00000003,-0.00000014,0.000
 91462,0.00000018,0.00000012,0.00180357,0.00000025,-0.00000003,-0.00032
 626,-0.00000012,-0.00000016,-0.00085925,-0.00000001,-0.00000002,-0.000
 62043,0.00000003,0.,-0.00008631,-0.00000011,0.00000013,0.00063444,0.00
 000003,0.,-0.00006009,0.00000937,0.00002142,0.00255883,0.00080095,0.00
 016451,0.00000004,-0.10498668,-0.13560210,0.00001532,-0.00031117,0.000
 82211,0.00000003,-0.02306521,-0.04590877,0.00000430,-0.00078858,-0.000
 35653,-0.00000023,0.00325229,-0.00148761,0.00000004,0.00086358,-0.0021
 2821,-0.00000010,-0.00737550,0.00223556,-0.00000003,0.00025839,-0.0000
 2814,0.,-0.00061393,0.00213627,0.00000017,-0.00042424,0.00004581,-0.00
 000003,0.00000848,-0.00004519,0.00000006,-0.00005708,-0.00005273,-0.00
 000001,0.13243870,0.00085008,-0.00004202,0.00000003,-0.18774652,-0.481
 91958,0.00005194,-0.00059743,0.00000033,-0.00000010,0.00147466,0.00090
 167,-0.00000060,0.00022130,-0.00071845,-0.00000017,0.00459653,0.003812
 89,-0.00000005,0.00000568,-0.00026341,0.00000012,0.00132577,0.00189966
 ,0.00000005,0.00017876,0.00000995,0.00000003,-0.00069621,-0.00097237,0
 .00000013,0.00001934,0.00005658,0.00000002,0.00021573,0.00032211,-0.00
 000002,-0.00005273,-0.00007562,0.00000002,0.18020503,0.47698826,0.0000
 0019,0.00000002,-0.00004861,0.00002234,0.00005273,-0.00170474,-0.00000
 007,-0.00000023,0.00010551,-0.00000194,-0.00000116,-0.00230048,0.00000
 018,0.00000027,-0.00085927,-0.00000050,-0.00000017,-0.00032618,-0.0000
 0037,-0.00000021,0.00180357,-0.00000041,0.00000029,0.00091464,-0.00000
 004,0.,-0.00006009,0.00000017,-0.00000008,0.00063445,-0.00000006,0.,-0
 .00008630,0.00000003,-0.00000002,-0.00062045,0.00000001,-0.00000003,-0
 .00001066,-0.00001953,-0.00005140,0.00255861\\-0.00005982,-0.00003088,
 -0.00000019,0.00005681,0.00003074,-0.00000029,0.00008499,0.00015864,-0
 .00000014,-0.00007965,-0.00015568,-0.00000041,0.00007608,0.00002040,0.
 00000004,0.00004531,0.00010073,0.00000005,-0.00004452,-0.00010307,0.00
 000012,-0.00008041,-0.00002111,0.00000005,-0.00006584,-0.00002955,0.00
 000002,-0.00002034,-0.00001996,0.00000003,0.00002071,0.00002022,0.,0.0
 0006663,0.00002937,0.00000007,-0.00000343,-0.00001507,0.00000022,0.000
 00347,0.00001522,0.00000042\\\@


 HE THAT IS UNAWARE OF HIS IGNORANCE WILL BE MISLED BY HIS KNOWLEDGE.

                                        -- WHATLEY
 Job cpu time:       0 days  1 hours  6 minutes 11.8 seconds.
 Elapsed time:       0 days  0 hours  4 minutes  9.9 seconds.
 File lengths (MBytes):  RWF=     70 Int=      0 D2E=      0 Chk=      5 Scr=      1
 Normal termination of Gaussian 16 at Sat Sep 20 04:22:23 2025.
