 Entering Gaussian System, Link 0=g16
 Input=HROC0124.gjf
 Output=HROC0124.log
 Initial command:
 /usr/local/g16/l1.exe "/dados_01/scratch/Gau-2110733.inp" -scrdir="/dados_01/scratch/"
 Entering Link 1 = /usr/local/g16/l1.exe PID=   2110734.
  
 Copyright (c) 1988-2017, Gaussian, Inc.  All Rights Reserved.
  
 This is part of the Gaussian(R) 16 program.  It is based on
 the Gaussian(R) 09 system (copyright 2009, Gaussian, Inc.),
 the Gaussian(R) 03 system (copyright 2003, Gaussian, Inc.),
 the Gaussian(R) 98 system (copyright 1998, Gaussian, Inc.),
 the Gaussian(R) 94 system (copyright 1995, Gaussian, Inc.),
 the Gaussian 92(TM) system (copyright 1992, Gaussian, Inc.),
 the Gaussian 90(TM) system (copyright 1990, Gaussian, Inc.),
 the Gaussian 88(TM) system (copyright 1988, Gaussian, Inc.),
 the Gaussian 86(TM) system (copyright 1986, Carnegie Mellon
 University), and the Gaussian 82(TM) system (copyright 1983,
 Carnegie Mellon University). Gaussian is a federally registered
 trademark of Gaussian, Inc.
  
 This software contains proprietary and confidential information,
 including trade secrets, belonging to Gaussian, Inc.
  
 This software is provided under written license and may be
 used, copied, transmitted, or stored only in accord with that
 written license.
  
 The following legend is applicable only to US Government
 contracts under FAR:
  
                    RESTRICTED RIGHTS LEGEND
  
 Use, reproduction and disclosure by the US Government is
 subject to restrictions as set forth in subparagraphs (a)
 and (c) of the Commercial Computer Software - Restricted
 Rights clause in FAR 52.227-19.
  
 Gaussian, Inc.
 340 Quinnipiac St., Bldg. 40, Wallingford CT 06492
  
  
 ---------------------------------------------------------------
 Warning -- This program may not be used in any manner that
 competes with the business of Gaussian, Inc. or will provide
 assistance to any competitor of Gaussian, Inc.  The licensee
 of this program is prohibited from giving any competitor of
 Gaussian, Inc. access to this program.  By using this program,
 the user acknowledges that Gaussian, Inc. is engaged in the
 business of creating and licensing software in the field of
 computational chemistry and represents and warrants to the
 licensee that it is not a competitor of Gaussian, Inc. and that
 it will not use this program in any manner prohibited above.
 ---------------------------------------------------------------
  

 Cite this work as:
 Gaussian 16, Revision B.01,
 M. J. Frisch, G. W. Trucks, H. B. Schlegel, G. E. Scuseria, 
 M. A. Robb, J. R. Cheeseman, G. Scalmani, V. Barone, 
 G. A. Petersson, H. Nakatsuji, X. Li, M. Caricato, A. V. Marenich, 
 J. Bloino, B. G. Janesko, R. Gomperts, B. Mennucci, H. P. Hratchian, 
 J. V. Ortiz, A. F. Izmaylov, J. L. Sonnenberg, D. Williams-Young, 
 F. Ding, F. Lipparini, F. Egidi, J. Goings, B. Peng, A. Petrone, 
 T. Henderson, D. Ranasinghe, V. G. Zakrzewski, J. Gao, N. Rega, 
 G. Zheng, W. Liang, M. Hada, M. Ehara, K. Toyota, R. Fukuda, 
 J. Hasegawa, M. Ishida, T. Nakajima, Y. Honda, O. Kitao, H. Nakai, 
 T. Vreven, K. Throssell, J. A. Montgomery, Jr., J. E. Peralta, 
 F. Ogliaro, M. J. Bearpark, J. J. Heyd, E. N. Brothers, K. N. Kudin, 
 V. N. Staroverov, T. A. Keith, R. Kobayashi, J. Normand, 
 K. Raghavachari, A. P. Rendell, J. C. Burant, S. S. Iyengar, 
 J. Tomasi, M. Cossi, J. M. Millam, M. Klene, C. Adamo, R. Cammi, 
 J. W. Ochterski, R. L. Martin, K. Morokuma, O. Farkas, 
 J. B. Foresman, and D. J. Fox, Gaussian, Inc., Wallingford CT, 2016.
 
 ******************************************
 Gaussian 16:  ES64L-G16RevB.01 20-Dec-2017
                20-Sep-2025 
 ******************************************
 %nprocs=16
 Will use up to   16 processors via shared memory.
 %mem=40GB
 %chk=HROC0124.chk
 ----------------------------------------------------------------------
 # opt freq=noraman M08HX/6-311++G** scf=xqc Empiricaldispersion=pfd In
 t(Grid=ultraFine)
 ----------------------------------------------------------------------
 1/18=20,19=15,26=4,38=1/1,3;
 2/9=110,12=2,17=6,18=5,40=1/2;
 3/5=4,6=6,7=1111,11=2,25=1,30=1,71=1,74=-74,75=-5,124=11/1,2,3;
 4//1;
 5/5=2,8=3,13=1,38=5/2,8;
 6/7=2,8=2,9=2,10=2,28=1/1;
 7//1,2,3,16;
 1/18=20,19=15,26=4/3(2);
 2/9=110/2;
 99//99;
 2/9=110/2;
 3/5=4,6=6,7=1111,11=2,25=1,30=1,71=1,74=-74,75=-5,124=11/1,2,3;
 4/5=5,16=3,69=1/1;
 5/5=2,8=3,13=1,38=5/2,8;
 7//1,2,3,16;
 1/18=20,19=15,26=4/3(-5);
 2/9=110/2;
 6/7=2,8=2,9=2,10=2,19=2,28=1/1;
 99/9=1/99;
 --------
 HROC0124
 --------
 Symbolic Z-matrix:
 Charge =  0 Multiplicity = 1
 O                    -1.7128    0.6505   -0.4029 
 O                    -2.5196   -1.4469    0.0559 
 O                    -0.3428    2.4836   -0.5359 
 C                    -0.2246   -0.8542    0.5855 
 C                     0.243     0.5687    0.8553 
 C                     0.5555   -1.612    -0.4908 
 C                     1.7445    0.8055    0.7513 
 C                     2.059    -1.4103   -0.3807 
 C                     2.4032    0.0719   -0.4101 
 C                    -1.6227   -0.6194    0.0902 
 C                    -0.5827    1.3626   -0.1177 
 H                    -0.2455   -1.4185    1.5239 
 H                    -0.0963    0.8868    1.8509 
 H                     0.2312   -1.2997   -1.493 
 H                     0.3212   -2.6817   -0.4242 
 H                     2.212     0.4607    1.6829 
 H                     1.9628    1.877     0.673 
 H                     2.56     -1.9221   -1.2101 
 H                     2.4287   -1.863     0.5471 
 H                     3.4902    0.1987   -0.353 
 H                     2.0794    0.5119   -1.3611 
 

 GradGradGradGradGradGradGradGradGradGradGradGradGradGradGradGradGradGrad
 Berny optimization.
 Initialization pass.
                           ----------------------------
                           !    Initial Parameters    !
                           ! (Angstroms and Degrees)  !
 --------------------------                            --------------------------
 ! Name  Definition              Value          Derivative Info.                !
 --------------------------------------------------------------------------------
 ! R1    R(1,10)                 1.3653         estimate D2E/DX2                !
 ! R2    R(1,11)                 1.3659         estimate D2E/DX2                !
 ! R3    R(2,10)                 1.2208         estimate D2E/DX2                !
 ! R4    R(3,11)                 1.2203         estimate D2E/DX2                !
 ! R5    R(4,5)                  1.5219         estimate D2E/DX2                !
 ! R6    R(4,6)                  1.5301         estimate D2E/DX2                !
 ! R7    R(4,10)                 1.5017         estimate D2E/DX2                !
 ! R8    R(4,12)                 1.0952         estimate D2E/DX2                !
 ! R9    R(5,7)                  1.5236         estimate D2E/DX2                !
 ! R10   R(5,11)                 1.5029         estimate D2E/DX2                !
 ! R11   R(5,13)                 1.0989         estimate D2E/DX2                !
 ! R12   R(6,8)                  1.521          estimate D2E/DX2                !
 ! R13   R(6,14)                 1.0987         estimate D2E/DX2                !
 ! R14   R(6,15)                 1.0971         estimate D2E/DX2                !
 ! R15   R(7,9)                  1.5235         estimate D2E/DX2                !
 ! R16   R(7,16)                 1.0979         estimate D2E/DX2                !
 ! R17   R(7,17)                 1.0963         estimate D2E/DX2                !
 ! R18   R(8,9)                  1.5219         estimate D2E/DX2                !
 ! R19   R(8,18)                 1.0958         estimate D2E/DX2                !
 ! R20   R(8,19)                 1.0966         estimate D2E/DX2                !
 ! R21   R(9,20)                 1.0959         estimate D2E/DX2                !
 ! R22   R(9,21)                 1.0967         estimate D2E/DX2                !
 ! A1    A(10,1,11)            110.7889         estimate D2E/DX2                !
 ! A2    A(5,4,6)              115.5377         estimate D2E/DX2                !
 ! A3    A(5,4,10)             101.4399         estimate D2E/DX2                !
 ! A4    A(5,4,12)             109.6153         estimate D2E/DX2                !
 ! A5    A(6,4,10)             108.6684         estimate D2E/DX2                !
 ! A6    A(6,4,12)             110.9316         estimate D2E/DX2                !
 ! A7    A(10,4,12)            110.2061         estimate D2E/DX2                !
 ! A8    A(4,5,7)              115.8494         estimate D2E/DX2                !
 ! A9    A(4,5,11)             102.1404         estimate D2E/DX2                !
 ! A10   A(4,5,13)             109.6578         estimate D2E/DX2                !
 ! A11   A(7,5,11)             114.5276         estimate D2E/DX2                !
 ! A12   A(7,5,13)             108.732          estimate D2E/DX2                !
 ! A13   A(11,5,13)            105.3081         estimate D2E/DX2                !
 ! A14   A(4,6,8)              112.7918         estimate D2E/DX2                !
 ! A15   A(4,6,14)             110.5103         estimate D2E/DX2                !
 ! A16   A(4,6,15)             109.3484         estimate D2E/DX2                !
 ! A17   A(8,6,14)             108.6701         estimate D2E/DX2                !
 ! A18   A(8,6,15)             109.6348         estimate D2E/DX2                !
 ! A19   A(14,6,15)            105.634          estimate D2E/DX2                !
 ! A20   A(5,7,9)              113.7843         estimate D2E/DX2                !
 ! A21   A(5,7,16)             108.2348         estimate D2E/DX2                !
 ! A22   A(5,7,17)             110.6716         estimate D2E/DX2                !
 ! A23   A(9,7,16)             108.1523         estimate D2E/DX2                !
 ! A24   A(9,7,17)             109.2747         estimate D2E/DX2                !
 ! A25   A(16,7,17)            106.4255         estimate D2E/DX2                !
 ! A26   A(6,8,9)              110.568          estimate D2E/DX2                !
 ! A27   A(6,8,18)             109.5856         estimate D2E/DX2                !
 ! A28   A(6,8,19)             109.8633         estimate D2E/DX2                !
 ! A29   A(9,8,18)             109.6841         estimate D2E/DX2                !
 ! A30   A(9,8,19)             110.0084         estimate D2E/DX2                !
 ! A31   A(18,8,19)            107.0639         estimate D2E/DX2                !
 ! A32   A(7,9,8)              110.8827         estimate D2E/DX2                !
 ! A33   A(7,9,20)             109.4776         estimate D2E/DX2                !
 ! A34   A(7,9,21)             109.8891         estimate D2E/DX2                !
 ! A35   A(8,9,20)             109.6342         estimate D2E/DX2                !
 ! A36   A(8,9,21)             109.9192         estimate D2E/DX2                !
 ! A37   A(20,9,21)            106.9544         estimate D2E/DX2                !
 ! A38   A(1,10,2)             124.8799         estimate D2E/DX2                !
 ! A39   A(1,10,4)             109.0263         estimate D2E/DX2                !
 ! A40   A(2,10,4)             125.9638         estimate D2E/DX2                !
 ! A41   A(1,11,3)             124.7533         estimate D2E/DX2                !
 ! A42   A(1,11,5)             108.3215         estimate D2E/DX2                !
 ! A43   A(3,11,5)             126.8071         estimate D2E/DX2                !
 ! D1    D(11,1,10,2)          175.1214         estimate D2E/DX2                !
 ! D2    D(11,1,10,4)           -8.8203         estimate D2E/DX2                !
 ! D3    D(10,1,11,3)          173.3554         estimate D2E/DX2                !
 ! D4    D(10,1,11,5)          -10.3721         estimate D2E/DX2                !
 ! D5    D(6,4,5,7)            -35.4561         estimate D2E/DX2                !
 ! D6    D(6,4,5,11)            89.7178         estimate D2E/DX2                !
 ! D7    D(6,4,5,13)          -158.9603         estimate D2E/DX2                !
 ! D8    D(10,4,5,7)          -152.7544         estimate D2E/DX2                !
 ! D9    D(10,4,5,11)          -27.5805         estimate D2E/DX2                !
 ! D10   D(10,4,5,13)           83.7414         estimate D2E/DX2                !
 ! D11   D(12,4,5,7)            90.7437         estimate D2E/DX2                !
 ! D12   D(12,4,5,11)         -144.0823         estimate D2E/DX2                !
 ! D13   D(12,4,5,13)          -32.7605         estimate D2E/DX2                !
 ! D14   D(5,4,6,8)             43.0831         estimate D2E/DX2                !
 ! D15   D(5,4,6,14)           -78.7821         estimate D2E/DX2                !
 ! D16   D(5,4,6,15)           165.349          estimate D2E/DX2                !
 ! D17   D(10,4,6,8)           156.2524         estimate D2E/DX2                !
 ! D18   D(10,4,6,14)           34.3872         estimate D2E/DX2                !
 ! D19   D(10,4,6,15)          -81.4817         estimate D2E/DX2                !
 ! D20   D(12,4,6,8)           -82.4442         estimate D2E/DX2                !
 ! D21   D(12,4,6,14)          155.6907         estimate D2E/DX2                !
 ! D22   D(12,4,6,15)           39.8217         estimate D2E/DX2                !
 ! D23   D(5,4,10,1)            23.456          estimate D2E/DX2                !
 ! D24   D(5,4,10,2)          -160.5392         estimate D2E/DX2                !
 ! D25   D(6,4,10,1)           -98.728          estimate D2E/DX2                !
 ! D26   D(6,4,10,2)            77.2768         estimate D2E/DX2                !
 ! D27   D(12,4,10,1)          139.5247         estimate D2E/DX2                !
 ! D28   D(12,4,10,2)          -44.4705         estimate D2E/DX2                !
 ! D29   D(4,5,7,9)             40.2679         estimate D2E/DX2                !
 ! D30   D(4,5,7,16)           -79.9745         estimate D2E/DX2                !
 ! D31   D(4,5,7,17)           163.7614         estimate D2E/DX2                !
 ! D32   D(11,5,7,9)           -78.2832         estimate D2E/DX2                !
 ! D33   D(11,5,7,16)          161.4744         estimate D2E/DX2                !
 ! D34   D(11,5,7,17)           45.2103         estimate D2E/DX2                !
 ! D35   D(13,5,7,9)           164.2546         estimate D2E/DX2                !
 ! D36   D(13,5,7,16)           44.0122         estimate D2E/DX2                !
 ! D37   D(13,5,7,17)          -72.2519         estimate D2E/DX2                !
 ! D38   D(4,5,11,1)            24.4569         estimate D2E/DX2                !
 ! D39   D(4,5,11,3)          -159.3683         estimate D2E/DX2                !
 ! D40   D(7,5,11,1)           150.4989         estimate D2E/DX2                !
 ! D41   D(7,5,11,3)           -33.3263         estimate D2E/DX2                !
 ! D42   D(13,5,11,1)          -90.1026         estimate D2E/DX2                !
 ! D43   D(13,5,11,3)           86.0722         estimate D2E/DX2                !
 ! D44   D(4,6,8,9)            -55.4485         estimate D2E/DX2                !
 ! D45   D(4,6,8,18)          -176.4707         estimate D2E/DX2                !
 ! D46   D(4,6,8,19)            66.1615         estimate D2E/DX2                !
 ! D47   D(14,6,8,9)            67.4494         estimate D2E/DX2                !
 ! D48   D(14,6,8,18)          -53.5728         estimate D2E/DX2                !
 ! D49   D(14,6,8,19)         -170.9406         estimate D2E/DX2                !
 ! D50   D(15,6,8,9)          -177.5534         estimate D2E/DX2                !
 ! D51   D(15,6,8,18)           61.4244         estimate D2E/DX2                !
 ! D52   D(15,6,8,19)          -55.9434         estimate D2E/DX2                !
 ! D53   D(5,7,9,8)            -52.597          estimate D2E/DX2                !
 ! D54   D(5,7,9,20)          -173.6883         estimate D2E/DX2                !
 ! D55   D(5,7,9,21)            69.1253         estimate D2E/DX2                !
 ! D56   D(16,7,9,8)            67.6918         estimate D2E/DX2                !
 ! D57   D(16,7,9,20)          -53.3995         estimate D2E/DX2                !
 ! D58   D(16,7,9,21)         -170.5858         estimate D2E/DX2                !
 ! D59   D(17,7,9,8)          -176.8469         estimate D2E/DX2                !
 ! D60   D(17,7,9,20)           62.0618         estimate D2E/DX2                !
 ! D61   D(17,7,9,21)          -55.1245         estimate D2E/DX2                !
 ! D62   D(6,8,9,7)             60.2856         estimate D2E/DX2                !
 ! D63   D(6,8,9,20)          -178.7156         estimate D2E/DX2                !
 ! D64   D(6,8,9,21)           -61.4191         estimate D2E/DX2                !
 ! D65   D(18,8,9,7)          -178.7507         estimate D2E/DX2                !
 ! D66   D(18,8,9,20)          -57.7519         estimate D2E/DX2                !
 ! D67   D(18,8,9,21)           59.5446         estimate D2E/DX2                !
 ! D68   D(19,8,9,7)           -61.2387         estimate D2E/DX2                !
 ! D69   D(19,8,9,20)           59.7601         estimate D2E/DX2                !
 ! D70   D(19,8,9,21)          177.0565         estimate D2E/DX2                !
 --------------------------------------------------------------------------------
 Trust Radius=3.00D-01 FncErr=1.00D-07 GrdErr=1.00D-06 EigMax=2.50D+02 EigMin=1.00D-04
 Number of steps in this run=    126 maximum allowed number of steps=    126.
 GradGradGradGradGradGradGradGradGradGradGradGradGradGradGradGradGradGrad

                          Input orientation:                          
 ---------------------------------------------------------------------
 Center     Atomic      Atomic             Coordinates (Angstroms)
 Number     Number       Type             X           Y           Z
 ---------------------------------------------------------------------
      1          8           0       -1.712800    0.650500   -0.402900
      2          8           0       -2.519600   -1.446900    0.055900
      3          8           0       -0.342800    2.483600   -0.535900
      4          6           0       -0.224600   -0.854200    0.585500
      5          6           0        0.243000    0.568700    0.855300
      6          6           0        0.555500   -1.612000   -0.490800
      7          6           0        1.744500    0.805500    0.751300
      8          6           0        2.059000   -1.410300   -0.380700
      9          6           0        2.403200    0.071900   -0.410100
     10          6           0       -1.622700   -0.619400    0.090200
     11          6           0       -0.582700    1.362600   -0.117700
     12          1           0       -0.245500   -1.418500    1.523900
     13          1           0       -0.096300    0.886800    1.850900
     14          1           0        0.231200   -1.299700   -1.493000
     15          1           0        0.321200   -2.681700   -0.424200
     16          1           0        2.212000    0.460700    1.682900
     17          1           0        1.962800    1.877000    0.673000
     18          1           0        2.560000   -1.922100   -1.210100
     19          1           0        2.428700   -1.863000    0.547100
     20          1           0        3.490200    0.198700   -0.353000
     21          1           0        2.079400    0.511900   -1.361100
 ---------------------------------------------------------------------
                    Distance matrix (angstroms):
                    1          2          3          4          5
     1  O    0.000000
     2  O    2.293580   0.000000
     3  O    2.292345   4.531834   0.000000
     4  C    2.335765   2.428743   3.523126   0.000000
     5  C    2.326996   3.511929   2.438328   1.521869   0.000000
     6  C    3.204968   3.127679   4.193199   1.530111   2.581684
     7  C    3.648167   4.872313   2.971485   2.580591   1.523612
     8  C    4.298123   4.599515   4.577684   2.541184   2.956686
     9  C    4.156475   5.172801   3.656862   2.958752   2.552354
    10  C    1.365251   1.220804   3.414492   1.501711   2.340469
    11  C    1.365852   3.416871   1.220280   2.353068   1.502926
    12  H    3.185324   2.706910   4.413460   1.095201   2.152817
    13  H    2.783617   3.813209   2.882247   2.156103   1.098877
    14  H    2.961543   3.160326   3.944474   2.174025   3.000928
    15  H    3.903994   3.134545   5.209002   2.158043   3.494043
    16  H    4.448667   5.354821   3.942360   2.978300   2.138585
    17  H    4.021430   5.614360   2.673050   3.500261   2.168547
    18  H    5.052392   5.256511   5.318927   3.481176   3.979755
    19  H    4.936821   4.989999   5.267545   2.838865   3.284119
    20  H    5.222817   6.244429   4.466107   3.973553   3.484422
    21  H    3.913839   5.195728   3.230419   3.311178   2.878892
                    6          7          8          9         10
     6  C    0.000000
     7  C    2.966621   0.000000
     8  C    1.520959   2.508008   0.000000
     9  C    2.501205   1.523452   1.521925   0.000000
    10  C    2.463203   3.715566   3.795021   4.115345   0.000000
    11  C    3.206704   2.545856   3.838844   3.266038   2.247920
    12  H    2.176708   3.082724   2.989697   3.602396   2.142600
    13  H    3.486030   2.145757   3.860314   3.467518   2.774635
    14  H    1.098684   3.429115   2.142498   2.787749   2.531062
    15  H    1.097083   3.945649   2.153671   3.452135   2.880353
    16  H    3.430022   1.097872   2.789712   2.137375   4.290482
    17  H    3.938025   1.096311   3.453387   2.150684   4.407661
    18  H    2.152109   3.457157   1.095831   2.154210   4.569769
    19  H    2.156181   2.762376   1.096553   2.158870   4.262527
    20  H    3.451099   2.152941   2.153597   1.095859   5.196870
    21  H    2.755112   2.158841   2.157882   1.096744   4.134206
                   11         12         13         14         15
    11  C    0.000000
    12  H    3.247010   0.000000
    13  H    2.082872   2.333152   0.000000
    14  H    3.105113   3.056639   4.008704   0.000000
    15  H    4.155399   2.389962   4.252597   1.749388   0.000000
    16  H    3.444696   3.097738   2.353303   4.136293   4.229619
    17  H    2.714661   4.057208   2.570571   4.216802   4.967942
    18  H    4.675378   3.949582   4.931082   2.427081   2.491356
    19  H    4.462621   2.881504   3.954354   3.050954   2.460742
    20  H    4.242469   4.482582   4.265400   3.763759   4.283029
    21  H    3.058841   4.177898   3.897584   2.591358   3.764058
                   16         17         18         19         20
    16  H    0.000000
    17  H    1.757243   0.000000
    18  H    3.764079   4.282041   0.000000
    19  H    2.595493   3.771010   1.763089   0.000000
    20  H    2.418125   2.490445   2.469349   2.487482   0.000000
    21  H    3.047317   2.452480   2.485585   3.066494   1.762021
                   21
    21  H    0.000000
 Stoichiometry    C8H10O3
 Framework group  C1[X(C8H10O3)]
 Deg. of freedom    57
 Full point group                 C1      NOp   1
 Largest Abelian subgroup         C1      NOp   1
 Largest concise Abelian subgroup C1      NOp   1
                         Standard orientation:                         
 ---------------------------------------------------------------------
 Center     Atomic      Atomic             Coordinates (Angstroms)
 Number     Number       Type             X           Y           Z
 ---------------------------------------------------------------------
      1          8           0       -1.786566    0.656502   -0.412824
      2          8           0       -2.582045   -1.437988    0.077924
      3          8           0       -0.426984    2.495214   -0.572574
      4          6           0       -0.291542   -0.823530    0.602165
      5          6           0        0.167270    0.606197    0.850071
      6          6           0        0.495000   -1.593832   -0.460486
      7          6           0        1.667566    0.850070    0.745032
      8          6           0        1.997090   -1.381628   -0.350888
      9          6           0        2.332731    0.101899   -0.403314
     10          6           0       -1.690034   -0.604825    0.100642
     11          6           0       -0.661168    1.379645   -0.136973
     12          1           0       -0.310955   -1.372905    1.549412
     13          1           0       -0.175772    0.938149    1.839850
     14          1           0        0.170806   -1.299454   -1.468129
     15          1           0        0.266790   -2.663683   -0.377248
     16          1           0        2.135281    0.522906    1.682864
     17          1           0        1.879788    1.921441    0.650039
     18          1           0        2.502637   -1.903657   -1.171103
     19          1           0        2.367641   -1.817308    0.584689
     20          1           0        3.418865    0.235937   -0.346271
     21          1           0        2.008197    0.524778   -1.361801
 ---------------------------------------------------------------------
 Rotational constants (GHZ):           1.6125535           1.1616907           0.7771649
 Standard basis: 6-311++G(d,p) (5D, 7F)
 There are   323 symmetry adapted cartesian basis functions of A   symmetry.
 There are   312 symmetry adapted basis functions of A   symmetry.
   312 basis functions,   486 primitive gaussians,   323 cartesian basis functions
    41 alpha electrons       41 beta electrons
       nuclear repulsion energy       647.6043480429 Hartrees.
 NAtoms=   21 NActive=   21 NUniq=   21 SFac= 1.00D+00 NAtFMM=   60 NAOKFM=F Big=F
 Integral buffers will be    131072 words long.
 Raffenetti 2 integral format.
 Two-electron integral symmetry is turned on.
 R6APFD:  NTU= -4 IXU= 1 FactS= 1.050
 Nuclear repulsion after empirical dispersion term =      647.5849859752 Hartrees.
 One-electron integrals computed using PRISM.
 NBasis=   312 RedAO= T EigKep=  3.26D-06  NBF=   312
 NBsUse=   312 1.00D-06 EigRej= -1.00D+00 NBFU=   312
 ExpMin= 3.60D-02 ExpMax= 8.59D+03 ExpMxC= 1.30D+03 IAcc=3 IRadAn=         5 AccDes= 0.00D+00
 Harris functional with IExCor= 1009 and IRadAn=       5 diagonalized for initial guess.
 HarFok:  IExCor= 1009 AccDes= 0.00D+00 IRadAn=         5 IDoV= 1 UseB2=F ITyADJ=14
 ICtDFT=  3500011 ScaDFX=  1.000000  1.000000  1.000000  1.000000
 FoFCou: FMM=F IPFlag=           0 FMFlag=      100000 FMFlg1=           0
         NFxFlg=           0 DoJE=T BraDBF=F KetDBF=T FulRan=T
         wScrn=  0.000000 ICntrl=       500 IOpCl=  0 I1Cent=   200000004 NGrid=           0
         NMat0=    1 NMatS0=      1 NMatT0=    0 NMatD0=    1 NMtDS0=    0 NMtDT0=    0
 Petite list used in FoFCou.
 Requested convergence on RMS density matrix=1.00D-08 within  32 cycles.
 Requested convergence on MAX density matrix=1.00D-06.
 Requested convergence on             energy=1.00D-06.
 No special actions if energy rises.
 SCF Done:  E(RM08HX) =  -536.568250998     A.U. after   15 cycles
            NFock= 15  Conv=0.43D-08     -V/T= 2.0044
 QCSCF skips out because SCF is already converged.

 **********************************************************************

            Population analysis using the SCF Density.

 **********************************************************************

 Orbital symmetries:
       Occupied  (A) (A) (A) (A) (A) (A) (A) (A) (A) (A) (A) (A)
                 (A) (A) (A) (A) (A) (A) (A) (A) (A) (A) (A) (A)
                 (A) (A) (A) (A) (A) (A) (A) (A) (A) (A) (A) (A)
                 (A) (A) (A) (A) (A)
       Virtual   (A) (A) (A) (A) (A) (A) (A) (A) (A) (A) (A) (A)
                 (A) (A) (A) (A) (A) (A) (A) (A) (A) (A) (A) (A)
                 (A) (A) (A) (A) (A) (A) (A) (A) (A) (A) (A) (A)
                 (A) (A) (A) (A) (A) (A) (A) (A) (A) (A) (A) (A)
                 (A) (A) (A) (A) (A) (A) (A) (A) (A) (A) (A) (A)
                 (A) (A) (A) (A) (A) (A) (A) (A) (A) (A) (A) (A)
                 (A) (A) (A) (A) (A) (A) (A) (A) (A) (A) (A) (A)
                 (A) (A) (A) (A) (A) (A) (A) (A) (A) (A) (A) (A)
                 (A) (A) (A) (A) (A) (A) (A) (A) (A) (A) (A) (A)
                 (A) (A) (A) (A) (A) (A) (A) (A) (A) (A) (A) (A)
                 (A) (A) (A) (A) (A) (A) (A) (A) (A) (A) (A) (A)
                 (A) (A) (A) (A) (A) (A) (A) (A) (A) (A) (A) (A)
                 (A) (A) (A) (A) (A) (A) (A) (A) (A) (A) (A) (A)
                 (A) (A) (A) (A) (A) (A) (A) (A) (A) (A) (A) (A)
                 (A) (A) (A) (A) (A) (A) (A) (A) (A) (A) (A) (A)
                 (A) (A) (A) (A) (A) (A) (A) (A) (A) (A) (A) (A)
                 (A) (A) (A) (A) (A) (A) (A) (A) (A) (A) (A) (A)
                 (A) (A) (A) (A) (A) (A) (A) (A) (A) (A) (A) (A)
                 (A) (A) (A) (A) (A) (A) (A) (A) (A) (A) (A) (A)
                 (A) (A) (A) (A) (A) (A) (A) (A) (A) (A) (A) (A)
                 (A) (A) (A) (A) (A) (A) (A) (A) (A) (A) (A) (A)
                 (A) (A) (A) (A) (A) (A) (A) (A) (A) (A) (A) (A)
                 (A) (A) (A) (A) (A) (A) (A)
 The electronic state is 1-A.
 Alpha  occ. eigenvalues --  -19.70793 -19.63356 -19.63104 -10.69975 -10.69866
 Alpha  occ. eigenvalues --  -10.58015 -10.57909 -10.55910 -10.55183 -10.54650
 Alpha  occ. eigenvalues --  -10.54360  -1.29650  -1.19748  -1.16304  -0.99385
 Alpha  occ. eigenvalues --   -0.90598  -0.89109  -0.80946  -0.75496  -0.74687
 Alpha  occ. eigenvalues --   -0.68929  -0.64804  -0.62106  -0.59046  -0.58050
 Alpha  occ. eigenvalues --   -0.56648  -0.55012  -0.54248  -0.52339  -0.50074
 Alpha  occ. eigenvalues --   -0.49266  -0.48060  -0.47748  -0.46249  -0.44148
 Alpha  occ. eigenvalues --   -0.41847  -0.41144  -0.40989  -0.39542  -0.37740
 Alpha  occ. eigenvalues --   -0.36775
 Alpha virt. eigenvalues --   -0.04312  -0.02735  -0.02001  -0.01698  -0.01118
 Alpha virt. eigenvalues --    0.00509   0.00745   0.00942   0.01365   0.01852
 Alpha virt. eigenvalues --    0.02388   0.04038   0.04763   0.05262   0.05646
 Alpha virt. eigenvalues --    0.05770   0.06223   0.06617   0.07771   0.09102
 Alpha virt. eigenvalues --    0.09938   0.10190   0.10638   0.10814   0.10906
 Alpha virt. eigenvalues --    0.11002   0.11511   0.11737   0.12167   0.12574
 Alpha virt. eigenvalues --    0.12715   0.13412   0.13891   0.14579   0.14962
 Alpha virt. eigenvalues --    0.15400   0.15819   0.16330   0.16621   0.17542
 Alpha virt. eigenvalues --    0.17741   0.18420   0.19824   0.20878   0.22010
 Alpha virt. eigenvalues --    0.23008   0.23507   0.24729   0.25306   0.25730
 Alpha virt. eigenvalues --    0.26907   0.27229   0.27757   0.28390   0.29097
 Alpha virt. eigenvalues --    0.29252   0.29432   0.30396   0.31045   0.31928
 Alpha virt. eigenvalues --    0.32326   0.32921   0.33342   0.33764   0.34594
 Alpha virt. eigenvalues --    0.34913   0.35329   0.35618   0.36234   0.36590
 Alpha virt. eigenvalues --    0.37617   0.38447   0.39480   0.42592   0.42922
 Alpha virt. eigenvalues --    0.44955   0.46023   0.48164   0.48211   0.48996
 Alpha virt. eigenvalues --    0.50884   0.51339   0.52504   0.56618   0.59880
 Alpha virt. eigenvalues --    0.60723   0.61226   0.62158   0.64652   0.65250
 Alpha virt. eigenvalues --    0.66536   0.67681   0.67797   0.69757   0.70117
 Alpha virt. eigenvalues --    0.70282   0.71175   0.72021   0.72451   0.74660
 Alpha virt. eigenvalues --    0.75580   0.77068   0.77280   0.77433   0.78929
 Alpha virt. eigenvalues --    0.79292   0.80142   0.81489   0.83816   0.84375
 Alpha virt. eigenvalues --    0.85689   0.88787   0.89731   0.92977   0.97403
 Alpha virt. eigenvalues --    0.98717   1.00922   1.06256   1.08185   1.09541
 Alpha virt. eigenvalues --    1.14030   1.15908   1.17591   1.19622   1.20666
 Alpha virt. eigenvalues --    1.22024   1.22336   1.24576   1.24870   1.25656
 Alpha virt. eigenvalues --    1.26780   1.27510   1.29997   1.32595   1.33324
 Alpha virt. eigenvalues --    1.38279   1.42295   1.45792   1.46843   1.49534
 Alpha virt. eigenvalues --    1.52933   1.53221   1.55564   1.57140   1.58783
 Alpha virt. eigenvalues --    1.60566   1.60955   1.61221   1.62649   1.63304
 Alpha virt. eigenvalues --    1.64687   1.66339   1.67721   1.68271   1.68909
 Alpha virt. eigenvalues --    1.71324   1.72592   1.74050   1.75152   1.77033
 Alpha virt. eigenvalues --    1.78440   1.80165   1.81615   1.82470   1.83934
 Alpha virt. eigenvalues --    1.85185   1.85818   1.86282   1.88969   1.89159
 Alpha virt. eigenvalues --    1.94408   1.97030   2.01147   2.02013   2.06813
 Alpha virt. eigenvalues --    2.09453   2.10311   2.15544   2.16155   2.19817
 Alpha virt. eigenvalues --    2.20962   2.22541   2.25636   2.28260   2.30027
 Alpha virt. eigenvalues --    2.33493   2.34545   2.37460   2.41789   2.42673
 Alpha virt. eigenvalues --    2.47940   2.50768   2.52090   2.55571   2.56037
 Alpha virt. eigenvalues --    2.58932   2.63739   2.64587   2.67479   2.69401
 Alpha virt. eigenvalues --    2.70028   2.72371   2.75077   2.75498   2.76811
 Alpha virt. eigenvalues --    2.78972   2.80069   2.83032   2.84552   2.87629
 Alpha virt. eigenvalues --    2.88036   2.91495   2.92457   2.93641   2.94724
 Alpha virt. eigenvalues --    2.96490   2.96955   2.97667   2.99288   3.02556
 Alpha virt. eigenvalues --    3.04762   3.13998   3.17264   3.18019   3.23259
 Alpha virt. eigenvalues --    3.25697   3.32290   3.38625   3.40428   3.42685
 Alpha virt. eigenvalues --    3.44230   3.46350   3.47801   3.55767   3.61449
 Alpha virt. eigenvalues --    3.72547   3.75323   3.78904   3.82956   3.85029
 Alpha virt. eigenvalues --    3.90246   4.03233   4.07366   4.12074   4.19333
 Alpha virt. eigenvalues --    4.19645   4.20386   4.34048   4.34387   4.39820
 Alpha virt. eigenvalues --    4.53196   5.10027   5.16474   5.16612   5.27054
 Alpha virt. eigenvalues --    5.29516   5.48280   5.64789   5.83342   6.04047
 Alpha virt. eigenvalues --   23.85099  23.85924  23.88130  23.92214  23.96948
 Alpha virt. eigenvalues --   23.98937  24.00475  24.00730  49.87813  50.00231
 Alpha virt. eigenvalues --   50.04983
          Condensed to atoms (all electrons):
               1          2          3          4          5          6
     1  O    8.183441  -0.069491  -0.071322  -0.213773   0.055512  -0.021026
     2  O   -0.069491   7.864789   0.001743  -0.242338   0.055557   0.026324
     3  O   -0.071322   0.001743   7.830696   0.017491  -0.078800   0.004924
     4  C   -0.213773  -0.242338   0.017491  27.789810 -13.614438  -4.643340
     5  C    0.055512   0.055557  -0.078800 -13.614438  18.159188   1.552101
     6  C   -0.021026   0.026324   0.004924  -4.643340   1.552101   9.411509
     7  C    0.080087   0.025001   0.089970   0.703033  -2.898602   0.168261
     8  C    0.013771  -0.006955  -0.007693   0.128303   0.677664  -1.178935
     9  C   -0.062147   0.016681  -0.045100  -2.601224   1.424662   0.428423
    10  C    0.016605   0.591263  -0.006165  -4.640918   2.863512   0.488218
    11  C    0.067111  -0.013507   0.497001   2.311540  -2.249652  -0.389837
    12  H   -0.039697  -0.013838   0.006680   1.198205  -0.592682  -0.153341
    13  H    0.017985  -0.003905  -0.011546  -0.278867   0.662118  -0.047641
    14  H    0.000418  -0.005989   0.002056   0.277934  -0.221116   0.444647
    15  H    0.001600   0.003255   0.000572   0.004357  -0.068003   0.527963
    16  H    0.007956   0.000348   0.006055  -0.062233  -0.061528   0.047624
    17  H   -0.001077   0.000625  -0.007928   0.091409  -0.186691   0.017810
    18  H   -0.000200  -0.000452  -0.000160  -0.070396   0.071924  -0.049890
    19  H    0.000388   0.000507  -0.000567  -0.051189   0.031338  -0.090418
    20  H   -0.000572   0.000151  -0.000390  -0.005623  -0.010165  -0.022840
    21  H    0.005021   0.000609   0.000459  -0.087203   0.064586  -0.007452
               7          8          9         10         11         12
     1  O    0.080087   0.013771  -0.062147   0.016605   0.067111  -0.039697
     2  O    0.025001  -0.006955   0.016681   0.591263  -0.013507  -0.013838
     3  O    0.089970  -0.007693  -0.045100  -0.006165   0.497001   0.006680
     4  C    0.703033   0.128303  -2.601224  -4.640918   2.311540   1.198205
     5  C   -2.898602   0.677664   1.424662   2.863512  -2.249652  -0.592682
     6  C    0.168261  -1.178935   0.428423   0.488218  -0.389837  -0.153341
     7  C    9.510373  -0.508821  -0.963122  -0.345876   0.118202   0.016826
     8  C   -0.508821   7.713429  -0.811559   0.030385  -0.080017  -0.023102
     9  C   -0.963122  -0.811559   8.174124   0.481398  -0.219338  -0.065301
    10  C   -0.345876   0.030385   0.481398   7.297915  -0.349872  -0.167199
    11  C    0.118202  -0.080017  -0.219338  -0.349872   6.617189   0.039708
    12  H    0.016826  -0.023102  -0.065301  -0.167199   0.039708   0.423387
    13  H   -0.066594   0.024520   0.000636   0.076242  -0.093401  -0.016526
    14  H    0.033438  -0.083843  -0.083043  -0.121106   0.030056   0.016652
    15  H    0.015792  -0.087359  -0.023385  -0.051044   0.011751   0.000284
    16  H    0.541705  -0.053628  -0.057975  -0.005974  -0.020371  -0.006734
    17  H    0.535600  -0.023137  -0.109150  -0.018076   0.013929   0.002345
    18  H   -0.026615   0.471379  -0.066534   0.009583  -0.008285  -0.002015
    19  H   -0.051735   0.560526  -0.034038  -0.002055  -0.005160   0.000515
    20  H   -0.049220  -0.082117   0.497157   0.004135   0.006651  -0.000153
    21  H   -0.071203  -0.042070   0.534933   0.005128  -0.044678  -0.004778
              13         14         15         16         17         18
     1  O    0.017985   0.000418   0.001600   0.007956  -0.001077  -0.000200
     2  O   -0.003905  -0.005989   0.003255   0.000348   0.000625  -0.000452
     3  O   -0.011546   0.002056   0.000572   0.006055  -0.007928  -0.000160
     4  C   -0.278867   0.277934   0.004357  -0.062233   0.091409  -0.070396
     5  C    0.662118  -0.221116  -0.068003  -0.061528  -0.186691   0.071924
     6  C   -0.047641   0.444647   0.527963   0.047624   0.017810  -0.049890
     7  C   -0.066594   0.033438   0.015792   0.541705   0.535600  -0.026615
     8  C    0.024520  -0.083843  -0.087359  -0.053628  -0.023137   0.471379
     9  C    0.000636  -0.083043  -0.023385  -0.057975  -0.109150  -0.066534
    10  C    0.076242  -0.121106  -0.051044  -0.005974  -0.018076   0.009583
    11  C   -0.093401   0.030056   0.011751  -0.020371   0.013929  -0.008285
    12  H   -0.016526   0.016652   0.000284  -0.006734   0.002345  -0.002015
    13  H    0.400273  -0.003510  -0.004667  -0.009916  -0.016338   0.000247
    14  H   -0.003510   0.422871  -0.004550  -0.000916   0.002160  -0.000343
    15  H   -0.004667  -0.004550   0.411442   0.002090   0.001208  -0.010042
    16  H   -0.009916  -0.000916   0.002090   0.441215  -0.010467  -0.001712
    17  H   -0.016338   0.002160   0.001208  -0.010467   0.425487  -0.001464
    18  H    0.000247  -0.000343  -0.010042  -0.001712  -0.001464   0.423574
    19  H    0.003135  -0.000909  -0.007166  -0.000605  -0.003201  -0.001294
    20  H    0.001290  -0.001769  -0.001779  -0.002976  -0.006834  -0.005460
    21  H   -0.000785  -0.005508  -0.000854   0.007536  -0.003335  -0.002099
              19         20         21
     1  O    0.000388  -0.000572   0.005021
     2  O    0.000507   0.000151   0.000609
     3  O   -0.000567  -0.000390   0.000459
     4  C   -0.051189  -0.005623  -0.087203
     5  C    0.031338  -0.010165   0.064586
     6  C   -0.090418  -0.022840  -0.007452
     7  C   -0.051735  -0.049220  -0.071203
     8  C    0.560526  -0.082117  -0.042070
     9  C   -0.034038   0.497157   0.534933
    10  C   -0.002055   0.004135   0.005128
    11  C   -0.005160   0.006651  -0.044678
    12  H    0.000515  -0.000153  -0.004778
    13  H    0.003135   0.001290  -0.000785
    14  H   -0.000909  -0.001769  -0.005508
    15  H   -0.007166  -0.001779  -0.000854
    16  H   -0.000605  -0.002976   0.007536
    17  H   -0.003201  -0.006834  -0.003335
    18  H   -0.001294  -0.005460  -0.002099
    19  H    0.415468   0.000921   0.001608
    20  H    0.000921   0.413301  -0.005543
    21  H    0.001608  -0.005543   0.410691
 Mulliken charges:
               1
     1  O    0.029412
     2  O   -0.230380
     3  O   -0.227975
     4  C   -0.010539
     5  C    0.363514
     6  C   -0.513084
     7  C   -0.856500
     8  C   -0.630741
     9  C   -0.416096
    10  C   -0.156099
    11  C   -0.239018
    12  H    0.380764
    13  H    0.367248
    14  H    0.302370
    15  H    0.278535
    16  H    0.240507
    17  H    0.297124
    18  H    0.270255
    19  H    0.233930
    20  H    0.271836
    21  H    0.244938
 Sum of Mulliken charges =  -0.00000
 Mulliken charges with hydrogens summed into heavy atoms:
               1
     1  O    0.029412
     2  O   -0.230380
     3  O   -0.227975
     4  C    0.370224
     5  C    0.730762
     6  C    0.067821
     7  C   -0.318870
     8  C   -0.126556
     9  C    0.100678
    10  C   -0.156099
    11  C   -0.239018
 Electronic spatial extent (au):  <R**2>=           1538.6261
 Charge=             -0.0000 electrons
 Dipole moment (field-independent basis, Debye):
    X=              4.2837    Y=             -1.6614    Z=              2.0385  Tot=              5.0265
 Quadrupole moment (field-independent basis, Debye-Ang):
   XX=            -73.4027   YY=            -74.6812   ZZ=            -62.4412
   XY=             -3.9553   XZ=             -1.9760   YZ=              3.9798
 Traceless Quadrupole moment (field-independent basis, Debye-Ang):
   XX=             -3.2277   YY=             -4.5062   ZZ=              7.7338
   XY=             -3.9553   XZ=             -1.9760   YZ=              3.9798
 Octapole moment (field-independent basis, Debye-Ang**2):
  XXX=             24.5041  YYY=            -17.8752  ZZZ=              1.1737  XYY=             10.2064
  XXY=             16.1209  XXZ=              1.8618  XZZ=             -4.2535  YZZ=             -0.6612
  YYZ=              6.8629  XYZ=             -2.2956
 Hexadecapole moment (field-independent basis, Debye-Ang**3):
 XXXX=          -1124.7657 YYYY=           -790.9642 ZZZZ=           -206.6859 XXXY=            -35.2817
 XXXZ=             -3.9787 YYYX=             -2.0366 YYYZ=             16.7687 ZZZX=             -0.0762
 ZZZY=             -2.5348 XXYY=           -323.0633 XXZZ=           -210.1186 YYZZ=           -157.5258
 XXYZ=              4.8695 YYXZ=             -3.9234 ZZXY=              0.6195
 N-N= 6.475849859752D+02 E-N=-2.547061523615D+03  KE= 5.342061749943D+02
 R6APFD:  NTU= -4 IXU= 1 FactS= 1.050
 Calling FoFJK, ICntrl=      2127 FMM=F ISym2X=0 I1Cent= 0 IOpClX= 0 NMat=1 NMatS=1 NMatT=0.
 ***** Axes restored to original set *****
 -------------------------------------------------------------------
 Center     Atomic                   Forces (Hartrees/Bohr)
 Number     Number              X              Y              Z
 -------------------------------------------------------------------
      1        8          -0.012896450    0.005596588   -0.009928026
      2        8           0.033092704    0.045923214   -0.003233768
      3        8          -0.018437938   -0.052345870    0.011815928
      4        6           0.000278654   -0.000004779    0.016750216
      5        6           0.013599563   -0.000029790   -0.003745497
      6        6           0.002384293   -0.007693755   -0.006556623
      7        6           0.007221805    0.004559170    0.003340466
      8        6           0.001515386    0.000974037   -0.001964519
      9        6           0.000693807   -0.000681168   -0.000074772
     10        6          -0.033986230   -0.052564837    0.002718707
     11        6           0.019805925    0.055412576   -0.009938767
     12        1          -0.001799483   -0.004582040   -0.002033002
     13        1          -0.002731979    0.000066575    0.000936348
     14        1          -0.001361860    0.003347683   -0.001400431
     15        1          -0.004047698    0.000956753    0.000354355
     16        1          -0.000133454   -0.000666733    0.002005189
     17        1          -0.003900387    0.001745108    0.001540993
     18        1           0.000031119   -0.002503869   -0.000062354
     19        1           0.001405764   -0.000671313    0.003212906
     20        1           0.000873637    0.002291719   -0.000563723
     21        1          -0.001607178    0.000870730   -0.003173626
 -------------------------------------------------------------------
 Cartesian Forces:  Max     0.055412576 RMS     0.015445867

 GradGradGradGradGradGradGradGradGradGradGradGradGradGradGradGradGradGrad
 Berny optimization.
 FormGI is forming the generalized inverse of G from B-inverse, IUseBI=4.
 Internal  Forces:  Max     0.055757757 RMS     0.007470660
 Search for a local minimum.
 Step number   1 out of a maximum of  126
 All quantities printed in internal units (Hartrees-Bohrs-Radians)
 Mixed Optimization -- RFO/linear search
 Second derivative matrix not updated -- first step.
 ITU=  0
     Eigenvalues ---    0.00578   0.00703   0.00740   0.01033   0.01094
     Eigenvalues ---    0.01554   0.01920   0.02343   0.03612   0.03880
     Eigenvalues ---    0.04049   0.04307   0.04461   0.04803   0.04901
     Eigenvalues ---    0.05316   0.05745   0.05942   0.06033   0.06637
     Eigenvalues ---    0.07518   0.07919   0.08045   0.08091   0.08429
     Eigenvalues ---    0.08571   0.09856   0.12055   0.12211   0.14854
     Eigenvalues ---    0.17527   0.19426   0.22971   0.24921   0.24925
     Eigenvalues ---    0.26273   0.28136   0.28795   0.29597   0.29756
     Eigenvalues ---    0.30141   0.30356   0.31679   0.33807   0.33828
     Eigenvalues ---    0.33919   0.34007   0.34045   0.34066   0.34093
     Eigenvalues ---    0.34144   0.34147   0.34218   0.47586   0.50059
     Eigenvalues ---    0.95028   0.95259
 RFO step:  Lambda=-1.31681158D-02 EMin= 5.78117813D-03
 Linear search not attempted -- first point.
 Iteration  1 RMS(Cart)=  0.02897213 RMS(Int)=  0.00091020
 Iteration  2 RMS(Cart)=  0.00091041 RMS(Int)=  0.00037390
 Iteration  3 RMS(Cart)=  0.00000147 RMS(Int)=  0.00037390
 Iteration  4 RMS(Cart)=  0.00000000 RMS(Int)=  0.00037390
 Variable       Old X    -DE/DX   Delta X   Delta X   Delta X     New X
                                 (Linear)    (Quad)   (Total)
    R1        2.57995   0.00490   0.00000   0.00808   0.00786   2.58781
    R2        2.58109   0.00523   0.00000   0.00860   0.00853   2.58961
    R3        2.30699  -0.05535   0.00000  -0.05745  -0.05745   2.24953
    R4        2.30600  -0.05576   0.00000  -0.05773  -0.05773   2.24826
    R5        2.87592   0.00847   0.00000   0.02932   0.02985   2.90576
    R6        2.89149   0.00475   0.00000   0.01684   0.01696   2.90845
    R7        2.83782   0.00781   0.00000   0.02441   0.02430   2.86212
    R8        2.06963   0.00065   0.00000   0.00184   0.00184   2.07147
    R9        2.87921   0.00113   0.00000   0.00336   0.00341   2.88262
   R10        2.84012   0.00806   0.00000   0.02505   0.02517   2.86529
   R11        2.07658   0.00171   0.00000   0.00487   0.00487   2.08145
   R12        2.87420   0.00570   0.00000   0.01817   0.01813   2.89232
   R13        2.07621   0.00263   0.00000   0.00748   0.00748   2.08370
   R14        2.07319  -0.00005   0.00000  -0.00013  -0.00013   2.07306
   R15        2.87891   0.00431   0.00000   0.01239   0.01226   2.89117
   R16        2.07468   0.00185   0.00000   0.00526   0.00526   2.07994
   R17        2.07173   0.00082   0.00000   0.00231   0.00231   2.07404
   R18        2.87602   0.00652   0.00000   0.01986   0.01958   2.89560
   R19        2.07082   0.00123   0.00000   0.00347   0.00347   2.07429
   R20        2.07218   0.00347   0.00000   0.00981   0.00981   2.08199
   R21        2.07087   0.00110   0.00000   0.00311   0.00311   2.07398
   R22        2.07255   0.00358   0.00000   0.01011   0.01011   2.08266
    A1        1.93363  -0.00150   0.00000  -0.00558  -0.00550   1.92813
    A2        2.01651  -0.00271   0.00000  -0.02519  -0.02529   1.99122
    A3        1.77046   0.00132   0.00000   0.00320   0.00268   1.77314
    A4        1.91315   0.00307   0.00000   0.04834   0.04845   1.96159
    A5        1.89662  -0.00213   0.00000  -0.02650  -0.02696   1.86966
    A6        1.93612   0.00030   0.00000   0.00083   0.00080   1.93692
    A7        1.92346   0.00020   0.00000  -0.00149  -0.00193   1.92153
    A8        2.02195   0.00427   0.00000   0.02631   0.02609   2.04805
    A9        1.78269  -0.00277   0.00000  -0.00851  -0.00831   1.77438
   A10        1.91389  -0.00173   0.00000  -0.01391  -0.01392   1.89997
   A11        1.99888   0.00023   0.00000  -0.00348  -0.00371   1.99517
   A12        1.89773  -0.00053   0.00000   0.00479   0.00477   1.90250
   A13        1.83797   0.00004   0.00000  -0.00961  -0.00960   1.82838
   A14        1.96859  -0.00029   0.00000  -0.00456  -0.00435   1.96424
   A15        1.92877  -0.00053   0.00000  -0.01619  -0.01633   1.91244
   A16        1.90849  -0.00275   0.00000  -0.01743  -0.01763   1.89086
   A17        1.89665  -0.00052   0.00000  -0.00330  -0.00356   1.89309
   A18        1.91349   0.00386   0.00000   0.03732   0.03726   1.95075
   A19        1.84366   0.00033   0.00000   0.00540   0.00512   1.84878
   A20        1.98591  -0.00340   0.00000  -0.02435  -0.02420   1.96171
   A21        1.88905   0.00073   0.00000   0.00465   0.00471   1.89376
   A22        1.93158  -0.00214   0.00000  -0.02764  -0.02738   1.90421
   A23        1.88761   0.00165   0.00000   0.01669   0.01667   1.90428
   A24        1.90720   0.00363   0.00000   0.02664   0.02585   1.93305
   A25        1.85748  -0.00023   0.00000   0.00677   0.00639   1.86386
   A26        1.92978  -0.00067   0.00000  -0.00164  -0.00198   1.92780
   A27        1.91263  -0.00130   0.00000  -0.01035  -0.01024   1.90239
   A28        1.91748   0.00126   0.00000   0.00688   0.00699   1.92447
   A29        1.91435   0.00120   0.00000   0.00944   0.00947   1.92381
   A30        1.92001  -0.00012   0.00000  -0.00083  -0.00068   1.91933
   A31        1.86862  -0.00036   0.00000  -0.00356  -0.00361   1.86501
   A32        1.93527   0.00187   0.00000   0.00087   0.00092   1.93619
   A33        1.91074  -0.00198   0.00000  -0.00652  -0.00660   1.90414
   A34        1.91793   0.00029   0.00000   0.00054   0.00051   1.91844
   A35        1.91348   0.00145   0.00000   0.01711   0.01722   1.93070
   A36        1.91845  -0.00176   0.00000  -0.00843  -0.00855   1.90990
   A37        1.86671   0.00005   0.00000  -0.00365  -0.00362   1.86309
   A38        2.17957  -0.01462   0.00000  -0.05775  -0.05786   2.12171
   A39        1.90287   0.00084   0.00000   0.00711   0.00739   1.91026
   A40        2.19848   0.01377   0.00000   0.05012   0.04997   2.24845
   A41        2.17736  -0.01351   0.00000  -0.05164  -0.05246   2.12490
   A42        1.89057   0.00349   0.00000   0.01776   0.01727   1.90783
   A43        2.21320   0.01012   0.00000   0.03807   0.03725   2.25045
    D1        3.05644  -0.00002   0.00000  -0.00388  -0.00430   3.05214
    D2       -0.15394   0.00043   0.00000  -0.00921  -0.00874  -0.16269
    D3        3.02562  -0.00144   0.00000  -0.04570  -0.04275   2.98287
    D4       -0.18103   0.00071   0.00000   0.02221   0.02192  -0.15911
    D5       -0.61883  -0.00094   0.00000  -0.02117  -0.02112  -0.63995
    D6        1.56587  -0.00013   0.00000  -0.01600  -0.01620   1.54968
    D7       -2.77438  -0.00202   0.00000  -0.03593  -0.03567  -2.81006
    D8       -2.66607   0.00206   0.00000   0.02067   0.02082  -2.64525
    D9       -0.48137   0.00287   0.00000   0.02585   0.02575  -0.45562
   D10        1.46156   0.00097   0.00000   0.00592   0.00627   1.46783
   D11        1.58378  -0.00007   0.00000   0.00125   0.00101   1.58479
   D12       -2.51471   0.00074   0.00000   0.00642   0.00594  -2.50877
   D13       -0.57178  -0.00115   0.00000  -0.01351  -0.01354  -0.58532
   D14        0.75194  -0.00034   0.00000   0.01043   0.01026   0.76221
   D15       -1.37501   0.00092   0.00000   0.02966   0.02939  -1.34562
   D16        2.88588   0.00244   0.00000   0.04259   0.04227   2.92815
   D17        2.72712  -0.00165   0.00000  -0.01760  -0.01716   2.70996
   D18        0.60017  -0.00040   0.00000   0.00163   0.00197   0.60214
   D19       -1.42212   0.00112   0.00000   0.01456   0.01484  -1.40728
   D20       -1.43892  -0.00261   0.00000  -0.03623  -0.03624  -1.47517
   D21        2.71731  -0.00136   0.00000  -0.01700  -0.01712   2.70019
   D22        0.69502   0.00016   0.00000  -0.00407  -0.00424   0.69078
   D23        0.40938  -0.00130   0.00000  -0.00808  -0.00852   0.40087
   D24       -2.80194  -0.00225   0.00000  -0.01883  -0.01890  -2.82083
   D25       -1.72313   0.00208   0.00000   0.03114   0.03055  -1.69258
   D26        1.34873   0.00112   0.00000   0.02038   0.02017   1.36890
   D27        2.43516   0.00295   0.00000   0.04805   0.04759   2.48275
   D28       -0.77616   0.00200   0.00000   0.03730   0.03721  -0.73895
   D29        0.70281   0.00016   0.00000   0.01822   0.01821   0.72102
   D30       -1.39582  -0.00027   0.00000   0.00937   0.00937  -1.38645
   D31        2.85818   0.00076   0.00000   0.01381   0.01405   2.87223
   D32       -1.36630   0.00040   0.00000   0.01196   0.01196  -1.35434
   D33        2.81826  -0.00004   0.00000   0.00311   0.00312   2.82138
   D34        0.78907   0.00100   0.00000   0.00755   0.00780   0.79687
   D35        2.86678   0.00057   0.00000   0.02293   0.02307   2.88985
   D36        0.76816   0.00014   0.00000   0.01408   0.01423   0.78239
   D37       -1.26103   0.00117   0.00000   0.01852   0.01891  -1.24212
   D38        0.42685  -0.00212   0.00000  -0.02833  -0.02817   0.39869
   D39       -2.78150  -0.00104   0.00000   0.03706   0.03817  -2.74333
   D40        2.62670   0.00137   0.00000  -0.00362  -0.00373   2.62297
   D41       -0.58165   0.00245   0.00000   0.06177   0.06261  -0.51905
   D42       -1.57259   0.00087   0.00000  -0.00619  -0.00638  -1.57897
   D43        1.50224   0.00195   0.00000   0.05920   0.05996   1.56220
   D44       -0.96776  -0.00056   0.00000  -0.01901  -0.01914  -0.98690
   D45       -3.07999  -0.00078   0.00000  -0.02297  -0.02300  -3.10299
   D46        1.15474  -0.00032   0.00000  -0.01657  -0.01664   1.13809
   D47        1.17721  -0.00180   0.00000  -0.04513  -0.04522   1.13199
   D48       -0.93502  -0.00202   0.00000  -0.04908  -0.04909  -0.98411
   D49       -2.98348  -0.00155   0.00000  -0.04269  -0.04273  -3.02621
   D50       -3.09889   0.00038   0.00000  -0.02039  -0.02046  -3.11935
   D51        1.07206   0.00016   0.00000  -0.02435  -0.02432   1.04774
   D52       -0.97640   0.00063   0.00000  -0.01795  -0.01796  -0.99436
   D53       -0.91799   0.00015   0.00000  -0.00815  -0.00805  -0.92604
   D54       -3.03143  -0.00156   0.00000  -0.02578  -0.02579  -3.05723
   D55        1.20646  -0.00063   0.00000  -0.01783  -0.01785   1.18862
   D56        1.18145   0.00007   0.00000  -0.00607  -0.00609   1.17536
   D57       -0.93200  -0.00164   0.00000  -0.02370  -0.02383  -0.95582
   D58       -2.97728  -0.00071   0.00000  -0.01574  -0.01588  -2.99317
   D59       -3.08656   0.00262   0.00000   0.02513   0.02554  -3.06102
   D60        1.08318   0.00091   0.00000   0.00750   0.00780   1.09099
   D61       -0.96210   0.00184   0.00000   0.01546   0.01575  -0.94636
   D62        1.05218   0.00157   0.00000   0.02064   0.02063   1.07281
   D63       -3.11918   0.00126   0.00000   0.02433   0.02443  -3.09475
   D64       -1.07197   0.00115   0.00000   0.02505   0.02510  -1.04687
   D65       -3.11979   0.00030   0.00000   0.01284   0.01275  -3.10704
   D66       -1.00796  -0.00000   0.00000   0.01653   0.01654  -0.99142
   D67        1.03925  -0.00012   0.00000   0.01726   0.01721   1.05646
   D68       -1.06882   0.00051   0.00000   0.01364   0.01361  -1.05521
   D69        1.04301   0.00020   0.00000   0.01733   0.01741   1.06042
   D70        3.09022   0.00009   0.00000   0.01806   0.01808   3.10830
         Item               Value     Threshold  Converged?
 Maximum Force            0.055758     0.000450     NO 
 RMS     Force            0.007471     0.000300     NO 
 Maximum Displacement     0.124086     0.001800     NO 
 RMS     Displacement     0.028932     0.001200     NO 
 Predicted change in Energy=-7.063965D-03
 GradGradGradGradGradGradGradGradGradGradGradGradGradGradGradGradGradGrad

                          Input orientation:                          
 ---------------------------------------------------------------------
 Center     Atomic      Atomic             Coordinates (Angstroms)
 Number     Number       Type             X           Y           Z
 ---------------------------------------------------------------------
      1          8           0       -1.698925    0.639060   -0.422978
      2          8           0       -2.536019   -1.386913    0.017125
      3          8           0       -0.351527    2.417936   -0.593856
      4          6           0       -0.223357   -0.874323    0.617616
      5          6           0        0.267996    0.560398    0.871689
      6          6           0        0.552320   -1.618112   -0.484152
      7          6           0        1.768405    0.815665    0.769153
      8          6           0        2.065132   -1.411188   -0.378458
      9          6           0        2.405012    0.082522   -0.413198
     10          6           0       -1.621586   -0.628263    0.090051
     11          6           0       -0.568604    1.350332   -0.115785
     12          1           0       -0.267043   -1.469692    1.536978
     13          1           0       -0.084561    0.887254    1.862683
     14          1           0        0.219613   -1.263549   -1.473806
     15          1           0        0.282842   -2.680545   -0.438789
     16          1           0        2.244879    0.477156    1.701798
     17          1           0        1.944768    1.896542    0.697178
     18          1           0        2.556008   -1.931543   -1.211011
     19          1           0        2.448029   -1.862687    0.550722
     20          1           0        3.491889    0.232359   -0.385586
     21          1           0        2.048428    0.517692   -1.360873
 ---------------------------------------------------------------------
                    Distance matrix (angstroms):
                    1          2          3          4          5
     1  O    0.000000
     2  O    2.235841   0.000000
     3  O    2.238098   4.429693   0.000000
     4  C    2.355943   2.443715   3.510422   0.000000
     5  C    2.356083   3.519205   2.445828   1.537663   0.000000
     6  C    3.188522   3.137286   4.137470   1.539087   2.581676
     7  C    3.670796   4.893359   2.986499   2.616513   1.525418
     8  C    4.286446   4.618188   4.533081   2.552953   2.946136
     9  C    4.141513   5.172833   3.617361   2.981016   2.538924
    10  C    1.369411   1.190401   3.370476   1.514568   2.365248
    11  C    1.370364   3.373558   1.189729   2.367734   1.516245
    12  H    3.215361   2.732225   4.434100   1.096174   2.202304
    13  H    2.809273   3.819367   2.906689   2.161622   1.101454
    14  H    2.899128   3.135538   3.828034   2.172962   2.971611
    15  H    3.866190   3.134855   5.140135   2.152827   3.495896
    16  H    4.482686   5.400913   3.972150   3.015648   2.145711
    17  H    4.014039   5.596517   2.685440   3.519203   2.151116
    18  H    5.033234   5.266277   5.268075   3.490911   3.972708
    19  H    4.940046   5.035059   5.241308   2.849147   3.275195
    20  H    5.206856   6.254589   4.426281   4.004274   3.475893
    21  H    3.864845   5.152043   3.155793   3.318604   2.855888
                    6          7          8          9         10
     6  C    0.000000
     7  C    2.995481   0.000000
     8  C    1.530552   2.522683   0.000000
     9  C    2.515882   1.529942   1.532284   0.000000
    10  C    2.456701   3.746752   3.797942   4.119705   0.000000
    11  C    3.194343   2.555503   3.825122   3.246258   2.250772
    12  H    2.185943   3.155227   3.018502   3.654098   2.153227
    13  H    3.491434   2.152770   3.863513   3.467738   2.793110
    14  H    1.102644   3.428229   2.151168   2.777187   2.497849
    15  H    1.097014   3.986164   2.188942   3.484079   2.849277
    16  H    3.468902   1.100656   2.815247   2.157450   4.332347
    17  H    3.960713   1.097534   3.480311   2.176104   4.411590
    18  H    2.154375   3.476855   1.097667   2.171581   4.565479
    19  H    2.173590   2.771853   1.101743   2.171366   4.277592
    20  H    3.474914   2.155009   2.176450   1.097504   5.207161
    21  H    2.751116   2.168920   2.164716   1.102095   4.109428
                   11         12         13         14         15
    11  C    0.000000
    12  H    3.282544   0.000000
    13  H    2.088797   2.386332   0.000000
    14  H    3.049242   3.056819   3.981286   0.000000
    15  H    4.132464   2.381636   4.261567   1.755886   0.000000
    16  H    3.461464   3.182316   2.370729   4.149243   4.289846
    17  H    2.697461   4.114475   2.548577   4.204226   5.000215
    18  H    4.661912   3.966657   4.936175   2.444181   2.514879
    19  H    4.457331   2.915263   3.961998   3.069775   2.517154
    20  H    4.220221   4.552230   4.274880   3.758957   4.334262
    21  H    3.015359   4.208163   3.882980   2.555413   3.767792
                   16         17         18         19         20
    16  H    0.000000
    17  H    1.764649   0.000000
    18  H    3.792504   4.320769   0.000000
    19  H    2.615551   3.795593   1.766382   0.000000
    20  H    2.443794   2.517035   2.497934   2.521018   0.000000
    21  H    3.069233   2.479426   2.505763   3.078974   1.765271
                   21
    21  H    0.000000
 Stoichiometry    C8H10O3
 Framework group  C1[X(C8H10O3)]
 Deg. of freedom    57
 Full point group                 C1      NOp   1
 Largest Abelian subgroup         C1      NOp   1
 Largest concise Abelian subgroup C1      NOp   1
                         Standard orientation:                         
 ---------------------------------------------------------------------
 Center     Atomic      Atomic             Coordinates (Angstroms)
 Number     Number       Type             X           Y           Z
 ---------------------------------------------------------------------
      1          8           0       -1.777777    0.656835   -0.406428
      2          8           0       -2.606194   -1.366530    0.061233
      3          8           0       -0.436329    2.437182   -0.606337
      4          6           0       -0.290219   -0.841983    0.638168
      5          6           0        0.199428    0.596517    0.873475
      6          6           0        0.478703   -1.595251   -0.461893
      7          6           0        1.698327    0.854432    0.756500
      8          6           0        1.991762   -1.383481   -0.370253
      9          6           0        2.327525    0.110627   -0.423155
     10          6           0       -1.693168   -0.604893    0.119093
     11          6           0       -0.646912    1.374066   -0.115527
     12          1           0       -0.325169   -1.427874    1.563970
     13          1           0       -0.146189    0.932776    1.863769
     14          1           0        0.137340   -1.251818   -1.452524
     15          1           0        0.212316   -2.657822   -0.403396
     16          1           0        2.182964    0.526817    1.688829
     17          1           0        1.871346    1.934938    0.671934
     18          1           0        2.477430   -1.911239   -1.201199
     19          1           0        2.383088   -1.824348    0.560520
     20          1           0        3.414197    0.263443   -0.405647
     21          1           0        1.962407    0.535038   -1.372458
 ---------------------------------------------------------------------
 Rotational constants (GHZ):           1.6385010           1.1500247           0.7835597
 Standard basis: 6-311++G(d,p) (5D, 7F)
 There are   323 symmetry adapted cartesian basis functions of A   symmetry.
 There are   312 symmetry adapted basis functions of A   symmetry.
   312 basis functions,   486 primitive gaussians,   323 cartesian basis functions
    41 alpha electrons       41 beta electrons
       nuclear repulsion energy       648.1548187911 Hartrees.
 NAtoms=   21 NActive=   21 NUniq=   21 SFac= 1.00D+00 NAtFMM=   60 NAOKFM=F Big=F
 Integral buffers will be    131072 words long.
 Raffenetti 2 integral format.
 Two-electron integral symmetry is turned on.
 R6APFD:  NTU= -4 IXU= 1 FactS= 1.050
 Nuclear repulsion after empirical dispersion term =      648.1355068614 Hartrees.
 One-electron integrals computed using PRISM.
 NBasis=   312 RedAO= T EigKep=  3.37D-06  NBF=   312
 NBsUse=   312 1.00D-06 EigRej= -1.00D+00 NBFU=   312
 Initial guess from the checkpoint file:  "HROC0124.chk"
 B after Tr=    -0.000000   -0.000000   -0.000000
         Rot=    0.999993    0.000186   -0.002653    0.002726 Ang=   0.44 deg.
 ExpMin= 3.60D-02 ExpMax= 8.59D+03 ExpMxC= 1.30D+03 IAcc=3 IRadAn=         5 AccDes= 0.00D+00
 Harris functional with IExCor= 1009 and IRadAn=       5 diagonalized for initial guess.
 HarFok:  IExCor= 1009 AccDes= 0.00D+00 IRadAn=         5 IDoV= 1 UseB2=F ITyADJ=14
 ICtDFT=  3500011 ScaDFX=  1.000000  1.000000  1.000000  1.000000
 FoFCou: FMM=F IPFlag=           0 FMFlag=      100000 FMFlg1=           0
         NFxFlg=           0 DoJE=T BraDBF=F KetDBF=T FulRan=T
         wScrn=  0.000000 ICntrl=       500 IOpCl=  0 I1Cent=   200000004 NGrid=           0
         NMat0=    1 NMatS0=      1 NMatT0=    0 NMatD0=    1 NMtDS0=    0 NMtDT0=    0
 Petite list used in FoFCou.
 Requested convergence on RMS density matrix=1.00D-08 within  32 cycles.
 Requested convergence on MAX density matrix=1.00D-06.
 Requested convergence on             energy=1.00D-06.
 No special actions if energy rises.
 SCF Done:  E(RM08HX) =  -536.575515772     A.U. after   14 cycles
            NFock= 14  Conv=0.38D-08     -V/T= 2.0043
 QCSCF skips out because SCF is already converged.
 R6APFD:  NTU= -4 IXU= 1 FactS= 1.050
 Calling FoFJK, ICntrl=      2127 FMM=F ISym2X=0 I1Cent= 0 IOpClX= 0 NMat=1 NMatS=1 NMatT=0.
 ***** Axes restored to original set *****
 -------------------------------------------------------------------
 Center     Atomic                   Forces (Hartrees/Bohr)
 Number     Number              X              Y              Z
 -------------------------------------------------------------------
      1        8          -0.001765133    0.002618686   -0.000389196
      2        8           0.004911584    0.003881650    0.001237370
      3        8          -0.000365989   -0.004606663    0.003308592
      4        6          -0.000668102    0.004358275    0.006634067
      5        6           0.000059738   -0.002424480    0.001262545
      6        6           0.001809178   -0.001716040   -0.003353798
      7        6           0.001835202    0.000245379    0.000304002
      8        6          -0.000229671    0.000313876   -0.000025172
      9        6          -0.000161124   -0.000143092   -0.000288487
     10        6          -0.009208012   -0.014822174    0.000326863
     11        6           0.007576642    0.011394518   -0.007607543
     12        1           0.000073817   -0.000623690   -0.001234386
     13        1          -0.001306719   -0.000322818    0.000205933
     14        1           0.000185049    0.001620533    0.000253261
     15        1          -0.000167547    0.000321596   -0.000555898
     16        1          -0.000510324   -0.000431158   -0.000456493
     17        1          -0.001108575    0.000209749   -0.000008551
     18        1           0.000349181   -0.000538280    0.000641843
     19        1          -0.000438633    0.000617499    0.000478717
     20        1          -0.000087770   -0.000098766   -0.000951686
     21        1          -0.000782792    0.000145398    0.000218017
 -------------------------------------------------------------------
 Cartesian Forces:  Max     0.014822174 RMS     0.003420635

 GradGradGradGradGradGradGradGradGradGradGradGradGradGradGradGradGradGrad
 Berny optimization.
 Using GEDIIS/GDIIS optimizer.
 FormGI is forming the generalized inverse of G from B-inverse, IUseBI=4.
 Internal  Forces:  Max     0.007264976 RMS     0.001404358
 Search for a local minimum.
 Step number   2 out of a maximum of  126
 All quantities printed in internal units (Hartrees-Bohrs-Radians)
 Mixed Optimization -- RFO/linear search
 Update second derivatives using D2CorX and points    1    2
 DE= -7.26D-03 DEPred=-7.06D-03 R= 1.03D+00
 TightC=F SS=  1.41D+00  RLast= 2.71D-01 DXNew= 5.0454D-01 8.1196D-01
 Trust test= 1.03D+00 RLast= 2.71D-01 DXMaxT set to 5.05D-01
 ITU=  1  0
 Use linear search instead of GDIIS.
     Eigenvalues ---    0.00585   0.00696   0.00744   0.01017   0.01073
     Eigenvalues ---    0.01569   0.01921   0.02345   0.03632   0.03856
     Eigenvalues ---    0.04003   0.04314   0.04527   0.04844   0.04915
     Eigenvalues ---    0.05345   0.05733   0.05871   0.06098   0.06674
     Eigenvalues ---    0.07577   0.07813   0.08037   0.08110   0.08320
     Eigenvalues ---    0.08397   0.09925   0.12019   0.12146   0.14836
     Eigenvalues ---    0.17364   0.19025   0.22858   0.24944   0.26171
     Eigenvalues ---    0.27022   0.28173   0.28834   0.29635   0.29882
     Eigenvalues ---    0.30317   0.30588   0.31610   0.33790   0.33826
     Eigenvalues ---    0.33938   0.34005   0.34049   0.34083   0.34094
     Eigenvalues ---    0.34146   0.34154   0.34261   0.46602   0.50075
     Eigenvalues ---    0.88129   0.95177
 RFO step:  Lambda=-1.74908219D-03 EMin= 5.84537382D-03
 Quartic linear search produced a step of  0.08726.
 Iteration  1 RMS(Cart)=  0.02718473 RMS(Int)=  0.00053395
 Iteration  2 RMS(Cart)=  0.00059145 RMS(Int)=  0.00020797
 Iteration  3 RMS(Cart)=  0.00000022 RMS(Int)=  0.00020797
 Variable       Old X    -DE/DX   Delta X   Delta X   Delta X     New X
                                 (Linear)    (Quad)   (Total)
    R1        2.58781   0.00726   0.00069   0.01723   0.01798   2.60579
    R2        2.58961   0.00548   0.00074   0.01342   0.01425   2.60386
    R3        2.24953  -0.00633  -0.00501  -0.00888  -0.01389   2.23564
    R4        2.24826  -0.00553  -0.00504  -0.00796  -0.01300   2.23526
    R5        2.90576   0.00010   0.00260  -0.00226   0.00016   2.90592
    R6        2.90845   0.00282   0.00148   0.01041   0.01184   2.92029
    R7        2.86212   0.00125   0.00212   0.00412   0.00622   2.86834
    R8        2.07147  -0.00070   0.00016  -0.00216  -0.00200   2.06947
    R9        2.88262  -0.00033   0.00030  -0.00036  -0.00006   2.88256
   R10        2.86529   0.00125   0.00220   0.00375   0.00599   2.87128
   R11        2.08145   0.00051   0.00042   0.00174   0.00216   2.08361
   R12        2.89232  -0.00066   0.00158  -0.00262  -0.00103   2.89129
   R13        2.08370   0.00024   0.00065   0.00094   0.00159   2.08529
   R14        2.07306  -0.00029  -0.00001  -0.00093  -0.00094   2.07212
   R15        2.89117  -0.00018   0.00107  -0.00007   0.00106   2.89223
   R16        2.07994  -0.00048   0.00046  -0.00138  -0.00092   2.07901
   R17        2.07404   0.00003   0.00020   0.00015   0.00035   2.07439
   R18        2.89560  -0.00063   0.00171  -0.00213  -0.00041   2.89519
   R19        2.07429  -0.00008   0.00030  -0.00015   0.00015   2.07444
   R20        2.08199  -0.00000   0.00086   0.00024   0.00110   2.08309
   R21        2.07398  -0.00013   0.00027  -0.00032  -0.00005   2.07394
   R22        2.08266   0.00012   0.00088   0.00065   0.00153   2.08419
    A1        1.92813   0.00201  -0.00048   0.00930   0.00874   1.93687
    A2        1.99122  -0.00167  -0.00221  -0.01760  -0.01994   1.97128
    A3        1.77314   0.00229   0.00023   0.00486   0.00461   1.77775
    A4        1.96159   0.00040   0.00423   0.01508   0.01944   1.98103
    A5        1.86966  -0.00108  -0.00235  -0.00683  -0.00890   1.86075
    A6        1.93692   0.00092   0.00007   0.00444   0.00456   1.94148
    A7        1.92153  -0.00089  -0.00017  -0.00084  -0.00119   1.92034
    A8        2.04805   0.00088   0.00228   0.00259   0.00466   2.05270
    A9        1.77438   0.00210  -0.00072  -0.00488  -0.00576   1.76862
   A10        1.89997  -0.00132  -0.00121  -0.00219  -0.00352   1.89645
   A11        1.99517  -0.00339  -0.00032  -0.01919  -0.01942   1.97575
   A12        1.90250   0.00095   0.00042   0.01428   0.01475   1.91725
   A13        1.82838   0.00079  -0.00084   0.00921   0.00854   1.83691
   A14        1.96424   0.00060  -0.00038  -0.00855  -0.00926   1.95498
   A15        1.91244  -0.00047  -0.00143  -0.00600  -0.00741   1.90503
   A16        1.89086  -0.00023  -0.00154   0.00463   0.00319   1.89405
   A17        1.89309  -0.00026  -0.00031  -0.00308  -0.00352   1.88957
   A18        1.95075  -0.00004   0.00325   0.00698   0.01041   1.96116
   A19        1.84878   0.00037   0.00045   0.00668   0.00707   1.85585
   A20        1.96171  -0.00016  -0.00211  -0.01026  -0.01255   1.94916
   A21        1.89376   0.00015   0.00041   0.00382   0.00426   1.89802
   A22        1.90421  -0.00084  -0.00239  -0.01050  -0.01274   1.89147
   A23        1.90428   0.00018   0.00145   0.00679   0.00833   1.91260
   A24        1.93305   0.00040   0.00226   0.00333   0.00533   1.93838
   A25        1.86386   0.00029   0.00056   0.00782   0.00828   1.87214
   A26        1.92780  -0.00014  -0.00017  -0.00905  -0.00967   1.91813
   A27        1.90239  -0.00013  -0.00089   0.00369   0.00293   1.90532
   A28        1.92447   0.00022   0.00061   0.00034   0.00107   1.92554
   A29        1.92381   0.00006   0.00083   0.00444   0.00538   1.92919
   A30        1.91933   0.00003  -0.00006  -0.00037  -0.00029   1.91904
   A31        1.86501  -0.00003  -0.00031   0.00141   0.00102   1.86603
   A32        1.93619   0.00003   0.00008  -0.00664  -0.00658   1.92961
   A33        1.90414   0.00027  -0.00058   0.00889   0.00831   1.91245
   A34        1.91844  -0.00016   0.00004  -0.00442  -0.00439   1.91404
   A35        1.93070  -0.00021   0.00150   0.00284   0.00446   1.93516
   A36        1.90990   0.00008  -0.00075  -0.00125  -0.00214   1.90776
   A37        1.86309  -0.00001  -0.00032   0.00084   0.00054   1.86363
   A38        2.12171   0.00227  -0.00505   0.01073   0.00571   2.12742
   A39        1.91026  -0.00352   0.00065  -0.01818  -0.01771   1.89255
   A40        2.24845   0.00127   0.00436   0.00866   0.01305   2.26151
   A41        2.12490   0.00277  -0.00458   0.01297   0.00727   2.13217
   A42        1.90783  -0.00300   0.00151  -0.01709  -0.01669   1.89115
   A43        2.25045   0.00023   0.00325   0.00408   0.00622   2.25668
    D1        3.05214   0.00066  -0.00038   0.00829   0.00803   3.06017
    D2       -0.16269   0.00090  -0.00076   0.02453   0.02400  -0.13868
    D3        2.98287   0.00040  -0.00373   0.03078   0.02707   3.00994
    D4       -0.15911  -0.00032   0.00191  -0.05286  -0.05090  -0.21001
    D5       -0.63995   0.00017  -0.00184  -0.03397  -0.03579  -0.67574
    D6        1.54968  -0.00200  -0.00141  -0.06086  -0.06229   1.48738
    D7       -2.81006  -0.00066  -0.00311  -0.05353  -0.05655  -2.86660
    D8       -2.64525   0.00082   0.00182  -0.02115  -0.01951  -2.66476
    D9       -0.45562  -0.00136   0.00225  -0.04804  -0.04602  -0.50164
   D10        1.46783  -0.00001   0.00055  -0.04071  -0.04027   1.42756
   D11        1.58479   0.00037   0.00009  -0.02970  -0.02975   1.55503
   D12       -2.50877  -0.00181   0.00052  -0.05658  -0.05625  -2.56503
   D13       -0.58532  -0.00046  -0.00118  -0.04925  -0.05051  -0.63583
   D14        0.76221  -0.00036   0.00090   0.03559   0.03637   0.79858
   D15       -1.34562  -0.00011   0.00256   0.04932   0.05183  -1.29378
   D16        2.92815  -0.00017   0.00369   0.04204   0.04566   2.97381
   D17        2.70996   0.00091  -0.00150   0.02839   0.02680   2.73676
   D18        0.60214   0.00117   0.00017   0.04212   0.04226   0.64439
   D19       -1.40728   0.00110   0.00130   0.03485   0.03608  -1.37120
   D20       -1.47517  -0.00031  -0.00316   0.02568   0.02243  -1.45273
   D21        2.70019  -0.00006  -0.00149   0.03942   0.03789   2.73809
   D22        0.69078  -0.00012  -0.00037   0.03214   0.03172   0.72250
   D23        0.40087  -0.00056  -0.00074   0.01532   0.01441   0.41528
   D24       -2.82083  -0.00027  -0.00165   0.03306   0.03143  -2.78940
   D25       -1.69258   0.00067   0.00267   0.03566   0.03828  -1.65431
   D26        1.36890   0.00097   0.00176   0.05340   0.05530   1.42420
   D27        2.48275   0.00073   0.00415   0.03493   0.03884   2.52159
   D28       -0.73895   0.00102   0.00325   0.05267   0.05586  -0.68309
   D29        0.72102   0.00073   0.00159   0.02554   0.02707   0.74809
   D30       -1.38645   0.00050   0.00082   0.02094   0.02175  -1.36470
   D31        2.87223   0.00053   0.00123   0.01523   0.01652   2.88875
   D32       -1.35434  -0.00003   0.00104   0.04633   0.04742  -1.30691
   D33        2.82138  -0.00025   0.00027   0.04173   0.04211   2.86349
   D34        0.79687  -0.00023   0.00068   0.03602   0.03687   0.83374
   D35        2.88985   0.00042   0.00201   0.03683   0.03881   2.92866
   D36        0.78239   0.00019   0.00124   0.03222   0.03349   0.81587
   D37       -1.24212   0.00022   0.00165   0.02651   0.02825  -1.21387
   D38        0.39869   0.00019  -0.00246   0.05941   0.05657   0.45526
   D39       -2.74333  -0.00059   0.00333  -0.03203  -0.02873  -2.77206
   D40        2.62297   0.00077  -0.00033   0.04748   0.04684   2.66981
   D41       -0.51905  -0.00001   0.00546  -0.04396  -0.03847  -0.55751
   D42       -1.57897   0.00058  -0.00056   0.06052   0.05972  -1.51925
   D43        1.56220  -0.00020   0.00523  -0.03092  -0.02559   1.53662
   D44       -0.98690  -0.00029  -0.00167  -0.03412  -0.03583  -1.02273
   D45       -3.10299  -0.00019  -0.00201  -0.03631  -0.03829  -3.14128
   D46        1.13809  -0.00021  -0.00145  -0.04038  -0.04187   1.09622
   D47        1.13199  -0.00067  -0.00395  -0.04933  -0.05334   1.07865
   D48       -0.98411  -0.00057  -0.00428  -0.05151  -0.05579  -1.03990
   D49       -3.02621  -0.00059  -0.00373  -0.05559  -0.05938  -3.08559
   D50       -3.11935  -0.00040  -0.00179  -0.03908  -0.04088   3.12296
   D51        1.04774  -0.00030  -0.00212  -0.04126  -0.04333   1.00441
   D52       -0.99436  -0.00032  -0.00157  -0.04534  -0.04692  -1.04128
   D53       -0.92604  -0.00051  -0.00070  -0.01578  -0.01630  -0.94234
   D54       -3.05723  -0.00045  -0.00225  -0.02098  -0.02315  -3.08037
   D55        1.18862  -0.00050  -0.00156  -0.02464  -0.02610   1.16251
   D56        1.17536  -0.00031  -0.00053  -0.01294  -0.01342   1.16194
   D57       -0.95582  -0.00025  -0.00208  -0.01814  -0.02027  -0.97609
   D58       -2.99317  -0.00030  -0.00139  -0.02180  -0.02323  -3.01639
   D59       -3.06102   0.00040   0.00223   0.00265   0.00506  -3.05596
   D60        1.09099   0.00046   0.00068  -0.00255  -0.00179   1.08920
   D61       -0.94636   0.00041   0.00137  -0.00622  -0.00475  -0.95110
   D62        1.07281   0.00043   0.00180   0.02381   0.02561   1.09842
   D63       -3.09475   0.00064   0.00213   0.03251   0.03469  -3.06005
   D64       -1.04687   0.00056   0.00219   0.03447   0.03670  -1.01017
   D65       -3.10704   0.00021   0.00111   0.02544   0.02648  -3.08057
   D66       -0.99142   0.00042   0.00144   0.03414   0.03556  -0.95586
   D67        1.05646   0.00034   0.00150   0.03609   0.03756   1.09402
   D68       -1.05521   0.00023   0.00119   0.02961   0.03080  -1.02441
   D69        1.06042   0.00044   0.00152   0.03831   0.03988   1.10030
   D70        3.10830   0.00036   0.00158   0.04027   0.04189  -3.13300
         Item               Value     Threshold  Converged?
[...]
 01526374,-0.00427189,-0.00002368,0.00051069,-0.01125901,0.00212385,0.0
 0145271,-0.00112178,-0.00133249,0.00015645,0.00104951,-0.00076367,0.33
 511713,0.61724778,-0.04294177,0.05198256,-0.10220296,-0.01788787,-0.00
 049444,-0.08190025,-0.01310582,-0.01067707,0.00485398,-0.03993552,0.00
 261112,-0.10194867,-0.01453896,-0.00720889,-0.00518486,0.02916250,0.00
 124604,0.01451127,0.00031213,0.00167689,-0.00151351,0.00210170,-0.0048
 3235,-0.00843092,-0.00043528,-0.00090151,0.00072643,0.07743782,-0.0519
 4352,0.28517799,-0.18421316,-0.01112858,-0.06174788,0.01221218,0.02849
 978,-0.01046738,-0.11799903,-0.10646157,0.04987944,0.00344120,0.009071
 63,0.00534095,-0.11313564,0.03691868,-0.03798744,-0.00190249,-0.001183
 52,-0.00300211,-0.02360481,0.01338544,-0.02553463,0.00000292,0.0017007
 1,0.00065467,-0.00018991,0.00187715,-0.00115965,0.00302686,-0.08277947
 ,0.04265834,0.42340681,0.00782117,-0.07075511,0.01090637,0.00814771,0.
 01145163,-0.00023039,-0.12278691,-0.63110039,0.31911005,0.00886360,-0.
 03559974,0.03008704,0.02382761,-0.09809543,0.01976329,0.00052126,-0.00
 170483,-0.00160439,0.00270344,0.00626786,-0.00581726,0.00107393,0.0006
 7329,0.00098744,-0.00041103,-0.00049101,-0.00155676,-0.03660406,-0.074
 38229,0.01534257,0.12584105,0.89328425,-0.07466822,-0.00262501,-0.0982
 6004,-0.00041274,0.01156619,-0.00002352,0.05983678,0.33004455,-0.26902
 707,0.00876882,0.01113920,0.00389724,-0.02803607,0.02571354,-0.1294227
 9,-0.00095726,-0.00211804,0.00300339,-0.00886918,-0.00968339,0.0021417
 5,-0.00069793,0.00058358,-0.00111930,0.00233619,0.00030381,0.00373671,
 0.02332669,-0.00562980,0.00697681,0.03128678,-0.37562916,0.50813308,-0
 .00456063,0.00612269,-0.00165384,0.00096494,-0.00084006,0.00348672,0.0
 0111944,0.00019453,0.00115817,-0.04911663,-0.00269579,-0.00200943,0.00
 097301,-0.00688847,0.01103386,0.00114021,-0.00960599,0.01415553,0.0005
 7071,-0.00001704,0.00039417,0.00133395,-0.00067089,0.00034537,-0.00008
 937,-0.00011219,-0.00012405,0.00464766,0.01826697,-0.02618287,-0.00440
 679,-0.00306651,-0.00300086,0.04800709,0.00123389,0.00133561,0.0007307
 6,-0.00051018,0.00028186,-0.00056757,0.00085605,-0.00152424,0.00243358
 ,0.00029551,-0.13297139,0.12767804,0.00401697,-0.01408678,0.02128120,-
 0.00026115,0.00850565,-0.01465353,0.00058826,-0.00016141,0.00016055,-0
 .00077839,-0.00000086,0.00020524,-0.00002667,-0.00008064,-0.00015628,0
 .00078865,-0.00511896,0.00240734,-0.00355673,-0.00412296,-0.00263268,-
 0.00371869,0.14709375,-0.00064104,0.00086630,0.00035275,-0.00044015,-0
 .00100578,0.00114335,0.00067438,-0.00020863,0.00086816,-0.00737438,0.1
 2869700,-0.22895238,0.00095783,-0.00523310,0.00763182,-0.00095126,0.01
 081149,-0.02111683,0.00034755,0.00017743,-0.00004493,-0.00074572,0.000
 20763,0.00050574,-0.00003725,-0.00008800,-0.00003756,0.00409747,0.0049
 8571,-0.00726464,-0.00207378,-0.00291305,-0.00032836,0.00279713,-0.134
 29531,0.24752527,-0.00311478,0.00019691,0.00180819,-0.00037227,-0.0003
 5458,0.00043351,-0.00101861,0.00221691,0.00054697,0.00272820,-0.003326
 64,-0.00783745,-0.07570915,0.02879837,0.07528620,-0.00041092,-0.001061
 45,0.00005834,-0.01308118,0.01116228,0.02953386,0.00017054,-0.00058522
 ,-0.00024369,-0.00634042,-0.00267975,-0.00172050,0.00079733,0.00096128
 ,-0.00154295,0.00780365,-0.00763107,-0.01381503,0.00036088,0.00025130,
 0.00013691,0.08696530,0.00185085,-0.00028105,-0.00131281,-0.00050515,-
 0.00004762,0.00031741,0.00226765,-0.00373393,-0.00106643,0.00999783,-0
 .01265273,-0.02981805,0.02806593,-0.06613553,-0.06699939,-0.00395275,-
 0.00512207,0.00027322,-0.00179882,0.00206154,0.00482156,-0.00052378,0.
 00040687,0.00033032,-0.00089613,0.00015458,-0.00007007,0.00106075,-0.0
 0068643,-0.00037220,-0.00909839,0.00707907,0.01753504,0.00106788,0.000
 86260,0.00048950,-0.02903020,0.07838666,-0.00290669,0.00191346,0.00172
 186,-0.00030790,0.00001740,-0.00006346,-0.00297408,0.00223845,0.001836
 71,0.00009934,-0.00057338,-0.00140281,0.07890873,-0.07262616,-0.242738
 07,-0.00044760,-0.00021869,0.00131791,0.00007694,0.00052079,0.00052888
 ,-0.00010364,0.00011119,-0.00004963,-0.00007833,0.00034478,0.00117317,
 0.00050338,-0.00109174,-0.00060380,0.01099051,-0.00817933,-0.02528552,
 -0.00036798,-0.00001194,0.00082434,-0.08375491,0.07723932,0.26170496,-
 0.00099881,-0.00010492,-0.00014136,-0.00016779,-0.00020659,-0.00056641
 ,-0.00035002,-0.00022594,0.00003164,0.00185806,-0.00772862,0.01641995,
 -0.00003809,-0.00024401,-0.00070016,-0.06469179,0.02961889,-0.06106257
 ,-0.00006400,-0.00012784,0.00001121,-0.01359583,0.01353224,-0.03033941
 ,0.00156136,0.00182987,-0.00080543,0.00037739,-0.00021647,0.00293418,0
 .00123163,0.00091313,0.00014894,-0.00119762,0.00210690,0.00285230,-0.0
 0011188,-0.00005638,-0.00013888,0.07999527,0.00037687,-0.00044241,-0.0
 0027772,-0.00038090,-0.00039114,-0.00018407,-0.00006758,-0.00004313,0.
 00017653,-0.00406461,0.00620349,-0.01378547,-0.00040941,0.00058460,0.0
 0043361,0.02931324,-0.09408847,0.08982990,0.00018518,-0.00013533,-0.00
 004203,-0.00111497,0.00066199,-0.00236536,-0.00090040,0.00077112,-0.00
 133012,0.00063424,0.00160079,-0.00011650,0.00011212,-0.00027671,-0.000
 43151,0.00152780,-0.00069706,-0.00223295,0.00009098,0.00006638,0.00019
 955,-0.03412064,0.09748096,0.00019296,-0.00024528,0.00160092,0.0006629
 0,-0.00015021,0.00064797,0.00016930,-0.00005181,0.00043082,-0.00304159
 ,0.01044012,-0.02230181,-0.00031906,0.00050566,0.00053911,-0.05977581,
 0.08905389,-0.23047861,0.00011978,-0.00027949,-0.00003861,-0.00212870,
 0.00154816,-0.00249333,0.00068829,0.00030180,0.00012489,-0.00096398,0.
 00155562,-0.00316036,-0.00058510,-0.00166715,-0.00139925,0.00222295,-0
 .00281947,-0.00216705,0.00013891,-0.00012714,0.00024521,0.06278212,-0.
 09638010,0.25483731,-0.00048913,0.00012317,0.00024852,-0.00028184,-0.0
 0138390,-0.00024596,0.00007529,0.00016633,-0.00026901,0.00280075,0.016
 64359,0.00096590,-0.00216066,0.00093671,0.00250114,-0.06565587,-0.0679
 0815,-0.00334175,-0.00028615,0.00013065,0.00028488,-0.00641049,-0.0326
 3469,0.00006711,-0.00726905,0.00124864,-0.00080085,0.00287019,0.002228
 06,-0.00049824,0.00005808,-0.00073230,0.00046152,0.00095797,-0.0004440
 2,-0.00030545,0.00031692,0.00092462,0.00022273,0.00167393,0.00927146,0
 .00053050,0.07214713,0.00064280,0.00044254,-0.00017599,0.00108473,0.00
 114985,0.00032060,0.00013690,-0.00006076,0.00013904,-0.00191250,-0.012
 97150,-0.00048507,0.00189736,0.00066234,-0.00208359,-0.06709177,-0.294
 77159,-0.00742870,0.00019672,0.00037774,0.00028601,0.00019559,0.000273
 46,0.00049643,-0.00058625,0.00098796,0.00002922,-0.00238574,-0.0021125
 3,-0.00003168,-0.00062930,0.00062749,-0.00041768,-0.00008416,0.0008667
 1,-0.00010839,-0.00027152,-0.00075363,-0.00004093,-0.00313700,-0.01185
 056,-0.00081423,0.07276321,0.31658484,0.00004771,0.00025709,0.00055189
 ,0.00031946,0.00055043,-0.00016534,-0.00002027,-0.00027963,0.00064879,
 -0.00483609,-0.02697417,-0.00310802,0.00364626,-0.00136090,-0.00347540
 ,-0.00311708,-0.00536016,-0.04606383,0.00030973,0.00034554,0.00008929,
 -0.00117474,-0.00304710,-0.00092952,0.00003051,0.00052338,0.00024932,-
 0.00169743,-0.00020395,-0.00042643,-0.00037771,-0.00006945,-0.00144041
 ,-0.00089463,0.00005558,0.00067091,-0.00021467,-0.00133661,-0.00005296
 ,0.00708178,0.02664781,0.00149115,0.00027792,0.01068177,0.05124397,-0.
 00264671,-0.00119332,-0.00183997,-0.00013677,-0.00060659,0.00017251,0.
 00051881,0.00046632,-0.00063821,0.00130455,0.00031282,0.00006040,-0.01
 681208,0.01379695,-0.02777518,-0.00025539,-0.00008653,0.00015685,-0.09
 131096,0.03535202,-0.09036725,0.00001944,-0.00062628,-0.00036359,0.006
 20080,-0.00486540,0.01368453,-0.00029595,0.00211514,-0.00058440,-0.003
 90309,-0.00347698,0.00349684,-0.00022727,-0.00052997,0.00003200,0.0008
 4109,0.00050338,-0.00002140,-0.00005991,0.00003168,0.00005578,0.000044
 77,-0.00002751,-0.00007548,0.10486519,-0.00029478,0.00018086,-0.000501
 51,0.00023036,0.00005854,-0.00001009,0.00081863,0.00083368,-0.00040553
 ,0.00059026,0.00042070,-0.00023266,-0.00422307,0.00168547,-0.00611009,
 -0.00014547,-0.00010455,0.00000157,0.03647744,-0.07771627,0.07324070,-
 0.00064081,0.00158484,-0.00092671,-0.00658247,0.00426656,-0.01396204,-
 0.00025092,0.00014652,0.00006575,-0.00118771,-0.00137845,0.00143925,0.
 00004107,0.00005106,0.00017519,0.00077891,0.00012613,0.00017444,0.0000
 8654,-0.00004701,0.00009461,-0.00001407,-0.00001231,0.00000077,-0.0407
 9139,0.07952663,0.00035117,-0.00026696,0.00029594,-0.00007211,-0.00006
 459,0.00002302,-0.00017707,-0.00029598,0.00023082,-0.00023057,-0.00002
 835,-0.00017760,0.00179937,-0.00130764,0.00230522,0.00000315,-0.000138
 89,0.00005042,-0.09225050,0.07379694,-0.22724979,-0.00043819,0.0015405
 4,0.00073616,-0.00982085,0.00862368,-0.02483930,-0.00009487,0.00005166
 ,-0.00009660,0.00155442,0.00054981,0.00083846,-0.00022346,-0.00014526,
 -0.00008481,-0.00026746,-0.00022574,0.00080436,0.00022044,0.00007982,0
 .00006608,-0.00006148,-0.00003129,-0.00001570,0.09654282,-0.07804942,0
 .24985405,0.00096603,0.00187339,-0.00008470,-0.00134098,0.00046033,-0.
 00032200,0.00071233,0.00186032,-0.00022085,-0.00645033,0.00174667,-0.0
 0005642,-0.00754733,-0.03535424,0.00098167,0.00001130,0.00057295,0.000
 46976,-0.05276902,-0.03812052,0.00222795,-0.00137529,0.00119304,0.0028
 9082,0.00261739,0.01443447,-0.00199070,0.00122803,-0.00337692,0.000719
 41,-0.00067228,-0.00337108,0.00010741,-0.00014428,-0.00020357,-0.00000
 320,0.00072623,0.00015777,0.00047233,0.00008146,-0.00002589,-0.0000878
 4,0.00011670,-0.00001517,-0.00003798,0.00181886,0.01388701,-0.00006638
 ,0.06130677,0.00000731,0.00046046,-0.00031241,-0.00014921,0.00011546,-
 0.00009725,0.00110106,0.00084225,-0.00029734,-0.00022559,0.00151876,0.
 00073688,-0.00241277,-0.00416911,-0.00031240,0.00038219,0.00029017,0.0
 0013351,-0.04082175,-0.30347101,0.01248855,0.00198700,0.00019252,-0.00
 277223,-0.00189791,-0.01248961,0.00108202,0.00021519,-0.00066382,0.000
 28999,-0.00002252,-0.00149507,0.00137690,-0.00001267,-0.00007455,-0.00
 002358,-0.00059520,0.00006466,0.00007643,-0.00003329,0.00001238,-0.000
 03938,-0.00003376,0.00000870,0.00003514,-0.00143550,-0.00896915,0.0000
 6338,0.04418408,0.32779064,0.00062055,0.00083784,-0.00003134,0.0001968
 7,0.00019968,-0.00008306,0.00043027,0.00029950,-0.00045030,0.00009054,
 -0.00035790,0.00035909,-0.00008455,0.00119770,-0.00078523,0.00027842,0
 .00016564,0.00005938,0.00267164,0.01508717,-0.04728346,0.00312707,-0.0
 0131562,-0.00473603,-0.00529429,-0.02748481,0.00162298,0.00001556,-0.0
 0029237,0.00044700,-0.00121141,-0.00155581,0.00031764,-0.00023463,-0.0
 0019678,-0.00007542,0.00003697,0.00028819,-0.00012068,-0.00003956,0.00
 003705,-0.00003269,-0.00007910,0.00004594,0.00004353,0.00522510,0.0261
 8258,-0.00123220,-0.00460823,-0.01222442,0.05027886,0.00017442,0.00091
 893,-0.00075742,-0.00095753,-0.00042815,-0.00068364,0.00021487,0.00043
 317,-0.00026442,-0.00716493,-0.00054181,-0.00217943,0.00014189,-0.0005
 5190,-0.00042043,-0.01618047,0.01541282,0.02541894,-0.00010914,-0.0025
 4758,-0.00001159,-0.10175714,0.05832020,0.08989110,0.00420418,-0.00395
 156,-0.00786926,0.00119748,0.00014496,0.00290179,-0.00058020,-0.000723
 31,0.00026717,0.00003437,-0.00011218,-0.00000888,0.00010339,-0.0000148
 0,0.00001871,0.00081205,0.00053888,-0.00031691,0.00096245,-0.00053980,
 0.00037846,-0.00007103,0.00013295,0.00031163,0.00044887,-0.00051291,-0
 .00043576,0.11369153,0.00027008,0.00038213,-0.00010170,-0.00003766,-0.
 00003262,-0.00015108,0.00017298,0.00008048,0.00013206,-0.00177719,0.00
 068166,0.00012560,-0.00054880,-0.00002819,0.00028111,-0.00225414,0.002
 04900,0.00433137,-0.00244965,-0.00642984,0.00214642,0.05845117,-0.1061
 4971,-0.09267558,0.01481391,-0.01478138,-0.02525023,-0.00004861,0.0000
 9777,0.00060163,-0.00051312,-0.00015211,-0.00029773,0.00022584,-0.0000
 9112,-0.00020649,0.00006236,0.00006818,-0.00000190,0.00044401,-0.00008
 796,-0.00017014,0.00018915,0.00027404,0.00039338,-0.00018618,0.0001307
 1,0.00000353,0.00097334,-0.00079970,-0.00165901,-0.06135403,0.11700781
 ,0.00024323,0.00003334,0.00004409,0.00009164,-0.00000262,-0.00005808,0
 .00009071,-0.00006283,0.00008056,-0.00112409,0.00024050,0.00111387,-0.
 00030368,0.00020023,0.00009509,-0.00271830,0.00272448,0.00306009,-0.00
 019931,-0.00019334,0.00075607,0.09096515,-0.09362642,-0.19514540,-0.00
 164488,0.00187360,0.00154504,-0.00006665,-0.00023951,0.00024799,-0.000
 15601,0.00002953,-0.00014352,-0.00030009,0.00007946,0.00023233,-0.0000
 0746,0.00002470,-0.00003025,0.00042884,0.00019241,0.00045939,0.0006638
 5,0.00017431,0.00009480,-0.00002497,0.00025922,0.00045731,0.00030215,-
 0.00008366,0.00008548,-0.09838874,0.10241636,0.20635419,0.00028630,0.0
 0002059,0.00045827,0.00015338,0.00007277,0.00020764,0.00016687,0.00004
 548,0.00007634,0.00195542,0.00022030,-0.00060680,-0.00014319,-0.000019
 48,0.00025115,-0.01232661,0.01381500,-0.03004959,0.00007669,0.00064900
 ,-0.00020562,-0.07084063,0.03143685,-0.06458493,0.00285911,-0.00363250
 ,0.00796753,0.00010697,-0.00038439,-0.00064359,-0.00039433,-0.00050056
 ,-0.00030977,-0.00034875,-0.00001551,0.00074604,0.00004553,0.00010667,
 0.00000611,-0.00641842,-0.00075441,-0.00033697,0.00087052,-0.00041309,
 0.00014604,0.00007457,0.00024847,-0.00009864,-0.00008938,0.00004430,0.
 00013818,0.00449794,-0.00661374,0.01266957,0.07916853,-0.00002151,0.00
 024598,-0.00007955,-0.00006780,0.00002626,-0.00000478,0.00022413,0.000
 22049,-0.00034052,0.00027779,0.00001356,0.00042922,0.00005295,-0.00008
 748,-0.00023749,-0.00124777,0.00192941,-0.00478471,0.00038470,0.001844
 24,0.00166357,0.03160332,-0.08681442,0.08514682,0.01032306,-0.01557741
 ,0.02865223,0.00023477,-0.00016981,-0.00002733,-0.00042688,-0.00053079
 ,0.00038067,0.00016914,-0.00002932,0.00001917,0.00011525,0.00001738,-0
 .00001638,-0.00130021,0.00065861,0.00003715,0.00035019,0.00011772,-0.0
 0035037,-0.00006351,-0.00035240,-0.00124010,-0.00042926,0.00039002,-0.
 00010237,-0.00541052,0.00605762,-0.01306049,-0.03269487,0.09715554,-0.
 00000358,-0.00014619,-0.00002573,-0.00017284,-0.00011440,-0.00003565,-
 0.00003972,0.00006248,0.00004413,-0.00011245,-0.00019956,0.00078375,-0
 .00019996,0.00022283,0.00009296,-0.00080311,0.00046153,-0.00256809,0.0
 0035067,-0.00087190,0.00092228,-0.06532151,0.08548274,-0.23344529,0.00
 030754,0.00042176,-0.00097474,0.00026115,0.00004240,0.00023395,0.00015
 006,-0.00008341,-0.00005452,-0.00054237,0.00042620,0.00026927,-0.00006
 960,0.00009631,-0.00001385,-0.00020538,-0.00048633,0.00133157,-0.00053
 506,-0.00019455,-0.00007752,-0.00038206,0.00038604,0.00037503,0.000095
 10,-0.00000675,0.00020986,-0.00769063,0.00983278,-0.01958212,0.0740681
 8,-0.09554264,0.25132182,-0.00021403,-0.00007262,-0.00011923,-0.000261
 51,-0.00011157,-0.00000113,-0.00007841,0.00030160,-0.00017608,0.000482
 96,0.00017607,-0.00022320,0.00070972,0.00172748,0.00243720,0.00097012,
 -0.00171643,0.00002216,-0.01198193,-0.00131710,-0.00082247,-0.00463113
 ,-0.00005753,-0.00064903,-0.30596294,-0.03387819,-0.00512308,0.0004744
 7,0.00017553,-0.00004111,0.00074569,-0.00038663,0.00051730,-0.00002553
 ,-0.00001821,0.00001149,-0.00084146,-0.00021694,-0.00003396,0.00032388
 ,0.00005154,0.00013089,-0.00044372,0.00009424,0.00020100,0.00046114,-0
 .00026291,0.00036566,-0.00002959,0.00044150,-0.00002300,0.00032907,-0.
 00042194,-0.00030835,0.00005485,-0.00038085,0.00028890,0.32998792,0.00
 031242,0.00058734,0.00003740,0.00006218,0.00020056,-0.00003980,0.00024
 373,0.00001990,-0.00006381,0.00010912,-0.00024500,-0.00021683,0.000989
 00,-0.00151796,-0.00311149,-0.00027238,-0.00732078,0.00048731,0.016508
 54,0.00195097,0.00106085,-0.03348809,-0.00328724,-0.00153267,-0.033153
 91,-0.05118571,0.00035990,0.00009159,-0.00056774,0.00028959,-0.0009799
 0,-0.00025667,-0.00043260,0.00000162,0.00003178,0.00002045,0.00106624,
 0.00025845,-0.00019622,0.00026423,0.00008285,-0.00012828,-0.00212378,-
 0.00013823,-0.00002038,-0.00058614,0.00054877,0.00028686,0.00012679,0.
 00005293,0.00064550,0.00026590,0.00110733,-0.00058877,0.00034383,0.000
 86697,0.00058212,0.03727189,0.05752555,0.00019155,0.00004717,0.0003072
 9,0.00009978,0.00005149,0.00001044,-0.00019711,-0.00038498,0.00057616,
 -0.00026546,-0.00023918,0.00003128,0.00147130,-0.00321248,-0.00424798,
 -0.00052626,-0.00074227,0.00016789,0.02807413,0.00363121,-0.00026368,0
 .00034834,0.00065738,-0.00092794,-0.00687060,0.00017951,-0.04698179,-0
 .00012258,-0.00007927,-0.00004231,0.00004100,0.00076802,-0.00134439,0.
 00002506,0.00005010,0.00002993,0.00151677,0.00012868,-0.00002535,0.000
 47172,-0.00005921,0.00032468,-0.00021661,-0.00023598,0.00039393,-0.000
 12456,0.00087463,0.00064911,-0.00055967,0.00007652,0.00094068,-0.00041
 223,-0.00022386,-0.00000076,0.00034586,-0.00012367,-0.00000595,0.00332
 756,0.00288390,0.05039774,0.00025515,0.00028974,-0.00003873,0.00013737
 ,0.00012331,-0.00002299,-0.00016717,0.00030897,-0.00010265,-0.00011187
 ,0.00010389,0.00001655,0.00091628,-0.00089115,-0.00014164,0.00087882,-
 0.00071057,0.00138346,0.00469847,-0.00576912,0.01249737,0.00132991,-0.
 00342312,0.00616358,-0.07988538,0.03546632,-0.07426147,-0.00012746,-0.
 00026545,0.00011050,-0.00092730,-0.00002245,0.00021261,0.00000662,0.00
 003775,-0.00007200,0.00014162,0.00009002,-0.00016340,-0.00022086,-0.00
 029518,-0.00013844,0.00010223,0.00008228,0.00000722,-0.00043010,0.0011
 0196,0.00265290,0.00038449,-0.00020955,-0.00082065,0.00000795,0.000602
 22,-0.00021261,0.00024463,-0.00169210,0.00055669,-0.01006958,0.0129471
 2,-0.02661798,0.08283618,-0.00014402,-0.00028693,0.00002656,-0.0000270
 5,-0.00004578,-0.00003038,-0.00019613,-0.00068974,0.00021168,-0.000119
 37,-0.00006380,-0.00008016,-0.00031412,0.00014420,0.00084594,0.0017799
 0,0.00150370,0.00090828,-0.00660422,0.00647438,-0.01535754,0.01047551,
 -0.01623545,0.02863124,0.03509912,-0.08724701,0.08670589,-0.00004125,0
 .00011400,0.00009201,0.00056114,0.00095796,-0.00018514,0.00009492,-0.0
 0006975,-0.00013459,-0.00016515,-0.00013952,0.00012085,-0.00129389,-0.
 00006339,-0.00066433,0.00029889,0.00029772,-0.00048821,0.00189699,-0.0
 0098033,-0.00320200,-0.00057351,0.00039307,0.00020229,0.00052074,0.000
 61590,-0.00039048,-0.00197472,-0.00598214,-0.00037147,-0.00139891,0.00
 128591,-0.00404773,-0.03787488,0.10001699,-0.00005554,-0.00078912,0.00
 034275,0.00000160,-0.00019516,0.00010527,-0.00088722,-0.00056920,0.000
 95769,0.00030827,-0.00017793,-0.00003599,-0.00076475,0.00044621,0.0008
 4749,-0.00016512,-0.00066021,0.00020550,-0.00946512,0.00932154,-0.0242
 1184,-0.00001980,0.00036292,0.00040594,-0.07304841,0.08609958,-0.22557
 679,-0.00004695,0.00062222,-0.00040012,0.00174693,0.00176205,-0.001196
 38,-0.00008476,-0.00002925,0.00001813,-0.00002292,-0.00021580,0.000229
 00,0.00061606,0.00009469,-0.00002738,0.00012945,-0.00012523,0.00027756
 ,0.00277023,-0.00269669,-0.00298999,-0.00022863,-0.00018992,0.00046592
 ,0.00025153,0.00047347,0.00033385,-0.00024500,-0.00041843,0.00119884,0
 .00021847,-0.00032303,0.00001100,0.07899168,-0.09279270,0.24903955\\-0
 .00002298,-0.00008008,0.00002203,0.00001557,-0.00000050,-0.00000302,-0
 .00002211,-0.00004550,0.00002088,-0.00002194,0.00002593,0.00002893,-0.
 00001704,-0.00001610,-0.00001917,0.00001803,-0.00001391,-0.00001772,0.
 00000985,0.00000289,-0.00000305,-0.00000563,-0.00000171,-0.00001240,-0
 .00000012,0.00000536,0.00000273,-0.00001983,0.00005844,-0.00002539,0.0
 0005841,0.00007654,-0.00000884,0.00000290,-0.00000983,-0.00000921,0.00
 000555,0.00000649,0.00000676,-0.00000093,-0.00000086,0.00000349,-0.000
 00504,-0.00000160,-0.00000069,0.00000194,-0.00000335,0.00000319,-0.000
 00487,-0.00000107,0.00000248,0.00000273,0.00000129,0.00000182,0.000000
 67,-0.00000024,0.00000395,0.00000460,0.00000025,0.00000158,0.00000024,
 -0.00000244,0.00000166\\\@


 UNLESS WE CHANGE DIRECTIONS, WE WILL WIND UP WHERE WE ARE HEADED.
     -- CONFUCIUS
 Job cpu time:       0 days  3 hours 39 minutes 38.0 seconds.
 Elapsed time:       0 days  0 hours 13 minutes 47.6 seconds.
 File lengths (MBytes):  RWF=    190 Int=      0 D2E=      0 Chk=      9 Scr=      1
 Normal termination of Gaussian 16 at Sat Sep 20 04:50:37 2025.
