 Entering Gaussian System, Link 0=g16
 Input=HTAC0125.gjf
 Output=HTAC0125.log
 Initial command:
 /usr/local/g16/l1.exe "/dados_01/scratch/Gau-2112820.inp" -scrdir="/dados_01/scratch/"
 Entering Link 1 = /usr/local/g16/l1.exe PID=   2112821.
  
 Copyright (c) 1988-2017, Gaussian, Inc.  All Rights Reserved.
  
 This is part of the Gaussian(R) 16 program.  It is based on
 the Gaussian(R) 09 system (copyright 2009, Gaussian, Inc.),
 the Gaussian(R) 03 system (copyright 2003, Gaussian, Inc.),
 the Gaussian(R) 98 system (copyright 1998, Gaussian, Inc.),
 the Gaussian(R) 94 system (copyright 1995, Gaussian, Inc.),
 the Gaussian 92(TM) system (copyright 1992, Gaussian, Inc.),
 the Gaussian 90(TM) system (copyright 1990, Gaussian, Inc.),
 the Gaussian 88(TM) system (copyright 1988, Gaussian, Inc.),
 the Gaussian 86(TM) system (copyright 1986, Carnegie Mellon
 University), and the Gaussian 82(TM) system (copyright 1983,
 Carnegie Mellon University). Gaussian is a federally registered
 trademark of Gaussian, Inc.
  
 This software contains proprietary and confidential information,
 including trade secrets, belonging to Gaussian, Inc.
  
 This software is provided under written license and may be
 used, copied, transmitted, or stored only in accord with that
 written license.
  
 The following legend is applicable only to US Government
 contracts under FAR:
  
                    RESTRICTED RIGHTS LEGEND
  
 Use, reproduction and disclosure by the US Government is
 subject to restrictions as set forth in subparagraphs (a)
 and (c) of the Commercial Computer Software - Restricted
 Rights clause in FAR 52.227-19.
  
 Gaussian, Inc.
 340 Quinnipiac St., Bldg. 40, Wallingford CT 06492
  
  
 ---------------------------------------------------------------
 Warning -- This program may not be used in any manner that
 competes with the business of Gaussian, Inc. or will provide
 assistance to any competitor of Gaussian, Inc.  The licensee
 of this program is prohibited from giving any competitor of
 Gaussian, Inc. access to this program.  By using this program,
 the user acknowledges that Gaussian, Inc. is engaged in the
 business of creating and licensing software in the field of
 computational chemistry and represents and warrants to the
 licensee that it is not a competitor of Gaussian, Inc. and that
 it will not use this program in any manner prohibited above.
 ---------------------------------------------------------------
  

 Cite this work as:
 Gaussian 16, Revision B.01,
 M. J. Frisch, G. W. Trucks, H. B. Schlegel, G. E. Scuseria, 
 M. A. Robb, J. R. Cheeseman, G. Scalmani, V. Barone, 
 G. A. Petersson, H. Nakatsuji, X. Li, M. Caricato, A. V. Marenich, 
 J. Bloino, B. G. Janesko, R. Gomperts, B. Mennucci, H. P. Hratchian, 
 J. V. Ortiz, A. F. Izmaylov, J. L. Sonnenberg, D. Williams-Young, 
 F. Ding, F. Lipparini, F. Egidi, J. Goings, B. Peng, A. Petrone, 
 T. Henderson, D. Ranasinghe, V. G. Zakrzewski, J. Gao, N. Rega, 
 G. Zheng, W. Liang, M. Hada, M. Ehara, K. Toyota, R. Fukuda, 
 J. Hasegawa, M. Ishida, T. Nakajima, Y. Honda, O. Kitao, H. Nakai, 
 T. Vreven, K. Throssell, J. A. Montgomery, Jr., J. E. Peralta, 
 F. Ogliaro, M. J. Bearpark, J. J. Heyd, E. N. Brothers, K. N. Kudin, 
 V. N. Staroverov, T. A. Keith, R. Kobayashi, J. Normand, 
 K. Raghavachari, A. P. Rendell, J. C. Burant, S. S. Iyengar, 
 J. Tomasi, M. Cossi, J. M. Millam, M. Klene, C. Adamo, R. Cammi, 
 J. W. Ochterski, R. L. Martin, K. Morokuma, O. Farkas, 
 J. B. Foresman, and D. J. Fox, Gaussian, Inc., Wallingford CT, 2016.
 
 ******************************************
 Gaussian 16:  ES64L-G16RevB.01 20-Dec-2017
                20-Sep-2025 
 ******************************************
 %nprocs=16
 Will use up to   16 processors via shared memory.
 %mem=40GB
 %chk=HTAC0125.chk
 ----------------------------------------------------------------------
 # opt freq=noraman M08HX/6-311++G** scf=xqc Empiricaldispersion=pfd In
 t(Grid=ultraFine)
 ----------------------------------------------------------------------
 1/18=20,19=15,26=4,38=1/1,3;
 2/9=110,12=2,17=6,18=5,40=1/2;
 3/5=4,6=6,7=1111,11=2,25=1,30=1,71=1,74=-74,75=-5,124=11/1,2,3;
 4//1;
 5/5=2,8=3,13=1,38=5/2,8;
 6/7=2,8=2,9=2,10=2,28=1/1;
 7//1,2,3,16;
 1/18=20,19=15,26=4/3(2);
 2/9=110/2;
 99//99;
 2/9=110/2;
 3/5=4,6=6,7=1111,11=2,25=1,30=1,71=1,74=-74,75=-5,124=11/1,2,3;
 4/5=5,16=3,69=1/1;
 5/5=2,8=3,13=1,38=5/2,8;
 7//1,2,3,16;
 1/18=20,19=15,26=4/3(-5);
 2/9=110/2;
 6/7=2,8=2,9=2,10=2,19=2,28=1/1;
 99/9=1/99;
 --------
 HTAC0125
 --------
 Symbolic Z-matrix:
 Charge =  0 Multiplicity = 1
 O                    -2.1663   -0.4417   -0.4262 
 O                    -2.4254   -1.9211    1.3433 
 O                    -3.1225    0.5893    1.4215 
 C                     0.9976   -2.2529   -0.0668 
 C                    -0.3132    2.4289    0.0549 
 C                     2.4377   -1.931    -0.4748 
 C                     1.0812    2.7706   -0.4731 
 C                    -0.0471   -2.2571   -1.1908 
 C                    -1.3037    2.2106   -1.092 
 C                     3.4301   -2.0215    0.6849 
 C                     2.0793    2.9507    0.6701 
 C                    -1.453    -2.6535   -0.7424 
 C                    -2.6997    1.8413   -0.5937 
 C                     4.8247   -1.5891    0.2597 
 C                     3.4584    3.3251    0.1515 
 C                    -2.0761   -1.6511    0.2019 
 C                    -2.7019    0.6023    0.2721 
 H                     0.6888   -1.5322    0.701 
 H                     0.9872   -3.2387    0.4158 
 H                    -0.6726    3.2381    0.702 
 H                    -0.2436    1.5265    0.6733 
 H                     2.7485   -2.6188   -1.2707 
 H                     2.4634   -0.9206   -0.9018 
 H                     1.4293    1.9713   -1.139 
 H                     1.0318    3.6899   -1.0693 
 H                    -0.0634   -1.2679   -1.6638 
 H                     0.2777   -2.9651   -1.9632 
 H                    -1.3743    3.1239   -1.6949 
 H                    -0.9254    1.423    -1.7551 
 H                     3.4658   -3.0494    1.0635 
 H                     3.0946   -1.3828    1.5102 
 H                     2.1521    2.0233    1.2503 
 H                     1.7277    3.7338    1.352 
 H                    -2.1162   -2.7568   -1.6089 
 H                    -1.4279   -3.6287   -0.2426 
 H                    -3.1131    2.6684   -0.0048 
 H                    -3.3799    1.6746   -1.4362 
 H                     4.8247   -0.5507   -0.0873 
 H                     5.2018   -2.2224   -0.5497 
 H                     5.5186   -1.6652    1.1026 
 H                     4.1562    3.449     0.9856 
 H                     3.8533    2.5462   -0.5087 
 H                     3.4259    4.266    -0.4071 
 

 GradGradGradGradGradGradGradGradGradGradGradGradGradGradGradGradGradGrad
 Berny optimization.
 Initialization pass.
                           ----------------------------
                           !    Initial Parameters    !
                           ! (Angstroms and Degrees)  !
 --------------------------                            --------------------------
 ! Name  Definition              Value          Derivative Info.                !
 --------------------------------------------------------------------------------
 ! R1    R(1,16)                 1.3658         estimate D2E/DX2                !
 ! R2    R(1,17)                 1.3654         estimate D2E/DX2                !
 ! R3    R(2,16)                 1.2238         estimate D2E/DX2                !
 ! R4    R(3,17)                 1.224          estimate D2E/DX2                !
 ! R5    R(4,6)                  1.531          estimate D2E/DX2                !
 ! R6    R(4,8)                  1.5345         estimate D2E/DX2                !
 ! R7    R(4,18)                 1.0974         estimate D2E/DX2                !
 ! R8    R(4,19)                 1.0976         estimate D2E/DX2                !
 ! R9    R(5,7)                  1.5297         estimate D2E/DX2                !
 ! R10   R(5,9)                  1.5311         estimate D2E/DX2                !
 ! R11   R(5,20)                 1.0967         estimate D2E/DX2                !
 ! R12   R(5,21)                 1.0962         estimate D2E/DX2                !
 ! R13   R(6,10)                 1.529          estimate D2E/DX2                !
 ! R14   R(6,22)                 1.0969         estimate D2E/DX2                !
 ! R15   R(6,23)                 1.0972         estimate D2E/DX2                !
 ! R16   R(7,11)                 1.5282         estimate D2E/DX2                !
 ! R17   R(7,24)                 1.097          estimate D2E/DX2                !
 ! R18   R(7,25)                 1.0968         estimate D2E/DX2                !
 ! R19   R(8,12)                 1.528          estimate D2E/DX2                !
 ! R20   R(8,26)                 1.0966         estimate D2E/DX2                !
 ! R21   R(8,27)                 1.097          estimate D2E/DX2                !
 ! R22   R(9,13)                 1.5276         estimate D2E/DX2                !
 ! R23   R(9,28)                 1.0966         estimate D2E/DX2                !
 ! R24   R(9,29)                 1.0969         estimate D2E/DX2                !
 ! R25   R(10,14)                1.5207         estimate D2E/DX2                !
 ! R26   R(10,30)                1.096          estimate D2E/DX2                !
 ! R27   R(10,31)                1.0962         estimate D2E/DX2                !
 ! R28   R(11,15)                1.5202         estimate D2E/DX2                !
 ! R29   R(11,32)                1.0964         estimate D2E/DX2                !
 ! R30   R(11,33)                1.0963         estimate D2E/DX2                !
 ! R31   R(12,16)                1.5115         estimate D2E/DX2                !
 ! R32   R(12,34)                1.0961         estimate D2E/DX2                !
 ! R33   R(12,35)                1.0961         estimate D2E/DX2                !
 ! R34   R(13,17)                1.5115         estimate D2E/DX2                !
 ! R35   R(13,36)                1.0963         estimate D2E/DX2                !
 ! R36   R(13,37)                1.0956         estimate D2E/DX2                !
 ! R37   R(14,38)                1.0948         estimate D2E/DX2                !
 ! R38   R(14,39)                1.0947         estimate D2E/DX2                !
 ! R39   R(14,40)                1.0944         estimate D2E/DX2                !
 ! R40   R(15,41)                1.0945         estimate D2E/DX2                !
 ! R41   R(15,42)                1.0948         estimate D2E/DX2                !
 ! R42   R(15,43)                1.0947         estimate D2E/DX2                !
 ! A1    A(16,1,17)            117.8895         estimate D2E/DX2                !
 ! A2    A(6,4,8)              116.4713         estimate D2E/DX2                !
 ! A3    A(6,4,18)             108.2435         estimate D2E/DX2                !
 ! A4    A(6,4,19)             108.3555         estimate D2E/DX2                !
 ! A5    A(8,4,18)             108.8265         estimate D2E/DX2                !
 ! A6    A(8,4,19)             108.2484         estimate D2E/DX2                !
 ! A7    A(18,4,19)            106.2325         estimate D2E/DX2                !
 ! A8    A(7,5,9)              111.2854         estimate D2E/DX2                !
 ! A9    A(7,5,20)             109.7295         estimate D2E/DX2                !
 ! A10   A(7,5,21)             108.7079         estimate D2E/DX2                !
 ! A11   A(9,5,20)             109.5845         estimate D2E/DX2                !
 ! A12   A(9,5,21)             110.261          estimate D2E/DX2                !
 ! A13   A(20,5,21)            107.1793         estimate D2E/DX2                !
 ! A14   A(4,6,10)             113.3242         estimate D2E/DX2                !
 ! A15   A(4,6,22)             109.1508         estimate D2E/DX2                !
 ! A16   A(4,6,23)             108.6241         estimate D2E/DX2                !
 ! A17   A(10,6,22)            109.2276         estimate D2E/DX2                !
 ! A18   A(10,6,23)            109.54           estimate D2E/DX2                !
 ! A19   A(22,6,23)            106.7634         estimate D2E/DX2                !
 ! A20   A(5,7,11)             111.3132         estimate D2E/DX2                !
 ! A21   A(5,7,24)             109.6342         estimate D2E/DX2                !
 ! A22   A(5,7,25)             109.4994         estimate D2E/DX2                !
 ! A23   A(11,7,24)            109.4323         estimate D2E/DX2                !
 ! A24   A(11,7,25)            109.7099         estimate D2E/DX2                !
 ! A25   A(24,7,25)            107.1589         estimate D2E/DX2                !
 ! A26   A(4,8,12)             114.3405         estimate D2E/DX2                !
 ! A27   A(4,8,26)             108.8803         estimate D2E/DX2                !
 ! A28   A(4,8,27)             108.4174         estimate D2E/DX2                !
 ! A29   A(12,8,26)            110.2992         estimate D2E/DX2                !
 ! A30   A(12,8,27)            108.1569         estimate D2E/DX2                !
 ! A31   A(26,8,27)            106.433          estimate D2E/DX2                !
 ! A32   A(5,9,13)             112.4161         estimate D2E/DX2                !
 ! A33   A(5,9,28)             109.5566         estimate D2E/DX2                !
 ! A34   A(5,9,29)             109.3969         estimate D2E/DX2                !
 ! A35   A(13,9,28)            108.7745         estimate D2E/DX2                !
 ! A36   A(13,9,29)            109.8034         estimate D2E/DX2                !
 ! A37   A(28,9,29)            106.7292         estimate D2E/DX2                !
 ! A38   A(6,10,14)            111.488          estimate D2E/DX2                !
 ! A39   A(6,10,30)            109.7948         estimate D2E/DX2                !
 ! A40   A(6,10,31)            109.7487         estimate D2E/DX2                !
 ! A41   A(14,10,30)           109.4743         estimate D2E/DX2                !
 ! A42   A(14,10,31)           108.9965         estimate D2E/DX2                !
 ! A43   A(30,10,31)           107.2386         estimate D2E/DX2                !
 ! A44   A(7,11,15)            111.4886         estimate D2E/DX2                !
 ! A45   A(7,11,32)            109.8495         estimate D2E/DX2                !
 ! A46   A(7,11,33)            109.8774         estimate D2E/DX2                !
 ! A47   A(15,11,32)           109.1851         estimate D2E/DX2                !
 ! A48   A(15,11,33)           109.0997         estimate D2E/DX2                !
 ! A49   A(32,11,33)           107.2392         estimate D2E/DX2                !
 ! A50   A(8,12,16)            112.9905         estimate D2E/DX2                !
 ! A51   A(8,12,34)            110.4376         estimate D2E/DX2                !
 ! A52   A(8,12,35)            110.0934         estimate D2E/DX2                !
 ! A53   A(16,12,34)           107.8759         estimate D2E/DX2                !
 ! A54   A(16,12,35)           108.3362         estimate D2E/DX2                !
 ! A55   A(34,12,35)           106.887          estimate D2E/DX2                !
 ! A56   A(9,13,17)            112.7271         estimate D2E/DX2                !
 ! A57   A(9,13,36)            109.7217         estimate D2E/DX2                !
 ! A58   A(9,13,37)            110.6905         estimate D2E/DX2                !
 ! A59   A(17,13,36)           108.0707         estimate D2E/DX2                !
 ! A60   A(17,13,37)           108.3522         estimate D2E/DX2                !
 ! A61   A(36,13,37)           107.084          estimate D2E/DX2                !
 ! A62   A(10,14,38)           110.9953         estimate D2E/DX2                !
 ! A63   A(10,14,39)           110.9858         estimate D2E/DX2                !
 ! A64   A(10,14,40)           110.2628         estimate D2E/DX2                !
 ! A65   A(38,14,39)           108.3213         estimate D2E/DX2                !
 ! A66   A(38,14,40)           108.0622         estimate D2E/DX2                !
 ! A67   A(39,14,40)           108.1082         estimate D2E/DX2                !
 ! A68   A(11,15,41)           110.2592         estimate D2E/DX2                !
 ! A69   A(11,15,42)           110.9612         estimate D2E/DX2                !
 ! A70   A(11,15,43)           111.0277         estimate D2E/DX2                !
 ! A71   A(41,15,42)           108.0673         estimate D2E/DX2                !
 ! A72   A(41,15,43)           108.0889         estimate D2E/DX2                !
 ! A73   A(42,15,43)           108.3309         estimate D2E/DX2                !
 ! A74   A(1,16,2)             127.2604         estimate D2E/DX2                !
 ! A75   A(1,16,12)            109.0965         estimate D2E/DX2                !
 ! A76   A(2,16,12)            123.6424         estimate D2E/DX2                !
 ! A77   A(1,17,3)             127.3661         estimate D2E/DX2                !
 ! A78   A(1,17,13)            109.4647         estimate D2E/DX2                !
 ! A79   A(3,17,13)            123.1675         estimate D2E/DX2                !
 ! D1    D(17,1,16,2)            0.0005         estimate D2E/DX2                !
 ! D2    D(17,1,16,12)        -179.7151         estimate D2E/DX2                !
 ! D3    D(16,1,17,3)            0.0032         estimate D2E/DX2                !
 ! D4    D(16,1,17,13)         179.54           estimate D2E/DX2                !
 ! D5    D(8,4,6,10)          -176.8385         estimate D2E/DX2                !
 ! D6    D(8,4,6,22)           -54.8755         estimate D2E/DX2                !
 ! D7    D(8,4,6,23)            61.1788         estimate D2E/DX2                !
 ! D8    D(18,4,6,10)           60.2244         estimate D2E/DX2                !
 ! D9    D(18,4,6,22)         -177.8125         estimate D2E/DX2                !
 ! D10   D(18,4,6,23)          -61.7583         estimate D2E/DX2                !
 ! D11   D(19,4,6,10)          -54.5771         estimate D2E/DX2                !
 ! D12   D(19,4,6,22)           67.386          estimate D2E/DX2                !
 ! D13   D(19,4,6,23)         -176.5598         estimate D2E/DX2                !
 ! D14   D(6,4,8,12)           177.0351         estimate D2E/DX2                !
 ! D15   D(6,4,8,26)           -59.1076         estimate D2E/DX2                !
 ! D16   D(6,4,8,27)            56.2966         estimate D2E/DX2                !
 ! D17   D(18,4,8,12)          -60.3313         estimate D2E/DX2                !
 ! D18   D(18,4,8,26)           63.526          estimate D2E/DX2                !
 ! D19   D(18,4,8,27)          178.9302         estimate D2E/DX2                !
 ! D20   D(19,4,8,12)           54.7176         estimate D2E/DX2                !
 ! D21   D(19,4,8,26)          178.5749         estimate D2E/DX2                !
 ! D22   D(19,4,8,27)          -66.0209         estimate D2E/DX2                !
 ! D23   D(9,5,7,11)          -178.4314         estimate D2E/DX2                !
 ! D24   D(9,5,7,24)           -57.2096         estimate D2E/DX2                !
 ! D25   D(9,5,7,25)            60.0887         estimate D2E/DX2                !
 ! D26   D(20,5,7,11)           60.1094         estimate D2E/DX2                !
 ! D27   D(20,5,7,24)         -178.6689         estimate D2E/DX2                !
 ! D28   D(20,5,7,25)          -61.3705         estimate D2E/DX2                !
 ! D29   D(21,5,7,11)          -56.8096         estimate D2E/DX2                !
 ! D30   D(21,5,7,24)           64.4121         estimate D2E/DX2                !
 ! D31   D(21,5,7,25)         -178.2896         estimate D2E/DX2                !
 ! D32   D(7,5,9,13)           178.9072         estimate D2E/DX2                !
 ! D33   D(7,5,9,28)           -60.0287         estimate D2E/DX2                !
 ! D34   D(7,5,9,29)            56.6461         estimate D2E/DX2                !
 ! D35   D(20,5,9,13)          -59.549          estimate D2E/DX2                !
 ! D36   D(20,5,9,28)           61.5151         estimate D2E/DX2                !
 ! D37   D(20,5,9,29)          178.1899         estimate D2E/DX2                !
 ! D38   D(21,5,9,13)           58.194          estimate D2E/DX2                !
 ! D39   D(21,5,9,28)          179.2581         estimate D2E/DX2                !
 ! D40   D(21,5,9,29)          -64.0671         estimate D2E/DX2                !
 ! D41   D(4,6,10,14)         -175.5341         estimate D2E/DX2                !
 ! D42   D(4,6,10,30)           62.9674         estimate D2E/DX2                !
 ! D43   D(4,6,10,31)          -54.6691         estimate D2E/DX2                !
 ! D44   D(22,6,10,14)          62.5457         estimate D2E/DX2                !
 ! D45   D(22,6,10,30)         -58.9528         estimate D2E/DX2                !
 ! D46   D(22,6,10,31)        -176.5893         estimate D2E/DX2                !
 ! D47   D(23,6,10,14)         -54.0639         estimate D2E/DX2                !
 ! D48   D(23,6,10,30)        -175.5623         estimate D2E/DX2                !
 ! D49   D(23,6,10,31)          66.8012         estimate D2E/DX2                !
 ! D50   D(5,7,11,15)         -178.5559         estimate D2E/DX2                !
 ! D51   D(5,7,11,32)           60.2729         estimate D2E/DX2                !
 ! D52   D(5,7,11,33)          -57.4736         estimate D2E/DX2                !
 ! D53   D(24,7,11,15)          60.1044         estimate D2E/DX2                !
 ! D54   D(24,7,11,32)         -61.0667         estimate D2E/DX2                !
 ! D55   D(24,7,11,33)        -178.8132         estimate D2E/DX2                !
 ! D56   D(25,7,11,15)         -57.1988         estimate D2E/DX2                !
 ! D57   D(25,7,11,32)        -178.3699         estimate D2E/DX2                !
 ! D58   D(25,7,11,33)          63.8836         estimate D2E/DX2                !
 ! D59   D(4,8,12,16)           66.1047         estimate D2E/DX2                !
 ! D60   D(4,8,12,34)         -172.9682         estimate D2E/DX2                !
 ! D61   D(4,8,12,35)          -55.1668         estimate D2E/DX2                !
 ! D62   D(26,8,12,16)         -56.9889         estimate D2E/DX2                !
 ! D63   D(26,8,12,34)          63.9382         estimate D2E/DX2                !
 ! D64   D(26,8,12,35)        -178.2604         estimate D2E/DX2                !
 ! D65   D(27,8,12,16)        -173.0124         estimate D2E/DX2                !
 ! D66   D(27,8,12,34)         -52.0853         estimate D2E/DX2                !
 ! D67   D(27,8,12,35)          65.7162         estimate D2E/DX2                !
 ! D68   D(5,9,13,17)          -57.4641         estimate D2E/DX2                !
 ! D69   D(5,9,13,36)           63.0275         estimate D2E/DX2                !
 ! D70   D(5,9,13,37)         -179.0041         estimate D2E/DX2                !
 ! D71   D(28,9,13,17)        -178.9755         estimate D2E/DX2                !
 ! D72   D(28,9,13,36)         -58.4839         estimate D2E/DX2                !
 ! D73   D(28,9,13,37)          59.4846         estimate D2E/DX2                !
 ! D74   D(29,9,13,17)          64.5667         estimate D2E/DX2                !
 ! D75   D(29,9,13,36)        -174.9417         estimate D2E/DX2                !
 ! D76   D(29,9,13,37)         -56.9733         estimate D2E/DX2                !
 ! D77   D(6,10,14,38)          60.501          estimate D2E/DX2                !
 ! D78   D(6,10,14,39)         -60.0181         estimate D2E/DX2                !
 ! D79   D(6,10,14,40)        -179.7843         estimate D2E/DX2                !
 ! D80   D(30,10,14,38)       -177.8146         estimate D2E/DX2                !
 ! D81   D(30,10,14,39)         61.6662         estimate D2E/DX2                !
 ! D82   D(30,10,14,40)        -58.0999         estimate D2E/DX2                !
 ! D83   D(31,10,14,38)        -60.8028         estimate D2E/DX2                !
 ! D84   D(31,10,14,39)        178.6781         estimate D2E/DX2                !
 ! D85   D(31,10,14,40)         58.9119         estimate D2E/DX2                !
 ! D86   D(7,11,15,41)         179.9961         estimate D2E/DX2                !
 ! D87   D(7,11,15,42)         -60.3071         estimate D2E/DX2                !
 ! D88   D(7,11,15,43)          60.2294         estimate D2E/DX2                !
 ! D89   D(32,11,15,41)        -58.4464         estimate D2E/DX2                !
 ! D90   D(32,11,15,42)         61.2504         estimate D2E/DX2                !
 ! D91   D(32,11,15,43)       -178.2131         estimate D2E/DX2                !
 ! D92   D(33,11,15,41)         58.4612         estimate D2E/DX2                !
 ! D93   D(33,11,15,42)        178.1581         estimate D2E/DX2                !
 ! D94   D(33,11,15,43)        -61.3055         estimate D2E/DX2                !
 ! D95   D(8,12,16,1)           60.2473         estimate D2E/DX2                !
 ! D96   D(8,12,16,2)         -119.4809         estimate D2E/DX2                !
 ! D97   D(34,12,16,1)         -62.1237         estimate D2E/DX2                !
 ! D98   D(34,12,16,2)         118.1481         estimate D2E/DX2                !
 ! D99   D(35,12,16,1)        -177.4922         estimate D2E/DX2                !
 ! D100  D(35,12,16,2)           2.7796         estimate D2E/DX2                !
 ! D101  D(9,13,17,1)          -57.3491         estimate D2E/DX2                !
 ! D102  D(9,13,17,3)          122.2111         estimate D2E/DX2                !
 ! D103  D(36,13,17,1)        -178.7827         estimate D2E/DX2                !
 ! D104  D(36,13,17,3)           0.7775         estimate D2E/DX2                !
 ! D105  D(37,13,17,1)          65.5075         estimate D2E/DX2                !
 ! D106  D(37,13,17,3)        -114.9323         estimate D2E/DX2                !
 --------------------------------------------------------------------------------
 Trust Radius=3.00D-01 FncErr=1.00D-07 GrdErr=1.00D-06 EigMax=2.50D+02 EigMin=1.00D-04
 Number of steps in this run=    237 maximum allowed number of steps=    258.
 GradGradGradGradGradGradGradGradGradGradGradGradGradGradGradGradGradGrad

                          Input orientation:                          
 ---------------------------------------------------------------------
 Center     Atomic      Atomic             Coordinates (Angstroms)
 Number     Number       Type             X           Y           Z
 ---------------------------------------------------------------------
      1          8           0       -2.166300   -0.441700   -0.426200
      2          8           0       -2.425400   -1.921100    1.343300
      3          8           0       -3.122500    0.589300    1.421500
      4          6           0        0.997600   -2.252900   -0.066800
      5          6           0       -0.313200    2.428900    0.054900
      6          6           0        2.437700   -1.931000   -0.474800
      7          6           0        1.081200    2.770600   -0.473100
      8          6           0       -0.047100   -2.257100   -1.190800
      9          6           0       -1.303700    2.210600   -1.092000
     10          6           0        3.430100   -2.021500    0.684900
     11          6           0        2.079300    2.950700    0.670100
     12          6           0       -1.453000   -2.653500   -0.742400
     13          6           0       -2.699700    1.841300   -0.593700
     14          6           0        4.824700   -1.589100    0.259700
     15          6           0        3.458400    3.325100    0.151500
     16          6           0       -2.076100   -1.651100    0.201900
     17          6           0       -2.701900    0.602300    0.272100
     18          1           0        0.688800   -1.532200    0.701000
     19          1           0        0.987200   -3.238700    0.415800
     20          1           0       -0.672600    3.238100    0.702000
     21          1           0       -0.243600    1.526500    0.673300
     22          1           0        2.748500   -2.618800   -1.270700
     23          1           0        2.463400   -0.920600   -0.901800
     24          1           0        1.429300    1.971300   -1.139000
     25          1           0        1.031800    3.689900   -1.069300
     26          1           0       -0.063400   -1.267900   -1.663800
     27          1           0        0.277700   -2.965100   -1.963200
     28          1           0       -1.374300    3.123900   -1.694900
     29          1           0       -0.925400    1.423000   -1.755100
     30          1           0        3.465800   -3.049400    1.063500
     31          1           0        3.094600   -1.382800    1.510200
     32          1           0        2.152100    2.023300    1.250300
     33          1           0        1.727700    3.733800    1.352000
     34          1           0       -2.116200   -2.756800   -1.608900
     35          1           0       -1.427900   -3.628700   -0.242600
     36          1           0       -3.113100    2.668400   -0.004800
     37          1           0       -3.379900    1.674600   -1.436200
     38          1           0        4.824700   -0.550700   -0.087300
     39          1           0        5.201800   -2.222400   -0.549700
     40          1           0        5.518600   -1.665200    1.102600
     41          1           0        4.156200    3.449000    0.985600
     42          1           0        3.853300    2.546200   -0.508700
     43          1           0        3.425900    4.266000   -0.407100
 ---------------------------------------------------------------------
                    Distance matrix (angstroms):
                    1          2          3          4          5
     1  O    0.000000
     2  O    2.320967   0.000000
     3  O    2.321912   2.606563   0.000000
     4  C    3.663315   3.716908   5.221912   0.000000
     5  C    3.450476   5.004384   3.625450   4.863359   0.000000
     6  C    4.839131   5.191852   6.392471   1.531003   5.182351
     7  C    4.568077   6.132504   5.100850   5.040597   1.529671
     8  C    2.893320   3.491543   4.938035   1.534533   4.856045
     9  C    2.867414   4.925428   3.500618   5.125412   1.531053
    10  C    5.920304   5.893255   7.091927   2.556493   5.849381
    11  C    5.543949   6.669329   5.761904   5.365683   2.524837
    12  C    2.345387   2.414977   4.240925   2.573394   5.269309
    13  C    2.350460   4.240621   2.409833   5.541672   2.541916
    14  C    7.117659   7.338144   8.321850   3.897939   6.525663
    15  C    6.794098   7.972585   7.239181   6.100596   3.877818
    16  C    1.365758   1.223807   2.757131   3.143564   4.447002
    17  C    1.365440   2.755262   1.224007   4.685437   3.014885
    18  H    3.257509   3.203441   4.421073   1.097398   4.136637
    19  H    4.298457   3.773879   5.705668   1.097640   5.826060
    20  H    4.128547   5.486430   3.679107   5.790656   1.096682
    21  H    2.963020   4.134622   3.118688   4.046256   1.096170
    22  H    5.441342   5.838581   7.211691   2.156133   6.050661
    23  H    4.678639   5.471914   6.235367   2.149609   4.454653
    24  H    4.388507   6.014258   5.402311   4.379480   2.161273
    25  H    5.264175   7.018276   5.751175   6.026861   2.159391
    26  H    2.576131   3.879222   4.725078   2.155541   4.084441
    27  H    3.834456   4.396547   5.970872   2.149841   5.789398
    28  H    3.866570   5.982265   4.380907   6.098081   2.161194
    29  H    2.604403   4.799280   3.951340   4.478898   2.159334
    30  H    6.382778   6.004797   7.534852   2.829134   6.731262
    31  H    5.684398   5.548696   6.522988   2.764310   5.316019
    32  H    5.247424   6.043215   5.468736   4.620986   2.769693
    33  H    5.979969   7.016139   5.780757   6.195693   2.747818
    34  H    2.600188   3.083745   4.625186   3.511088   5.736769
    35  H    3.276570   2.534952   4.840705   2.794062   6.166488
    36  H    3.278221   4.832579   2.521324   6.412557   2.810759
    37  H    2.640388   4.643894   3.067667   6.038462   3.492420
    38  H    7.000058   7.515887   8.169092   4.188627   5.941065
    39  H    7.581230   7.864376   9.004735   4.231952   7.239845
    40  H    7.930439   7.951764   8.936055   4.706626   7.202029
    41  H    7.556767   8.501963   7.832456   6.602724   4.677857
    42  H    6.720858   7.925197   7.497794   5.601933   4.206082
    43  H    7.309959   8.693780   7.729388   6.964805   4.191569
                    6          7          8          9         10
     6  C    0.000000
     7  C    4.893377   0.000000
     8  C    2.606382   5.202492   0.000000
     9  C    5.615324   2.526734   4.642106   0.000000
    10  C    1.529036   5.461000   3.957863   6.593702   0.000000
    11  C    5.026952   1.528249   5.925007   3.885542   5.152441
    12  C    3.966253   5.992959   1.527989   4.878932   5.126527
    13  C    6.374736   3.895298   4.918302   1.527580   7.357343
    14  C    2.520745   5.792907   5.126852   7.336355   1.520748
    15  C    5.390795   2.519658   6.726905   5.046385   5.373216
    16  C    4.572817   5.474998   2.534500   4.145299   5.539740
    17  C    5.778491   4.423652   4.167038   2.530289   6.682526
    18  H    2.144807   4.477340   2.155443   4.603635   2.784672
    19  H    2.146438   6.075415   2.148134   6.100537   2.742581
    20  H    6.146415   2.162228   5.845611   2.161592   6.670520
    21  H    4.523473   2.148747   4.222453   2.169813   5.107300
    22  H    1.096869   5.697516   2.820034   6.306771   2.155393
    23  H    1.097223   3.964747   2.858735   4.902207   2.159654
    24  H    4.084847   1.097031   4.479041   2.743859   4.824133
    25  H    5.824474   1.096817   6.045295   2.764671   6.438101
    26  H    2.847617   4.363182   1.096591   3.737012   4.276546
    27  H    2.819627   5.980323   1.096978   5.481577   4.223795
    28  H    6.447635   2.765338   5.565136   1.096626   7.431073
    29  H    4.919240   2.736054   3.825308   1.096871   6.065357
    30  H    2.161984   6.474555   4.248538   7.420371   1.095989
    31  H    2.161542   5.023743   4.234393   6.247320   1.096183
    32  H    4.323659   2.162265   5.396042   4.178996   4.279412
    33  H    5.994269   2.162569   6.745860   4.181227   6.038764
    34  H    4.765095   6.485797   2.169259   5.059882   6.046787
    35  H    4.228353   6.877482   2.164943   5.902062   5.200338
    36  H    7.224040   4.221599   5.921782   2.159980   8.079871
    37  H    6.911520   4.693633   5.160043   2.171722   8.033450
    38  H    2.784448   5.019329   5.278631   6.796432   2.168975
    39  H    2.780427   6.474200   5.288021   7.890951   2.168760
    40  H    3.471424   6.469132   6.048723   8.147507   2.159457
    41  H    5.833559   3.470397   7.413773   5.971647   5.526664
    42  H    4.695785   2.781396   6.224956   5.200723   4.740007
    43  H    6.275662   2.781761   7.431470   5.202199   6.381625
                   11         12         13         14         15
    11  C    0.000000
    12  C    6.773430   0.000000
    13  C    5.066241   4.666862   0.000000
    14  C    5.321225   6.445671   8.313395   0.000000
    15  C    1.520210   7.788746   6.378023   5.101749   0.000000
    16  C    6.217968   1.511543   3.635755   6.901321   7.442835
    17  C    5.341653   3.631693   1.511534   7.839139   6.736281
    18  H    4.693702   2.815675   4.953653   4.159766   5.618363
    19  H    6.290153   2.763777   6.357572   4.179947   7.018558
    20  H    2.767051   6.116066   2.781910   7.329243   4.168427
    21  H    2.724742   4.575943   2.781513   5.963698   4.148740
    22  H    5.935812   4.234726   7.073451   2.777231   6.152768
    23  H    4.195875   4.285620   5.863499   2.715090   4.486138
    24  H    2.157445   5.463856   4.166880   5.114836   2.759604
    25  H    2.160830   6.820544   4.191373   6.634770   2.740770
    26  H    5.275873   2.167915   4.214536   5.262751   6.065809
    27  H    6.721363   2.140740   5.817381   5.244985   7.359037
    28  H    4.189341   5.855920   2.148113   8.028725   5.177322
    29  H    4.152552   4.233412   2.161473   6.796750   5.144979
    30  H    6.170765   5.254770   8.042304   2.150623   6.439414
    31  H    4.529440   5.231592   6.956661   2.144658   4.913526
    32  H    1.096359   6.232179   5.193594   4.601469   2.146733
    33  H    1.096292   7.436462   5.193185   6.254422   2.145590
    34  H    7.441211   1.096051   4.744853   7.282258   8.435916
    35  H    7.511456   1.096105   5.626868   6.596005   8.508030
    36  H    5.243682   5.623398   1.096265   9.011378   6.606080
    37  H    5.988973   4.788189   1.095567   8.991289   7.211608
    38  H    4.513389   6.652852   7.911681   1.094844   4.116507
    39  H    6.164323   6.671532   8.885342   1.094715   5.857122
    40  H    5.772553   7.279009   9.094692   1.094426   5.481980
    41  H    2.159018   8.466972   7.216803   5.133836   1.094531
    42  H    2.168010   7.432921   6.591352   4.316800   1.094758
    43  H    2.168803   8.473227   6.590673   6.056687   1.094707
                   16         17         18         19         20
    16  C    0.000000
    17  C    2.339736   0.000000
    18  H    2.812101   4.029503   0.000000
    19  H    3.456882   5.327606   1.755712   0.000000
    20  H    5.111183   3.354149   4.960763   6.692218   0.000000
    21  H    3.698299   2.656755   3.197778   4.928317   1.764777
    22  H    5.136318   6.516332   3.051338   2.516095   7.063905
    23  H    4.728514   5.511587   2.468244   3.047757   5.449904
    24  H    5.216093   4.575170   4.025972   5.454994   3.067906
    25  H    6.308825   5.027240   5.524666   7.086114   2.499321
    26  H    2.771036   3.769223   2.495584   3.051647   5.125639
    27  H    3.457547   5.157608   3.052895   2.497576   6.818068
    28  H    5.185653   3.462669   5.628142   7.107349   2.500111
    29  H    3.821525   2.817630   4.167886   5.486556   3.065263
    30  H    5.780160   7.211224   3.185127   2.568814   7.535894
    31  H    5.340391   6.250834   2.542636   3.013837   6.016452
    32  H    5.698950   5.151450   3.883884   5.453625   3.123348
    33  H    6.692441   5.531169   5.406836   7.073936   2.535677
    34  H    2.122069   3.894195   3.834489   3.736674   6.585064
    35  H    2.128061   4.448523   3.125078   2.533436   6.972495
    36  H    4.447041   2.124742   5.709434   7.202999   2.603875
    37  H    3.929828   2.127863   5.604062   6.829494   3.787599
    38  H    6.993966   7.622879   4.323243   4.712203   6.722969
    39  H    7.338877   8.433431   4.733687   4.441611   8.117413
    40  H    7.647936   8.567841   4.848292   4.845739   7.907831
    41  H    8.091154   7.459646   6.075871   7.422437   4.841716
    42  H    7.299319   6.881791   5.301960   6.521832   4.735852
    43  H    8.102775   7.171746   6.506821   7.933785   4.368568
                   21         22         23         24         25
    21  H    0.000000
    22  H    5.469489   0.000000
    23  H    3.974555   1.761037   0.000000
    24  H    2.506167   4.777725   3.080375   0.000000
    25  H    3.056730   6.541201   4.830553   1.765347   0.000000
    26  H    3.647352   3.144239   2.661950   3.604994   5.112013
    27  H    5.234248   2.589273   3.175505   5.135517   6.756978
    28  H    3.072221   7.082092   5.631601   3.081831   2.549715
    29  H    2.524419   5.483460   4.207677   2.494960   3.072424
    30  H    5.903454   2.479602   3.065779   5.848570   7.476052
    31  H    4.506441   3.062823   2.535702   4.587098   6.053202
    32  H    2.513786   5.316035   3.659917   2.496778   3.068089
    33  H    3.036253   6.948102   5.223438   3.066028   2.519702
    34  H    5.202089   4.878394   4.984411   5.928432   7.194513
    35  H    5.368196   4.418054   4.786498   6.350364   7.765015
    36  H    3.161927   7.994707   6.692001   4.733472   4.399638
    37  H    3.782632   7.484515   6.415980   4.827501   4.864067
    38  H    5.530003   3.160392   2.525069   4.358360   5.773483
    39  H    6.723270   2.587596   3.052457   5.671521   7.253563
    40  H    6.601075   3.770326   3.729115   5.913652   7.316121
    41  H    4.811629   6.625006   5.051857   3.759456   3.747335
    42  H    4.384233   5.336521   3.755669   2.569740   3.095672
    43  H    4.705035   6.971739   5.298297   3.128536   2.549924
                   26         27         28         29         30
    26  H    0.000000
    27  H    1.756837   0.000000
    28  H    4.583376   6.314825   0.000000
    29  H    2.827070   4.554797   1.760169   0.000000
    30  H    4.802828   4.396817   8.315346   6.872373   0.000000
    31  H    4.478888   4.743744   7.110139   5.890254   1.764904
    32  H    4.922643   6.222868   4.724513   4.343247   5.243376
    33  H    6.109017   7.613692   4.390670   4.693912   7.008283
    34  H    2.536499   2.428925   5.927938   4.348575   6.195649
    35  H    3.074906   2.511952   6.907218   5.297154   5.098018
    36  H    5.248563   6.860698   2.467254   3.066040   8.781596
    37  H    4.439514   5.931491   2.487936   2.487885   8.684946
    38  H    5.185870   5.479374   7.383405   6.304022   3.068298
    39  H    5.465768   5.176519   8.552163   7.230803   2.509988
    40  H    6.242559   6.209340   8.847234   7.696010   2.476192
    41  H    6.861012   8.054742   6.154446   6.118723   6.535436
    42  H    5.587679   6.728664   5.391531   5.064688   5.825179
    43  H    6.661723   8.038745   5.099484   5.369689   7.461859
                   31         32         33         34         35
    31  H    0.000000
    32  H    3.543638   0.000000
    33  H    5.298400   1.765296   0.000000
    34  H    6.226484   7.017319   8.103727   0.000000
    35  H    5.345033   6.854944   8.167433   1.760892   0.000000
    36  H    7.565909   5.451033   5.139001   5.744540   6.523030
    37  H    7.742617   6.159700   6.172677   4.611298   5.775810
    38  H    2.497527   3.944292   5.479045   7.440312   6.970883
    39  H    3.064051   5.528710   7.152772   7.413542   6.784166
    40  H    2.474200   4.996015   6.601691   8.175206   7.342939
    41  H    4.974786   2.473682   2.472443   9.197086   9.098598
    42  H    4.482033   2.502316   3.064437   8.060222   8.129654
    43  H    5.974508   3.065819   2.502310   9.026567   9.268912
                   36         37         38         39         40
    36  H    0.000000
    37  H    1.762875   0.000000
    38  H    8.566101   8.607378   0.000000
    39  H    9.662008   9.466682   1.774993   0.000000
    40  H    9.721763   9.837839   1.771855   1.772267   0.000000
    41  H    7.377869   8.112115   4.194712   5.967847   5.293852
    42  H    6.985669   7.344326   3.272917   4.955772   4.806808
    43  H    6.743344   7.354816   5.025884   6.728558   6.468208
                   41         42         43
    41  H    0.000000
    42  H    1.771928   0.000000
    43  H    1.772129   1.775023   0.000000
 Stoichiometry    C14H26O3
 Framework group  C1[X(C14H26O3)]
 Deg. of freedom   123
 Full point group                 C1      NOp   1
 Largest Abelian subgroup         C1      NOp   1
 Largest concise Abelian subgroup C1      NOp   1
                         Standard orientation:                         
 ---------------------------------------------------------------------
 Center     Atomic      Atomic             Coordinates (Angstroms)
 Number     Number       Type             X           Y           Z
 ---------------------------------------------------------------------
      1          8           0       -2.305495   -0.478839   -0.388495
      2          8           0       -2.542597   -1.956083    1.385883
      3          8           0       -3.246241    0.552398    1.466989
      4          6           0        0.867129   -2.280213   -0.057762
      5          6           0       -0.456115    2.397938    0.069466
      6          6           0        2.302138   -1.954785   -0.480628
      7          6           0        0.931942    2.742836   -0.472969
      8          6           0       -0.188712   -2.289303   -1.171275
      9          6           0       -1.457359    2.174870   -1.067141
     10          6           0        3.306315   -2.040488    0.669257
     11          6           0        1.940861    2.927721    0.659924
     12          6           0       -1.588902   -2.689065   -0.708232
     13          6           0       -2.847231    1.802318   -0.554343
     14          6           0        4.695331   -1.604722    0.229468
     15          6           0        3.313617    3.305289    0.126988
     16          6           0       -2.205490   -1.686939    0.240621
     17          6           0       -2.837164    0.564739    0.313431
     18          1           0        0.563889   -1.559158    0.711918
     19          1           0        0.864432   -3.265246    0.426505
     20          1           0       -0.811415    3.207147    0.718815
     21          1           0       -0.377706    1.496760    0.688594
     22          1           0        2.607001   -2.642980   -1.278480
     23          1           0        2.320616   -0.945016   -0.909491
     24          1           0        1.275727    1.943463   -1.141021
     25          1           0        0.873904    3.661009   -1.070127
     26          1           0       -0.212628   -1.300932   -1.645682
     27          1           0        0.130444   -2.997619   -1.945735
     28          1           0       -1.536645    3.086970   -1.670777
     29          1           0       -1.083382    1.387289   -1.732712
     30          1           0        3.348802   -3.067658    1.049138
     31          1           0        2.977190   -1.401417    1.496833
     32          1           0        2.022162    2.001490    1.240862
     33          1           0        1.593784    3.710910    1.344035
     34          1           0       -2.260404   -2.795720   -1.567905
     35          1           0       -1.555959   -3.663367   -0.207137
     36          1           0       -3.257161    2.629174    0.037319
     37          1           0       -3.535307    1.632254   -1.389745
     38          1           0        4.688826   -0.566897   -0.119187
     39          1           0        5.066196   -2.238246   -0.582633
     40          1           0        5.397823   -1.677415    1.065524
     41          1           0        4.019334    3.432592    0.953883
     42          1           0        3.704196    2.526462   -0.535864
     43          1           0        3.272789    4.245173   -0.432776
 ---------------------------------------------------------------------
 Rotational constants (GHZ):           0.3971485           0.3016019           0.1921332
 Standard basis: 6-311++G(d,p) (5D, 7F)
 There are   573 symmetry adapted cartesian basis functions of A   symmetry.
 There are   556 symmetry adapted basis functions of A   symmetry.
   556 basis functions,   846 primitive gaussians,   573 cartesian basis functions
    67 alpha electrons       67 beta electrons
       nuclear repulsion energy      1276.1289161283 Hartrees.
 NAtoms=   43 NActive=   43 NUniq=   43 SFac= 1.00D+00 NAtFMM=   60 NAOKFM=F Big=F
 Integral buffers will be    131072 words long.
 Raffenetti 2 integral format.
 Two-electron integral symmetry is turned on.
 R6APFD:  NTU= -4 IXU= 1 FactS= 1.050
 Nuclear repulsion after empirical dispersion term =     1276.0909663722 Hartrees.
 One-electron integrals computed using PRISM.
 NBasis=   556 RedAO= T EigKep=  2.31D-06  NBF=   556
 NBsUse=   556 1.00D-06 EigRej= -1.00D+00 NBFU=   556
 ExpMin= 3.60D-02 ExpMax= 8.59D+03 ExpMxC= 1.30D+03 IAcc=3 IRadAn=         5 AccDes= 0.00D+00
 Harris functional with IExCor= 1009 and IRadAn=       5 diagonalized for initial guess.
 HarFok:  IExCor= 1009 AccDes= 0.00D+00 IRadAn=         5 IDoV= 1 UseB2=F ITyADJ=14
 ICtDFT=  3500011 ScaDFX=  1.000000  1.000000  1.000000  1.000000
 FoFCou: FMM=F IPFlag=           0 FMFlag=      100000 FMFlg1=           0
         NFxFlg=           0 DoJE=T BraDBF=F KetDBF=T FulRan=T
         wScrn=  0.000000 ICntrl=       500 IOpCl=  0 I1Cent=   200000004 NGrid=           0
         NMat0=    1 NMatS0=      1 NMatT0=    0 NMatD0=    1 NMtDS0=    0 NMtDT0=    0
 Petite list used in FoFCou.
 Requested convergence on RMS density matrix=1.00D-08 within  32 cycles.
 Requested convergence on MAX density matrix=1.00D-06.
 Requested convergence on             energy=1.00D-06.
 No special actions if energy rises.
 SCF Done:  E(RM08HX) =  -774.875195238     A.U. after   14 cycles
            NFock= 14  Conv=0.78D-08     -V/T= 2.0051
 QCSCF skips out because SCF is already converged.

 **********************************************************************

            Population analysis using the SCF Density.

 **********************************************************************

 Orbital symmetries:
       Occupied  (A) (A) (A) (A) (A) (A) (A) (A) (A) (A) (A) (A)
                 (A) (A) (A) (A) (A) (A) (A) (A) (A) (A) (A) (A)
                 (A) (A) (A) (A) (A) (A) (A) (A) (A) (A) (A) (A)
                 (A) (A) (A) (A) (A) (A) (A) (A) (A) (A) (A) (A)
                 (A) (A) (A) (A) (A) (A) (A) (A) (A) (A) (A) (A)
                 (A) (A) (A) (A) (A) (A) (A)
       Virtual   (A) (A) (A) (A) (A) (A) (A) (A) (A) (A) (A) (A)
                 (A) (A) (A) (A) (A) (A) (A) (A) (A) (A) (A) (A)
                 (A) (A) (A) (A) (A) (A) (A) (A) (A) (A) (A) (A)
                 (A) (A) (A) (A) (A) (A) (A) (A) (A) (A) (A) (A)
                 (A) (A) (A) (A) (A) (A) (A) (A) (A) (A) (A) (A)
                 (A) (A) (A) (A) (A) (A) (A) (A) (A) (A) (A) (A)
                 (A) (A) (A) (A) (A) (A) (A) (A) (A) (A) (A) (A)
                 (A) (A) (A) (A) (A) (A) (A) (A) (A) (A) (A) (A)
                 (A) (A) (A) (A) (A) (A) (A) (A) (A) (A) (A) (A)
                 (A) (A) (A) (A) (A) (A) (A) (A) (A) (A) (A) (A)
                 (A) (A) (A) (A) (A) (A) (A) (A) (A) (A) (A) (A)
                 (A) (A) (A) (A) (A) (A) (A) (A) (A) (A) (A) (A)
                 (A) (A) (A) (A) (A) (A) (A) (A) (A) (A) (A) (A)
                 (A) (A) (A) (A) (A) (A) (A) (A) (A) (A) (A) (A)
                 (A) (A) (A) (A) (A) (A) (A) (A) (A) (A) (A) (A)
                 (A) (A) (A) (A) (A) (A) (A) (A) (A) (A) (A) (A)
                 (A) (A) (A) (A) (A) (A) (A) (A) (A) (A) (A) (A)
                 (A) (A) (A) (A) (A) (A) (A) (A) (A) (A) (A) (A)
                 (A) (A) (A) (A) (A) (A) (A) (A) (A) (A) (A) (A)
                 (A) (A) (A) (A) (A) (A) (A) (A) (A) (A) (A) (A)
                 (A) (A) (A) (A) (A) (A) (A) (A) (A) (A) (A) (A)
                 (A) (A) (A) (A) (A) (A) (A) (A) (A) (A) (A) (A)
                 (A) (A) (A) (A) (A) (A) (A) (A) (A) (A) (A) (A)
                 (A) (A) (A) (A) (A) (A) (A) (A) (A) (A) (A) (A)
                 (A) (A) (A) (A) (A) (A) (A) (A) (A) (A) (A) (A)
                 (A) (A) (A) (A) (A) (A) (A) (A) (A) (A) (A) (A)
                 (A) (A) (A) (A) (A) (A) (A) (A) (A) (A) (A) (A)
                 (A) (A) (A) (A) (A) (A) (A) (A) (A) (A) (A) (A)
                 (A) (A) (A) (A) (A) (A) (A) (A) (A) (A) (A) (A)
                 (A) (A) (A) (A) (A) (A) (A) (A) (A) (A) (A) (A)
                 (A) (A) (A) (A) (A) (A) (A) (A) (A) (A) (A) (A)
                 (A) (A) (A) (A) (A) (A) (A) (A) (A) (A) (A) (A)
                 (A) (A) (A) (A) (A) (A) (A) (A) (A) (A) (A) (A)
                 (A) (A) (A) (A) (A) (A) (A) (A) (A) (A) (A) (A)
                 (A) (A) (A) (A) (A) (A) (A) (A) (A) (A) (A) (A)
                 (A) (A) (A) (A) (A) (A) (A) (A) (A) (A) (A) (A)
                 (A) (A) (A) (A) (A) (A) (A) (A) (A) (A) (A) (A)
                 (A) (A) (A) (A) (A) (A) (A) (A) (A) (A) (A) (A)
                 (A) (A) (A) (A) (A) (A) (A) (A) (A) (A) (A) (A)
                 (A) (A) (A) (A) (A) (A) (A) (A) (A) (A) (A) (A)
                 (A) (A) (A) (A) (A) (A) (A) (A) (A)
 The electronic state is 1-A.
 Alpha  occ. eigenvalues --  -19.69964 -19.61570 -19.61506 -10.68635 -10.68586
 Alpha  occ. eigenvalues --  -10.55219 -10.55000 -10.54309 -10.54163 -10.53143
 Alpha  occ. eigenvalues --  -10.53127 -10.52888 -10.52806 -10.52655 -10.52532
 Alpha  occ. eigenvalues --  -10.51678 -10.51614  -1.28099  -1.17282  -1.14956
 Alpha  occ. eigenvalues --   -0.93989  -0.93162  -0.90552  -0.89481  -0.85177
 Alpha  occ. eigenvalues --   -0.83288  -0.79300  -0.75832  -0.73604  -0.69343
 Alpha  occ. eigenvalues --   -0.68501  -0.67178  -0.66980  -0.61909  -0.60746
 Alpha  occ. eigenvalues --   -0.58435  -0.57139  -0.56386  -0.56199  -0.53854
 Alpha  occ. eigenvalues --   -0.53086  -0.52964  -0.51357  -0.51194  -0.50113
 Alpha  occ. eigenvalues --   -0.49084  -0.48787  -0.48038  -0.46728  -0.46549
 Alpha  occ. eigenvalues --   -0.46181  -0.44639  -0.43986  -0.43814  -0.42545
 Alpha  occ. eigenvalues --   -0.42041  -0.41205  -0.40483  -0.40425  -0.40215
 Alpha  occ. eigenvalues --   -0.39623  -0.39491  -0.38996  -0.38567  -0.38316
 Alpha  occ. eigenvalues --   -0.37801  -0.33430
 Alpha virt. eigenvalues --   -0.03467  -0.02748  -0.02682  -0.02124  -0.01466
 Alpha virt. eigenvalues --   -0.01349  -0.00495  -0.00404  -0.00003   0.00339
 Alpha virt. eigenvalues --    0.00881   0.00932   0.01820   0.02027   0.02683
 Alpha virt. eigenvalues --    0.03043   0.03113   0.03204   0.03769   0.03966
 Alpha virt. eigenvalues --    0.04282   0.04395   0.05246   0.05574   0.05863
 Alpha virt. eigenvalues --    0.06272   0.06642   0.06796   0.06992   0.07609
 Alpha virt. eigenvalues --    0.07748   0.08662   0.09172   0.09705   0.10035
 Alpha virt. eigenvalues --    0.10164   0.10260   0.10606   0.10934   0.11294
 Alpha virt. eigenvalues --    0.11327   0.11819   0.12009   0.12106   0.12322
 Alpha virt. eigenvalues --    0.12784   0.12833   0.13258   0.13316   0.13521
 Alpha virt. eigenvalues --    0.13688   0.14018   0.14316   0.14468   0.14724
 Alpha virt. eigenvalues --    0.15164   0.15564   0.15643   0.15825   0.15966
 Alpha virt. eigenvalues --    0.16074   0.16393   0.16724   0.16925   0.17196
 Alpha virt. eigenvalues --    0.17449   0.18097   0.18335   0.18644   0.18878
 Alpha virt. eigenvalues --    0.19194   0.19326   0.19669   0.19998   0.20410
 Alpha virt. eigenvalues --    0.20648   0.20990   0.21408   0.21898   0.22204
 Alpha virt. eigenvalues --    0.22438   0.22651   0.22867   0.23079   0.23698
 Alpha virt. eigenvalues --    0.23865   0.24092   0.24449   0.24856   0.25248
 Alpha virt. eigenvalues --    0.25373   0.25444   0.25768   0.26191   0.26668
 Alpha virt. eigenvalues --    0.27147   0.27763   0.27817   0.28170   0.28359
 Alpha virt. eigenvalues --    0.29144   0.29307   0.29450   0.30134   0.30377
 Alpha virt. eigenvalues --    0.30924   0.31581   0.31734   0.32054   0.32185
 Alpha virt. eigenvalues --    0.33102   0.33526   0.33900   0.34024   0.34570
 Alpha virt. eigenvalues --    0.35106   0.35557   0.35715   0.35976   0.36422
 Alpha virt. eigenvalues --    0.37184   0.37404   0.37623   0.38205   0.38478
 Alpha virt. eigenvalues --    0.39107   0.39289   0.40041   0.40591   0.40954
 Alpha virt. eigenvalues --    0.41258   0.43931   0.44718   0.45065   0.45638
 Alpha virt. eigenvalues --    0.47248   0.47933   0.48843   0.49900   0.50320
 Alpha virt. eigenvalues --    0.50829   0.51217   0.51691   0.52812   0.53433
 Alpha virt. eigenvalues --    0.53862   0.54066   0.54359   0.55483   0.56108
 Alpha virt. eigenvalues --    0.56631   0.58442   0.59333   0.59668   0.60431
 Alpha virt. eigenvalues --    0.60769   0.61859   0.63163   0.63606   0.64950
 Alpha virt. eigenvalues --    0.66048   0.67082   0.67979   0.68440   0.68785
 Alpha virt. eigenvalues --    0.69205   0.69700   0.70206   0.70307   0.70448
 Alpha virt. eigenvalues --    0.71136   0.71262   0.71605   0.71923   0.72037
 Alpha virt. eigenvalues --    0.72798   0.73092   0.73777   0.73819   0.74467
 Alpha virt. eigenvalues --    0.75133   0.75626   0.76011   0.76239   0.76637
 Alpha virt. eigenvalues --    0.76860   0.77316   0.77661   0.78241   0.78828
 Alpha virt. eigenvalues --    0.79659   0.79915   0.80395   0.80837   0.81734
 Alpha virt. eigenvalues --    0.82299   0.82406   0.83259   0.84103   0.84803
 Alpha virt. eigenvalues --    0.85289   0.85501   0.86408   0.87292   0.88267
 Alpha virt. eigenvalues --    0.90815   0.92873   0.94987   0.96842   0.98904
 Alpha virt. eigenvalues --    0.99829   1.00143   1.00816   1.02525   1.04044
 Alpha virt. eigenvalues --    1.04733   1.05484   1.05802   1.06489   1.07423
 Alpha virt. eigenvalues --    1.09435   1.10510   1.12464   1.16044   1.17963
 Alpha virt. eigenvalues --    1.19512   1.19636   1.20995   1.21161   1.22266
 Alpha virt. eigenvalues --    1.25278   1.26197   1.27030   1.27607   1.27791
 Alpha virt. eigenvalues --    1.28648   1.29212   1.29507   1.30689   1.31060
 Alpha virt. eigenvalues --    1.31795   1.33804   1.35473   1.37356   1.38046
 Alpha virt. eigenvalues --    1.38652   1.40174   1.41562   1.43971   1.46458
 Alpha virt. eigenvalues --    1.49349   1.49823   1.50073   1.52773   1.53774
 Alpha virt. eigenvalues --    1.55042   1.55930   1.57244   1.58524   1.58774
 Alpha virt. eigenvalues --    1.60114   1.60426   1.61010   1.61517   1.62305
 Alpha virt. eigenvalues --    1.62552   1.62822   1.63092   1.63626   1.64117
 Alpha virt. eigenvalues --    1.64366   1.64688   1.65014   1.65425   1.65775
 Alpha virt. eigenvalues --    1.66227   1.66681   1.66970   1.68060   1.68789
 Alpha virt. eigenvalues --    1.69064   1.69404   1.69877   1.70684   1.72291
 Alpha virt. eigenvalues --    1.72480   1.72989   1.73669   1.74474   1.75435
 Alpha virt. eigenvalues --    1.75597   1.75969   1.76656   1.77473   1.78227
 Alpha virt. eigenvalues --    1.78412   1.79492   1.80410   1.81572   1.82098
 Alpha virt. eigenvalues --    1.82955   1.83915   1.85914   1.86159   1.86686
 Alpha virt. eigenvalues --    1.87284   1.87937   1.88599   1.89484   1.90896
 Alpha virt. eigenvalues --    1.91863   1.93132   1.94258   1.98465   2.00743
 Alpha virt. eigenvalues --    2.01560   2.03007   2.04073   2.05106   2.08018
 Alpha virt. eigenvalues --    2.08866   2.09824   2.10560   2.12510   2.13877
 Alpha virt. eigenvalues --    2.14915   2.15518   2.18146   2.20051   2.20834
 Alpha virt. eigenvalues --    2.22541   2.22989   2.23879   2.24772   2.26038
 Alpha virt. eigenvalues --    2.26501   2.29046   2.29797   2.30710   2.30990
 Alpha virt. eigenvalues --    2.31541   2.32798   2.36476   2.37448   2.39030
 Alpha virt. eigenvalues --    2.39816   2.40753   2.41868   2.45449   2.46182
 Alpha virt. eigenvalues --    2.46523   2.46937   2.48083   2.48581   2.50389
 Alpha virt. eigenvalues --    2.50842   2.51419   2.53636   2.54914   2.56255
 Alpha virt. eigenvalues --    2.56505   2.57455   2.57937   2.59233   2.59684
 Alpha virt. eigenvalues --    2.61081   2.61435   2.62249   2.62846   2.63747
 Alpha virt. eigenvalues --    2.64508   2.65336   2.65402   2.65935   2.66601
 Alpha virt. eigenvalues --    2.67990   2.68678   2.69027   2.69599   2.70319
 Alpha virt. eigenvalues --    2.71035   2.73367   2.73807   2.74312   2.75011
 Alpha virt. eigenvalues --    2.75740   2.76661   2.76779   2.78022   2.78876
 Alpha virt. eigenvalues --    2.79889   2.80969   2.82003   2.82760   2.83711
 Alpha virt. eigenvalues --    2.84529   2.85343   2.87199   2.88026   2.88769
 Alpha virt. eigenvalues --    2.89067   2.91695   2.93373   2.93665   2.94042
 Alpha virt. eigenvalues --    2.94916   2.96968   2.97599   2.98423   2.99896
 Alpha virt. eigenvalues --    3.00362   3.01650   3.01999   3.06245   3.11164
 Alpha virt. eigenvalues --    3.12299   3.14934   3.16746   3.17491   3.22454
 Alpha virt. eigenvalues --    3.24876   3.26535   3.28219   3.33706   3.34200
 Alpha virt. eigenvalues --    3.41394   3.43769   3.44521   3.45978   3.53122
 Alpha virt. eigenvalues --    3.53866   3.55013   3.64104   3.69157   3.80444
 Alpha virt. eigenvalues --    3.81093   3.81166   3.81945   3.84429   3.84599
 Alpha virt. eigenvalues --    3.84917   3.85402   3.85473   3.86585   3.87781
 Alpha virt. eigenvalues --    3.88928   3.89934   3.94401   3.94796   4.07721
 Alpha virt. eigenvalues --    4.09745   4.12276   4.15121   4.17306   4.21283
 Alpha virt. eigenvalues --    4.24141   4.28415   4.29451   4.37058   4.38797
 Alpha virt. eigenvalues --    4.42073   4.44476   4.48916   5.15895   5.17983
 Alpha virt. eigenvalues --    5.23263   5.28957   5.43997   5.48892   5.74099
 Alpha virt. eigenvalues --    5.90155   6.01577  23.84627  23.86450  23.93400
 Alpha virt. eigenvalues --   23.94111  23.94470  23.94704  23.95868  23.96685
 Alpha virt. eigenvalues --   23.98207  23.98872  24.00812  24.02971  24.03759
 Alpha virt. eigenvalues --   24.05278  49.90847  50.00382  50.01452
          Condensed to atoms (all electrons):
               1          2          3          4          5          6
     1  O    8.799451  -0.132509  -0.120369   0.031504  -0.008088  -0.085342
     2  O   -0.132509   7.641628  -0.002510  -0.058493  -0.000794  -0.005982
     3  O   -0.120369  -0.002510   7.628809  -0.001399  -0.032046   0.000796
     4  C    0.031504  -0.058493  -0.001399  11.843584  -0.431548  -4.650227
     5  C   -0.008088  -0.000794  -0.032046  -0.431548  10.427885   0.269130
     6  C   -0.085342  -0.005982   0.000796  -4.650227   0.269130  11.378901
     7  C   -0.101197   0.001574  -0.013833   0.163713  -3.969574  -0.297267
     8  C   -0.126958  -0.026488   0.007605  -3.401295   0.194724   1.678894
     9  C   -0.157307   0.013221  -0.059999   0.127579  -2.409182   0.004234
    10  C    0.001815  -0.002953   0.000309   0.709458  -0.017775  -2.047645
    11  C   -0.004480   0.000383  -0.002352   0.046483   0.575012   0.046727
    12  C   -0.164770   0.194288  -0.070776   0.931723  -0.094594  -1.076373
    13  C   -0.078293  -0.074702   0.154551  -0.005201   1.326472  -0.013900
    14  C   -0.000694  -0.000411   0.000075  -0.382249   0.007614   0.693083
    15  C   -0.002114   0.000058  -0.000516  -0.010772  -0.484561  -0.009537
    16  C   -0.050787   0.659130  -0.130434   0.421635   0.180588   0.138053
    17  C   -0.174018  -0.132780   0.712536   0.106601  -0.248364  -0.203433
    18  H    0.029691  -0.018657  -0.003371   0.852156  -0.089510  -0.530074
    19  H    0.002253  -0.001326   0.000441   0.572991  -0.003015  -0.096007
    20  H   -0.005318   0.000594  -0.001685  -0.019243   0.516525   0.006567
    21  H    0.091654  -0.007784  -0.017943   0.006232   0.957716   0.025075
    22  H   -0.000264  -0.000343   0.000037  -0.025419  -0.001448   0.518408
    23  H   -0.000754  -0.000024  -0.000088  -0.202671   0.066827   0.566135
    24  H   -0.002236  -0.000135  -0.000550   0.028721  -0.206548  -0.010290
    25  H   -0.000579   0.000049  -0.000077  -0.002550  -0.131371  -0.006042
    26  H   -0.015804  -0.000705   0.002142  -0.444756   0.108700   0.294475
    27  H    0.003941   0.003245  -0.000450   0.076200  -0.015905  -0.151489
    28  H    0.008222  -0.000393   0.004366  -0.004798   0.106845   0.007170
    29  H   -0.026104   0.001046  -0.004959   0.069040  -0.306512  -0.047850
    30  H   -0.000121   0.000073  -0.000029  -0.092517   0.003337  -0.008941
    31  H   -0.000791   0.000403   0.000132   0.009042  -0.010879  -0.070837
    32  H   -0.002746   0.000301   0.000627  -0.007049   0.006853   0.015038
    33  H    0.000563  -0.000019  -0.000185   0.006696  -0.044925  -0.006304
    34  H    0.012174   0.001092  -0.000229   0.012939   0.003060   0.012839
    35  H    0.009105  -0.009796   0.000897  -0.085025   0.002731   0.046328
    36  H    0.008526   0.000849  -0.013864   0.000707  -0.058546  -0.002038
    37  H    0.012486  -0.000493  -0.002216   0.003629   0.006092   0.000261
    38  H   -0.000072  -0.000027  -0.000000  -0.011877   0.001133  -0.039094
    39  H    0.000013   0.000021  -0.000001  -0.010393  -0.001217  -0.053382
    40  H   -0.000006  -0.000014   0.000003   0.005058   0.000243   0.035718
    41  H   -0.000028   0.000002  -0.000017   0.000713   0.008463   0.000421
    42  H    0.000100   0.000004  -0.000008   0.003782   0.003092  -0.000925
    43  H    0.000019  -0.000001   0.000024  -0.000236  -0.006962  -0.000260
               7          8          9         10         11         12
     1  O   -0.101197  -0.126958  -0.157307   0.001815  -0.004480  -0.164770
     2  O    0.001574  -0.026488   0.013221  -0.002953   0.000383   0.194288
     3  O   -0.013833   0.007605  -0.059999   0.000309  -0.002352  -0.070776
     4  C    0.163713  -3.401295   0.127579   0.709458   0.046483   0.931723
     5  C   -3.969574   0.194724  -2.409182  -0.017775   0.575012  -0.094594
     6  C   -0.297267   1.678894   0.004234  -2.047645   0.046727  -1.076373
     7  C   11.471556   0.023283   1.282184   0.144881  -2.358024  -0.001307
     8  C    0.023283  10.360524  -0.099225  -0.317386   0.014395  -1.883823
     9  C    1.282184  -0.099225   9.910367  -0.009233  -0.164640   0.067628
    10  C    0.144881  -0.317386  -0.009233   8.012212  -0.143557  -0.159615
    11  C   -2.358024   0.014395  -0.164640  -0.143557   8.389481   0.001390
    12  C   -0.001307  -1.883823   0.067628  -0.159615   0.001390  13.821763
    13  C   -1.093061  -0.092208  -2.623959   0.009953  -0.236682  -0.953722
    14  C   -0.039946  -0.041738   0.001582  -0.758970   0.054213  -0.037976
    15  C    0.859430   0.007817  -0.025828   0.041056  -0.910920  -0.000563
    16  C   -0.245332  -0.621216  -0.263996   0.044872  -0.023242  -4.616660
    17  C    0.204399  -0.157397   0.113594  -0.009370   0.068026   0.052637
    18  H    0.105656  -0.368161   0.033647   0.119605  -0.039836   0.335029
    19  H   -0.010295  -0.019083  -0.000926  -0.002458   0.008274  -0.123920
    20  H   -0.086059   0.011878   0.073401   0.002397  -0.020420  -0.004430
    21  H   -0.602205  -0.032037  -0.618012  -0.013755   0.092532  -0.042867
    22  H   -0.002261  -0.067264   0.003632  -0.081298  -0.006427  -0.005511
    23  H   -0.095267   0.084591  -0.008916  -0.151558   0.060884   0.003632
    24  H    0.565297  -0.022150   0.108127   0.009112  -0.120976  -0.011143
    25  H    0.634924   0.004255  -0.061002   0.001489  -0.108472   0.003454
    26  H   -0.057647   0.737685  -0.102767  -0.028182   0.002758  -0.320321
    27  H    0.012948   0.363251   0.005406   0.013329   0.000890   0.138491
    28  H   -0.149854  -0.003654   0.286883  -0.001256   0.019806  -0.009987
    29  H    0.149797  -0.043446   0.769940   0.005569  -0.012345   0.061014
    30  H    0.001194   0.019976  -0.001184   0.484408  -0.004436  -0.004086
    31  H    0.010076   0.010299   0.002594   0.455238  -0.001398   0.002974
    32  H   -0.063200   0.003802   0.002370  -0.004324   0.462514   0.003496
    33  H   -0.080843  -0.001352   0.012584  -0.002800   0.542866   0.000169
    34  H   -0.000117  -0.027350  -0.003902  -0.001772  -0.000153   0.295516
    35  H   -0.002577   0.042439   0.001371  -0.007817  -0.000257   0.543962
    36  H    0.030194   0.001390   0.029771  -0.000007  -0.002935   0.009115
    37  H    0.013675  -0.004659  -0.011963   0.000124  -0.002705  -0.006568
    38  H   -0.001408  -0.001365  -0.000382  -0.008991  -0.002112  -0.002788
    39  H    0.001622  -0.004731   0.000208   0.025135  -0.000457   0.001931
    40  H    0.001455  -0.000275  -0.000003  -0.047082  -0.002331  -0.002041
    41  H    0.039187   0.000307   0.000487  -0.002082  -0.054097  -0.000017
    42  H   -0.064410   0.000162  -0.004440  -0.000630   0.032770   0.000543
    43  H   -0.066943   0.000033  -0.007560   0.000607   0.011204  -0.000052
              13         14         15         16         17         18
     1  O   -0.078293  -0.000694  -0.002114  -0.050787  -0.174018   0.029691
     2  O   -0.074702  -0.000411   0.000058   0.659130  -0.132780  -0.018657
     3  O    0.154551   0.000075  -0.000516  -0.130434   0.712536  -0.003371
     4  C   -0.005201  -0.382249  -0.010772   0.421635   0.106601   0.852156
     5  C    1.326472   0.007614  -0.484561   0.180588  -0.248364  -0.089510
     6  C   -0.013900   0.693083  -0.009537   0.138053  -0.203433  -0.530074
     7  C   -1.093061  -0.039946   0.859430  -0.245332   0.204399   0.105656
     8  C   -0.092208  -0.041738   0.007817  -0.621216  -0.157397  -0.368161
     9  C   -2.623959   0.001582  -0.025828  -0.263996   0.113594   0.033647
    10  C    0.009953  -0.758970   0.041056   0.044872  -0.009370   0.119605
    11  C   -0.236682   0.054213  -0.910920  -0.023242   0.068026  -0.039836
    12  C   -0.953722  -0.037976  -0.000563  -4.616660   0.052637   0.335029
    13  C   14.231302  -0.000176  -0.046577   0.083370  -4.702051  -0.048124
    14  C   -0.000176   6.298599  -0.027770   0.013369  -0.007392  -0.064327
    15  C   -0.046577  -0.027770   6.519326  -0.009356   0.016373   0.016907
    16  C    0.083370   0.013369  -0.009356  11.914984  -0.951344  -0.236526
    17  C   -4.702051  -0.007392   0.016373  -0.951344  11.954030   0.154159
    18  H   -0.048124  -0.064327   0.016907  -0.236526   0.154159   0.829404
    19  H   -0.000765   0.022525  -0.001807  -0.001477  -0.007618  -0.143506
    20  H   -0.113978  -0.001119   0.019675  -0.002219  -0.005525   0.003914
    21  H    0.483364   0.009400  -0.089238   0.166620  -0.348728  -0.069851
    22  H    0.002722  -0.011698   0.003426   0.035315  -0.005290   0.016521
    23  H   -0.013821   0.058027  -0.012524  -0.043733   0.015920  -0.063448
    24  H   -0.000537  -0.005260   0.022544   0.019593  -0.043438   0.005060
    25  H   -0.011372   0.000338   0.016899  -0.006238   0.034333   0.001797
    26  H    0.106045   0.014470  -0.005946   0.098555  -0.089573  -0.066117
    27  H   -0.019211  -0.010819   0.000425  -0.142082   0.030644   0.035971
    28  H    0.161211   0.000254  -0.012687   0.027435  -0.131574  -0.004229
    29  H   -0.344590  -0.001794   0.012275  -0.079723   0.148811   0.015638
    30  H    0.000344  -0.054930   0.001086   0.000704   0.001589  -0.000853
    31  H    0.000423  -0.058931  -0.000789   0.004337  -0.005897  -0.006522
    32  H   -0.000678   0.000799  -0.033070  -0.004954   0.006354   0.000067
    33  H   -0.002969   0.001587  -0.104457   0.000720  -0.000628   0.000400
    34  H   -0.000093  -0.000170   0.000067   0.011799  -0.005214  -0.010278
    35  H    0.007449   0.000306  -0.000140  -0.199521  -0.017458   0.002317
    36  H    0.524141  -0.000039   0.000196  -0.016746  -0.176125   0.000378
    37  H    0.298240   0.000032  -0.000311  -0.003412   0.004102   0.001571
    38  H    0.000525   0.385380   0.007736   0.003404  -0.000688  -0.005664
    39  H   -0.000166   0.426077  -0.000557  -0.002093   0.000184   0.003420
    40  H    0.000077   0.372113   0.000612   0.000340  -0.000276   0.002243
    41  H   -0.002165   0.000430   0.365086  -0.000447   0.000662  -0.000475
    42  H   -0.001028  -0.002353   0.369775  -0.000637   0.002020   0.001801
    43  H    0.002471  -0.000302   0.450091   0.000150  -0.001984  -0.000305
              19         20         21         22         23         24
     1  O    0.002253  -0.005318   0.091654  -0.000264  -0.000754  -0.002236
     2  O   -0.001326   0.000594  -0.007784  -0.000343  -0.000024  -0.000135
     3  O    0.000441  -0.001685  -0.017943   0.000037  -0.000088  -0.000550
     4  C    0.572991  -0.019243   0.006232  -0.025419  -0.202671   0.028721
     5  C   -0.003015   0.516525   0.957716  -0.001448   0.066827  -0.206548
     6  C   -0.096007   0.006567   0.025075   0.518408   0.566135  -0.010290
     7  C   -0.010295  -0.086059  -0.602205  -0.002261  -0.095267   0.565297
     8  C   -0.019083   0.011878  -0.032037  -0.067264   0.084591  -0.022150
     9  C   -0.000926   0.073401  -0.618012   0.003632  -0.008916   0.108127
    10  C   -0.002458   0.002397  -0.013755  -0.081298  -0.151558   0.009112
    11  C    0.008274  -0.020420   0.092532  -0.006427   0.060884  -0.120976
    12  C   -0.123920  -0.004430  -0.042867  -0.005511   0.003632  -0.011143
    13  C   -0.000765  -0.113978   0.483364   0.002722  -0.013821  -0.000537
    14  C    0.022525  -0.001119   0.009400  -0.011698   0.058027  -0.005260
    15  C   -0.001807   0.019675  -0.089238   0.003426  -0.012524   0.022544
    16  C   -0.001477  -0.002219   0.166620   0.035315  -0.043733   0.019593
    17  C   -0.007618  -0.005525  -0.348728  -0.005290   0.015920  -0.043438
    18  H   -0.143506   0.003914  -0.069851   0.016521  -0.063448   0.005060
    19  H    0.614108  -0.000883   0.006518  -0.030843   0.037522  -0.002249
    20  H   -0.000883   0.573718  -0.155852   0.000191  -0.001025   0.025301
    21  H    0.006518  -0.155852   0.998977   0.001440   0.005991  -0.057541
    22  H   -0.030843   0.000191   0.001440   0.602631  -0.146359   0.006791
    23  H    0.037522  -0.001025   0.005991  -0.146359   0.760962  -0.039245
    24  H   -0.002249   0.025301  -0.057541   0.006791  -0.039245   0.717670
    25  H   -0.000074  -0.032377   0.018099  -0.001370   0.004982  -0.140481
    26  H    0.002430  -0.001084   0.020889  -0.003314  -0.000647  -0.003112
    27  H   -0.009461  -0.000344  -0.005622  -0.007611   0.002530  -0.001582
    28  H   -0.000176  -0.008131   0.040188   0.000541  -0.000832   0.001350
    29  H    0.001000   0.002935  -0.061417  -0.001084   0.003379   0.000420
    30  H   -0.006135   0.000127  -0.000856  -0.011494   0.003296   0.000956
    31  H   -0.002930  -0.000078   0.004999   0.009570  -0.012432  -0.001057
    32  H    0.000662   0.001199  -0.014814  -0.000903   0.002409  -0.022295
    33  H   -0.000009  -0.004420  -0.004747  -0.000305  -0.000800   0.008782
    34  H    0.004039   0.000182   0.001606   0.001122   0.001022   0.000236
    35  H   -0.011204   0.000085   0.000260  -0.001767   0.001464   0.000064
    36  H    0.000039  -0.013235   0.004503  -0.000082  -0.000070   0.000719
    37  H    0.000036   0.006015  -0.015939   0.000032  -0.000266   0.003927
    38  H   -0.000886   0.000067   0.001497   0.007152  -0.005341   0.009869
    39  H    0.000364  -0.000043  -0.000308  -0.003622   0.003455  -0.001627
    40  H    0.000226   0.000058  -0.000189  -0.002264  -0.003170   0.000299
    41  H    0.000103  -0.000348   0.002227  -0.000182   0.001461  -0.002998
    42  H   -0.000040  -0.000536  -0.002941  -0.000256  -0.002701  -0.017293
    43  H    0.000006   0.001194   0.004579   0.000158   0.000048   0.007075
              25         26         27         28         29         30
     1  O   -0.000579  -0.015804   0.003941   0.008222  -0.026104  -0.000121
     2  O    0.000049  -0.000705   0.003245  -0.000393   0.001046   0.000073
     3  O   -0.000077   0.002142  -0.000450   0.004366  -0.004959  -0.000029
     4  C   -0.002550  -0.444756   0.076200  -0.004798   0.069040  -0.092517
     5  C   -0.131371   0.108700  -0.015905   0.106845  -0.306512   0.003337
     6  C   -0.006042   0.294475  -0.151489   0.007170  -0.047850  -0.008941
     7  C    0.634924  -0.057647   0.012948  -0.149854   0.149797   0.001194
     8  C    0.004255   0.737685   0.363251  -0.003654  -0.043446   0.019976
     9  C   -0.061002  -0.102767   0.005406   0.286883   0.769940  -0.001184
    10  C    0.001489  -0.028182   0.013329  -0.001256   0.005569   0.484408
    11  C   -0.108472   0.002758   0.000890   0.019806  -0.012345  -0.004436
    12  C    0.003454  -0.320321   0.138491  -0.009987   0.061014  -0.004086
    13  C   -0.011372   0.106045  -0.019211   0.161211  -0.344590   0.000344
    14  C    0.000338   0.014470  -0.010819   0.000254  -0.001794  -0.054930
    15  C    0.016899  -0.005946   0.000425  -0.012687   0.012275   0.001086
    16  C   -0.006238   0.098555  -0.142082   0.027435  -0.079723   0.000704
    17  C    0.034333  -0.089573   0.030644  -0.131574   0.148811   0.001589
    18  H    0.001797  -0.066117   0.035971  -0.004229   0.015638  -0.000853
    19  H   -0.000074   0.002430  -0.009461  -0.000176   0.001000  -0.006135
    20  H   -0.032377  -0.001084  -0.000344  -0.008131   0.002935   0.000127
    21  H    0.018099   0.020889  -0.005622   0.040188  -0.061417  -0.000856
    22  H   -0.001370  -0.003314  -0.007611   0.000541  -0.001084  -0.011494
    23  H    0.004982  -0.000647   0.002530  -0.000832   0.003379   0.003296
    24  H   -0.140481  -0.003112  -0.001582   0.001350   0.000420   0.000956
    25  H    0.591694   0.000427   0.000586  -0.009939   0.004108   0.000006
    26  H    0.000427   0.639848  -0.080022   0.004255  -0.042076   0.002468
    27  H    0.000586  -0.080022   0.520142  -0.001199   0.004799  -0.000407
    28  H   -0.009939   0.004255  -0.001199   0.495429  -0.061404  -0.000038
    29  H    0.004108  -0.042076   0.004799  -0.061404   0.528078  -0.000232
    30  H    0.000006   0.002468  -0.000407  -0.000038  -0.000232   0.526756
    31  H   -0.000071  -0.001063  -0.000500   0.000337  -0.000127  -0.069785
    32  H    0.007295   0.002452   0.000022  -0.000858   0.000442   0.000656
    33  H   -0.005323  -0.000200   0.000059  -0.000442   0.000612  -0.000172
    34  H   -0.000031  -0.001862  -0.023949  -0.000329   0.001579  -0.000146
    35  H   -0.000053   0.009672  -0.004549   0.000545  -0.001931   0.001234
    36  H   -0.000005  -0.000991   0.000566  -0.003309   0.003549  -0.000000
    37  H   -0.000398   0.002022  -0.000518  -0.023795  -0.001784   0.000014
    38  H   -0.001367   0.000943  -0.001234   0.000117  -0.000790   0.017746
    39  H    0.000215  -0.000234   0.001503  -0.000021   0.000172  -0.023566
    40  H   -0.000015  -0.000150  -0.000023  -0.000002   0.000021  -0.001202
    41  H   -0.001972   0.000026   0.000033  -0.000050  -0.000226  -0.000065
    42  H    0.009553  -0.000115   0.000277  -0.000999   0.001243  -0.000532
    43  H   -0.006114  -0.000038  -0.000034   0.001784  -0.000627   0.000004
              31         32         33         34         35         36
     1  O   -0.000791  -0.002746   0.000563   0.012174   0.009105   0.008526
     2  O    0.000403   0.000301  -0.000019   0.001092  -0.009796   0.000849
     3  O    0.000132   0.000627  -0.000185  -0.000229   0.000897  -0.013864
     4  C    0.009042  -0.007049   0.006696   0.012939  -0.085025   0.000707
     5  C   -0.010879   0.006853  -0.044925   0.003060   0.002731  -0.058546
     6  C   -0.070837   0.015038  -0.006304   0.012839   0.046328  -0.002038
     7  C    0.010076  -0.063200  -0.080843  -0.000117  -0.002577   0.030194
     8  C    0.010299   0.003802  -0.001352  -0.027350   0.042439   0.001390
     9  C    0.002594   0.002370   0.012584  -0.003902   0.001371   0.029771
    10  C    0.455238  -0.004324  -0.002800  -0.001772  -0.007817  -0.000007
    11  C   -0.001398   0.462514   0.542866  -0.000153  -0.000257  -0.002935
    12  C    0.002974   0.003496   0.000169   0.295516   0.543962   0.009115
    13  C    0.000423  -0.000678  -0.002969  -0.000093   0.007449   0.524141
    14  C   -0.058931   0.000799   0.001587  -0.000170   0.000306  -0.000039
    15  C   -0.000789  -0.033070  -0.104457   0.000067  -0.000140   0.000196
    16  C    0.004337  -0.004954   0.000720   0.011799  -0.199521  -0.016746
    17  C   -0.005897   0.006354  -0.000628  -0.005214  -0.017458  -0.176125
    18  H   -0.006522   0.000067   0.000400  -0.010278   0.002317   0.000378
    19  H   -0.002930   0.000662  -0.000009   0.004039  -0.011204   0.000039
    20  H   -0.000078   0.001199  -0.004420   0.000182   0.000085  -0.013235
    21  H    0.004999  -0.014814  -0.004747   0.001606   0.000260   0.004503
    22  H    0.009570  -0.000903  -0.000305   0.001122  -0.001767  -0.000082
    23  H   -0.012432   0.002409  -0.000800   0.001022   0.001464  -0.000070
    24  H   -0.001057  -0.022295   0.008782   0.000236   0.000064   0.000719
    25  H   -0.000071   0.007295  -0.005323  -0.000031  -0.000053  -0.000005
    26  H   -0.001063   0.002452  -0.000200  -0.001862   0.009672  -0.000991
    27  H   -0.000500   0.000022   0.000059  -0.023949  -0.004549   0.000566
[...]
 .00000131,0.00003494,-0.00025995,0.00004694,-0.00003740,0.00001804,-0.
 00000775,-0.00000751,-0.00000610,-0.00001754,-0.00004004,-0.00001735,-
 0.00001872,0.00000178,0.00000065,0.00000106,-0.00000162,-0.00000933,-0
 .00000925,0.00000306,-0.00000687,0.00000230,0.00000044,0.00000375,-0.0
 0000191,0.00041206,-0.00001373,-0.00013421,0.00002076,0.00047987,0.000
 70024,0.00013897,0.00000026,-0.00014305,-0.00000747,0.00005530,-0.0000
 4212,0.00001343,0.00000431,0.00000529,0.00000081,0.00000197,-0.0000023
 5,-0.00000248,0.00000053,-0.00000051,0.00000041,-0.00000045,0.00000237
 ,-0.01111135,0.01390296,0.00726345,-0.05986716,0.08057415,0.08618138,-
 0.00007424,0.00020452,0.00015302,-0.00008141,0.00001487,0.00009127,-0.
 00001033,0.00004585,0.00011364,-0.00003894,0.00007497,-0.00221919,0.00
 001772,-0.00006567,0.00001689,-0.00642253,-0.00210800,0.00252637,-0.00
 001701,-0.00003997,-0.00002313,-0.00059026,-0.00037537,0.00025718,-0.0
 0000471,0.00001814,-0.00000697,-0.00869654,-0.00510031,-0.03141756,-0.
 00001939,0.00005203,0.00002067,-0.00013254,0.00008861,-0.00023049,0.00
 001448,0.00000797,-0.00000358,-0.07351186,-0.01680659,-0.07872860,0.00
 003903,-0.00001317,0.00009378,0.00019959,-0.00015011,-0.00016497,0.000
 02049,-0.00016717,-0.00020860,0.00004642,0.00009802,0.00004187,-0.0000
 2294,-0.00008344,0.00000321,-0.00001316,0.00004344,0.00000533,0.000023
 22,-0.00001614,-0.00004029,0.00016043,-0.00022906,0.00007951,0.0000722
 2,0.00016382,0.00018286,-0.00000055,0.00000468,0.00005506,0.00001069,0
 .00002510,0.00001602,0.00000416,0.00002666,-0.00000279,0.00002473,-0.0
 0001639,0.00001025,-0.00000516,0.00001166,-0.00000299,0.00000933,-0.00
 000917,0.00001936,0.00099112,-0.00030871,0.00035307,0.00080226,0.00087
 912,-0.00000233,-0.00004750,-0.00010823,-0.00008160,0.00001177,0.00004
 691,-0.00002640,-0.00010699,-0.00003547,-0.00001832,0.00000588,0.00000
 398,0.00001556,-0.00000267,0.00000998,0.00000381,0.00000247,0.00000094
 ,0.00000009,0.00048425,0.00165322,0.00457704,0.00560372,0.00233176,0.0
 1705913,0.08128691,-0.00002407,0.00003089,0.00002909,-0.00003061,-0.00
 001170,0.00004005,-0.00001798,0.00001007,0.00001834,-0.00018308,0.0005
 3763,-0.00049291,0.00000145,-0.00001683,0.00002840,-0.00154342,-0.0001
 2336,0.00052480,0.00001774,-0.00001883,-0.00004577,-0.00017286,-0.0001
 1104,0.00007065,0.00000883,0.00000933,-0.00001632,-0.00128396,-0.00256
 311,-0.00781037,-0.00009080,-0.00011411,0.00006996,-0.00003165,0.00002
 283,-0.00006246,0.00000888,0.00000369,0.00000169,-0.01703452,-0.056671
 68,-0.04772093,0.00007728,-0.00002279,0.00020902,0.00006727,-0.0000080
 2,-0.00006193,0.00001641,-0.00003972,-0.00003004,-0.00004910,0.0000036
 8,-0.00000220,0.00009114,-0.00000803,-0.00000678,0.00000404,-0.0000047
 9,-0.00000268,0.00000908,0.00000619,-0.00000567,-0.00003868,0.00010773
 ,0.00047201,-0.00023825,0.00016551,-0.00032999,-0.00001836,-0.00000510
 ,-0.00000344,0.00000530,0.00000767,-0.00000325,-0.00000209,0.00000626,
 0.00001087,0.00001033,-0.00000473,0.00000623,-0.00000475,0.00000536,-0
 .00000091,-0.00000142,-0.00000442,0.00000221,0.00018122,-0.00031466,-0
 .00025682,0.00022834,0.00042787,0.00039037,-0.00010996,0.00018549,0.00
 007827,0.00005489,-0.00008247,0.00002573,-0.00002914,-0.00001300,-0.00
 000550,-0.00000089,-0.00000241,0.00000200,0.00000219,0.00000145,0.0000
 0057,0.00000003,0.00000003,-0.00000181,0.00908924,0.00648314,0.0244917
 5,-0.00882289,-0.00446376,-0.02225330,0.01982814,0.05669133,-0.0000437
 0,0.00007059,0.00005966,-0.00005596,-0.00000616,0.00004652,-0.00003105
 ,0.00002641,0.00004322,0.00026333,0.00020869,-0.00000996,0.00000338,-0
 .00004162,-0.00001268,-0.00020211,-0.00028447,0.00098651,-0.00001710,0
 .00001763,0.00000344,-0.00001617,-0.00004273,0.00008240,0.00000122,0.0
 0001063,0.00000856,0.00167713,0.00084812,0.00292943,0.00004911,0.00001
 603,0.00001261,-0.00001332,0.00002721,-0.00003092,0.00000257,0.0000021
 9,-0.00001040,-0.07972400,-0.04804543,-0.27478880,-0.00008040,-0.00004
 679,-0.00017271,0.00010750,-0.00003923,-0.00006779,0.00002785,-0.00007
 315,-0.00006872,-0.00007655,-0.00001911,0.00000089,-0.00004902,-0.0000
 4390,0.00000287,-0.00001086,0.00002246,0.00000855,0.00001445,0.0000011
 7,-0.00001538,0.00010443,0.00026048,0.00026159,0.00021850,-0.00001846,
 0.00014768,0.00002120,0.00000749,0.00004348,-0.00001049,0.00001778,-0.
 00000083,0.00000054,0.00000288,-0.00001221,0.00000847,0.00000715,-0.00
 000252,-0.00000524,0.00000845,-0.00000563,0.00000627,-0.00000405,0.000
 00875,-0.00055930,-0.00027092,0.00019496,-0.00061670,0.00004378,0.0003
 3257,0.00000763,-0.00008793,-0.00021232,-0.00005250,0.00011160,-0.0000
 2273,-0.00002346,-0.00000497,-0.00000647,0.00000005,0.00000031,0.00000
 795,0.00000126,0.00000305,0.00000358,-0.00000514,-0.00000155,0.0000000
 2,-0.00494318,-0.00483630,-0.01519464,-0.00350178,-0.00078194,-0.01004
 502,0.08752335,0.05284728,0.29528917,0.00002205,-0.00027862,-0.0000613
 7,-0.00003105,-0.00011138,0.00005356,0.00002099,-0.00013253,0.00007850
 ,-0.00000932,-0.00002687,0.00006805,-0.00105316,0.00034739,-0.00149757
 ,0.00003457,0.00015073,-0.00014024,-0.00269709,0.00008546,0.00539810,-
 0.00000698,0.00007977,-0.00002227,-0.00024198,-0.00023792,0.00056883,-
 0.00015591,0.00015061,-0.00007076,-0.01997731,-0.00332072,-0.01467555,
 0.00002341,-0.00003521,0.00001562,-0.00022035,-0.00002835,-0.00013425,
 0.00002213,-0.00023946,0.00025758,-0.23864565,-0.02910254,-0.11379786,
 -0.00000350,0.00028252,-0.00003536,-0.00001029,0.00033833,-0.00002920,
 0.00001452,0.00001745,-0.00003092,0.00000064,-0.00003102,-0.00000015,0
 .00001106,0.00007644,0.00005685,-0.00001789,-0.00007689,0.00002211,0.0
 0000633,-0.00005647,0.00000442,-0.00003647,0.00003407,0.00005588,0.000
 34581,0.00001148,0.00020398,0.00004541,0.00016228,-0.00006132,0.000020
 39,-0.00001338,0.00003406,0.00000547,-0.00001368,-0.00000628,0.0000161
 2,0.00001397,0.00000476,0.00002206,-0.00000471,-0.00001985,0.00012356,
 0.00002679,0.00003371,0.00002629,-0.00001712,-0.00004144,0.00044782,-0
 .00047931,0.00005822,0.00052232,0.00065795,-0.00009852,0.00000821,0.00
 000989,0.00000335,-0.00000612,-0.00001411,-0.00000117,0.00001742,-0.00
 000592,0.00000521,-0.00008863,-0.00003989,0.00004511,-0.00002844,-0.00
 030395,-0.00000724,0.00002764,0.00012229,-0.00005002,0.00002495,0.0000
 1701,-0.00000975,0.26083517,-0.00000461,0.00000997,0.00001965,-0.00000
 477,-0.00000227,0.00001544,0.00001166,-0.00000741,0.00002038,0.0000384
 1,-0.00008743,0.00009001,0.00014217,0.00043522,0.00027585,-0.00008814,
 0.00020113,-0.00011168,0.00050528,0.00049903,-0.00104043,0.00001411,0.
 00002304,-0.00001808,0.00002979,0.00003160,-0.00005849,-0.00017197,0.0
 0010121,-0.00017828,0.00354400,-0.00103510,0.00217497,0.00000308,-0.00
 000479,0.00002320,0.00002419,-0.00001022,0.00001553,0.00002646,-0.0004
 0150,0.00021128,-0.02947389,-0.05062863,-0.01757408,0.00000734,-0.0000
 0827,-0.00002323,-0.00000864,-0.00000344,-0.00003269,-0.00001239,0.000
 00155,0.00000276,-0.00004267,-0.00002304,0.00000345,-0.00005332,-0.000
 01829,0.00002110,0.00005315,0.00000619,-0.00005679,-0.00000614,0.00000
 259,-0.00001925,0.00012061,-0.00007211,-0.00004044,0.00014933,0.000156
 38,0.00035181,-0.00047395,0.00014487,-0.00004067,0.00002462,-0.0000181
 4,-0.00000246,-0.00000423,0.00002157,0.00000819,0.00000617,-0.00000421
 ,0.00000815,0.00000176,0.00000155,-0.00000119,0.00013843,0.00004047,0.
 00003813,0.00004810,-0.00000296,0.00001148,-0.00034849,-0.00008174,-0.
 00010252,0.00018915,0.00007810,0.00032138,0.00000627,0.00000321,-0.000
 00033,-0.00000612,-0.00000290,0.00000042,-0.00000084,0.00000048,-0.000
 00217,0.00000888,0.00000009,-0.00000511,-0.00038372,-0.00047837,0.0003
 4186,0.00001155,0.00005678,-0.00003556,0.00004783,0.00011318,-0.000080
 58,0.03163137,0.05083470,-0.00001842,0.00006414,0.00003295,-0.00001727
 ,0.00001068,0.00001628,-0.00001858,0.00002882,-0.00000619,0.00002105,-
 0.00002922,0.00000851,0.00102452,-0.00000237,0.00087838,-0.00004056,0.
 00009397,-0.00002220,0.00258864,-0.00048972,-0.00290430,0.00000260,0.0
 0000441,0.00000023,0.00022804,0.00012958,-0.00031255,-0.00002681,-0.00
 001149,-0.00003309,0.01878486,0.00307617,0.01248295,-0.00000549,0.0000
 0558,0.00001026,0.00012263,0.00000750,0.00006042,0.00009701,-0.0000508
 0,-0.00005996,-0.11464673,-0.01782787,-0.11415956,0.00003460,-0.000050
 97,-0.00003093,0.00001830,-0.00009383,-0.00000464,-0.00000478,0.000000
 39,0.00000905,-0.00001586,-0.00001065,0.00000652,-0.00009544,-0.000064
 37,0.00004103,-0.00002616,0.00001519,0.00002280,-0.00000505,0.00001121
 ,-0.00001366,0.00004780,-0.00006956,-0.00003741,0.00010220,0.00032046,
 0.00001347,0.00024678,-0.00015377,0.00001612,0.00001810,-0.00001529,-0
 .00001444,-0.00000567,0.00002124,0.00000492,-0.00001330,-0.00000898,-0
 .00001146,-0.00001368,0.00001501,0.00000193,0.00001669,-0.00000804,0.0
 0002036,0.00002818,0.00000374,-0.00000128,-0.00080214,0.00046979,0.000
 58863,-0.00078566,-0.00016550,0.00084687,-0.00000022,0.00000224,-0.000
 00257,-0.00000414,-0.00000110,0.00000345,-0.00000298,-0.00000140,0.000
 00051,0.00003770,0.00001399,-0.00002613,0.00004915,0.00052662,-0.00008
 761,-0.00002963,-0.00008846,0.00002317,0.00000227,0.00003350,-0.000042
 08,0.12235855,0.01918096,0.12129275,0.00002733,-0.00005604,-0.00004876
 ,0.00003049,0.00000048,-0.00003377,0.00000169,-0.00001223,-0.00003849,
 -0.00009507,0.00017970,-0.00007533,0.00002660,-0.00035198,0.00017395,0
 .00008545,-0.00052260,0.00022474,0.00186649,0.00151065,0.00091401,0.00
 001155,-0.00002316,-0.00001417,0.00002786,-0.00004419,-0.00008122,0.00
 009044,0.00010081,0.00014392,-0.00165354,0.02516950,0.01112546,0.00000
 470,-0.00000042,-0.00001530,0.00002335,0.00000074,0.00001268,0.0000036
 4,0.00016031,-0.00007256,-0.04594255,0.00223601,0.00022838,-0.00005439
 ,0.00003983,0.00005248,-0.00000028,0.00004420,0.00006806,0.00001638,-0
 .00000748,-0.00000817,0.00008313,0.00004567,-0.00000982,0.00008934,-0.
 00007708,-0.00022822,-0.00007269,-0.00002462,0.00000644,0.00000775,0.0
 0008454,-0.00002127,-0.00081440,-0.00040071,0.00042477,-0.00056936,-0.
 00051304,-0.00068380,0.00002987,-0.00012857,0.00000871,-0.00002933,0.0
 0003607,0.00000895,0.00000740,-0.00002724,-0.00001063,0.00001047,-0.00
 000248,0.00000584,-0.00004150,-0.00000314,-0.00002409,-0.00007599,-0.0
 0002043,-0.00008444,-0.00001999,-0.00001983,-0.00002884,0.00110126,-0.
 00046884,-0.00063527,-0.00419136,0.00035259,0.00321495,0.00000476,-0.0
 0000341,0.00000489,0.00001003,0.00000352,-0.00000699,0.00000498,0.0000
 0008,-0.00000432,0.00000633,0.00000552,-0.00000167,0.00007189,-0.00020
 614,-0.00018888,-0.00000715,0.00006694,-0.00001767,-0.00006930,-0.0000
 5517,0.00006056,0.00095784,-0.02531513,-0.01015692,0.05031870,-0.00002
 537,0.00012191,0.00006917,-0.00001650,0.00002931,0.00001901,0.00000310
 ,0.00003548,0.00002853,0.00004230,-0.00005500,0.00000655,0.00008104,0.
 00025795,0.00035696,-0.00029378,0.00021956,0.00012357,-0.00036460,0.00
 007115,-0.00004740,0.00002398,0.00001236,-0.00001715,0.00004011,0.0000
 1596,-0.00004341,-0.00000716,-0.00019410,0.00005960,0.00024218,-0.0020
 3420,-0.00150554,-0.00000555,0.00000740,0.00002099,0.00002917,0.000010
 94,0.00001628,0.00003202,0.00025719,0.00004153,0.00260694,-0.26063258,
 -0.09750913,0.00004166,-0.00010432,-0.00004332,0.00000077,-0.00011072,
 -0.00007922,0.00000180,-0.00000345,0.00001747,-0.00001723,-0.00001135,
 0.00002038,-0.00018248,-0.00002664,0.00008023,0.00000891,0.00000984,-0
 .00004815,0.00011181,0.00003197,-0.00009870,-0.00067714,-0.00040024,0.
 00038747,0.00085371,0.00010462,0.00020453,-0.00010306,0.00004331,-0.00
 000591,0.00003378,-0.00001058,-0.00002089,-0.00000493,0.00003613,0.000
 00701,-0.00000229,0.00000421,-0.00000455,0.00001854,0.00000519,0.00001
 079,-0.00002415,-0.00000204,0.00005081,-0.00004047,-0.00000118,0.00002
 616,0.00050186,0.00037871,-0.00001640,0.00033303,0.00140262,0.00004406
 ,0.00000406,0.00000158,-0.00000222,-0.00000479,0.00000009,0.00000160,-
 0.00000614,0.00000169,0.00000264,0.00001384,0.00000383,-0.00000721,0.0
 0005927,-0.00009058,0.00015837,0.00001113,0.00003636,-0.00005118,-0.00
 000885,-0.00008462,0.00005598,0.00036444,-0.00297113,-0.00016131,-0.00
 337815,0.28210500,-0.00004479,0.00017735,0.00005901,-0.00002789,0.0000
 5061,-0.00000071,-0.00004046,0.00008577,-0.00001230,0.00015068,-0.0001
 3783,0.00010946,-0.00012412,-0.00000436,0.00004461,-0.00033831,0.00033
 174,-0.00022901,-0.00115192,0.00073138,0.00019372,0.00000390,-0.000045
 04,0.00008595,-0.00000843,0.00009215,0.00002465,0.00014473,-0.00011861
 ,-0.00011872,0.00078388,-0.01965506,-0.01017069,-0.00002621,0.00002548
 ,-0.00003481,0.00002037,0.00000938,-0.00001251,0.00015027,0.00051620,0
 .00004767,0.00064884,-0.09691203,-0.08917569,0.00008015,-0.00016229,-0
 .00001885,0.00003517,-0.00019697,-0.00002379,-0.00005831,-0.00001017,0
 .00001423,-0.00010743,-0.00004242,0.00000446,-0.00009970,0.00002197,0.
 00008718,0.00003404,0.00006541,-0.00004349,0.00001225,0.00007583,0.000
 01602,0.00080589,0.00024290,-0.00008810,0.00028639,0.00013819,0.000518
 62,-0.00008043,0.00006205,0.00005800,-0.00000351,0.00002030,-0.0000089
 0,0.00001282,-0.00000479,0.00000340,-0.00001321,0.00001095,-0.00001386
 ,0.00002164,-0.00001641,0.00001494,-0.00006567,-0.00004276,0.00008163,
 -0.00007854,0.00003043,0.00006190,-0.00070821,-0.00003776,0.00018929,0
 .00389600,0.00011946,-0.00185910,-0.00003072,-0.00000792,-0.00000961,0
 .00000372,0.00000860,0.00000958,-0.00000522,0.00000619,0.00000035,0.00
 001107,0.00000602,-0.00000160,-0.00027936,-0.00023711,-0.00086946,-0.0
 0001443,0.00001864,-0.00001470,-0.00004433,-0.00021520,0.00022624,0.00
 111124,-0.01431849,-0.00718837,-0.00480451,0.10745324,0.09744161,-0.00
 000115,0.00002976,-0.00000829,0.00001077,0.00001665,-0.00001487,-0.000
 01308,0.00002096,-0.00003184,0.00001970,-0.00001527,0.00002379,-0.0000
 7960,0.00010452,0.00002857,0.00001095,0.00005814,-0.00003725,0.0019306
 2,-0.00067510,0.00027956,0.00001372,-0.00001875,0.00000551,0.00000455,
 0.00005761,-0.00013507,-0.00016926,0.00015460,0.00001439,0.00025911,-0
 .01984974,0.02068264,-0.00000210,0.00000580,-0.00000439,0.00004047,0.0
 0001544,0.00000983,0.00001147,-0.00029587,0.00013195,-0.04606246,0.007
 30322,-0.00879484,-0.00000914,-0.00003666,0.00001810,0.00001738,-0.000
 04870,0.00003408,0.00000621,0.00000327,-0.00000068,-0.00001419,-0.0000
 0270,-0.00000454,0.00010997,-0.00008698,-0.00008470,0.00008609,0.00016
 150,-0.00007853,-0.00000553,-0.00004520,-0.00001360,0.00002817,0.00008
 941,0.00008076,0.00003962,-0.00019435,-0.00027624,-0.00025571,0.000556
 46,-0.00027111,-0.00000960,0.00000471,0.00000257,0.00000024,-0.0000008
 7,-0.00000092,-0.00003986,0.00001755,-0.00000919,-0.00003288,-0.000006
 59,-0.00000979,0.00012140,-0.00003930,-0.00001771,0.00010431,-0.000023
 62,-0.00009253,-0.00438137,0.00088873,0.00342142,0.00100813,0.00030724
 ,-0.00076512,-0.00000158,-0.00000280,-0.00000025,0.00000215,0.00000349
 ,-0.00000132,0.00000142,0.00000009,-0.00000118,0.00001214,0.00000452,-
 0.00000249,-0.00014218,0.00011666,-0.00004991,0.00002157,0.00002852,-0
 .00001859,0.00001220,0.00006483,-0.00005101,-0.00037204,0.01961533,-0.
 01909415,-0.00128282,-0.00029682,-0.00005732,0.04900219,-0.00002293,0.
 00004605,0.00000164,-0.00002170,0.00001106,0.00000119,-0.00003336,0.00
 003638,-0.00002313,0.00009732,-0.00006361,0.00006325,-0.00017552,-0.00
 001581,-0.00022928,-0.00020097,0.00028927,-0.00012478,-0.00004529,0.00
 044447,-0.00002896,0.00000122,-0.00002861,0.00004556,-0.00005079,-0.00
 001429,0.00005489,0.00003723,-0.00012294,0.00002824,-0.00035976,0.0031
 7068,-0.00361580,-0.00001334,0.00001248,-0.00002005,-0.00001299,0.0000
 0778,-0.00001951,0.00014136,0.00043467,-0.00003932,0.00717550,-0.16712
 879,0.13023706,0.00004480,-0.00004489,-0.00000598,0.00002853,-0.000065
 93,0.00002570,-0.00002958,-0.00000321,0.00000502,-0.00005775,-0.000026
 40,0.00000443,0.00008695,0.00002612,-0.00006352,0.00007238,0.00000814,
 -0.00004569,0.00001357,0.00005160,-0.00000659,0.00021262,-0.00010528,0
 .00007583,-0.00013673,-0.00035071,0.00008342,-0.00043723,-0.00009519,0
 .00013850,-0.00000380,0.00001340,0.00000455,0.00001220,-0.00000646,0.0
 0000409,-0.00000509,0.00001431,0.00000579,-0.00000472,-0.00002005,0.00
 000180,-0.00003116,-0.00003241,0.00004538,-0.00001639,0.00000946,0.000
 01005,0.00094454,0.00102968,-0.00071332,-0.00062122,0.00047571,0.00004
 088,-0.00002225,-0.00000544,-0.00000626,0.00000320,0.00000357,0.000005
 25,0.00000354,0.00000311,-0.00000239,-0.00000589,-0.00000087,0.0000052
 6,-0.00014166,-0.00029323,-0.00004059,-0.00000949,-0.00001904,-0.00000
 910,-0.00004039,-0.00013014,0.00011191,-0.00001020,0.00309905,-0.00473
 047,0.00162491,-0.01847164,0.02186499,-0.00798970,0.17785793,0.0000088
 6,0.00003514,0.00002087,0.00001772,0.00001885,-0.00001105,0.00002799,0
 .00000052,0.00001838,0.00000639,-0.00001982,0.00005182,0.00009133,-0.0
 0033357,0.00006686,-0.00009444,0.00006364,-0.00005849,-0.00106967,-0.0
 0026771,0.00078501,0.00001277,0.00000092,-0.00001219,0.00001143,0.0000
 0516,0.00001621,0.00006271,0.00000937,-0.00012483,-0.00045877,0.014260
 15,-0.01565035,0.00000093,0.00000165,0.00000757,0.00000444,-0.00000675
 ,0.00000827,0.00002964,-0.00008423,0.00022561,-0.00871759,0.13018717,-
 0.18626854,-0.00002058,-0.00004010,0.00001012,-0.00002428,-0.00001442,
 -0.00004373,-0.00002088,-0.00000828,0.00000333,-0.00000728,0.00000112,
 0.00000390,-0.00007017,0.00006471,0.00002110,-0.00018602,-0.00009016,0
 .00005952,0.00000321,0.00007325,-0.00000155,0.00004724,-0.00014562,-0.
 00006131,0.00027251,-0.00001858,0.00005175,0.00080682,-0.00004740,0.00
 032821,0.00000094,-0.00000190,-0.00000435,-0.00000259,0.00000686,0.000
 00481,0.00002947,-0.00001193,0.00000859,0.00001516,-0.00000093,0.00000
 977,0.00000631,0.00007175,0.00005357,-0.00009118,0.00001121,0.00010464
 ,0.00352964,-0.00125886,-0.00142871,-0.00048179,-0.00026649,0.00000216
 ,0.00000713,0.00000014,0.00000193,-0.00000004,0.00000156,-0.00000213,-
 0.00000580,0.00000529,-0.00000486,0.00001135,0.00000640,-0.00000133,0.
 00008856,-0.00015108,-0.00011113,-0.00000701,0.00010213,-0.00004683,0.
 00000155,-0.00002449,0.00002113,0.00035339,0.01060651,-0.01142310,0.00
 061634,-0.00960125,0.01060176,0.00519426,-0.14313993,0.20276760\\0.000
 00245,-0.00001395,-0.00000210,0.00000365,-0.00000023,-0.00000451,0.000
 00032,0.00000398,-0.00000711,0.00000341,-0.00000325,0.00000383,-0.0000
 0653,-0.00000148,0.00000253,0.00000078,0.00000324,0.00000730,0.0000067
 1,0.00000220,0.00000125,0.,-0.00000104,-0.00000548,0.00000320,-0.00000
 128,0.00000093,0.00000082,0.00000064,-0.00000377,-0.00000491,0.0000019
 1,-0.00000393,0.00000421,-0.00000272,-0.00000311,-0.00000497,-0.000002
 32,0.00000027,0.00000050,0.00000088,-0.00000055,0.00000024,-0.00000040
 ,0.00000245,-0.00000674,0.00000426,0.00000684,-0.00000082,0.00000706,0
 .00000987,-0.00000057,-0.00000030,0.00000045,-0.00000220,0.00000056,-0
 .00000038,0.00000046,-0.00000070,-0.00000071,0.00000015,0.00000029,-0.
 00000117,-0.00000114,-0.00000154,0.00000196,0.00000063,0.00000547,-0.0
 0000284,0.00000101,-0.00000270,-0.00000021,-0.00000120,-0.00000154,-0.
 00000196,-0.00000032,-0.00000313,0.00000121,0.00000178,0.00000115,0.00
 000184,-0.00000113,-0.00000036,-0.00000138,-0.00000013,-0.00000053,-0.
 00000245,0.00000057,0.00000188,0.00000246,-0.00000111,0.00000180,-0.00
 000040,-0.00000427,-0.00000019,-0.00000015,-0.00000099,-0.00000045,0.0
 0000101,0.00000017,-0.00000068,-0.00000026,0.00000065,0.00000022,0.000
 00078,0.00000025,0.00000096,0.00000002,0.00000161,-0.00000041,-0.00000
 018,0.00000235,0.00000067,0.00000086,0.00000025,0.00000189,-0.00000037
 ,0.00000054,0.00000018,0.00000038,-0.00000022,0.00000069,-0.00000161,0
 .00000114,-0.00000058,0.00000065,-0.00000059,-0.00000015,-0.00000228\\
 \@


 A FOOL CAN ASK MORE QUESTIONS THAN
 A WISE MAN CAN ANSWER.
 Job cpu time:       0 days 21 hours 10 minutes 23.5 seconds.
 Elapsed time:       0 days  1 hours 19 minutes 43.0 seconds.
 File lengths (MBytes):  RWF=   1091 Int=      0 D2E=      0 Chk=     26 Scr=      1
 Normal termination of Gaussian 16 at Sat Sep 20 09:22:01 2025.
