 Entering Gaussian System, Link 0=g16
 Input=HTAL0126.gjf
 Output=HTAL0126.log
 Initial command:
 /usr/local/g16/l1.exe "/dados_01/scratch/Gau-2118794.inp" -scrdir="/dados_01/scratch/"
 Entering Link 1 = /usr/local/g16/l1.exe PID=   2118795.
  
 Copyright (c) 1988-2017, Gaussian, Inc.  All Rights Reserved.
  
 This is part of the Gaussian(R) 16 program.  It is based on
 the Gaussian(R) 09 system (copyright 2009, Gaussian, Inc.),
 the Gaussian(R) 03 system (copyright 2003, Gaussian, Inc.),
 the Gaussian(R) 98 system (copyright 1998, Gaussian, Inc.),
 the Gaussian(R) 94 system (copyright 1995, Gaussian, Inc.),
 the Gaussian 92(TM) system (copyright 1992, Gaussian, Inc.),
 the Gaussian 90(TM) system (copyright 1990, Gaussian, Inc.),
 the Gaussian 88(TM) system (copyright 1988, Gaussian, Inc.),
 the Gaussian 86(TM) system (copyright 1986, Carnegie Mellon
 University), and the Gaussian 82(TM) system (copyright 1983,
 Carnegie Mellon University). Gaussian is a federally registered
 trademark of Gaussian, Inc.
  
 This software contains proprietary and confidential information,
 including trade secrets, belonging to Gaussian, Inc.
  
 This software is provided under written license and may be
 used, copied, transmitted, or stored only in accord with that
 written license.
  
 The following legend is applicable only to US Government
 contracts under FAR:
  
                    RESTRICTED RIGHTS LEGEND
  
 Use, reproduction and disclosure by the US Government is
 subject to restrictions as set forth in subparagraphs (a)
 and (c) of the Commercial Computer Software - Restricted
 Rights clause in FAR 52.227-19.
  
 Gaussian, Inc.
 340 Quinnipiac St., Bldg. 40, Wallingford CT 06492
  
  
 ---------------------------------------------------------------
 Warning -- This program may not be used in any manner that
 competes with the business of Gaussian, Inc. or will provide
 assistance to any competitor of Gaussian, Inc.  The licensee
 of this program is prohibited from giving any competitor of
 Gaussian, Inc. access to this program.  By using this program,
 the user acknowledges that Gaussian, Inc. is engaged in the
 business of creating and licensing software in the field of
 computational chemistry and represents and warrants to the
 licensee that it is not a competitor of Gaussian, Inc. and that
 it will not use this program in any manner prohibited above.
 ---------------------------------------------------------------
  

 Cite this work as:
 Gaussian 16, Revision B.01,
 M. J. Frisch, G. W. Trucks, H. B. Schlegel, G. E. Scuseria, 
 M. A. Robb, J. R. Cheeseman, G. Scalmani, V. Barone, 
 G. A. Petersson, H. Nakatsuji, X. Li, M. Caricato, A. V. Marenich, 
 J. Bloino, B. G. Janesko, R. Gomperts, B. Mennucci, H. P. Hratchian, 
 J. V. Ortiz, A. F. Izmaylov, J. L. Sonnenberg, D. Williams-Young, 
 F. Ding, F. Lipparini, F. Egidi, J. Goings, B. Peng, A. Petrone, 
 T. Henderson, D. Ranasinghe, V. G. Zakrzewski, J. Gao, N. Rega, 
 G. Zheng, W. Liang, M. Hada, M. Ehara, K. Toyota, R. Fukuda, 
 J. Hasegawa, M. Ishida, T. Nakajima, Y. Honda, O. Kitao, H. Nakai, 
 T. Vreven, K. Throssell, J. A. Montgomery, Jr., J. E. Peralta, 
 F. Ogliaro, M. J. Bearpark, J. J. Heyd, E. N. Brothers, K. N. Kudin, 
 V. N. Staroverov, T. A. Keith, R. Kobayashi, J. Normand, 
 K. Raghavachari, A. P. Rendell, J. C. Burant, S. S. Iyengar, 
 J. Tomasi, M. Cossi, J. M. Millam, M. Klene, C. Adamo, R. Cammi, 
 J. W. Ochterski, R. L. Martin, K. Morokuma, O. Farkas, 
 J. B. Foresman, and D. J. Fox, Gaussian, Inc., Wallingford CT, 2016.
 
 ******************************************
 Gaussian 16:  ES64L-G16RevB.01 20-Dec-2017
                20-Sep-2025 
 ******************************************
 %nprocs=16
 Will use up to   16 processors via shared memory.
 %mem=40GB
 %chk=HTAL0126.chk
 ----------------------------------------------------------------------
 # opt freq=noraman M08HX/6-311++G** scf=xqc Empiricaldispersion=pfd In
 t(Grid=ultraFine)
 ----------------------------------------------------------------------
 1/18=20,19=15,26=4,38=1/1,3;
 2/9=110,12=2,17=6,18=5,40=1/2;
 3/5=4,6=6,7=1111,11=2,25=1,30=1,71=1,74=-74,75=-5,124=11/1,2,3;
 4//1;
 5/5=2,8=3,13=1,38=5/2,8;
 6/7=2,8=2,9=2,10=2,28=1/1;
 7//1,2,3,16;
 1/18=20,19=15,26=4/3(2);
 2/9=110/2;
 99//99;
 2/9=110/2;
 3/5=4,6=6,7=1111,11=2,25=1,30=1,71=1,74=-74,75=-5,124=11/1,2,3;
 4/5=5,16=3,69=1/1;
 5/5=2,8=3,13=1,38=5/2,8;
 7//1,2,3,16;
 1/18=20,19=15,26=4/3(-5);
 2/9=110/2;
 6/7=2,8=2,9=2,10=2,19=2,28=1/1;
 99/9=1/99;
 --------
 HTAL0126
 --------
 Symbolic Z-matrix:
 Charge =  0 Multiplicity = 1
 O                     3.3867    1.0806   -0.0235 
 C                    -0.5354   -0.6544    0.0086 
 C                    -1.7034    0.3339    0.0182 
 C                     0.8104    0.0765    0.0337 
 C                    -3.047    -0.3927   -0.0377 
 C                     1.9942   -0.885    -0.0056 
 C                    -4.211     0.5845    0.0049 
 C                     3.3053   -0.1434    0.0015 
 H                    -0.6072   -1.321     0.8765 
 H                    -0.5928   -1.2827   -0.8885 
 H                    -1.619     1.0134   -0.8387 
 H                    -1.6544    0.9494    0.9247 
 H                     0.8703    0.6985    0.9359 
 H                     0.8654    0.7612   -0.8224 
 H                    -3.11     -0.9892   -0.9553 
 H                    -3.1305   -1.0867    0.8069 
 H                     1.9632   -1.5023   -0.9094 
 H                     1.9791   -1.5471    0.8663 
 H                    -5.1616    0.0437   -0.0371 
 H                    -4.1749    1.2746   -0.8441 
 H                    -4.1956    1.1731    0.9276 
 H                     4.2099   -0.7746    0.0188 
 

 GradGradGradGradGradGradGradGradGradGradGradGradGradGradGradGradGradGrad
 Berny optimization.
 Initialization pass.
                           ----------------------------
                           !    Initial Parameters    !
                           ! (Angstroms and Degrees)  !
 --------------------------                            --------------------------
 ! Name  Definition              Value          Derivative Info.                !
 --------------------------------------------------------------------------------
 ! R1    R(1,8)                  1.227          estimate D2E/DX2                !
 ! R2    R(2,3)                  1.5301         estimate D2E/DX2                !
 ! R3    R(2,4)                  1.5317         estimate D2E/DX2                !
 ! R4    R(2,9)                  1.0967         estimate D2E/DX2                !
 ! R5    R(2,10)                 1.0967         estimate D2E/DX2                !
 ! R6    R(3,5)                  1.5285         estimate D2E/DX2                !
 ! R7    R(3,11)                 1.0969         estimate D2E/DX2                !
 ! R8    R(3,12)                 1.0968         estimate D2E/DX2                !
 ! R9    R(4,6)                  1.5256         estimate D2E/DX2                !
 ! R10   R(4,13)                 1.0975         estimate D2E/DX2                !
 ! R11   R(4,14)                 1.0976         estimate D2E/DX2                !
 ! R12   R(5,7)                  1.5204         estimate D2E/DX2                !
 ! R13   R(5,15)                 1.0963         estimate D2E/DX2                !
 ! R14   R(5,16)                 1.0963         estimate D2E/DX2                !
 ! R15   R(6,8)                  1.5063         estimate D2E/DX2                !
 ! R16   R(6,17)                 1.0949         estimate D2E/DX2                !
 ! R17   R(6,18)                 1.0949         estimate D2E/DX2                !
 ! R18   R(7,19)                 1.0945         estimate D2E/DX2                !
 ! R19   R(7,20)                 1.0947         estimate D2E/DX2                !
 ! R20   R(7,21)                 1.0946         estimate D2E/DX2                !
 ! R21   R(8,22)                 1.1032         estimate D2E/DX2                !
 ! A1    A(3,2,4)              111.2479         estimate D2E/DX2                !
 ! A2    A(3,2,9)              109.7347         estimate D2E/DX2                !
 ! A3    A(3,2,10)             109.5857         estimate D2E/DX2                !
 ! A4    A(4,2,9)              109.5483         estimate D2E/DX2                !
 ! A5    A(4,2,10)             109.4365         estimate D2E/DX2                !
 ! A6    A(9,2,10)             107.1984         estimate D2E/DX2                !
 ! A7    A(2,3,5)              111.3304         estimate D2E/DX2                !
 ! A8    A(2,3,11)             109.6641         estimate D2E/DX2                !
 ! A9    A(2,3,12)             109.485          estimate D2E/DX2                !
 ! A10   A(5,3,11)             109.4845         estimate D2E/DX2                !
 ! A11   A(5,3,12)             109.6492         estimate D2E/DX2                !
 ! A12   A(11,3,12)            107.1332         estimate D2E/DX2                !
 ! A13   A(2,4,6)              112.3726         estimate D2E/DX2                !
 ! A14   A(2,4,13)             109.3829         estimate D2E/DX2                !
 ! A15   A(2,4,14)             109.2034         estimate D2E/DX2                !
 ! A16   A(6,4,13)             109.6349         estimate D2E/DX2                !
 ! A17   A(6,4,14)             109.5228         estimate D2E/DX2                !
 ! A18   A(13,4,14)            106.5532         estimate D2E/DX2                !
 ! A19   A(3,5,7)              111.4948         estimate D2E/DX2                !
 ! A20   A(3,5,15)             109.8639         estimate D2E/DX2                !
 ! A21   A(3,5,16)             109.8579         estimate D2E/DX2                !
 ! A22   A(7,5,15)             109.2189         estimate D2E/DX2                !
 ! A23   A(7,5,16)             109.0844         estimate D2E/DX2                !
 ! A24   A(15,5,16)            107.2186         estimate D2E/DX2                !
 ! A25   A(4,6,8)              111.4069         estimate D2E/DX2                !
 ! A26   A(4,6,17)             110.77           estimate D2E/DX2                !
 ! A27   A(4,6,18)             110.4814         estimate D2E/DX2                !
 ! A28   A(8,6,17)             107.8241         estimate D2E/DX2                !
 ! A29   A(8,6,18)             107.8162         estimate D2E/DX2                !
 ! A30   A(17,6,18)            108.4215         estimate D2E/DX2                !
 ! A31   A(5,7,19)             110.2605         estimate D2E/DX2                !
 ! A32   A(5,7,20)             110.9897         estimate D2E/DX2                !
 ! A33   A(5,7,21)             111.0064         estimate D2E/DX2                !
 ! A34   A(19,7,20)            108.082          estimate D2E/DX2                !
 ! A35   A(19,7,21)            108.0762         estimate D2E/DX2                !
 ! A36   A(20,7,21)            108.32           estimate D2E/DX2                !
 ! A37   A(1,8,6)              123.2838         estimate D2E/DX2                !
 ! A38   A(1,8,22)             121.1113         estimate D2E/DX2                !
 ! A39   A(6,8,22)             115.6011         estimate D2E/DX2                !
 ! D1    D(4,2,3,5)            178.7567         estimate D2E/DX2                !
 ! D2    D(4,2,3,11)            57.4379         estimate D2E/DX2                !
 ! D3    D(4,2,3,12)           -59.8383         estimate D2E/DX2                !
 ! D4    D(9,2,3,5)            -59.8509         estimate D2E/DX2                !
 ! D5    D(9,2,3,11)           178.8304         estimate D2E/DX2                !
 ! D6    D(9,2,3,12)            61.5542         estimate D2E/DX2                !
 ! D7    D(10,2,3,5)            57.6048         estimate D2E/DX2                !
 ! D8    D(10,2,3,11)          -63.7139         estimate D2E/DX2                !
 ! D9    D(10,2,3,12)          179.0099         estimate D2E/DX2                !
 ! D10   D(3,2,4,6)           -178.7677         estimate D2E/DX2                !
 ! D11   D(3,2,4,13)            59.2253         estimate D2E/DX2                !
 ! D12   D(3,2,4,14)           -57.0293         estimate D2E/DX2                !
 ! D13   D(9,2,4,6)             59.7311         estimate D2E/DX2                !
 ! D14   D(9,2,4,13)           -62.2759         estimate D2E/DX2                !
 ! D15   D(9,2,4,14)          -178.5305         estimate D2E/DX2                !
 ! D16   D(10,2,4,6)           -57.5285         estimate D2E/DX2                !
 ! D17   D(10,2,4,13)         -179.5355         estimate D2E/DX2                !
 ! D18   D(10,2,4,14)           64.2099         estimate D2E/DX2                !
 ! D19   D(2,3,5,7)            178.652          estimate D2E/DX2                !
 ! D20   D(2,3,5,15)           -60.1204         estimate D2E/DX2                !
 ! D21   D(2,3,5,16)            57.598          estimate D2E/DX2                !
 ! D22   D(11,3,5,7)           -59.9246         estimate D2E/DX2                !
 ! D23   D(11,3,5,15)           61.3031         estimate D2E/DX2                !
 ! D24   D(11,3,5,16)          179.0215         estimate D2E/DX2                !
 ! D25   D(12,3,5,7)            57.3427         estimate D2E/DX2                !
 ! D26   D(12,3,5,15)          178.5704         estimate D2E/DX2                !
 ! D27   D(12,3,5,16)          -63.7113         estimate D2E/DX2                !
 ! D28   D(2,4,6,8)            179.2454         estimate D2E/DX2                !
 ! D29   D(2,4,6,17)            59.2245         estimate D2E/DX2                !
 ! D30   D(2,4,6,18)           -60.9368         estimate D2E/DX2                !
 ! D31   D(13,4,6,8)           -58.8908         estimate D2E/DX2                !
 ! D32   D(13,4,6,17)         -178.9117         estimate D2E/DX2                !
 ! D33   D(13,4,6,18)           60.927          estimate D2E/DX2                !
 ! D34   D(14,4,6,8)            57.6891         estimate D2E/DX2                !
 ! D35   D(14,4,6,17)          -62.3318         estimate D2E/DX2                !
 ! D36   D(14,4,6,18)          177.5069         estimate D2E/DX2                !
 ! D37   D(3,5,7,19)           179.9478         estimate D2E/DX2                !
 ! D38   D(3,5,7,20)            60.2134         estimate D2E/DX2                !
 ! D39   D(3,5,7,21)           -60.3141         estimate D2E/DX2                !
 ! D40   D(15,5,7,19)           58.3453         estimate D2E/DX2                !
 ! D41   D(15,5,7,20)          -61.3891         estimate D2E/DX2                !
 ! D42   D(15,5,7,21)          178.0834         estimate D2E/DX2                !
 ! D43   D(16,5,7,19)          -58.548          estimate D2E/DX2                !
 ! D44   D(16,5,7,20)         -178.2824         estimate D2E/DX2                !
 ! D45   D(16,5,7,21)           61.19           estimate D2E/DX2                !
 ! D46   D(4,6,8,1)             -3.2655         estimate D2E/DX2                !
 ! D47   D(4,6,8,22)           177.4416         estimate D2E/DX2                !
 ! D48   D(17,6,8,1)           118.4801         estimate D2E/DX2                !
 ! D49   D(17,6,8,22)          -60.8128         estimate D2E/DX2                !
 ! D50   D(18,6,8,1)          -124.6484         estimate D2E/DX2                !
 ! D51   D(18,6,8,22)           56.0587         estimate D2E/DX2                !
 --------------------------------------------------------------------------------
 Trust Radius=3.00D-01 FncErr=1.00D-07 GrdErr=1.00D-06 EigMax=2.50D+02 EigMin=1.00D-04
 Number of steps in this run=    121 maximum allowed number of steps=    132.
 GradGradGradGradGradGradGradGradGradGradGradGradGradGradGradGradGradGrad

                          Input orientation:                          
 ---------------------------------------------------------------------
 Center     Atomic      Atomic             Coordinates (Angstroms)
 Number     Number       Type             X           Y           Z
 ---------------------------------------------------------------------
      1          8           0        3.386700    1.080600   -0.023500
      2          6           0       -0.535400   -0.654400    0.008600
      3          6           0       -1.703400    0.333900    0.018200
      4          6           0        0.810400    0.076500    0.033700
      5          6           0       -3.047000   -0.392700   -0.037700
      6          6           0        1.994200   -0.885000   -0.005600
      7          6           0       -4.211000    0.584500    0.004900
      8          6           0        3.305300   -0.143400    0.001500
      9          1           0       -0.607200   -1.321000    0.876500
     10          1           0       -0.592800   -1.282700   -0.888500
     11          1           0       -1.619000    1.013400   -0.838700
     12          1           0       -1.654400    0.949400    0.924700
     13          1           0        0.870300    0.698500    0.935900
     14          1           0        0.865400    0.761200   -0.822400
     15          1           0       -3.110000   -0.989200   -0.955300
     16          1           0       -3.130500   -1.086700    0.806900
     17          1           0        1.963200   -1.502300   -0.909400
     18          1           0        1.979100   -1.547100    0.866300
     19          1           0       -5.161600    0.043700   -0.037100
     20          1           0       -4.174900    1.274600   -0.844100
     21          1           0       -4.195600    1.173100    0.927600
     22          1           0        4.209900   -0.774600    0.018800
 ---------------------------------------------------------------------
                    Distance matrix (angstroms):
                    1          2          3          4          5
     1  O    0.000000
     2  C    4.288837   0.000000
     3  C    5.144747   1.530050   0.000000
     4  C    2.765648   1.531673   2.526991   0.000000
     5  C    6.600251   2.525622   1.528507   3.886487   0.000000
     6  C    2.408933   2.540129   3.893396   1.525585   5.065283
     7  C    7.613932   3.878778   2.520126   5.047113   1.520405
     8  C    1.226958   3.874551   5.031418   2.504779   6.357311
     9  H    4.746464   1.096705   2.162644   2.161691   2.765886
    10  H    4.708485   1.096742   2.160771   2.160289   2.745735
    11  H    5.072090   2.161866   1.096869   2.746060   2.158217
    12  H    5.131178   2.159531   1.096806   2.762440   2.160273
    13  H    2.720058   2.160143   2.756635   1.097468   4.181370
    14  H    2.664059   2.157945   2.736408   1.097609   4.153807
    15  H    6.881819   2.769433   2.162596   4.181312   1.096253
    16  H    6.918139   2.749311   2.162583   4.181096   1.096338
    17  H    3.079374   2.793682   4.204287   2.170483   5.205111
    18  H    3.110931   2.802726   4.221166   2.166832   5.235603
    19  H    8.610969   4.678799   3.470795   5.972510   2.159162
    20  H    7.608470   4.206435   2.781509   5.201845   2.168485
    21  H    7.642279   4.193016   2.782504   5.202079   2.168598
    22  H    2.030077   4.746833   6.016302   3.504453   7.267162
                    6          7          8          9         10
     6  C    0.000000
     7  C    6.376837   0.000000
     8  C    1.506321   7.551464   0.000000
     9  H    2.781273   4.168692   4.178519   0.000000
    10  H    2.762290   4.168449   4.157558   1.765474   0.000000
    11  H    4.165716   2.759362   5.127656   3.068399   2.515480
    12  H    4.188408   2.741421   5.161892   2.500733   3.065446
    13  H    2.158019   5.167143   2.740643   2.502981   3.065004
    14  H    2.156693   5.146405   2.729510   3.064371   2.511622
    15  H    5.192846   2.147258   6.541171   3.119229   2.535133
    16  H    5.192628   2.145599   6.554236   2.535110   3.058221
    17  H    1.094931   6.581142   2.116029   3.135166   2.565501
    18  H    1.094904   6.603262   2.115906   2.596184   3.124724
    19  H    7.215882   1.094472   8.469055   4.841449   4.833027
    20  H    6.589746   1.094688   7.660232   4.735619   4.401499
    21  H    6.589405   1.094560   7.671658   4.370327   4.723276
    22  H    2.218583   8.529883   1.103184   4.923277   4.913989
                   11         12         13         14         15
    11  H    0.000000
    12  H    1.764916   0.000000
    13  H    3.073269   2.537161   0.000000
    14  H    2.497221   3.071998   1.759424   0.000000
    15  H    2.499417   3.067791   4.718872   4.345730   0.000000
    16  H    3.066440   2.517628   4.382919   4.694312   1.765014
    17  H    4.377888   4.739387   3.072960   2.517174   5.099288
    18  H    4.733868   4.408883   2.505394   3.069248   5.434006
    19  H    3.759374   3.747773   6.144860   6.120150   2.473669
    20  H    2.569218   3.096341   5.380923   5.066426   2.504230
    21  H    3.127969   2.551029   5.088090   5.370836   3.065841
    22  H    6.156974   6.179227   3.763512   3.775179   7.387548
                   16         17         18         19         20
    16  H    0.000000
    17  H    5.391121   0.000000
    18  H    5.130644   1.776336   0.000000
    19  H    2.472955   7.342602   7.371321   0.000000
    20  H    3.064688   6.737337   6.982777   1.771988   0.000000
    21  H    2.501140   6.961548   6.747604   1.771820   1.774726
    22  H    7.389180   2.537472   2.508283   9.407324   8.674600
                   21         22
    21  H    0.000000
    22  H    8.675937   0.000000
 Stoichiometry    C7H14O
 Framework group  C1[X(C7H14O)]
 Deg. of freedom    60
 Full point group                 C1      NOp   1
 Largest Abelian subgroup         C1      NOp   1
 Largest concise Abelian subgroup C1      NOp   1
                         Standard orientation:                         
 ---------------------------------------------------------------------
 Center     Atomic      Atomic             Coordinates (Angstroms)
 Number     Number       Type             X           Y           Z
 ---------------------------------------------------------------------
      1          8           0       -3.489194   -1.137625   -0.027260
      2          6           0        0.407492    0.653619    0.010245
      3          6           0        1.589612   -0.317769    0.017227
      4          6           0       -0.927637   -0.096667    0.033109
      5          6           0        2.922607    0.428272   -0.036450
      6          6           0       -2.125167    0.847780   -0.003650
      7          6           0        4.100565   -0.532168    0.003562
      8          6           0       -3.425444    0.087345    0.001189
      9          1           0        0.469595    1.318742    0.880023
     10          1           0        0.455916    1.285200   -0.885079
     11          1           0        1.515095   -0.996004   -0.841590
     12          1           0        1.549402   -0.936457    0.921987
     13          1           0       -0.978653   -0.721999    0.933550
     14          1           0       -0.972683   -0.779680   -0.824918
     15          1           0        2.977091    1.028195   -0.952362
     16          1           0        2.996017    1.121027    0.810107
     17          1           0       -2.102981    1.468000   -0.905708
     18          1           0       -2.119693    1.507575    0.870108
     19          1           0        5.043276    0.022391   -0.036790
     20          1           0        4.074494   -1.220327   -0.847378
     21          1           0        4.093561   -1.123520    0.924603
     22          1           0       -4.339048    0.705392    0.020140
 ---------------------------------------------------------------------
 Rotational constants (GHZ):           7.5175974           0.5895450           0.5581484
 Standard basis: 6-311++G(d,p) (5D, 7F)
 There are   282 symmetry adapted cartesian basis functions of A   symmetry.
 There are   274 symmetry adapted basis functions of A   symmetry.
   274 basis functions,   414 primitive gaussians,   282 cartesian basis functions
    32 alpha electrons       32 beta electrons
       nuclear repulsion energy       362.2180458479 Hartrees.
 NAtoms=   22 NActive=   22 NUniq=   22 SFac= 1.00D+00 NAtFMM=   60 NAOKFM=F Big=F
 Integral buffers will be    131072 words long.
 Raffenetti 2 integral format.
 Two-electron integral symmetry is turned on.
 R6APFD:  NTU= -4 IXU= 1 FactS= 1.050
 Nuclear repulsion after empirical dispersion term =      362.2047116680 Hartrees.
 One-electron integrals computed using PRISM.
 NBasis=   274 RedAO= T EigKep=  5.45D-06  NBF=   274
 NBsUse=   274 1.00D-06 EigRej= -1.00D+00 NBFU=   274
 ExpMin= 3.60D-02 ExpMax= 8.59D+03 ExpMxC= 1.30D+03 IAcc=3 IRadAn=         5 AccDes= 0.00D+00
 Harris functional with IExCor= 1009 and IRadAn=       5 diagonalized for initial guess.
 HarFok:  IExCor= 1009 AccDes= 0.00D+00 IRadAn=         5 IDoV= 1 UseB2=F ITyADJ=14
 ICtDFT=  3500011 ScaDFX=  1.000000  1.000000  1.000000  1.000000
 FoFCou: FMM=F IPFlag=           0 FMFlag=      100000 FMFlg1=           0
         NFxFlg=           0 DoJE=T BraDBF=F KetDBF=T FulRan=T
         wScrn=  0.000000 ICntrl=       500 IOpCl=  0 I1Cent=   200000004 NGrid=           0
         NMat0=    1 NMatS0=      1 NMatT0=    0 NMatD0=    1 NMtDS0=    0 NMtDT0=    0
 Petite list used in FoFCou.
 Requested convergence on RMS density matrix=1.00D-08 within  32 cycles.
 Requested convergence on MAX density matrix=1.00D-06.
 Requested convergence on             energy=1.00D-06.
 No special actions if energy rises.
 SCF Done:  E(RM08HX) =  -350.405991449     A.U. after   13 cycles
            NFock= 13  Conv=0.48D-08     -V/T= 2.0053
 QCSCF skips out because SCF is already converged.

 **********************************************************************

            Population analysis using the SCF Density.

 **********************************************************************

 Orbital symmetries:
       Occupied  (A) (A) (A) (A) (A) (A) (A) (A) (A) (A) (A) (A)
                 (A) (A) (A) (A) (A) (A) (A) (A) (A) (A) (A) (A)
                 (A) (A) (A) (A) (A) (A) (A) (A)
       Virtual   (A) (A) (A) (A) (A) (A) (A) (A) (A) (A) (A) (A)
                 (A) (A) (A) (A) (A) (A) (A) (A) (A) (A) (A) (A)
                 (A) (A) (A) (A) (A) (A) (A) (A) (A) (A) (A) (A)
                 (A) (A) (A) (A) (A) (A) (A) (A) (A) (A) (A) (A)
                 (A) (A) (A) (A) (A) (A) (A) (A) (A) (A) (A) (A)
                 (A) (A) (A) (A) (A) (A) (A) (A) (A) (A) (A) (A)
                 (A) (A) (A) (A) (A) (A) (A) (A) (A) (A) (A) (A)
                 (A) (A) (A) (A) (A) (A) (A) (A) (A) (A) (A) (A)
                 (A) (A) (A) (A) (A) (A) (A) (A) (A) (A) (A) (A)
                 (A) (A) (A) (A) (A) (A) (A) (A) (A) (A) (A) (A)
                 (A) (A) (A) (A) (A) (A) (A) (A) (A) (A) (A) (A)
                 (A) (A) (A) (A) (A) (A) (A) (A) (A) (A) (A) (A)
                 (A) (A) (A) (A) (A) (A) (A) (A) (A) (A) (A) (A)
                 (A) (A) (A) (A) (A) (A) (A) (A) (A) (A) (A) (A)
                 (A) (A) (A) (A) (A) (A) (A) (A) (A) (A) (A) (A)
                 (A) (A) (A) (A) (A) (A) (A) (A) (A) (A) (A) (A)
                 (A) (A) (A) (A) (A) (A) (A) (A) (A) (A) (A) (A)
                 (A) (A) (A) (A) (A) (A) (A) (A) (A) (A) (A) (A)
                 (A) (A) (A) (A) (A) (A) (A) (A) (A) (A) (A) (A)
                 (A) (A) (A) (A) (A) (A) (A) (A) (A) (A) (A) (A)
                 (A) (A)
 The electronic state is 1-A.
 Alpha  occ. eigenvalues --  -19.61612 -10.62718 -10.54439 -10.52760 -10.52551
 Alpha  occ. eigenvalues --  -10.52205 -10.52163 -10.51246  -1.16854  -0.92554
 Alpha  occ. eigenvalues --   -0.89095  -0.83386  -0.76116  -0.69326  -0.66663
 Alpha  occ. eigenvalues --   -0.64581  -0.56881  -0.56457  -0.53952  -0.52668
 Alpha  occ. eigenvalues --   -0.49953  -0.49361  -0.46747  -0.45133  -0.44700
 Alpha  occ. eigenvalues --   -0.42440  -0.41486  -0.39784  -0.39597  -0.38888
 Alpha  occ. eigenvalues --   -0.37836  -0.33503
 Alpha virt. eigenvalues --   -0.03078  -0.02104  -0.01487  -0.01118  -0.00585
 Alpha virt. eigenvalues --   -0.00365   0.00760   0.00971   0.01897   0.02358
 Alpha virt. eigenvalues --    0.03274   0.03543   0.03749   0.05098   0.05194
 Alpha virt. eigenvalues --    0.06067   0.06731   0.07711   0.08721   0.09053
 Alpha virt. eigenvalues --    0.09458   0.10207   0.11085   0.11238   0.11902
 Alpha virt. eigenvalues --    0.12058   0.12565   0.12983   0.13194   0.13638
 Alpha virt. eigenvalues --    0.14570   0.14675   0.14843   0.15638   0.16428
 Alpha virt. eigenvalues --    0.16561   0.16869   0.17687   0.17769   0.18371
 Alpha virt. eigenvalues --    0.19334   0.20152   0.20891   0.21099   0.22867
 Alpha virt. eigenvalues --    0.23116   0.24276   0.24528   0.25046   0.25434
 Alpha virt. eigenvalues --    0.26212   0.27197   0.27965   0.28845   0.29779
 Alpha virt. eigenvalues --    0.30714   0.31267   0.32007   0.32443   0.33408
 Alpha virt. eigenvalues --    0.33680   0.34723   0.35138   0.35794   0.36826
 Alpha virt. eigenvalues --    0.39383   0.42820   0.45079   0.45784   0.46006
 Alpha virt. eigenvalues --    0.47032   0.48348   0.49949   0.51554   0.52725
 Alpha virt. eigenvalues --    0.54903   0.57350   0.59040   0.60039   0.61183
 Alpha virt. eigenvalues --    0.63590   0.66707   0.66971   0.67814   0.68752
 Alpha virt. eigenvalues --    0.68968   0.70006   0.70420   0.70575   0.71720
 Alpha virt. eigenvalues --    0.72961   0.72993   0.74383   0.75194   0.75324
 Alpha virt. eigenvalues --    0.75752   0.76999   0.78741   0.79475   0.79874
 Alpha virt. eigenvalues --    0.79957   0.82042   0.84248   0.86733   0.92694
 Alpha virt. eigenvalues --    0.98692   1.00986   1.01164   1.03924   1.04942
 Alpha virt. eigenvalues --    1.05747   1.13378   1.14297   1.18457   1.19105
 Alpha virt. eigenvalues --    1.23933   1.26170   1.27014   1.28005   1.29503
 Alpha virt. eigenvalues --    1.30632   1.31293   1.32940   1.44333   1.49523
 Alpha virt. eigenvalues --    1.49891   1.50396   1.51629   1.54618   1.56865
 Alpha virt. eigenvalues --    1.57755   1.58948   1.59805   1.61320   1.62015
 Alpha virt. eigenvalues --    1.62279   1.63392   1.63426   1.64694   1.66804
 Alpha virt. eigenvalues --    1.68241   1.69068   1.69828   1.71836   1.74678
 Alpha virt. eigenvalues --    1.75434   1.75843   1.76750   1.78752   1.80918
 Alpha virt. eigenvalues --    1.83003   1.85445   1.86446   1.87860   1.93125
 Alpha virt. eigenvalues --    1.93305   1.93697   2.01712   2.03771   2.04683
 Alpha virt. eigenvalues --    2.08793   2.13776   2.15547   2.16060   2.17259
 Alpha virt. eigenvalues --    2.22058   2.25245   2.26252   2.27181   2.29727
 Alpha virt. eigenvalues --    2.33857   2.36867   2.37990   2.42423   2.43645
 Alpha virt. eigenvalues --    2.45271   2.45344   2.48781   2.50335   2.51634
 Alpha virt. eigenvalues --    2.53036   2.55071   2.55591   2.57169   2.58341
 Alpha virt. eigenvalues --    2.60519   2.62206   2.63692   2.64744   2.67240
 Alpha virt. eigenvalues --    2.67844   2.69028   2.71711   2.72236   2.75333
 Alpha virt. eigenvalues --    2.77470   2.77923   2.81344   2.83770   2.84175
 Alpha virt. eigenvalues --    2.84837   2.88137   2.89511   2.91380   2.93311
 Alpha virt. eigenvalues --    2.95614   2.99204   3.01530   3.08898   3.10673
 Alpha virt. eigenvalues --    3.18148   3.31394   3.40953   3.43468   3.49990
 Alpha virt. eigenvalues --    3.52372   3.59612   3.80866   3.81848   3.83848
 Alpha virt. eigenvalues --    3.84896   3.85439   3.88152   3.94501   3.94674
 Alpha virt. eigenvalues --    4.10616   4.14372   4.21180   4.31955   4.41566
 Alpha virt. eigenvalues --    4.45268   5.13290   5.31933   5.80967  23.91085
 Alpha virt. eigenvalues --   23.94266  23.94748  23.95604  23.97041  23.98401
 Alpha virt. eigenvalues --   24.04298  49.96356
          Condensed to atoms (all electrons):
               1          2          3          4          5          6
     1  O    7.875780   0.124783   0.006072  -0.027930   0.001234  -0.097572
     2  C    0.124783   8.689333  -0.970966  -2.381674   0.241857  -0.101615
     3  C    0.006072  -0.970966   7.283437   0.496801  -1.034316  -0.224411
     4  C   -0.027930  -2.381674   0.496801   9.057010  -0.360632  -1.159214
     5  C    0.001234   0.241857  -1.034316  -0.360632   7.128133  -0.202007
     6  C   -0.097572  -0.101615  -0.224411  -1.159214  -0.202007   8.140227
     7  C    0.000173  -0.092026   0.160525  -0.168770  -0.252573  -0.008360
     8  C    0.375888   0.036987  -0.109140   0.377264  -0.003863  -0.772635
     9  H    0.001252   0.517218  -0.083512  -0.097318   0.015510   0.005362
    10  H    0.003109   0.531859  -0.104362  -0.124214   0.019543   0.024911
    11  H    0.000210  -0.060460   0.487871  -0.008871  -0.059992  -0.012685
    12  H    0.001061  -0.060962   0.497446  -0.023825  -0.069804  -0.005104
    13  H   -0.016070  -0.125221   0.009819   0.531387  -0.003774  -0.056619
    14  H   -0.011888  -0.118891   0.009475   0.518821  -0.006425  -0.051011
    15  H   -0.000146  -0.015973  -0.047460   0.011014   0.453588  -0.002002
    16  H   -0.000092   0.011100  -0.073305   0.020074   0.462581   0.001105
    17  H   -0.003581   0.019160   0.010193  -0.042291   0.001185   0.416734
    18  H    0.002026   0.015327   0.003279  -0.080838   0.001037   0.458796
    19  H    0.000006   0.013682   0.050453   0.000809  -0.060738  -0.001070
    20  H    0.000006  -0.010512  -0.039437  -0.000156  -0.003307   0.000542
    21  H   -0.000004  -0.014595  -0.038237  -0.002237  -0.007027  -0.000122
    22  H   -0.042346   0.065479  -0.005628  -0.063815  -0.000213  -0.112568
               7          8          9         10         11         12
     1  O    0.000173   0.375888   0.001252   0.003109   0.000210   0.001061
     2  C   -0.092026   0.036987   0.517218   0.531859  -0.060460  -0.060962
     3  C    0.160525  -0.109140  -0.083512  -0.104362   0.487871   0.497446
     4  C   -0.168770   0.377264  -0.097318  -0.124214  -0.008871  -0.023825
     5  C   -0.252573  -0.003863   0.015510   0.019543  -0.059992  -0.069804
     6  C   -0.008360  -0.772635   0.005362   0.024911  -0.012685  -0.005104
     7  C    6.154696  -0.002220   0.000539  -0.001387   0.016588   0.021454
     8  C   -0.002220   6.060930  -0.003348  -0.000040  -0.001053  -0.000392
     9  H    0.000539  -0.003348   0.584569  -0.106818   0.012977  -0.023696
    10  H   -0.001387  -0.000040  -0.106818   0.591945  -0.022576   0.013042
    11  H    0.016588  -0.001053   0.012977  -0.022576   0.557536  -0.083904
    12  H    0.021454  -0.000392  -0.023696   0.013042  -0.083904   0.554289
    13  H   -0.004123   0.011910  -0.024463   0.013536   0.003030  -0.003530
    14  H   -0.003774   0.012613   0.012156  -0.022631  -0.004926   0.003768
    15  H   -0.052594   0.000144   0.006081  -0.006806  -0.019376   0.008491
    16  H   -0.079284   0.000790  -0.007106   0.005616   0.008864  -0.017108
    17  H    0.000311  -0.051306   0.008161  -0.011414   0.003292  -0.001310
    18  H    0.000510  -0.048453  -0.009961   0.006952  -0.001270   0.002897
    19  H    0.355128  -0.000112   0.000534   0.000299  -0.001424  -0.001100
    20  H    0.408334   0.000084  -0.000683   0.001894   0.001451   0.000917
    21  H    0.419098  -0.000000   0.001902  -0.000486   0.001822   0.001415
    22  H    0.000092   0.315223   0.001265   0.002681  -0.000041   0.000256
              13         14         15         16         17         18
     1  O   -0.016070  -0.011888  -0.000146  -0.000092  -0.003581   0.002026
     2  C   -0.125221  -0.118891  -0.015973   0.011100   0.019160   0.015327
     3  C    0.009819   0.009475  -0.047460  -0.073305   0.010193   0.003279
     4  C    0.531387   0.518821   0.011014   0.020074  -0.042291  -0.080838
     5  C   -0.003774  -0.006425   0.453588   0.462581   0.001185   0.001037
     6  C   -0.056619  -0.051011  -0.002002   0.001105   0.416734   0.458796
     7  C   -0.004123  -0.003774  -0.052594  -0.079284   0.000311   0.000510
     8  C    0.011910   0.012613   0.000144   0.000790  -0.051306  -0.048453
     9  H   -0.024463   0.012156   0.006081  -0.007106   0.008161  -0.009961
    10  H    0.013536  -0.022631  -0.006806   0.005616  -0.011414   0.006952
    11  H    0.003030  -0.004926  -0.019376   0.008864   0.003292  -0.001270
    12  H   -0.003530   0.003768   0.008491  -0.017108  -0.001310   0.002897
    13  H    0.504088  -0.059934  -0.001171   0.003073   0.001978  -0.008165
    14  H   -0.059934   0.504697   0.003184  -0.001191  -0.008420   0.003195
    15  H   -0.001171   0.003184   0.557872  -0.079017  -0.000109   0.000340
    16  H    0.003073  -0.001191  -0.079017   0.563899   0.000315  -0.000203
    17  H    0.001978  -0.008420  -0.000109   0.000315   0.492956  -0.055154
    18  H   -0.008165   0.003195   0.000340  -0.000203  -0.055154   0.492668
    19  H   -0.000044  -0.000025  -0.001682  -0.004067  -0.000005  -0.000009
    20  H    0.000278   0.000152  -0.024571   0.014639  -0.000044   0.000002
    21  H    0.000092   0.000164   0.013498  -0.024524   0.000005  -0.000024
    22  H   -0.000095   0.001285  -0.000118  -0.000067  -0.009343  -0.002104
              19         20         21         22
     1  O    0.000006   0.000006  -0.000004  -0.042346
     2  C    0.013682  -0.010512  -0.014595   0.065479
     3  C    0.050453  -0.039437  -0.038237  -0.005628
     4  C    0.000809  -0.000156  -0.002237  -0.063815
     5  C   -0.060738  -0.003307  -0.007027  -0.000213
     6  C   -0.001070   0.000542  -0.000122  -0.112568
     7  C    0.355128   0.408334   0.419098   0.000092
     8  C   -0.000112   0.000084  -0.000000   0.315223
     9  H    0.000534  -0.000683   0.001902   0.001265
    10  H    0.000299   0.001894  -0.000486   0.002681
    11  H   -0.001424   0.001451   0.001822  -0.000041
    12  H   -0.001100   0.000917   0.001415   0.000256
    13  H   -0.000044   0.000278   0.000092  -0.000095
    14  H   -0.000025   0.000152   0.000164   0.001285
    15  H   -0.001682  -0.024571   0.013498  -0.000118
    16  H   -0.004067   0.014639  -0.024524  -0.000067
    17  H   -0.000005  -0.000044   0.000005  -0.009343
    18  H   -0.000009   0.000002  -0.000024  -0.002104
    19  H    0.485269  -0.024060  -0.022921  -0.000003
    20  H   -0.024060   0.558702  -0.070693   0.000002
    21  H   -0.022921  -0.070693   0.556832  -0.000003
    22  H   -0.000003   0.000002  -0.000003   0.625050
 Mulliken charges:
               1
     1  O   -0.191972
     2  C   -0.313889
     3  C   -0.284594
     4  C   -0.471397
     5  C   -0.259997
     6  C   -0.240682
     7  C   -0.872336
     8  C   -0.199270
     9  H    0.189379
    10  H    0.185347
    11  H    0.182935
    12  H    0.185700
    13  H    0.224018
    14  H    0.219606
    15  H    0.196814
    16  H    0.193909
    17  H    0.228687
    18  H    0.219152
    19  H    0.211077
    20  H    0.186459
    21  H    0.186043
    22  H    0.225012
 Sum of Mulliken charges =  -0.00000
 Mulliken charges with hydrogens summed into heavy atoms:
               1
     1  O   -0.191972
     2  C    0.060837
     3  C    0.084040
     4  C   -0.027773
     5  C    0.130726
     6  C    0.207156
     7  C   -0.288757
     8  C    0.025742
 Electronic spatial extent (au):  <R**2>=           2001.3576
 Charge=             -0.0000 electrons
 Dipole moment (field-independent basis, Debye):
    X=              0.8946    Y=              2.7471    Z=              0.0457  Tot=              2.8895
 Quadrupole moment (field-independent basis, Debye-Ang):
   XX=            -57.2714   YY=            -55.7528   ZZ=            -51.0330
   XY=             -9.5031   XZ=             -0.2025   YZ=             -0.0414
 Traceless Quadrupole moment (field-independent basis, Debye-Ang):
   XX=             -2.5857   YY=             -1.0670   ZZ=              3.6527
   XY=             -9.5031   XZ=             -0.2025   YZ=             -0.0414
 Octapole moment (field-independent basis, Debye-Ang**2):
  XXX=             -2.2505  YYY=              0.3324  ZZZ=             -0.0543  XYY=              3.8842
  XXY=             36.2227  XXZ=              0.6026  XZZ=             -5.8310  YZZ=             -0.8345
  YYZ=              0.0050  XYZ=              0.3210
 Hexadecapole moment (field-independent basis, Debye-Ang**3):
 XXXX=          -2472.8431 YYYY=           -246.0877 ZZZZ=            -98.4887 XXXY=            -97.8313
 XXXZ=             -3.1912 YYYX=             -0.7340 YYYZ=              0.6913 ZZZX=              0.5846
 ZZZY=             -0.3079 XXYY=           -478.4989 XXZZ=           -409.7821 YYZZ=            -50.8105
 XXYZ=             -0.7318 YYXZ=             -0.3189 ZZXY=              1.7350
 N-N= 3.622047116680D+02 E-N=-1.538416736063D+03  KE= 3.485665981903D+02
 R6APFD:  NTU= -4 IXU= 1 FactS= 1.050
 Calling FoFJK, ICntrl=      2127 FMM=F ISym2X=0 I1Cent= 0 IOpClX= 0 NMat=1 NMatS=1 NMatT=0.
 ***** Axes restored to original set *****
 -------------------------------------------------------------------
 Center     Atomic                   Forces (Hartrees/Bohr)
 Number     Number              X              Y              Z
 -------------------------------------------------------------------
      1        8           0.001334818   -0.041763439    0.001538674
      2        6           0.004915096    0.009754063   -0.000007539
      3        6          -0.000305385   -0.012308553   -0.000253910
      4        6          -0.005064423   -0.005367812   -0.001277086
      5        6           0.000821703    0.006730532    0.000837699
      6        6          -0.003238016    0.013821904    0.002266385
      7        6          -0.003959565   -0.002677987   -0.000466539
      8        6          -0.003385052    0.041089021   -0.002625985
      9        1          -0.001118502   -0.002824236    0.001790599
     10        1          -0.000941794   -0.002755710   -0.002051520
     11        1           0.000447062    0.002468231   -0.001589753
     12        1           0.000059052    0.002458662    0.001827183
     13        1           0.001359759    0.001622151    0.000066626
     14        1           0.001349552    0.001540435    0.000219809
     15        1           0.001551330   -0.002761556   -0.001522489
     16        1           0.001604084   -0.002979792    0.001255918
     17        1           0.000614924   -0.005514470   -0.001470868
     18        1           0.000645834   -0.005997527    0.000854416
     19        1          -0.003024623    0.001764900    0.000019242
     20        1          -0.000271208    0.001932727   -0.000886247
     21        1          -0.000221325    0.001807549    0.001156054
     22        1           0.006826679   -0.000039095    0.000319328
 -------------------------------------------------------------------
 Cartesian Forces:  Max     0.041763439 RMS     0.008047380

 GradGradGradGradGradGradGradGradGradGradGradGradGradGradGradGradGradGrad
 Berny optimization.
 FormGI is forming the generalized inverse of G from B-inverse, IUseBI=4.
 Internal  Forces:  Max     0.041606127 RMS     0.004431019
 Search for a local minimum.
 Step number   1 out of a maximum of  121
 All quantities printed in internal units (Hartrees-Bohrs-Radians)
 Mixed Optimization -- RFO/linear search
 Second derivative matrix not updated -- first step.
 ITU=  0
     Eigenvalues ---    0.00347   0.00368   0.00389   0.00428   0.00496
     Eigenvalues ---    0.00682   0.00683   0.03572   0.03675   0.03681
     Eigenvalues ---    0.03720   0.04319   0.04855   0.04875   0.04886
     Eigenvalues ---    0.04928   0.05387   0.05607   0.05703   0.08084
     Eigenvalues ---    0.08110   0.08168   0.08303   0.09295   0.12018
     Eigenvalues ---    0.12035   0.12068   0.12178   0.12695   0.16000
     Eigenvalues ---    0.16000   0.16000   0.16000   0.21898   0.21899
     Eigenvalues ---    0.21900   0.21906   0.21979   0.22000   0.29269
     Eigenvalues ---    0.29419   0.29562   0.29835   0.30328   0.31723
     Eigenvalues ---    0.33333   0.33948   0.33964   0.34031   0.34038
     Eigenvalues ---    0.34045   0.34049   0.34090   0.34100   0.34249
     Eigenvalues ---    0.34252   0.34276   0.34291   0.34301   0.92365
 RFO step:  Lambda=-4.45001295D-03 EMin= 3.46973243D-03
 Linear search not attempted -- first point.
 Iteration  1 RMS(Cart)=  0.03260283 RMS(Int)=  0.00050349
 Iteration  2 RMS(Cart)=  0.00070256 RMS(Int)=  0.00012266
 Iteration  3 RMS(Cart)=  0.00000057 RMS(Int)=  0.00012266
 Variable       Old X    -DE/DX   Delta X   Delta X   Delta X     New X
                                 (Linear)    (Quad)   (Total)
    R1        2.31862  -0.04161   0.00000  -0.04483  -0.04483   2.27379
    R2        2.89138   0.00022   0.00000   0.00073   0.00073   2.89211
    R3        2.89444   0.00010   0.00000   0.00032   0.00032   2.89477
    R4        2.07247   0.00321   0.00000   0.00930   0.00930   2.08177
    R5        2.07254   0.00331   0.00000   0.00958   0.00958   2.08213
    R6        2.88846   0.00125   0.00000   0.00415   0.00415   2.89261
    R7        2.07278   0.00281   0.00000   0.00814   0.00814   2.08092
    R8        2.07266   0.00289   0.00000   0.00839   0.00839   2.08105
    R9        2.88294   0.00114   0.00000   0.00378   0.00378   2.88672
   R10        2.07391   0.00105   0.00000   0.00305   0.00305   2.07696
   R11        2.07418   0.00086   0.00000   0.00249   0.00249   2.07667
   R12        2.87315   0.00754   0.00000   0.02449   0.02449   2.89764
   R13        2.07162   0.00269   0.00000   0.00778   0.00778   2.07940
   R14        2.07178   0.00273   0.00000   0.00791   0.00791   2.07969
   R15        2.84653   0.00380   0.00000   0.01182   0.01182   2.85835
   R16        2.06912   0.00430   0.00000   0.01241   0.01241   2.08153
   R17        2.06907   0.00430   0.00000   0.01239   0.01239   2.08146
   R18        2.06825   0.00175   0.00000   0.00505   0.00505   2.07330
   R19        2.06866   0.00190   0.00000   0.00547   0.00547   2.07413
   R20        2.06842   0.00194   0.00000   0.00559   0.00559   2.07401
   R21        2.08471   0.00563   0.00000   0.01665   0.01665   2.10137
    A1        1.94164   0.00339   0.00000   0.01924   0.01918   1.96082
    A2        1.91523  -0.00142   0.00000  -0.00864  -0.00874   1.90649
    A3        1.91263  -0.00115   0.00000  -0.00487  -0.00502   1.90762
    A4        1.91198  -0.00040   0.00000   0.00279   0.00283   1.91481
    A5        1.91003  -0.00044   0.00000   0.00415   0.00413   1.91416
    A6        1.87097  -0.00011   0.00000  -0.01388  -0.01395   1.85702
    A7        1.94308   0.00511   0.00000   0.02723   0.02716   1.97024
    A8        1.91400  -0.00161   0.00000  -0.00578  -0.00586   1.90814
    A9        1.91087  -0.00118   0.00000  -0.00204  -0.00210   1.90877
   A10        1.91087  -0.00120   0.00000  -0.00244  -0.00249   1.90838
   A11        1.91374  -0.00159   0.00000  -0.00535  -0.00544   1.90830
   A12        1.86983   0.00027   0.00000  -0.01322  -0.01328   1.85655
   A13        1.96127  -0.00080   0.00000  -0.00087  -0.00086   1.96041
   A14        1.90909   0.00108   0.00000   0.00984   0.00984   1.91893
   A15        1.90596   0.00120   0.00000   0.01322   0.01321   1.91917
   A16        1.91349  -0.00039   0.00000  -0.00687  -0.00689   1.90660
   A17        1.91153  -0.00021   0.00000  -0.00296  -0.00300   1.90854
   A18        1.85970  -0.00088   0.00000  -0.01293  -0.01302   1.84668
   A19        1.94595   0.00276   0.00000   0.01657   0.01656   1.96251
   A20        1.91749  -0.00171   0.00000  -0.01406  -0.01426   1.90322
   A21        1.91738  -0.00176   0.00000  -0.01308  -0.01333   1.90405
   A22        1.90623   0.00034   0.00000   0.01071   0.01080   1.91703
   A23        1.90388   0.00055   0.00000   0.01380   0.01386   1.91774
   A24        1.87132  -0.00028   0.00000  -0.01488  -0.01515   1.85616
   A25        1.94442   0.00556   0.00000   0.03437   0.03398   1.97839
   A26        1.93330  -0.00033   0.00000   0.00305   0.00302   1.93632
   A27        1.92826   0.00029   0.00000   0.01165   0.01139   1.93965
   A28        1.88189  -0.00201   0.00000  -0.00761  -0.00787   1.87402
   A29        1.88175  -0.00191   0.00000  -0.00232  -0.00289   1.87886
   A30        1.89231  -0.00187   0.00000  -0.04173  -0.04177   1.85054
   A31        1.92441   0.00436   0.00000   0.03063   0.03052   1.95493
   A32        1.93714   0.00014   0.00000  -0.00126  -0.00133   1.93580
   A33        1.93743   0.00001   0.00000  -0.00202  -0.00209   1.93534
   A34        1.88639  -0.00187   0.00000  -0.00743  -0.00753   1.87885
   A35        1.88629  -0.00179   0.00000  -0.00692  -0.00702   1.87927
   A36        1.89054  -0.00103   0.00000  -0.01403  -0.01407   1.87647
   A37        2.15171   0.00367   0.00000   0.01649   0.01610   2.16781
   A38        2.11379  -0.00587   0.00000  -0.03251  -0.03290   2.08089
   A39        2.01762   0.00220   0.00000   0.01659   0.01620   2.03382
    D1        3.11989   0.00016   0.00000   0.00764   0.00763   3.12752
    D2        1.00248  -0.00060   0.00000  -0.00325  -0.00323   0.99925
    D3       -1.04437   0.00070   0.00000   0.01732   0.01734  -1.02703
    D4       -1.04459   0.00092   0.00000   0.01797   0.01791  -1.02669
    D5        3.12118   0.00016   0.00000   0.00708   0.00705   3.12823
    D6        1.07432   0.00147   0.00000   0.02766   0.02762   1.10194
    D7        1.00539  -0.00072   0.00000  -0.00683  -0.00681   0.99858
    D8       -1.11202  -0.00148   0.00000  -0.01772  -0.01767  -1.12969
    D9        3.12431  -0.00018   0.00000   0.00286   0.00290   3.12721
   D10       -3.12008  -0.00026   0.00000  -0.01238  -0.01240  -3.13248
   D11        1.03368   0.00000   0.00000  -0.00999  -0.00999   1.02369
   D12       -0.99535  -0.00022   0.00000  -0.00746  -0.00747  -1.00282
   D13        1.04250  -0.00043   0.00000  -0.01599  -0.01604   1.02647
   D14       -1.08692  -0.00016   0.00000  -0.01360  -0.01362  -1.10054
   D15       -3.11594  -0.00039   0.00000  -0.01108  -0.01111  -3.12706
   D16       -1.00406   0.00019   0.00000  -0.00324  -0.00320  -1.00727
   D17       -3.13349   0.00046   0.00000  -0.00085  -0.00079  -3.13428
   D18        1.12067   0.00023   0.00000   0.00168   0.00172   1.12239
   D19        3.11807   0.00022   0.00000   0.00812   0.00810   3.12616
   D20       -1.04930   0.00131   0.00000   0.02304   0.02289  -1.02640
   D21        1.00527  -0.00110   0.00000  -0.01133  -0.01122   0.99405
   D22       -1.04588   0.00073   0.00000   0.01699   0.01700  -1.02888
   D23        1.06994   0.00182   0.00000   0.03191   0.03179   1.10173
   D24        3.12451  -0.00059   0.00000  -0.00246  -0.00232   3.12219
   D25        1.00082  -0.00057   0.00000  -0.00356  -0.00355   0.99727
   D26        3.11664   0.00051   0.00000   0.01136   0.01124   3.12789
   D27       -1.11197  -0.00190   0.00000  -0.02301  -0.02287  -1.13484
   D28        3.12842  -0.00003   0.00000   0.00296   0.00289   3.13131
   D29        1.03366  -0.00097   0.00000  -0.01232  -0.01241   1.02125
   D30       -1.06355   0.00140   0.00000   0.03032   0.03047  -1.03307
   D31       -1.02784   0.00053   0.00000   0.01007   0.00998  -1.01786
   D32       -3.12260  -0.00040   0.00000  -0.00521  -0.00532  -3.12792
   D33        1.06338   0.00197   0.00000   0.03743   0.03757   1.10094
   D34        1.00686  -0.00087   0.00000  -0.01120  -0.01125   0.99562
   D35       -1.08789  -0.00181   0.00000  -0.02648  -0.02655  -1.11444
   D36        3.09808   0.00056   0.00000   0.01616   0.01634   3.11442
   D37        3.14068  -0.00004   0.00000  -0.00206  -0.00207   3.13861
   D38        1.05092  -0.00064   0.00000  -0.01195  -0.01199   1.03894
   D39       -1.05268   0.00057   0.00000   0.00799   0.00799  -1.04469
   D40        1.01832   0.00009   0.00000  -0.00244  -0.00248   1.01584
   D41       -1.07144  -0.00051   0.00000  -0.01233  -0.01240  -1.08384
   D42        3.10814   0.00070   0.00000   0.00761   0.00758   3.11572
   D43       -1.02186  -0.00008   0.00000   0.00155   0.00162  -1.02024
   D44       -3.11162  -0.00068   0.00000  -0.00834  -0.00830  -3.11991
   D45        1.06797   0.00053   0.00000   0.01160   0.01168   1.07965
   D46       -0.05699   0.00069   0.00000   0.04153   0.04156  -0.01543
   D47        3.09694   0.00010   0.00000  -0.01054  -0.01050   3.08644
   D48        2.06787   0.00240   0.00000   0.06163   0.06155   2.12941
   D49       -1.06138   0.00181   0.00000   0.00956   0.00948  -1.05190
   D50       -2.17552  -0.00184   0.00000   0.00747   0.00751  -2.16801
   D51        0.97841  -0.00243   0.00000  -0.04460  -0.04455   0.93386
         Item               Value     Threshold  Converged?
 Maximum Force            0.041606     0.000450     NO 
 RMS     Force            0.004431     0.000300     NO 
 Maximum Displacement     0.176889     0.001800     NO 
 RMS     Displacement     0.032261     0.001200     NO 
 Predicted change in Energy=-2.294987D-03
 GradGradGradGradGradGradGradGradGradGradGradGradGradGradGradGradGradGrad

                          Input orientation:                          
 ---------------------------------------------------------------------
 Center     Atomic      Atomic             Coordinates (Angstroms)
 Number     Number       Type             X           Y           Z
 ---------------------------------------------------------------------
      1          8           0        3.480306    1.036443    0.013517
      2          6           0       -0.527125   -0.636736   -0.002617
      3          6           0       -1.717388    0.325159    0.014031
      4          6           0        0.816418    0.098684    0.021766
      5          6           0       -3.066608   -0.396459   -0.029902
      6          6           0        2.004108   -0.861544   -0.007734
      7          6           0       -4.251885    0.575555    0.009046
      8          6           0        3.343565   -0.158936    0.001320
      9          1           0       -0.595734   -1.314022    0.863497
     10          1           0       -0.585555   -1.272865   -0.900347
     11          1           0       -1.643007    1.011933   -0.843522
     12          1           0       -1.668103    0.951469    0.918489
     13          1           0        0.882555    0.729079    0.919657
     14          1           0        0.883065    0.786653   -0.832575
     15          1           0       -3.116350   -1.009627   -0.942243
     16          1           0       -3.128422   -1.096105    0.817344
     17          1           0        1.973016   -1.498767   -0.905662
     18          1           0        1.981251   -1.548047    0.853317
     19          1           0       -5.214970    0.051171   -0.025800
     20          1           0       -4.218937    1.267883   -0.842002
     21          1           0       -4.233656    1.178305    0.926056
     22          1           0        4.245156   -0.808928    0.035662
 ---------------------------------------------------------------------
                    Distance matrix (angstroms):
                    1          2          3          4          5
     1  O    0.000000
     2  C    4.342728   0.000000
     3  C    5.246136   1.530439   0.000000
     4  C    2.824138   1.531844   2.543920   0.000000
     5  C    6.702028   2.550970   1.530705   3.914809   0.000000
     6  C    2.404572   2.541202   3.906184   1.527585   5.092049
     7  C    7.745916   3.917093   2.546841   5.090704   1.533366
     8  C    1.203236   3.900070   5.084068   2.540325   6.414648
     9  H    4.781344   1.101625   2.160235   2.167585   2.783038
    10  H    4.764376   1.101814   2.161207   2.167250   2.771532
    11  H    5.194560   2.161116   1.101176   2.762521   2.161524
    12  H    5.228031   2.161634   1.101244   2.775644   2.161521
    13  H    2.768369   2.168695   2.782627   1.099081   4.214782
    14  H    2.742977   2.168756   2.773459   1.098927   4.200471
    15  H    6.972499   2.779573   2.157130   4.198135   1.100371
    16  H    6.990649   2.765881   2.157850   4.197884   1.100523
    17  H    3.089353   2.794512   4.218012   2.179379   5.232576
    18  H    3.103549   2.802689   4.230040   2.181751   5.252344
    19  H    8.751007   4.738105   3.508523   6.031763   2.194504
    20  H    7.750085   4.238114   2.807003   5.240985   2.181147
    21  H    7.769045   4.230269   2.809137   5.242764   2.180765
    22  H    1.997719   4.775540   6.069477   3.546857   7.323682
                    6          7          8          9         10
     6  C    0.000000
     7  C    6.418956   0.000000
     8  C    1.512575   7.630884   0.000000
     9  H    2.779021   4.203336   4.194717   0.000000
    10  H    2.769891   4.205429   4.182323   1.764354   0.000000
    11  H    4.184484   2.779126   5.191396   3.069326   2.518281
    12  H    4.198814   2.764838   5.214500   2.507080   3.070463
    13  H    2.155926   5.216825   2.772811   2.522451   3.078237
    14  H    2.157233   5.207745   2.764702   3.078367   2.530426
    15  H    5.207142   2.169607   6.583652   3.115583   2.544793
    16  H    5.203714   2.170245   6.590204   2.542464   3.073740
    17  H    1.101497   6.624870   2.120417   3.124505   2.568530
    18  H    1.101461   6.638861   2.124012   2.587610   3.120826
    19  H    7.276569   1.097143   8.561156   4.898157   4.893811
    20  H    6.629989   1.097582   7.741991   4.764720   4.433991
    21  H    6.628925   1.097519   7.749685   4.410225   4.759477
    22  H    2.242085   8.609135   1.111997   4.937069   4.942380
                   11         12         13         14         15
    11  H    0.000000
    12  H    1.763227   0.000000
    13  H    3.093100   2.560335   0.000000
    14  H    2.536121   3.098685   1.753177   0.000000
    15  H    2.503436   3.066862   4.741415   4.385655   0.000000
    16  H    3.067370   2.517006   4.407914   4.728534   1.761753
    17  H    4.402624   4.752782   3.079642   2.533077   5.112948
    18  H    4.750580   4.423756   2.529197   3.082056   5.431341
    19  H    3.788225   3.779217   6.207516   6.194986   2.523761
    20  H    2.588615   3.115477   5.423926   5.124656   2.532351
    21  H    3.141743   2.575573   5.135899   5.424667   3.086416
    22  H    6.225670   6.232577   3.801841   3.821436   7.428886
                   16         17         18         19         20
    16  H    0.000000
    17  H    5.399589   0.000000
    18  H    5.129747   1.759689   0.000000
    19  H    2.526027   7.405647   7.424011   0.000000
    20  H    3.087247   6.782233   7.017543   1.771625   0.000000
    21  H    2.531067   7.003191   6.786999   1.771845   1.770386
    22  H    7.420455   2.554328   2.517960   9.499343   8.759241
                   21         22
    21  H    0.000000
    22  H    8.753979   0.000000
 Stoichiometry    C7H14O
 Framework group  C1[X(C7H14O)]
 Deg. of freedom    60
 Full point group                 C1      NOp   1
 Largest Abelian subgroup         C1      NOp   1
 Largest concise Abelian subgroup C1      NOp   1
                         Standard orientation:                         
 ---------------------------------------------------------------------
 Center     Atomic      Atomic             Coordinates (Angstroms)
 Number     Number       Type             X           Y           Z
 ---------------------------------------------------------------------
      1          8           0       -3.573368   -1.099850   -0.013447
      2          6           0        0.408397    0.633490    0.005757
      3          6           0        1.613002   -0.310525    0.008455
      4          6           0       -0.923941   -0.122374    0.015367
      5          6           0        2.951254    0.431954   -0.020923
      6          6           0       -2.125928    0.820230   -0.000204
      7          6           0        4.150991   -0.522627    0.003892
      8          6           0       -3.454649    0.097488   -0.005364
      9          1           0        0.465425    1.297103    0.883221
     10          1           0        0.458636    1.285402   -0.881081
     11          1           0        1.550331   -0.983854   -0.860619
     12          1           0        1.571747   -0.952595    0.902201
     13          1           0       -0.981973   -0.768671    0.902447
     14          1           0       -0.978865   -0.796835   -0.850501
     15          1           0        2.993175    1.061025   -0.922771
     16          1           0        3.001181    1.118135    0.838038
     17          1           0       -2.103039    1.472826   -0.887272
     18          1           0       -2.114777    1.492453    0.872268
     19          1           0        5.106112    0.016704   -0.020407
     20          1           0        4.129822   -1.200994   -0.858694
     21          1           0        4.140414   -1.140886    0.910640
     22          1           0       -4.365993    0.733169    0.038220
 ---------------------------------------------------------------------
 Rotational constants (GHZ):           7.7773688           0.5750026           0.5463042
 Standard basis: 6-311++G(d,p) (5D, 7F)
 There are   282 symmetry adapted cartesian basis functions of A   symmetry.
 There are   274 symmetry adapted basis functions of A   symmetry.
   274 basis functions,   414 primitive gaussians,   282 cartesian basis functions
    32 alpha electrons       32 beta electrons
       nuclear repulsion energy       360.5477362204 Hartrees.
 NAtoms=   22 NActive=   22 NUniq=   22 SFac= 1.00D+00 NAtFMM=   60 NAOKFM=F Big=F
 Integral buffers will be    131072 words long.
 Raffenetti 2 integral format.
 Two-electron integral symmetry is turned on.
 R6APFD:  NTU= -4 IXU= 1 FactS= 1.050
 Nuclear repulsion after empirical dispersion term =      360.5344582384 Hartrees.
 One-electron integrals computed using PRISM.
 NBasis=   274 RedAO= T EigKep=  5.28D-06  NBF=   274
 NBsUse=   274 1.00D-06 EigRej= -1.00D+00 NBFU=   274
 Initial guess from the checkpoint file:  "HTAL0126.chk"
 B after Tr=    -0.000000    0.000000   -0.000000
         Rot=    0.999993   -0.003600    0.000029    0.000854 Ang=  -0.42 deg.
 ExpMin= 3.60D-02 ExpMax= 8.59D+03 ExpMxC= 1.30D+03 IAcc=3 IRadAn=         5 AccDes= 0.00D+00
 Harris functional with IExCor= 1009 and IRadAn=       5 diagonalized for initial guess.
 HarFok:  IExCor= 1009 AccDes= 0.00D+00 IRadAn=         5 IDoV= 1 UseB2=F ITyADJ=14
 ICtDFT=  3500011 ScaDFX=  1.000000  1.000000  1.000000  1.000000
 FoFCou: FMM=F IPFlag=           0 FMFlag=      100000 FMFlg1=           0
         NFxFlg=           0 DoJE=T BraDBF=F KetDBF=T FulRan=T
         wScrn=  0.000000 ICntrl=       500 IOpCl=  0 I1Cent=   200000004 NGrid=           0
         NMat0=    1 NMatS0=      1 NMatT0=    0 NMatD0=    1 NMtDS0=    0 NMtDT0=    0
 Petite list used in FoFCou.
 Requested convergence on RMS density matrix=1.00D-08 within  32 cycles.
 Requested convergence on MAX density matrix=1.00D-06.
 Requested convergence on             energy=1.00D-06.
 No special actions if energy rises.
 SCF Done:  E(RM08HX) =  -350.408213566     A.U. after   12 cycles
            NFock= 12  Conv=0.62D-08     -V/T= 2.0054
 QCSCF skips out because SCF is already converged.
 R6APFD:  NTU= -4 IXU= 1 FactS= 1.050
 Calling FoFJK, ICntrl=      2127 FMM=F ISym2X=0 I1Cent= 0 IOpClX= 0 NMat=1 NMatS=1 NMatT=0.
 ***** Axes restored to original set *****
 -------------------------------------------------------------------
 Center     Atomic                   Forces (Hartrees/Bohr)
 Number     Number              X              Y              Z
 -------------------------------------------------------------------
      1        8          -0.001383596   -0.004456851   -0.001552478
      2        6           0.000725346    0.002483892    0.000039908
      3        6          -0.000360506   -0.001731165   -0.000029739
      4        6          -0.000646963   -0.002003493    0.000026272
      5        6          -0.000585771    0.001730202    0.000051188
      6        6          -0.001194986    0.003144310   -0.001386592
      7        6           0.001467889   -0.001631511   -0.000078637
      8        6          -0.000869369    0.007368676    0.004882280
      9        1           0.000163570   -0.000728756    0.000018144
     10        1           0.000077582   -0.000523419   -0.000087500
     11        1           0.000049705    0.000808419   -0.000074590
     12        1           0.000186827    0.000747050    0.000121539
     13        1           0.000163620    0.000548328    0.000053765
     14        1           0.000273672    0.000373187   -0.000112702
     15        1          -0.000131278   -0.000539830   -0.000040180
     16        1          -0.000138917   -0.000390093    0.000010179
     17        1           0.000041960   -0.001742013    0.000179112
     18        1           0.000485099   -0.001223440   -0.000343292
     19        1           0.000588545   -0.000007004    0.000011490
     20        1           0.000276630    0.000199895   -0.000102940
     21        1           0.000227142    0.000222520    0.000147459
     22        1           0.000583798   -0.002648903   -0.001732687
 -------------------------------------------------------------------
 Cartesian Forces:  Max     0.007368676 RMS     0.001546083

 GradGradGradGradGradGradGradGradGradGradGradGradGradGradGradGradGradGrad
 Berny optimization.
 Using GEDIIS/GDIIS optimizer.
 FormGI is forming the generalized inverse of G from B-inverse, IUseBI=4.
 Internal  Forces:  Max     0.004601813 RMS     0.000844948
 Search for a local minimum.
 Step number   2 out of a maximum of  121
 All quantities printed in internal units (Hartrees-Bohrs-Radians)
 Mixed Optimization -- En-DIIS/RFO-DIIS
 Update second derivatives using D2CorX and points    1    2
 DE= -2.22D-03 DEPred=-2.29D-03 R= 9.68D-01
 TightC=F SS=  1.41D+00  RLast= 1.75D-01 DXNew= 5.0454D-01 5.2644D-01
 Trust test= 9.68D-01 RLast= 1.75D-01 DXMaxT set to 5.05D-01
 ITU=  1  0
 Use linear search instead of GDIIS.
     Eigenvalues ---    0.00347   0.00368   0.00389   0.00427   0.00496
     Eigenvalues ---    0.00679   0.00739   0.03514   0.03545   0.03548
     Eigenvalues ---    0.03603   0.04038   0.04758   0.04832   0.04833
     Eigenvalues ---    0.04891   0.05165   0.05494   0.05620   0.08287
     Eigenvalues ---    0.08304   0.08365   0.08390   0.09519   0.12173
     Eigenvalues ---    0.12194   0.12206   0.12243   0.12945   0.15932
     Eigenvalues ---    0.16000   0.16000   0.16720   0.21629   0.21886
     Eigenvalues ---    0.21897   0.21913   0.21976   0.23143   0.29143
     Eigenvalues ---    0.29398   0.29580   0.29809   0.31258   0.32303
     Eigenvalues ---    0.32942   0.33903   0.33956   0.34005   0.34035
     Eigenvalues ---    0.34047   0.34058   0.34096   0.34108   0.34191
     Eigenvalues ---    0.34256   0.34275   0.34289   0.34582   0.83880
 RFO step:  Lambda=-1.05523731D-03 EMin= 3.46914405D-03
 Quartic linear search produced a step of -0.00439.
 Iteration  1 RMS(Cart)=  0.02302165 RMS(Int)=  0.00226638
 Iteration  2 RMS(Cart)=  0.00195412 RMS(Int)=  0.00139392
 Iteration  3 RMS(Cart)=  0.00000632 RMS(Int)=  0.00139391
 Iteration  4 RMS(Cart)=  0.00000001 RMS(Int)=  0.00139391
 Variable       Old X    -DE/DX   Delta X   Delta X   Delta X     New X
                                 (Linear)    (Quad)   (Total)
    R1        2.27379  -0.00460   0.00020  -0.01656  -0.01636   2.25743
    R2        2.89211  -0.00160  -0.00000  -0.00521  -0.00521   2.88690
    R3        2.89477  -0.00254  -0.00000  -0.00856  -0.00856   2.88621
    R4        2.08177   0.00045  -0.00004   0.00372   0.00368   2.08545
    R5        2.08213   0.00037  -0.00004   0.00355   0.00351   2.08564
    R6        2.89261  -0.00131  -0.00002  -0.00333  -0.00335   2.88926
    R7        2.08092   0.00057  -0.00004   0.00376   0.00372   2.08464
    R8        2.08105   0.00053  -0.00004   0.00372   0.00368   2.08473
    R9        2.88672  -0.00209  -0.00002  -0.00600  -0.00602   2.88070
   R10        2.07696   0.00037  -0.00001   0.00186   0.00185   2.07881
   R11        2.07667   0.00034  -0.00001   0.00163   0.00162   2.07829
   R12        2.89764  -0.00275  -0.00011  -0.00269  -0.00280   2.89484
   R13        2.07940   0.00034  -0.00003   0.00300   0.00297   2.08237
   R14        2.07969   0.00026  -0.00003   0.00281   0.00277   2.08246
   R15        2.85835  -0.00135  -0.00005  -0.00118  -0.00123   2.85713
   R16        2.08153   0.00086  -0.00005   0.00570   0.00565   2.08717
   R17        2.08146   0.00049  -0.00005   0.00461   0.00455   2.08601
   R18        2.07330  -0.00051  -0.00002  -0.00019  -0.00021   2.07309
   R19        2.07413   0.00022  -0.00002   0.00204   0.00201   2.07614
   R20        2.07401   0.00025  -0.00002   0.00216   0.00214   2.07615
   R21        2.10137   0.00197  -0.00007   0.01017   0.01010   2.11147
    A1        1.96082  -0.00032  -0.00008   0.00442   0.00432   1.96515
    A2        1.90649   0.00031   0.00004   0.00059   0.00063   1.90712
    A3        1.90762   0.00021   0.00002   0.00076   0.00078   1.90839
    A4        1.91481   0.00000  -0.00001   0.00026   0.00025   1.91506
    A5        1.91416   0.00009  -0.00002   0.00128   0.00126   1.91542
    A6        1.85702  -0.00030   0.00006  -0.00800  -0.00794   1.84908
    A7        1.97024  -0.00087  -0.00012   0.00395   0.00383   1.97407
    A8        1.90814   0.00033   0.00003   0.00045   0.00046   1.90860
    A9        1.90877   0.00028   0.00001   0.00080   0.00081   1.90958
   A10        1.90838   0.00034   0.00001   0.00158   0.00159   1.90997
   A11        1.90830   0.00038   0.00002   0.00096   0.00098   1.90928
   A12        1.85655  -0.00044   0.00006  -0.00851  -0.00845   1.84810
   A13        1.96041  -0.00116   0.00000  -0.00530  -0.00529   1.95512
   A14        1.91893   0.00046  -0.00004   0.00557   0.00552   1.92445
   A15        1.91917   0.00053  -0.00006   0.00658   0.00651   1.92568
   A16        1.90660   0.00035   0.00003  -0.00039  -0.00035   1.90625
   A17        1.90854   0.00024   0.00001  -0.00079  -0.00077   1.90777
   A18        1.84668  -0.00036   0.00006  -0.00572  -0.00568   1.84100
   A19        1.96251  -0.00153  -0.00007  -0.00258  -0.00264   1.95986
   A20        1.90322   0.00059   0.00006  -0.00030  -0.00023   1.90299
   A21        1.90405   0.00055   0.00006  -0.00075  -0.00069   1.90336
   A22        1.91703   0.00044  -0.00005   0.00461   0.00456   1.92159
   A23        1.91774   0.00045  -0.00006   0.00506   0.00500   1.92274
   A24        1.85616  -0.00043   0.00007  -0.00632  -0.00626   1.84990
   A25        1.97839  -0.00124  -0.00015   0.00514   0.00494   1.98334
   A26        1.93632   0.00066  -0.00001   0.00675   0.00671   1.94303
   A27        1.93965   0.00101  -0.00005   0.00921   0.00917   1.94882
   A28        1.87402   0.00058   0.00003   0.00284   0.00282   1.87684
   A29        1.87886  -0.00000   0.00001  -0.00307  -0.00311   1.87575
   A30        1.85054  -0.00104   0.00018  -0.02320  -0.02301   1.82753
   A31        1.95493  -0.00029  -0.00013   0.00657   0.00643   1.96136
   A32        1.93580  -0.00019   0.00001  -0.00182  -0.00182   1.93398
   A33        1.93534  -0.00010   0.00001  -0.00140  -0.00140   1.93394
   A34        1.87885   0.00031   0.00003   0.00037   0.00040   1.87926
   A35        1.87927   0.00027   0.00003   0.00039   0.00042   1.87969
   A36        1.87647   0.00003   0.00006  -0.00444  -0.00439   1.87209
   A37        2.16781  -0.00004  -0.00007   0.00591  -0.00254   2.16527
   A38        2.08089   0.00194   0.00014   0.00652  -0.00190   2.07898
   A39        2.03382  -0.00183  -0.00007  -0.00420  -0.01268   2.02114
    D1        3.12752   0.00004  -0.00003   0.00848   0.00844   3.13597
    D2        0.99925  -0.00004   0.00001   0.00346   0.00347   1.00272
    D3       -1.02703   0.00014  -0.00008   0.01296   0.01289  -1.01414
    D4       -1.02669   0.00005  -0.00008   0.01218   0.01210  -1.01459
    D5        3.12823  -0.00004  -0.00003   0.00716   0.00713   3.13535
    D6        1.10194   0.00015  -0.00012   0.01667   0.01655   1.11849
    D7        0.99858  -0.00001   0.00003   0.00335   0.00338   1.00196
    D8       -1.12969  -0.00010   0.00008  -0.00167  -0.00159  -1.13128
    D9        3.12721   0.00009  -0.00001   0.00784   0.00782   3.13504
   D10       -3.13248   0.00002   0.00005  -0.00932  -0.00926   3.14144
   D11        1.02369   0.00004   0.00004  -0.00914  -0.00909   1.01460
   D12       -1.00282  -0.00010   0.00003  -0.00928  -0.00926  -1.01208
   D13        1.02647  -0.00016   0.00007  -0.01324  -0.01317   1.01330
   D14       -1.10054  -0.00014   0.00006  -0.01307  -0.01300  -1.11355
   D15       -3.12706  -0.00028   0.00005  -0.01321  -0.01317  -3.14022
   D16       -1.00727   0.00014   0.00001  -0.00446  -0.00444  -1.01171
   D17       -3.13428   0.00016   0.00000  -0.00428  -0.00427  -3.13855
   D18        1.12239   0.00002  -0.00001  -0.00442  -0.00444   1.11796
   D19        3.12616   0.00001  -0.00004   0.00795   0.00792   3.13408
   D20       -1.02640  -0.00003  -0.00010   0.01189   0.01179  -1.01462
   D21        0.99405   0.00008   0.00005   0.00377   0.00382   0.99788
   D22       -1.02888   0.00009  -0.00007   0.01233   0.01226  -1.01662
   D23        1.10173   0.00005  -0.00014   0.01627   0.01613   1.11787
   D24        3.12219   0.00016   0.00001   0.00815   0.00817   3.13036
   D25        0.99727  -0.00003   0.00002   0.00356   0.00357   1.00084
   D26        3.12789  -0.00007  -0.00005   0.00749   0.00744   3.13533
   D27       -1.13484   0.00004   0.00010  -0.00063  -0.00053  -1.13537
   D28        3.13131   0.00019  -0.00001   0.00687   0.00685   3.13817
   D29        1.02125  -0.00018   0.00005  -0.00538  -0.00535   1.01591
   D30       -1.03307   0.00005  -0.00013   0.01338   0.01326  -1.01981
   D31       -1.01786   0.00024  -0.00004   0.01011   0.01007  -1.00779
   D32       -3.12792  -0.00013   0.00002  -0.00214  -0.00213  -3.13005
   D33        1.10094   0.00010  -0.00016   0.01662   0.01648   1.11742
   D34        0.99562   0.00013   0.00005   0.00263   0.00267   0.99829
   D35       -1.11444  -0.00024   0.00012  -0.00962  -0.00953  -1.12397
   D36        3.11442  -0.00001  -0.00007   0.00914   0.00908   3.12350
   D37        3.13861   0.00001   0.00001  -0.00032  -0.00031   3.13830
   D38        1.03894  -0.00005   0.00005  -0.00399  -0.00394   1.03500
   D39       -1.04469   0.00009  -0.00004   0.00367   0.00364  -1.04105
   D40        1.01584  -0.00002   0.00001  -0.00145  -0.00144   1.01440
   D41       -1.08384  -0.00008   0.00005  -0.00513  -0.00507  -1.08891
   D42        3.11572   0.00007  -0.00003   0.00254   0.00250   3.11823
   D43       -1.02024  -0.00001  -0.00001   0.00055   0.00054  -1.01970
   D44       -3.11991  -0.00008   0.00004  -0.00312  -0.00309  -3.12300
   D45        1.07965   0.00007  -0.00005   0.00454   0.00449   1.08414
   D46       -0.01543  -0.00092  -0.00018  -0.10812  -0.10782  -0.12325
   D47        3.08644   0.00112   0.00005   0.13631   0.13585  -3.06090
   D48        2.12941  -0.00046  -0.00027  -0.09416  -0.09394   2.03547
   D49       -1.05190   0.00157  -0.00004   0.15026   0.14972  -0.90218
   D50       -2.16801  -0.00138  -0.00003  -0.12106  -0.12059  -2.28860
   D51        0.93386   0.00065   0.00020   0.12337   0.12308   1.05694
         Item               Value     Threshold  Converged?
 Maximum Force            0.004602     0.000450     NO 
 RMS     Force            0.000845     0.000300     NO 
 Maximum Displacement     0.153078     0.001800     NO 
 RMS     Displacement     0.023116     0.001200     NO 
 Predicted change in Energy=-5.702966D-04
 GradGradGradGradGradGradGradGradGradGradGradGradGradGradGradGradGradGrad

                          Input orientation:                          
 ---------------------------------------------------------------------
 Center     Atomic      Atomic             Coordinates (Angstroms)
 Number     Number       Type             X           Y           Z
 ---------------------------------------------------------------------
      1          8           0        3.486041    1.022559   -0.033019
      2          6           0       -0.524084   -0.627341   -0.003170
      3          6           0       -1.719137    0.324099    0.017334
      4          6           0        0.813234    0.109329    0.036687
      5          6           0       -3.064308   -0.401088   -0.030123
      6          6           0        1.996142   -0.851971    0.015926
      7          6           0       -4.249108    0.569421    0.001930
      8          6           0        3.340103   -0.160193    0.049545
      9          1           0       -0.594196   -1.318653    0.854177
     10          1           0       -0.575095   -1.258897   -0.906843
     11          1           0       -1.647068    1.020030   -0.835552
     12          1           0       -1.672893    0.951341    0.923681
     13          1           0        0.874418    0.739453    0.936317
     14          1           0        0.893120    0.802616   -0.813312
     15          1           0       -3.106714   -1.020505   -0.940507
     16          1           0       -3.124895   -1.102668    0.817520
     17          1           0        1.975329   -1.495198   -0.881689
     18          1           0        1.964235   -1.555664    0.865826
     19          1           0       -5.215029    0.050690   -0.035398
     20          1           0       -4.209379    1.262122   -0.849900
     21          1           0       -4.231361    1.176855    0.917213
     22          1           0        4.232346   -0.826039   -0.045344
 ---------------------------------------------------------------------
                    Distance matrix (angstroms):
                    1          2          3          4          5
     1  O    0.000000
     2  C    4.336377   0.000000
     3  C    5.252072   1.527681   0.000000
     4  C    2.825376   1.527315   2.541536   0.000000
     5  C    6.703272   2.550422   1.528932   3.911562   0.000000
     6  C    2.395008   2.530289   3.896978   1.524402   5.080705
     7  C    7.748490   3.912553   2.541884   5.083326   1.531884
     8  C    1.194579   3.892678   5.082468   2.541235   6.409435
     9  H    4.787143   1.103573   2.159730   2.165245   2.779454
    10  H    4.739350   1.103671   2.160744   2.165583   2.775005
    11  H    5.195467   2.160505   1.103145   2.764645   2.162605
    12  H    5.247375   2.161262   1.103194   2.770662   2.162139
    13  H    2.800061   2.169463   2.782728   1.100061   4.212885
    14  H    2.716703   2.170155   2.782595   1.099785   4.209931
    15  H    6.961471   2.775457   2.156569   4.194929   1.101941
    16  H    6.996033   2.768336   2.156876   4.193745   1.101991
    17  H    3.056402   2.787837   4.215111   2.183663   5.226871
    18  H    3.125869   2.794400   4.221454   2.187345   5.236603
    19  H    8.755179   4.739803   3.506964   6.028979   2.197666
    20  H    7.742362   4.227105   2.798801   5.228920   2.179332
    21  H    7.777213   4.224468   2.801472   5.230954   2.179304
    22  H    1.993599   4.760765   6.061921   3.545697   7.309033
                    6          7          8          9         10
     6  C    0.000000
     7  C    6.404975   0.000000
     8  C    1.511926   7.624351   0.000000
     9  H    2.762301   4.201134   4.179495   0.000000
    10  H    2.761947   4.203212   4.177392   1.762137   0.000000
    11  H    4.183585   2.770386   5.200788   3.071345   2.519468
    12  H    4.187812   2.762675   5.208622   2.514218   3.072643
    13  H    2.153605   5.210807   2.770439   2.529699   3.080865
    14  H    2.154519   5.211670   2.767535   3.080976   2.532635
    15  H    5.194450   2.172813   6.578890   3.102020   2.543042
    16  H    5.189453   2.173689   6.578316   2.540163   3.082096
    17  H    1.104484   6.617179   2.124156   3.105939   2.561471
    18  H    1.103872   6.623287   2.122891   2.569412   3.111049
[...]
 858096,-0.00019500,0.00006508,0.00007067,0.00013119,-0.00009100,-0.000
 38289,0.00025013,0.00033557,0.00030426,0.00020623,0.00021100,0.0002044
 5,-0.00002654,-0.00020648,-0.00003947,0.00047037,-0.00017075,0.0006810
 2,-0.00012069,0.00017305,0.00158255,-0.00125450,-0.01429297,-0.0206941
 9,0.01091153,0.12770366,0.23444418,-0.00003050,-0.00149136,-0.00028003
 ,-0.00334723,-0.01664319,-0.02539440,0.00176275,-0.00090978,-0.0010837
 2,-0.04643418,-0.00762906,-0.01270556,-0.00016508,-0.00006002,0.000136
 06,-0.00019040,0.01488822,0.02297195,0.00003784,0.00008066,0.00008957,
 0.00081624,0.00207868,0.00080375,0.00102969,0.00038780,0.00049813,-0.0
 0491722,-0.00271227,0.00011447,-0.00001773,0.00008467,0.00002509,-0.00
 062267,0.00058353,0.00067275,0.05574555,0.00011333,0.00083352,0.000211
 95,-0.00205574,-0.00978476,-0.01347649,0.00085368,0.00040705,0.0003044
 7,-0.00716479,-0.12732128,-0.11788534,0.00001881,0.00004328,0.00024756
 ,0.00076025,-0.01316016,-0.01766475,-0.00000312,0.00002520,0.00004579,
 -0.00107570,-0.00044851,0.00009594,0.00040710,-0.00012549,0.00002051,-
 0.00255139,-0.00086652,0.00018822,-0.00006838,-0.00000101,0.00012752,-
 0.00037507,0.00055278,0.00003803,0.00764593,0.14082837,-0.00066826,0.0
 0124793,0.00044790,-0.00013941,0.00038590,0.00028227,0.00024379,0.0000
 9814,0.00009184,-0.01122906,-0.11847445,-0.22240306,-0.00014499,0.0002
 8401,0.00030704,0.00097608,0.00104198,0.00055700,-0.00006318,-0.000037
 06,-0.00002927,-0.00062928,-0.00197686,-0.00013301,-0.00050519,-0.0000
 7227,0.00065060,0.00023529,0.00020927,0.00158683,-0.00001346,-0.000107
 77,-0.00008880,-0.00062241,0.00017047,0.00012874,0.01329650,0.13105694
 ,0.23768579,-0.00004024,-0.00149429,0.00017726,-0.00359576,-0.01827579
 ,0.02419675,0.00175414,-0.00097807,0.00103793,-0.04668394,-0.00971168,
 0.01380274,-0.00016494,-0.00004746,-0.00014382,0.00004479,0.01639059,-
 0.02194741,0.00003809,0.00008596,-0.00008339,0.00081653,0.00210696,-0.
 00065660,-0.00491151,-0.00269426,-0.00035848,0.00102897,0.00041919,-0.
 00046768,-0.00062211,0.00062767,-0.00064060,-0.00001752,0.00008540,-0.
 00001842,-0.00064244,0.00077325,-0.00125255,0.05602253,0.00006994,0.00
 092841,-0.00018056,-0.00218934,-0.01059698,0.01272621,0.00087094,0.000
 43318,-0.00027265,-0.00914459,-0.14332255,0.12303276,0.00001179,0.0000
 7923,-0.00026314,0.00065195,-0.01420413,0.01670195,-0.00000685,0.00002
 545,-0.00004209,-0.00111282,-0.00057217,-0.00013540,-0.00252502,-0.000
 82783,-0.00037352,0.00037315,-0.00012598,-0.00006787,-0.00041532,0.000
 56459,-0.00001331,-0.00006844,-0.00000023,-0.00012245,0.00083490,0.011
 01546,-0.01432924,0.00989448,0.15853690,0.00067055,-0.00123097,0.00036
 192,-0.00004281,-0.00128852,0.00134200,-0.00017036,-0.00008575,0.00007
 602,0.01235970,0.12361682,-0.20614773,0.00014150,-0.00029937,0.0002708
 1,-0.00094005,-0.00185662,0.00136624,0.00006356,0.00004151,-0.00002983
 ,0.00056570,0.00196872,-0.00001204,-0.00046791,-0.00039572,0.00154229,
 0.00053469,0.00002496,0.00065087,0.00058869,-0.00013527,0.00011634,0.0
 0000997,0.00011451,-0.00009032,0.00150758,0.01645140,-0.02090452,-0.01
 443817,-0.13620141,0.21969762,0.00000482,0.00003203,0.00000946,0.00172
 077,-0.00094974,-0.00108624,-0.00373100,-0.01699528,-0.02575204,-0.000
 12182,-0.00005960,0.00015222,-0.04612234,-0.00692483,-0.00932495,0.000
 02769,0.00009051,0.00009941,0.00011440,0.01566348,0.02288446,-0.000003
 85,-0.00003742,-0.00000316,-0.00000535,0.00008952,0.00001600,-0.000609
 48,0.00059792,0.00066691,0.00103851,0.00039464,0.00050856,-0.00506140,
 -0.00273726,0.00009148,0.00014231,0.00018579,0.00018626,0.00003941,-0.
 00001915,-0.00002540,0.05591065,-0.00001825,-0.00000076,0.00001281,0.0
 0086605,0.00027728,0.00025141,-0.00200966,-0.01026869,-0.01446720,0.00
 000243,0.00009549,0.00027070,-0.00681588,-0.12580704,-0.11460802,-0.00
 002787,0.00000690,0.00005354,-0.00009338,-0.01232075,-0.01743381,0.000
 02334,0.00000574,-0.00000993,-0.00008332,0.00000543,0.00010920,-0.0003
 8665,0.00058271,0.00009645,0.00042239,-0.00011685,0.00004678,-0.002860
 85,-0.00099717,0.00014580,0.00020492,0.00003147,0.00005683,-0.00001318
 ,-0.00006151,-0.00001127,0.00714792,0.13845798,-0.00000115,0.00002822,
 0.00000269,0.00029805,0.00003470,0.00006380,-0.00005474,-0.00014557,-0
 .00046321,-0.00015824,0.00032091,0.00033497,-0.00944791,-0.11568771,-0
 .22044134,-0.00007811,-0.00004580,-0.00003289,0.00021885,0.00082552,0.
 00069886,-0.00001431,0.00000094,0.00000956,-0.00000516,-0.00010760,-0.
 00009059,-0.00067466,0.00021541,0.00018150,-0.00047509,-0.00007011,0.0
 0070614,0.00002211,0.00016145,0.00163088,0.00020424,0.00005710,-0.0000
 1073,0.00002795,0.00000279,-0.00002694,0.01049040,0.12859190,0.2360682
 5,0.00000485,0.00003281,-0.00000731,0.00171275,-0.00101906,0.00103810,
 -0.00398467,-0.01862593,0.02455612,-0.00012216,-0.00004614,-0.00016075
 ,-0.04632344,-0.00877532,0.01051215,0.00002779,0.00009616,-0.00009274,
 0.00034286,0.01712256,-0.02183312,-0.00000397,-0.00003744,0.00000057,-
 0.00060909,0.00064344,-0.00063336,-0.00000551,0.00008845,-0.00000992,-
 0.00505751,-0.00271905,-0.00033511,0.00103964,0.00042648,-0.00047827,0
 .00003909,-0.00002082,0.00002455,0.00014611,0.00019828,-0.00017190,-0.
 00079765,0.00097708,-0.00129815,0.05613302,-0.00001818,0.00000187,-0.0
 0001307,0.00088324,0.00029309,-0.00022957,-0.00215206,-0.01116793,0.01
 374245,-0.00000498,0.00013529,-0.00028271,-0.00866239,-0.14106395,0.11
 967023,-0.00003243,0.00000718,-0.00005133,-0.00025185,-0.01334258,0.01
 652956,0.00002230,0.00000525,0.00000992,-0.00042764,0.00060087,-0.0000
 7242,-0.00008156,0.00000538,-0.00010359,-0.00284982,-0.00096423,-0.000
 34241,0.00039122,-0.00011470,-0.00009615,-0.00001147,-0.00006194,0.000
 00868,0.00021806,0.00003857,-0.00005132,0.00104015,0.01130230,-0.01424
 390,0.00920957,0.15546564,0.00000004,-0.00002790,-0.00000009,-0.000223
 27,-0.00002907,0.00005231,-0.00012359,-0.00073983,0.00068982,0.0001537
 9,-0.00033459,0.00029577,0.01064190,0.12075092,-0.20498997,0.00007672,
 0.00004943,-0.00003340,-0.00023866,-0.00156061,0.00149152,0.00001559,-
 0.00000166,0.00001031,0.00064066,-0.00018228,0.00016277,0.00000004,0.0
 0011473,-0.00008941,-0.00027530,-0.00035906,0.00159446,0.00050479,0.00
 002040,0.00070602,-0.00002783,-0.00000508,-0.00002659,-0.00018885,-0.0
 0005186,-0.00002163,0.00156696,0.01633328,-0.02076546,-0.01170374,-0.1
 3372795,0.21884499,-0.00455033,-0.00248572,0.00394691,0.00192619,0.000
 71109,0.00116266,-0.00016330,0.00005821,-0.00009398,0.00017911,0.01488
 862,0.02232478,0.00000691,-0.00006310,-0.00007045,-0.04787517,-0.00425
 446,-0.01006199,0.00001247,0.00000141,-0.00000245,0.00403484,-0.016596
 33,-0.02772325,-0.00002196,-0.00011558,-0.00000513,-0.00056683,-0.0004
 6111,-0.00074004,0.00003964,-0.00000409,0.00002822,0.00009840,-0.00021
 403,-0.00018060,-0.00432173,0.00313246,-0.00031280,0.00096413,-0.00059
 077,-0.00053650,-0.00005496,-0.00003058,-0.00002114,-0.00000251,0.0000
 0305,0.00000232,0.05081228,-0.00359917,-0.00000185,0.00166586,-0.00102
 659,0.00044909,0.00025394,-0.00000890,0.00002683,0.00020564,-0.0003745
 4,-0.01224458,-0.01688630,0.00000107,0.00001726,0.00006108,-0.00237233
 ,-0.12321992,-0.12179900,-0.00000331,0.00001000,-0.00000645,0.00021636
 ,-0.01339771,-0.01413102,0.00000732,-0.00001648,0.00013950,0.00055778,
 0.00048785,0.00009607,0.00001457,-0.00006773,-0.00000034,-0.00017034,0
 .00007541,0.00007379,0.00312698,-0.00196802,0.00032974,-0.00037426,0.0
 0005621,0.00009783,0.00003159,0.00002115,0.00000032,-0.00000429,0.0000
 0288,0.00000370,0.00284556,0.13862241,-0.00013682,0.00107860,-0.000764
 29,-0.00016953,0.00012921,0.00027259,0.00018067,0.00025139,0.00021198,
 0.00060493,0.00026803,0.00062740,0.00004432,-0.00006136,-0.00002840,-0
 .00708285,-0.11937263,-0.21063566,0.00002383,0.00001920,0.00000462,0.0
 0176813,0.00087125,-0.00026403,0.00003673,-0.00008935,-0.00016527,0.00
 055163,-0.00001844,0.00004909,-0.00003486,0.00002338,-0.00001882,-0.00
 014362,0.00006389,-0.00001245,-0.00015488,0.00024623,0.00141502,0.0003
 9173,0.00002528,0.00059819,0.00000813,-0.00000103,0.00001874,0.0000041
 1,0.00000332,-0.00001319,0.00702250,0.13141980,0.23002144,-0.00451320,
 -0.00221089,-0.00413854,0.00193579,0.00078753,-0.00109605,-0.00016261,
 0.00005398,0.00009392,0.00040470,0.01634049,-0.02129635,0.00000667,-0.
 00006816,0.00006647,-0.04806802,-0.00617830,0.01126139,0.00001266,0.00
 000141,0.00000261,0.00378206,-0.01838286,0.02660125,-0.00056844,-0.000
 50885,0.00070195,-0.00002154,-0.00011687,-0.00000136,0.00009534,-0.000
 22474,0.00016725,0.00003977,-0.00000204,-0.00002795,0.00096255,-0.0006
 2454,0.00049997,-0.00432759,0.00311021,0.00046262,-0.00000251,0.000003
 20,-0.00000204,-0.00005508,-0.00003186,0.00001840,-0.00026339,0.001656
 42,-0.00195887,0.05097568,-0.00358524,0.00017662,-0.00163592,-0.001033
 23,0.00047338,-0.00025030,0.00000556,0.00005804,-0.00021618,-0.0004994
 3,-0.01328932,0.01596438,0.00000459,0.00001689,-0.00005791,-0.00413436
 ,-0.13957005,0.12649314,-0.00000176,0.00001085,0.00000678,0.00019891,-
 0.01420962,0.01319571,0.00059431,0.00049091,-0.00006120,0.00001121,-0.
 00001382,-0.00012935,-0.00017887,0.00008418,-0.00006926,0.00001214,-0.
 00006597,-0.00000251,-0.00034643,0.00006675,-0.00013689,0.00311509,-0.
 00191680,-0.00051986,-0.00000396,0.00000330,-0.00000266,0.00003209,0.0
 0002111,0.00000010,0.00167346,0.01087103,-0.01462326,0.00470423,0.1564
 2149,-0.00013815,-0.00103789,-0.00098337,0.00011794,-0.00010815,0.0002
 3861,-0.00018432,-0.00026086,0.00017999,-0.00064306,-0.00102810,0.0014
 4980,-0.00004377,0.00006368,-0.00002794,0.00842173,0.12404842,-0.19412
 442,-0.00002392,-0.00001875,0.00000360,-0.00172156,-0.00198516,0.00080
 387,-0.00051953,0.00004296,0.00004756,-0.00003483,0.00009825,-0.000168
 50,0.00013310,-0.00005975,-0.00001814,0.00003642,-0.00002663,-0.000020
 46,-0.00041187,-0.00006648,0.00058803,0.00030467,-0.00043598,0.0013704
 5,-0.00000427,-0.00000220,-0.00001367,-0.00000675,0.00000090,0.0000189
 2,0.00228254,0.01678693,-0.02144880,-0.00848041,-0.13627694,0.21208768
 ,-0.00009984,-0.00009060,-0.00000349,-0.00093037,-0.00154028,-0.000058
 49,-0.00263502,0.00562028,0.00016869,-0.00030114,0.00061865,0.00001900
 ,-0.01965508,-0.01386543,-0.00053892,-0.00022048,-0.00026854,-0.000010
 02,-0.24876025,-0.11328377,-0.00466619,0.00012704,0.00017337,0.0000064
 2,-0.00000879,0.00005082,-0.00009838,-0.00000906,0.00004367,0.00010156
 ,0.00031327,0.00006939,0.00008646,0.00031037,0.00007156,-0.00008125,0.
 00002203,-0.00000202,-0.00002003,0.00002186,-0.00000337,0.00002004,0.0
 0047323,0.00001537,0.00065516,0.00048403,0.00005897,-0.00064769,0.0000
 0435,0.00001205,0.00001346,0.00000447,0.00001291,-0.00001257,0.2715491
 2,0.00000135,0.00003330,0.00000103,0.00113523,0.00097861,0.00001820,0.
 00259591,-0.00338339,-0.00010416,0.00027632,-0.00037811,-0.00001063,0.
 02073608,0.01274283,0.00056274,0.00011817,0.00011132,0.00000409,-0.114
 38455,-0.11005344,-0.00263571,0.00001440,-0.00007936,-0.00000230,-0.00
 007081,0.00004093,0.00004602,-0.00006570,0.00004041,-0.00004276,0.0001
 3964,0.00000345,-0.00027637,0.00011525,-0.00003230,0.00026233,-0.00000
 986,-0.00000720,0.00001745,-0.00000963,-0.00000631,-0.00001823,-0.0007
 9506,0.00077459,-0.00024580,-0.00077813,0.00077243,0.00029152,-0.00000
 140,0.00000071,-0.00000427,-0.00000142,0.00000031,0.00000436,0.1215377
 2,0.11689888,-0.00000047,0.00000054,0.00000202,0.00002901,0.00000410,0
 .00060050,0.00006931,-0.00008793,0.00023271,0.00000749,-0.00000862,-0.
 00001464,0.00057800,0.00038959,-0.00143657,0.00000266,0.00000205,0.000
 00549,-0.00470090,-0.00262964,-0.04623742,0.00000114,-0.00000144,-0.00
 000726,0.00006853,-0.00005033,-0.00001940,-0.00007289,0.00005478,-0.00
 001853,-0.00033045,-0.00028757,0.00019843,0.00034023,0.00027260,0.0002
 3686,0.00000052,-0.00000473,0.00000389,-0.00000098,0.00000400,0.000003
 21,0.00029235,0.00024402,-0.00005342,-0.00033795,-0.00018973,-0.000059
 44,0.00000024,-0.00000167,-0.00000130,-0.00000026,0.00000192,-0.000001
 03,0.00505148,0.00292339,0.04525699,0.00001427,-0.00000232,0.00000203,
 -0.00010706,0.00011285,0.00011861,0.00186157,0.00068145,-0.00119774,0.
 00001802,-0.00010381,0.00008009,0.00009466,0.01620382,-0.02176602,0.00
 003124,0.00002146,0.00000515,-0.04660199,-0.00755843,0.00884352,-0.000
 01766,-0.00000762,-0.00000022,0.00007531,-0.00021653,0.00016973,0.0000
 3635,0.00000207,-0.00003012,-0.00051299,-0.00043274,0.00062661,-0.0000
 1768,-0.00009192,0.00001296,-0.00000316,0.00000288,-0.00000294,-0.0000
 5544,-0.00002492,0.00001282,0.00098329,-0.00072574,0.00034736,-0.00395
 055,0.00341514,0.00017873,0.00000055,0.00000105,-0.00000446,0.00000898
 ,-0.00000413,0.00000450,-0.00042036,-0.01604254,0.02316042,0.04980033,
 0.00002925,0.00002664,-0.00000524,0.00000813,0.00011666,-0.00024584,-0
 .00123231,0.00048839,-0.00024091,0.00001137,0.00000953,-0.00006575,-0.
 00045421,-0.01438415,0.01778523,0.00001403,0.00003091,0.00000729,-0.00
 731633,-0.14261743,0.12560536,-0.00004329,-0.00003183,0.00000252,-0.00
 021077,0.00011276,-0.00008613,0.00000211,-0.00006692,0.00000005,0.0006
 7350,0.00056465,-0.00013877,0.00008189,0.00000942,-0.00009696,-0.00000
 403,0.00000067,0.00000054,0.00004016,0.00001796,0.00000024,-0.00058023
 ,0.00003983,-0.00021048,0.00381235,-0.00197419,-0.00070947,0.00000194,
 -0.00000905,-0.00000033,-0.00000554,-0.00000419,-0.00000212,0.00032610
 ,-0.00957463,0.01194564,0.00381764,0.15540348,-0.00001344,-0.00004012,
 0.00000490,-0.00018923,-0.00029149,0.00026792,0.00017823,-0.00016782,0
 .00011016,-0.00005051,0.00006792,-0.00002918,-0.00010758,-0.00117519,0
 .00143468,-0.00003633,-0.00003327,0.00000218,0.00840503,0.12589123,-0.
 21070569,0.00002386,0.00004780,-0.00000137,0.00016198,-0.00007880,-0.0
 0001957,0.00002403,-0.00001302,-0.00002427,-0.00066874,0.00000089,0.00
 006936,0.00001019,0.00011767,-0.00010849,-0.00000197,0.00000327,-0.000
 00923,-0.00001250,0.00000195,0.00001914,-0.00054950,0.00008913,0.00063
 649,0.00041511,-0.00042905,0.00149194,0.00000204,0.00000327,-0.0000012
 1,0.00000509,-0.00000199,0.00000131,-0.00008319,-0.00206822,0.00111355
 ,-0.00915764,-0.13876056,0.22554103,0.00001414,-0.00000260,-0.00000212
 ,-0.00010793,0.00011690,-0.00011456,0.00185056,0.00060001,0.00125570,0
 .00001839,-0.00009769,-0.00008615,-0.00012905,0.01476053,0.02275656,0.
 00003091,0.00002137,-0.00000346,-0.04644803,-0.00579391,-0.00755310,-0
 .00001740,-0.00000711,-0.00000043,0.00003662,-0.00000018,0.00003098,0.
 00007878,-0.00020561,-0.00018269,-0.00001717,-0.00009033,-0.00001753,-
 0.00051282,-0.00039020,-0.00065949,-0.00005542,-0.00002396,-0.00001520
 ,-0.00000328,0.00000269,0.00000321,-0.00394580,0.00341797,-0.00001333,
 0.00098121,-0.00070082,-0.00039010,0.00000908,-0.00000383,-0.00000469,
 0.00000054,0.00000078,0.00000454,-0.00018559,-0.01453155,-0.02415770,-
 0.00125085,0.00101355,0.00165205,0.04964002,0.00002828,0.00002365,0.00
 000677,-0.00000608,0.00008259,0.00023441,-0.00122078,0.00046080,0.0002
 4996,0.00000732,0.00000942,0.00006823,-0.00027643,-0.01325252,-0.01874
 510,0.00001173,0.00002913,-0.00000533,-0.00558425,-0.12670283,-0.12023
 246,-0.00004165,-0.00002848,-0.00000475,0.00000353,-0.00006748,-0.0000
 0309,-0.00020087,0.00010155,0.00009218,0.00008185,0.00001014,0.0001055
 3,0.00062800,0.00055313,0.00017693,0.00003929,0.00001810,0.00000013,-0
 .00000412,0.00000091,0.00000008,0.00382544,-0.00203467,0.00051998,-0.0
 0061637,0.00003462,0.00016530,-0.00000523,-0.00000443,0.00000169,0.000
 00206,-0.00000884,-0.00000017,0.00044399,-0.00889051,-0.01258114,0.000
 95419,0.01184262,0.01683941,0.00191590,0.13782438,0.00001537,0.0000413
 2,0.00000808,0.00018535,0.00028031,0.00030247,-0.00024040,0.00019709,0
 .00014912,0.00005156,-0.00006640,-0.00002954,0.00007567,0.00037233,0.0
 0052723,0.00003745,0.00003521,0.00000435,-0.00710209,-0.12051970,-0.22
 676450,-0.00002676,-0.00004963,-0.00000507,-0.00002342,0.00001041,-0.0
 0002349,-0.00017429,0.00008460,-0.00001186,-0.00000348,-0.00011097,-0.
 00011022,0.00070456,0.00002592,0.00008050,0.00001430,-0.00000230,0.000
 01898,0.00000177,-0.00000259,-0.00000942,-0.00022320,0.00023495,0.0015
 4904,0.00051428,-0.00013541,0.00064259,-0.00000535,0.00000157,0.000001
 45,-0.00000190,-0.00000374,-0.00000142,0.00009844,0.00127703,0.0001934
 3,-0.00140329,-0.01478502,-0.01979258,0.00749735,0.13311202,0.24327171
 ,0.01744136,0.01105864,0.00035070,-0.00102869,0.00206088,0.00006204,-0
 .00045844,-0.00073591,-0.00002593,-0.00248066,-0.00553198,-0.00020883,
 -0.00009966,0.00033735,0.00001060,-0.01707695,0.01862804,0.00043897,-0
 .00010366,-0.00012349,-0.00000451,-0.21591403,0.08638777,0.00204805,0.
 00003972,-0.00003633,0.00006969,0.00004111,-0.00003089,-0.00007101,0.0
 0001526,0.00002103,-0.00003214,0.00001466,0.00001913,0.00003367,0.0001
 8972,0.00007204,0.00015632,0.00018821,0.00008227,-0.00014756,0.0000010
 8,-0.00001532,-0.00002007,0.00000080,-0.00001665,0.00001908,-0.0002677
 7,-0.00053320,-0.00095959,-0.00024682,-0.00057785,0.00091957,-0.000083
 77,0.00002060,0.00000023,0.00001318,0.00001467,-0.00000699,0.00001310,
 0.00001419,0.00000806,0.21980224,0.02930844,-0.05136152,-0.00219329,-0
 .00051961,0.00073069,0.00001619,-0.00023006,-0.00018520,-0.00000402,-0
 .00222346,-0.00174834,-0.00015073,-0.00005458,0.00006138,0.00000237,-0
 .01144916,0.01056925,-0.00027063,-0.00001543,-0.00001356,-0.00000055,0
 .09330213,-0.10623235,-0.00098141,0.00003279,0.00001228,0.00002482,0.0
 0003675,0.00001828,-0.00002067,0.00000802,-0.00000728,-0.00001754,0.00
 000594,-0.00000673,0.00001762,-0.00013813,-0.00007777,0.00022652,-0.00
 015404,-0.00006237,-0.00022176,0.00000355,0.00000327,0.00000040,0.0000
 0329,0.00000306,0.,0.00150661,0.00028892,-0.00023056,0.00169652,0.0003
 8374,0.00026365,-0.00000083,0.00000748,0.00000017,-0.00000187,-0.00000
 113,-0.00000301,-0.00000190,-0.00000128,0.00000298,-0.11111497,0.14761
 919,0.00094986,-0.00228711,0.01988424,-0.00002328,0.00002950,0.0001649
 4,-0.00000949,-0.00000678,-0.00009740,-0.00009808,-0.00016886,0.002464
 82,-0.00000222,0.00000444,-0.00001938,-0.00055231,-0.00011639,0.017082
 40,-0.00000106,-0.00000113,0.00000094,0.00227510,-0.00101638,-0.061840
 03,0.00005836,0.00006987,-0.00003874,-0.00005528,-0.00006649,-0.000046
 09,-0.00002877,0.00002621,-0.00000719,0.00002947,-0.00002600,-0.000007
 12,-0.00027464,0.00001026,-0.00015872,0.00026866,-0.00000289,-0.000172
 68,-0.00000383,-0.00000334,-0.00000267,0.00000409,0.00000354,-0.000002
 22,0.00298146,0.00168574,0.00013290,-0.00287719,-0.00167406,0.00001794
 ,-0.00000048,0.00000029,0.00000194,-0.00000011,0.00000071,-0.00000108,
 0.00000014,-0.00000058,-0.00000084,-0.00264037,0.00353945,0.02264403\\
 0.00000905,0.00001092,0.00000030,-0.00001067,0.00000978,0.00000055,0.0
 0001515,-0.00000256,-0.00000013,0.00000756,-0.00002582,0.00000077,-0.0
 0000150,-0.00000295,-0.00000112,-0.00001632,0.00001778,0.00000739,0.00
 000615,0.00000247,-0.00000049,-0.00000098,-0.00001949,-0.00000505,-0.0
 0000077,-0.00000195,-0.00000029,0.00000058,-0.00000076,-0.00000090,-0.
 00000245,0.00000019,0.00000060,-0.00000132,-0.00000103,-0.00000018,0.0
 0000093,0.00000319,0.00000080,-0.00000057,0.00000384,-0.00000217,0.000
 00185,-0.00000003,0.00000114,0.00000004,0.00000203,0.00000056,0.000006
 09,-0.00000105,-0.00000444,0.00000474,-0.00000247,0.00000016,-0.000001
 46,0.00000138,0.00000046,-0.00000254,0.00000159,0.00000021,-0.00000234
 ,0.00000159,-0.00000035,-0.00001124,0.00000334,0.00000218\\\@


 GOD GAVE US TWO ENDS... ONE TO SIT ON...    
 AND THE OTHER TO THINK WITH...              
 YOUR SUCCESS DEPENDS UPON WHICH END YOU     
 USE THE MOST...                             
                                             
 IT'S A CASE OF HEADS YOU WIN TAILS YOU LOSE.
          SOURCE UNKNOWN(IT'S JUST AS WELL.) 
 Job cpu time:       0 days  2 hours  1 minutes 32.4 seconds.
 Elapsed time:       0 days  0 hours  7 minutes 40.0 seconds.
 File lengths (MBytes):  RWF=    144 Int=      0 D2E=      0 Chk=      7 Scr=      1
 Normal termination of Gaussian 16 at Sat Sep 20 09:36:25 2025.
