 Entering Gaussian System, Link 0=g16
 Input=HTHE0127.gjf
 Output=HTHE0127.log
 Initial command:
 /usr/local/g16/l1.exe "/dados_01/scratch/Gau-2120684.inp" -scrdir="/dados_01/scratch/"
 Entering Link 1 = /usr/local/g16/l1.exe PID=   2120685.
  
 Copyright (c) 1988-2017, Gaussian, Inc.  All Rights Reserved.
  
 This is part of the Gaussian(R) 16 program.  It is based on
 the Gaussian(R) 09 system (copyright 2009, Gaussian, Inc.),
 the Gaussian(R) 03 system (copyright 2003, Gaussian, Inc.),
 the Gaussian(R) 98 system (copyright 1998, Gaussian, Inc.),
 the Gaussian(R) 94 system (copyright 1995, Gaussian, Inc.),
 the Gaussian 92(TM) system (copyright 1992, Gaussian, Inc.),
 the Gaussian 90(TM) system (copyright 1990, Gaussian, Inc.),
 the Gaussian 88(TM) system (copyright 1988, Gaussian, Inc.),
 the Gaussian 86(TM) system (copyright 1986, Carnegie Mellon
 University), and the Gaussian 82(TM) system (copyright 1983,
 Carnegie Mellon University). Gaussian is a federally registered
 trademark of Gaussian, Inc.
  
 This software contains proprietary and confidential information,
 including trade secrets, belonging to Gaussian, Inc.
  
 This software is provided under written license and may be
 used, copied, transmitted, or stored only in accord with that
 written license.
  
 The following legend is applicable only to US Government
 contracts under FAR:
  
                    RESTRICTED RIGHTS LEGEND
  
 Use, reproduction and disclosure by the US Government is
 subject to restrictions as set forth in subparagraphs (a)
 and (c) of the Commercial Computer Software - Restricted
 Rights clause in FAR 52.227-19.
  
 Gaussian, Inc.
 340 Quinnipiac St., Bldg. 40, Wallingford CT 06492
  
  
 ---------------------------------------------------------------
 Warning -- This program may not be used in any manner that
 competes with the business of Gaussian, Inc. or will provide
 assistance to any competitor of Gaussian, Inc.  The licensee
 of this program is prohibited from giving any competitor of
 Gaussian, Inc. access to this program.  By using this program,
 the user acknowledges that Gaussian, Inc. is engaged in the
 business of creating and licensing software in the field of
 computational chemistry and represents and warrants to the
 licensee that it is not a competitor of Gaussian, Inc. and that
 it will not use this program in any manner prohibited above.
 ---------------------------------------------------------------
  

 Cite this work as:
 Gaussian 16, Revision B.01,
 M. J. Frisch, G. W. Trucks, H. B. Schlegel, G. E. Scuseria, 
 M. A. Robb, J. R. Cheeseman, G. Scalmani, V. Barone, 
 G. A. Petersson, H. Nakatsuji, X. Li, M. Caricato, A. V. Marenich, 
 J. Bloino, B. G. Janesko, R. Gomperts, B. Mennucci, H. P. Hratchian, 
 J. V. Ortiz, A. F. Izmaylov, J. L. Sonnenberg, D. Williams-Young, 
 F. Ding, F. Lipparini, F. Egidi, J. Goings, B. Peng, A. Petrone, 
 T. Henderson, D. Ranasinghe, V. G. Zakrzewski, J. Gao, N. Rega, 
 G. Zheng, W. Liang, M. Hada, M. Ehara, K. Toyota, R. Fukuda, 
 J. Hasegawa, M. Ishida, T. Nakajima, Y. Honda, O. Kitao, H. Nakai, 
 T. Vreven, K. Throssell, J. A. Montgomery, Jr., J. E. Peralta, 
 F. Ogliaro, M. J. Bearpark, J. J. Heyd, E. N. Brothers, K. N. Kudin, 
 V. N. Staroverov, T. A. Keith, R. Kobayashi, J. Normand, 
 K. Raghavachari, A. P. Rendell, J. C. Burant, S. S. Iyengar, 
 J. Tomasi, M. Cossi, J. M. Millam, M. Klene, C. Adamo, R. Cammi, 
 J. W. Ochterski, R. L. Martin, K. Morokuma, O. Farkas, 
 J. B. Foresman, and D. J. Fox, Gaussian, Inc., Wallingford CT, 2016.
 
 ******************************************
 Gaussian 16:  ES64L-G16RevB.01 20-Dec-2017
                20-Sep-2025 
 ******************************************
 %nprocs=16
 Will use up to   16 processors via shared memory.
 %mem=40GB
 %chk=HTHE0127.chk
 ----------------------------------------------------------------------
 # opt freq=noraman M08HX/6-311++G** scf=xqc Empiricaldispersion=pfd In
 t(Grid=ultraFine)
 ----------------------------------------------------------------------
 1/18=20,19=15,26=4,38=1/1,3;
 2/9=110,12=2,17=6,18=5,40=1/2;
 3/5=4,6=6,7=1111,11=2,25=1,30=1,71=1,74=-74,75=-5,124=11/1,2,3;
 4//1;
 5/5=2,8=3,13=1,38=5/2,8;
 6/7=2,8=2,9=2,10=2,28=1/1;
 7//1,2,3,16;
 1/18=20,19=15,26=4/3(2);
 2/9=110/2;
 99//99;
 2/9=110/2;
 3/5=4,6=6,7=1111,11=2,25=1,30=1,71=1,74=-74,75=-5,124=11/1,2,3;
 4/5=5,16=3,69=1/1;
 5/5=2,8=3,13=1,38=5/2,8;
 7//1,2,3,16;
 1/18=20,19=15,26=4/3(-5);
 2/9=110/2;
 6/7=2,8=2,9=2,10=2,19=2,28=1/1;
 99/9=1/99;
 --------
 HTHE0127
 --------
 Symbolic Z-matrix:
 Charge =  0 Multiplicity = 1
 O                     0.1205    2.513     0.0004 
 O                    -0.4813   -2.7972    0.0011 
 O                     2.6966    2.2943   -0.0001 
 C                     1.1795    0.4      -0.0003 
 C                     1.0152   -0.9868   -0.0007 
 C                    -1.3488    0.6996   -0.0004 
 C                    -1.5132   -0.6871   -0.0005 
 C                     0.0035    1.2939   -0.0005 
 C                    -0.3373   -1.581    -0.0005 
 C                     2.4668    0.9505    0.0005 
 C                     2.1381   -1.823    -0.0006 
 C                    -2.4718    1.5359   -0.0001 
 C                    -2.8004   -1.2376   -0.0001 
 C                     3.583     0.1135    0.0007 
 C                     3.419    -1.2703    0.0002 
 C                    -3.7527    0.9831    0.0005 
 C                    -3.9167   -0.4007    0.0004 
 H                     2.0369   -2.905    -0.0008 
 H                    -2.3724    2.618     0. 
 H                    -2.955    -2.3133   -0.0001 
 H                     4.5855    0.5334    0.0011 
 H                     4.2896   -1.9197    0.0003 
 H                    -4.6235    1.6325    0.0008 
 H                    -4.9151   -0.8285    0.0008 
 H                     1.8615    2.7855   -0.0017 
 

 GradGradGradGradGradGradGradGradGradGradGradGradGradGradGradGradGradGrad
 Berny optimization.
 Initialization pass.
                           ----------------------------
                           !    Initial Parameters    !
                           ! (Angstroms and Degrees)  !
 --------------------------                            --------------------------
 ! Name  Definition              Value          Derivative Info.                !
 --------------------------------------------------------------------------------
 ! R1    R(1,8)                  1.2247         estimate D2E/DX2                !
 ! R2    R(2,9)                  1.2247         estimate D2E/DX2                !
 ! R3    R(3,10)                 1.3633         estimate D2E/DX2                !
 ! R4    R(3,25)                 0.9689         estimate D2E/DX2                !
 ! R5    R(4,5)                  1.3965         estimate D2E/DX2                !
 ! R6    R(4,8)                  1.4772         estimate D2E/DX2                !
 ! R7    R(4,10)                 1.4001         estimate D2E/DX2                !
 ! R8    R(5,9)                  1.4773         estimate D2E/DX2                !
 ! R9    R(5,11)                 1.4            estimate D2E/DX2                !
 ! R10   R(6,7)                  1.3964         estimate D2E/DX2                !
 ! R11   R(6,8)                  1.4771         estimate D2E/DX2                !
 ! R12   R(6,12)                 1.4002         estimate D2E/DX2                !
 ! R13   R(7,9)                  1.4771         estimate D2E/DX2                !
 ! R14   R(7,13)                 1.4            estimate D2E/DX2                !
 ! R15   R(10,14)                1.3952         estimate D2E/DX2                !
 ! R16   R(11,15)                1.3951         estimate D2E/DX2                !
 ! R17   R(11,18)                1.0867         estimate D2E/DX2                !
 ! R18   R(12,16)                1.3951         estimate D2E/DX2                !
 ! R19   R(12,19)                1.0867         estimate D2E/DX2                !
 ! R20   R(13,17)                1.3952         estimate D2E/DX2                !
 ! R21   R(13,20)                1.0868         estimate D2E/DX2                !
 ! R22   R(14,15)                1.3935         estimate D2E/DX2                !
 ! R23   R(14,21)                1.0869         estimate D2E/DX2                !
 ! R24   R(15,22)                1.0861         estimate D2E/DX2                !
 ! R25   R(16,17)                1.3935         estimate D2E/DX2                !
 ! R26   R(16,23)                1.0863         estimate D2E/DX2                !
 ! R27   R(17,24)                1.0862         estimate D2E/DX2                !
 ! A1    A(10,3,25)            110.7596         estimate D2E/DX2                !
 ! A2    A(5,4,8)              120.4826         estimate D2E/DX2                !
 ! A3    A(5,4,10)             119.91           estimate D2E/DX2                !
 ! A4    A(8,4,10)             119.6074         estimate D2E/DX2                !
 ! A5    A(4,5,9)              120.4741         estimate D2E/DX2                !
 ! A6    A(4,5,11)             119.9177         estimate D2E/DX2                !
 ! A7    A(9,5,11)             119.6082         estimate D2E/DX2                !
 ! A8    A(7,6,8)              120.4853         estimate D2E/DX2                !
 ! A9    A(7,6,12)             119.914          estimate D2E/DX2                !
 ! A10   A(8,6,12)             119.6007         estimate D2E/DX2                !
 ! A11   A(6,7,9)              120.4804         estimate D2E/DX2                !
 ! A12   A(6,7,13)             119.9162         estimate D2E/DX2                !
 ! A13   A(9,7,13)             119.6034         estimate D2E/DX2                !
 ! A14   A(1,8,4)              121.7571         estimate D2E/DX2                !
 ! A15   A(1,8,6)              119.2062         estimate D2E/DX2                !
 ! A16   A(4,8,6)              119.0366         estimate D2E/DX2                !
 ! A17   A(2,9,5)              120.47           estimate D2E/DX2                !
 ! A18   A(2,9,7)              120.489          estimate D2E/DX2                !
 ! A19   A(5,9,7)              119.041          estimate D2E/DX2                !
 ! A20   A(3,10,4)             122.8576         estimate D2E/DX2                !
 ! A21   A(3,10,14)            117.1608         estimate D2E/DX2                !
 ! A22   A(4,10,14)            119.9816         estimate D2E/DX2                !
 ! A23   A(5,11,15)            119.9858         estimate D2E/DX2                !
 ! A24   A(5,11,18)            121.3309         estimate D2E/DX2                !
 ! A25   A(15,11,18)           118.6832         estimate D2E/DX2                !
 ! A26   A(6,12,16)            119.9812         estimate D2E/DX2                !
 ! A27   A(6,12,19)            121.4267         estimate D2E/DX2                !
 ! A28   A(16,12,19)           118.592          estimate D2E/DX2                !
 ! A29   A(7,13,17)            119.9857         estimate D2E/DX2                !
 ! A30   A(7,13,20)            121.3336         estimate D2E/DX2                !
 ! A31   A(17,13,20)           118.6807         estimate D2E/DX2                !
 ! A32   A(10,14,15)           120.1061         estimate D2E/DX2                !
 ! A33   A(10,14,21)           120.4085         estimate D2E/DX2                !
 ! A34   A(15,14,21)           119.4854         estimate D2E/DX2                !
 ! A35   A(11,15,14)           120.0987         estimate D2E/DX2                !
 ! A36   A(11,15,22)           119.94           estimate D2E/DX2                !
 ! A37   A(14,15,22)           119.9612         estimate D2E/DX2                !
 ! A38   A(12,16,17)           120.1025         estimate D2E/DX2                !
 ! A39   A(12,16,23)           119.9426         estimate D2E/DX2                !
 ! A40   A(17,16,23)           119.9549         estimate D2E/DX2                !
 ! A41   A(13,17,16)           120.1004         estimate D2E/DX2                !
 ! A42   A(13,17,24)           119.9463         estimate D2E/DX2                !
 ! A43   A(16,17,24)           119.9533         estimate D2E/DX2                !
 ! D1    D(25,3,10,4)           -0.0364         estimate D2E/DX2                !
 ! D2    D(25,3,10,14)         179.9047         estimate D2E/DX2                !
 ! D3    D(8,4,5,9)             -0.0373         estimate D2E/DX2                !
 ! D4    D(8,4,5,11)           179.9955         estimate D2E/DX2                !
 ! D5    D(10,4,5,9)           179.953          estimate D2E/DX2                !
 ! D6    D(10,4,5,11)           -0.0142         estimate D2E/DX2                !
 ! D7    D(5,4,8,1)            179.9693         estimate D2E/DX2                !
 ! D8    D(5,4,8,6)              0.0324         estimate D2E/DX2                !
 ! D9    D(10,4,8,1)            -0.0211         estimate D2E/DX2                !
 ! D10   D(10,4,8,6)          -179.958          estimate D2E/DX2                !
 ! D11   D(5,4,10,3)           179.9487         estimate D2E/DX2                !
 ! D12   D(5,4,10,14)            0.0093         estimate D2E/DX2                !
 ! D13   D(8,4,10,3)            -0.0608         estimate D2E/DX2                !
 ! D14   D(8,4,10,14)          179.9997         estimate D2E/DX2                !
 ! D15   D(4,5,9,2)           -179.8941         estimate D2E/DX2                !
 ! D16   D(4,5,9,7)              0.0279         estimate D2E/DX2                !
 ! D17   D(11,5,9,2)             0.0732         estimate D2E/DX2                !
 ! D18   D(11,5,9,7)           179.9952         estimate D2E/DX2                !
 ! D19   D(4,5,11,15)            0.0143         estimate D2E/DX2                !
 ! D20   D(4,5,11,18)          179.9935         estimate D2E/DX2                !
 ! D21   D(9,5,11,15)         -179.9532         estimate D2E/DX2                !
 ! D22   D(9,5,11,18)            0.0261         estimate D2E/DX2                !
 ! D23   D(8,6,7,9)              0.0093         estimate D2E/DX2                !
 ! D24   D(8,6,7,13)           179.9857         estimate D2E/DX2                !
 ! D25   D(12,6,7,9)          -179.9858         estimate D2E/DX2                !
 ! D26   D(12,6,7,13)           -0.0094         estimate D2E/DX2                !
 ! D27   D(7,6,8,1)           -179.9566         estimate D2E/DX2                !
 ! D28   D(7,6,8,4)             -0.0181         estimate D2E/DX2                !
 ! D29   D(12,6,8,1)             0.0385         estimate D2E/DX2                !
 ! D30   D(12,6,8,4)           179.9771         estimate D2E/DX2                !
 ! D31   D(7,6,12,16)            0.019          estimate D2E/DX2                !
 ! D32   D(7,6,12,19)          179.999          estimate D2E/DX2                !
 ! D33   D(8,6,12,16)         -179.9761         estimate D2E/DX2                !
 ! D34   D(8,6,12,19)            0.0038         estimate D2E/DX2                !
 ! D35   D(6,7,9,2)            179.9084         estimate D2E/DX2                !
 ! D36   D(6,7,9,5)             -0.0136         estimate D2E/DX2                !
 ! D37   D(13,7,9,2)            -0.068          estimate D2E/DX2                !
 ! D38   D(13,7,9,5)          -179.99           estimate D2E/DX2                !
 ! D39   D(6,7,13,17)           -0.0001         estimate D2E/DX2                !
 ! D40   D(6,7,13,20)         -179.9958         estimate D2E/DX2                !
 ! D41   D(9,7,13,17)          179.9764         estimate D2E/DX2                !
 ! D42   D(9,7,13,20)           -0.0193         estimate D2E/DX2                !
 ! D43   D(3,10,14,15)        -179.9473         estimate D2E/DX2                !
 ! D44   D(3,10,14,21)           0.0438         estimate D2E/DX2                !
 ! D45   D(4,10,14,15)          -0.0045         estimate D2E/DX2                !
 ! D46   D(4,10,14,21)         179.9866         estimate D2E/DX2                !
 ! D47   D(5,11,15,14)          -0.0095         estimate D2E/DX2                !
 ! D48   D(5,11,15,22)         179.9986         estimate D2E/DX2                !
 ! D49   D(18,11,15,14)       -179.9893         estimate D2E/DX2                !
 ! D50   D(18,11,15,22)          0.0188         estimate D2E/DX2                !
 ! D51   D(6,12,16,17)          -0.0191         estimate D2E/DX2                !
 ! D52   D(6,12,16,23)         179.9959         estimate D2E/DX2                !
 ! D53   D(19,12,16,17)       -179.9996         estimate D2E/DX2                !
 ! D54   D(19,12,16,23)          0.0154         estimate D2E/DX2                !
 ! D55   D(7,13,17,16)           0.0001         estimate D2E/DX2                !
 ! D56   D(7,13,17,24)        -179.9945         estimate D2E/DX2                !
 ! D57   D(20,13,17,16)        179.9959         estimate D2E/DX2                !
 ! D58   D(20,13,17,24)          0.0013         estimate D2E/DX2                !
 ! D59   D(10,14,15,11)          0.0046         estimate D2E/DX2                !
 ! D60   D(10,14,15,22)        179.9965         estimate D2E/DX2                !
 ! D61   D(21,14,15,11)       -179.9865         estimate D2E/DX2                !
 ! D62   D(21,14,15,22)          0.0053         estimate D2E/DX2                !
 ! D63   D(12,16,17,13)          0.0095         estimate D2E/DX2                !
 ! D64   D(12,16,17,24)       -179.9959         estimate D2E/DX2                !
 ! D65   D(23,16,17,13)        179.9945         estimate D2E/DX2                !
 ! D66   D(23,16,17,24)         -0.0108         estimate D2E/DX2                !
 --------------------------------------------------------------------------------
 Trust Radius=3.00D-01 FncErr=1.00D-07 GrdErr=1.00D-06 EigMax=2.50D+02 EigMin=1.00D-04
 Number of steps in this run=    146 maximum allowed number of steps=    150.
 GradGradGradGradGradGradGradGradGradGradGradGradGradGradGradGradGradGrad

                          Input orientation:                          
 ---------------------------------------------------------------------
 Center     Atomic      Atomic             Coordinates (Angstroms)
 Number     Number       Type             X           Y           Z
 ---------------------------------------------------------------------
      1          8           0        0.120500    2.513000    0.000400
      2          8           0       -0.481300   -2.797200    0.001100
      3          8           0        2.696600    2.294300   -0.000100
      4          6           0        1.179500    0.400000   -0.000300
      5          6           0        1.015200   -0.986800   -0.000700
      6          6           0       -1.348800    0.699600   -0.000400
      7          6           0       -1.513200   -0.687100   -0.000500
      8          6           0        0.003500    1.293900   -0.000500
      9          6           0       -0.337300   -1.581000   -0.000500
     10          6           0        2.466800    0.950500    0.000500
     11          6           0        2.138100   -1.823000   -0.000600
     12          6           0       -2.471800    1.535900   -0.000100
     13          6           0       -2.800400   -1.237600   -0.000100
     14          6           0        3.583000    0.113500    0.000700
     15          6           0        3.419000   -1.270300    0.000200
     16          6           0       -3.752700    0.983100    0.000500
     17          6           0       -3.916700   -0.400700    0.000400
     18          1           0        2.036900   -2.905000   -0.000800
     19          1           0       -2.372400    2.618000    0.000000
     20          1           0       -2.955000   -2.313300   -0.000100
     21          1           0        4.585500    0.533400    0.001100
     22          1           0        4.289600   -1.919700    0.000300
     23          1           0       -4.623500    1.632500    0.000800
     24          1           0       -4.915100   -0.828500    0.000800
     25          1           0        1.861500    2.785500   -0.001700
 ---------------------------------------------------------------------
                    Distance matrix (angstroms):
                    1          2          3          4          5
     1  O    0.000000
     2  O    5.344192   0.000000
     3  O    2.585367   6.001868   0.000000
     4  C    2.363525   3.602825   2.426925   0.000000
     5  C    3.612352   2.348843   3.686831   1.396499   0.000000
     6  C    2.333937   3.602800   4.348371   2.545989   2.903867
     7  C    3.592995   2.348902   5.158601   2.903863   2.546100
     8  C    1.224702   4.119725   2.872906   1.477171   2.495021
     9  C    4.119517   1.224696   4.921636   2.495004   1.477271
    10  C    2.818959   4.768286   1.363307   1.400069   2.420801
    11  C    4.782427   2.794696   4.155007   2.420877   1.400048
    12  C    2.770333   4.768422   5.223747   3.823906   4.303857
    13  C    4.753805   2.794741   6.533860   4.303642   3.823834
    14  C    4.212660   4.999071   2.354059   2.420516   2.793610
    15  C    5.019309   4.188528   3.637064   2.793790   2.420460
    16  C    4.164405   4.999273   6.581240   4.966548   5.158816
    17  C    4.978818   4.188697   7.141342   5.158718   4.966604
    18  H    5.746940   2.520507   5.240985   3.414405   2.173330
    19  H    2.495110   5.735909   5.079325   4.187543   4.946758
    20  H    5.722925   2.520586   7.291815   4.945310   4.185940
    21  H    4.884162   6.063444   2.582385   3.408612   3.880471
    22  H    6.085246   4.850927   4.505047   3.879914   3.404702
    23  H    4.825020   6.064657   7.349955   5.932442   6.217369
    24  H    6.043417   4.851223   8.227385   6.217183   5.932413
    25  H    1.762198   6.054359   0.968851   2.481076   3.866067
                    6          7          8          9         10
     6  C    0.000000
     7  C    1.396411   0.000000
     8  C    1.477128   2.494943   0.000000
     9  C    2.494848   1.477091   2.895029   0.000000
    10  C    3.823840   4.303735   2.487121   3.777760   0.000000
    11  C    4.303717   3.823906   3.777775   2.487201   2.792910
    12  C    1.400188   2.420877   2.487102   3.777718   4.973174
    13  C    2.420720   1.399977   3.777611   2.486923   5.703611
    14  C    4.966504   5.158703   3.769107   4.270841   1.395160
    15  C    5.158723   4.966560   4.270921   3.769128   2.416327
    16  C    2.420559   2.793730   3.769036   4.270781   6.219585
    17  C    2.793702   2.420504   4.270789   3.768980   6.524938
    18  H    4.945311   4.185964   4.665349   2.718419   3.879394
    19  H    2.174400   3.414954   2.719953   4.666180   5.118439
    20  H    3.414300   2.173319   4.665256   2.718201   6.328373
    21  H    5.936627   6.219627   4.644684   5.357672   2.159366
    22  H    6.217096   5.932267   5.357040   4.639280   3.400095
    23  H    3.404991   3.880014   4.639373   5.357060   7.123025
    24  H    3.879895   3.404838   5.356978   4.639236   7.593240
    25  H    3.828447   4.842267   2.382653   4.888870   1.932257
                   11         12         13         14         15
    11  C    0.000000
    12  C    5.703805   0.000000
    13  C    4.973075   2.792898   0.000000
    14  C    2.416148   6.219632   6.524819   0.000000
    15  C    1.395057   6.525050   6.219486   1.393484   0.000000
    16  C    6.525008   1.395096   2.416275   7.387063   7.517386
    17  C    6.219609   2.416228   1.395180   7.517307   7.387063
    18  H    1.086722   6.328504   5.116610   3.391426   2.140665
    19  H    6.329857   1.086656   3.879283   6.460597   6.975614
    20  H    5.116646   3.879410   1.086753   6.973866   6.458771
    21  H    3.397409   7.128148   7.595259   1.086887   2.148036
    22  H    2.153672   7.593267   7.122735   2.152484   1.086124
    23  H    7.593400   2.153868   3.400172   8.345897   8.550325
    24  H    7.122967   3.400015   2.153908   8.550150   8.345802
    25  H    4.616793   4.509877   6.157812   3.178546   4.344574
                   16         17         18         19         20
    16  C    0.000000
    17  C    1.393484   0.000000
    18  H    6.974008   6.458860   0.000000
    19  H    2.139656   3.390783   7.067210   0.000000
    20  H    3.391545   2.140772   5.026845   4.965596   0.000000
    21  H    8.350318   8.553359   4.279949   7.263465   8.059953
    22  H    8.550137   8.345701   2.458755   8.060581   7.255284
    23  H    1.086284   2.152549   8.059146   2.457369   4.284067
    24  H    2.152456   1.086193   7.255492   4.282953   2.458988
    25  H    5.896430   6.598445   5.693203   4.237212   7.014017
                   21         22         23         24         25
    21  H    0.000000
    22  H    2.470882   0.000000
    23  H    9.274357   9.594867   0.000000
    24  H    9.597717   9.269154   2.478215   0.000000
    25  H    3.534422   5.294769   6.586702   7.680059   0.000000
 Stoichiometry    C14H8O3
 Framework group  C1[X(C14H8O3)]
 Deg. of freedom    69
 Full point group                 C1      NOp   1
 Largest Abelian subgroup         C1      NOp   1
 Largest concise Abelian subgroup C1      NOp   1
                         Standard orientation:                         
 ---------------------------------------------------------------------
 Center     Atomic      Atomic             Coordinates (Angstroms)
 Number     Number       Type             X           Y           Z
 ---------------------------------------------------------------------
      1          8           0        0.138366   -2.479849   -0.000372
      2          8           0       -0.549183    2.819931   -0.001072
      3          8           0        2.710594   -2.219541    0.000128
      4          6           0        1.163075   -0.350008    0.000328
      5          6           0        0.976382    1.033955    0.000728
      6          6           0       -1.360052   -0.690434    0.000428
      7          6           0       -1.546843    0.693428    0.000528
      8          6           0        0.001677   -1.262799    0.000528
      9          6           0       -0.385545    1.606217    0.000528
     10          6           0        2.459105   -0.879630   -0.000472
     11          6           0        2.085620    1.888195    0.000628
     12          6           0       -2.469388   -1.544775    0.000128
     13          6           0       -2.842773    1.223052    0.000128
     14          6           0        3.561631   -0.024699   -0.000672
     15          6           0        3.375286    1.356270   -0.000172
     16          6           0       -3.759056   -1.012750   -0.000472
     17          6           0       -3.945400    0.368219   -0.000372
     18          1           0        1.966946    2.968418    0.000828
     19          1           0       -2.352512   -2.625127    0.000028
     20          1           0       -3.014739    2.296112    0.000128
     21          1           0        4.570787   -0.428341   -0.001072
     22          1           0        4.235277    2.019656   -0.000272
     23          1           0       -4.619246   -1.676140   -0.000772
     24          1           0       -4.950584    0.779826   -0.000772
     25          1           0        1.883542   -2.724174    0.001728
 ---------------------------------------------------------------------
 Rotational constants (GHZ):           0.9170179           0.4040110           0.2804521
 Standard basis: 6-311++G(d,p) (5D, 7F)
 There are   447 symmetry adapted cartesian basis functions of A   symmetry.
 There are   430 symmetry adapted basis functions of A   symmetry.
   430 basis functions,   684 primitive gaussians,   447 cartesian basis functions
    58 alpha electrons       58 beta electrons
       nuclear repulsion energy      1107.8304062260 Hartrees.
 NAtoms=   25 NActive=   25 NUniq=   25 SFac= 1.00D+00 NAtFMM=   60 NAOKFM=F Big=F
 Integral buffers will be    131072 words long.
 Raffenetti 2 integral format.
 Two-electron integral symmetry is turned on.
 R6APFD:  NTU= -4 IXU= 1 FactS= 1.050
 Nuclear repulsion after empirical dispersion term =     1107.8100414680 Hartrees.
 One-electron integrals computed using PRISM.
 NBasis=   430 RedAO= T EigKep=  1.35D-06  NBF=   430
 NBsUse=   423 1.00D-06 EigRej=  7.98D-07 NBFU=   423
 ExpMin= 3.60D-02 ExpMax= 8.59D+03 ExpMxC= 1.30D+03 IAcc=3 IRadAn=         5 AccDes= 0.00D+00
 Harris functional with IExCor= 1009 and IRadAn=       5 diagonalized for initial guess.
 HarFok:  IExCor= 1009 AccDes= 0.00D+00 IRadAn=         5 IDoV= 1 UseB2=F ITyADJ=14
 ICtDFT=  3500011 ScaDFX=  1.000000  1.000000  1.000000  1.000000
 FoFCou: FMM=F IPFlag=           0 FMFlag=      100000 FMFlg1=           0
         NFxFlg=           0 DoJE=T BraDBF=F KetDBF=T FulRan=T
         wScrn=  0.000000 ICntrl=       500 IOpCl=  0 I1Cent=   200000004 NGrid=           0
         NMat0=    1 NMatS0=      1 NMatT0=    0 NMatD0=    1 NMtDS0=    0 NMtDT0=    0
 Petite list used in FoFCou.
 Requested convergence on RMS density matrix=1.00D-08 within  32 cycles.
 Requested convergence on MAX density matrix=1.00D-06.
 Requested convergence on             energy=1.00D-06.
 No special actions if energy rises.
 SCF Done:  E(RM08HX) =  -763.983579526     A.U. after   16 cycles
            NFock= 16  Conv=0.33D-08     -V/T= 2.0043
 QCSCF skips out because SCF is already converged.

 **********************************************************************

            Population analysis using the SCF Density.

 **********************************************************************

 Orbital symmetries:
       Occupied  (A) (A) (A) (A) (A) (A) (A) (A) (A) (A) (A) (A)
                 (A) (A) (A) (A) (A) (A) (A) (A) (A) (A) (A) (A)
                 (A) (A) (A) (A) (A) (A) (A) (A) (A) (A) (A) (A)
                 (A) (A) (A) (A) (A) (A) (A) (A) (A) (A) (A) (A)
                 (A) (A) (A) (A) (A) (A) (A) (A) (A) (A)
       Virtual   (A) (A) (A) (A) (A) (A) (A) (A) (A) (A) (A) (A)
                 (A) (A) (A) (A) (A) (A) (A) (A) (A) (A) (A) (A)
                 (A) (A) (A) (A) (A) (A) (A) (A) (A) (A) (A) (A)
                 (A) (A) (A) (A) (A) (A) (A) (A) (A) (A) (A) (A)
                 (A) (A) (A) (A) (A) (A) (A) (A) (A) (A) (A) (A)
                 (A) (A) (A) (A) (A) (A) (A) (A) (A) (A) (A) (A)
                 (A) (A) (A) (A) (A) (A) (A) (A) (A) (A) (A) (A)
                 (A) (A) (A) (A) (A) (A) (A) (A) (A) (A) (A) (A)
                 (A) (A) (A) (A) (A) (A) (A) (A) (A) (A) (A) (A)
                 (A) (A) (A) (A) (A) (A) (A) (A) (A) (A) (A) (A)
                 (A) (A) (A) (A) (A) (A) (A) (A) (A) (A) (A) (A)
                 (A) (A) (A) (A) (A) (A) (A) (A) (A) (A) (A) (A)
                 (A) (A) (A) (A) (A) (A) (A) (A) (A) (A) (A) (A)
                 (A) (A) (A) (A) (A) (A) (A) (A) (A) (A) (A) (A)
                 (A) (A) (A) (A) (A) (A) (A) (A) (A) (A) (A) (A)
                 (A) (A) (A) (A) (A) (A) (A) (A) (A) (A) (A) (A)
                 (A) (A) (A) (A) (A) (A) (A) (A) (A) (A) (A) (A)
                 (A) (A) (A) (A) (A) (A) (A) (A) (A) (A) (A) (A)
                 (A) (A) (A) (A) (A) (A) (A) (A) (A) (A) (A) (A)
                 (A) (A) (A) (A) (A) (A) (A) (A) (A) (A) (A) (A)
                 (A) (A) (A) (A) (A) (A) (A) (A) (A) (A) (A) (A)
                 (A) (A) (A) (A) (A) (A) (A) (A) (A) (A) (A) (A)
                 (A) (A) (A) (A) (A) (A) (A) (A) (A) (A) (A) (A)
                 (A) (A) (A) (A) (A) (A) (A) (A) (A) (A) (A) (A)
                 (A) (A) (A) (A) (A) (A) (A) (A) (A) (A) (A) (A)
                 (A) (A) (A) (A) (A) (A) (A) (A) (A) (A) (A) (A)
                 (A) (A) (A) (A) (A) (A) (A) (A) (A) (A) (A) (A)
                 (A) (A) (A) (A) (A) (A) (A) (A) (A) (A) (A) (A)
                 (A) (A) (A) (A) (A) (A) (A) (A) (A) (A) (A) (A)
                 (A) (A) (A) (A) (A) (A) (A) (A) (A) (A) (A) (A)
                 (A) (A) (A) (A) (A)
 The electronic state is 1-A.
 Alpha  occ. eigenvalues --  -19.64176 -19.63148 -19.61850 -10.65655 -10.64476
 Alpha  occ. eigenvalues --  -10.62920 -10.57704 -10.57575 -10.57572 -10.57236
 Alpha  occ. eigenvalues --  -10.56718 -10.56674 -10.56605 -10.56594 -10.56548
 Alpha  occ. eigenvalues --  -10.55815 -10.55677  -1.21086  -1.18433  -1.18111
 Alpha  occ. eigenvalues --   -1.01373  -0.99705  -0.92732  -0.88716  -0.88258
 Alpha  occ. eigenvalues --   -0.87573  -0.79364  -0.76794  -0.75003  -0.71332
 Alpha  occ. eigenvalues --   -0.68907  -0.65097  -0.64871  -0.62037  -0.59316
 Alpha  occ. eigenvalues --   -0.57666  -0.56604  -0.55604  -0.54651  -0.54172
 Alpha  occ. eigenvalues --   -0.52739  -0.52710  -0.51871  -0.50304  -0.49244
 Alpha  occ. eigenvalues --   -0.48129  -0.46584  -0.45472  -0.45445  -0.44580
 Alpha  occ. eigenvalues --   -0.43579  -0.42477  -0.36954  -0.35040  -0.34929
 Alpha  occ. eigenvalues --   -0.33837  -0.33742  -0.30485
 Alpha virt. eigenvalues --   -0.09686  -0.05047  -0.02902  -0.02197  -0.01662
 Alpha virt. eigenvalues --   -0.01191  -0.00551  -0.00104   0.00067   0.01400
 Alpha virt. eigenvalues --    0.01685   0.01968   0.02473   0.03421   0.03574
 Alpha virt. eigenvalues --    0.04322   0.04858   0.05513   0.05794   0.05808
 Alpha virt. eigenvalues --    0.06616   0.06900   0.08313   0.08885   0.09114
 Alpha virt. eigenvalues --    0.09421   0.09838   0.10226   0.10271   0.10388
 Alpha virt. eigenvalues --    0.10737   0.11349   0.11747   0.11964   0.12051
 Alpha virt. eigenvalues --    0.12232   0.13359   0.13729   0.14207   0.14397
 Alpha virt. eigenvalues --    0.14670   0.15142   0.15154   0.15996   0.16080
 Alpha virt. eigenvalues --    0.16283   0.17291   0.18167   0.18556   0.18625
 Alpha virt. eigenvalues --    0.18990   0.19688   0.20060   0.20731   0.21377
 Alpha virt. eigenvalues --    0.21820   0.22297   0.23009   0.23977   0.24391
 Alpha virt. eigenvalues --    0.24524   0.25047   0.25676   0.25756   0.26206
 Alpha virt. eigenvalues --    0.27381   0.27835   0.27902   0.27968   0.28839
 Alpha virt. eigenvalues --    0.29238   0.29315   0.29641   0.30523   0.30866
 Alpha virt. eigenvalues --    0.31713   0.31904   0.32060   0.32161   0.32954
 Alpha virt. eigenvalues --    0.33082   0.34026   0.34108   0.34812   0.35592
 Alpha virt. eigenvalues --    0.35786   0.36746   0.37534   0.39011   0.39981
 Alpha virt. eigenvalues --    0.41072   0.42102   0.42389   0.43947   0.44158
 Alpha virt. eigenvalues --    0.47292   0.49370   0.50778   0.51113   0.52014
 Alpha virt. eigenvalues --    0.53759   0.54462   0.55241   0.55894   0.56406
 Alpha virt. eigenvalues --    0.56594   0.56697   0.56816   0.58986   0.60373
 Alpha virt. eigenvalues --    0.61077   0.61860   0.62381   0.62682   0.62838
 Alpha virt. eigenvalues --    0.64589   0.65096   0.65771   0.65816   0.66918
 Alpha virt. eigenvalues --    0.67006   0.67442   0.67872   0.68459   0.69736
 Alpha virt. eigenvalues --    0.70681   0.70835   0.72308   0.74422   0.74756
 Alpha virt. eigenvalues --    0.75538   0.76928   0.77335   0.78458   0.79148
 Alpha virt. eigenvalues --    0.79929   0.80486   0.81753   0.82222   0.85021
 Alpha virt. eigenvalues --    0.85493   0.86655   0.87425   0.88519   0.90084
 Alpha virt. eigenvalues --    0.90386   0.91420   0.92080   0.93320   0.94159
 Alpha virt. eigenvalues --    0.94724   0.95136   0.95544   0.95903   0.97920
 Alpha virt. eigenvalues --    0.99965   1.00350   1.00860   1.01887   1.02903
 Alpha virt. eigenvalues --    1.03530   1.04863   1.05841   1.06722   1.07519
 Alpha virt. eigenvalues --    1.10148   1.12048   1.12412   1.13571   1.14058
 Alpha virt. eigenvalues --    1.14749   1.15907   1.16314   1.16780   1.17896
 Alpha virt. eigenvalues --    1.19301   1.21721   1.23728   1.24009   1.25713
 Alpha virt. eigenvalues --    1.26018   1.28100   1.29146   1.29761   1.32988
 Alpha virt. eigenvalues --    1.33922   1.35770   1.36524   1.40529   1.42173
 Alpha virt. eigenvalues --    1.46592   1.47704   1.49834   1.50940   1.51895
 Alpha virt. eigenvalues --    1.52327   1.53647   1.53897   1.54702   1.55202
 Alpha virt. eigenvalues --    1.58232   1.58710   1.60632   1.61079   1.62287
 Alpha virt. eigenvalues --    1.64797   1.66018   1.67196   1.67869   1.69310
 Alpha virt. eigenvalues --    1.71088   1.73062   1.74640   1.74648   1.76198
 Alpha virt. eigenvalues --    1.76777   1.77863   1.78182   1.79615   1.81007
 Alpha virt. eigenvalues --    1.85329   1.86401   1.90085   1.90991   1.91904
 Alpha virt. eigenvalues --    1.93492   1.93772   1.94614   1.94740   1.95469
 Alpha virt. eigenvalues --    1.96075   1.97773   1.98683   1.99133   2.00264
 Alpha virt. eigenvalues --    2.00566   2.01903   2.03123   2.03700   2.07191
 Alpha virt. eigenvalues --    2.08004   2.09399   2.11331   2.13130   2.15186
 Alpha virt. eigenvalues --    2.16884   2.19590   2.24422   2.26382   2.30184
 Alpha virt. eigenvalues --    2.31374   2.32685   2.38097   2.38697   2.40672
 Alpha virt. eigenvalues --    2.41730   2.42768   2.46123   2.46878   2.48289
 Alpha virt. eigenvalues --    2.52078   2.55217   2.60057   2.65025   2.66858
 Alpha virt. eigenvalues --    2.68255   2.68462   2.69016   2.69394   2.70627
 Alpha virt. eigenvalues --    2.71490   2.71518   2.71919   2.74256   2.74850
 Alpha virt. eigenvalues --    2.75734   2.76671   2.79878   2.80187   2.81714
 Alpha virt. eigenvalues --    2.82612   2.84198   2.84985   2.85793   2.89448
 Alpha virt. eigenvalues --    2.91214   2.91863   2.93166   2.93522   2.94817
 Alpha virt. eigenvalues --    2.98453   3.01119   3.03607   3.08472   3.08571
 Alpha virt. eigenvalues --    3.15035   3.15840   3.16610   3.17442   3.18409
 Alpha virt. eigenvalues --    3.21087   3.25211   3.26690   3.28020   3.30120
 Alpha virt. eigenvalues --    3.31670   3.35668   3.39853   3.41439   3.42716
 Alpha virt. eigenvalues --    3.43495   3.46085   3.47016   3.53396   3.55128
 Alpha virt. eigenvalues --    3.56054   3.58230   3.58547   3.61760   3.64930
 Alpha virt. eigenvalues --    3.65824   3.72660   3.76051   3.87689   3.88593
 Alpha virt. eigenvalues --    3.93609   3.99879   4.05995   4.07665   4.10052
 Alpha virt. eigenvalues --    4.15458   4.23264   4.26622   4.31761   4.35065
 Alpha virt. eigenvalues --    4.52090   4.85615   4.90309   4.91850   5.12499
 Alpha virt. eigenvalues --    5.14160   5.15988   5.38788   5.44642   5.58000
 Alpha virt. eigenvalues --    5.84106   5.89622   5.92696  23.56678  23.70281
 Alpha virt. eigenvalues --   23.93295  23.96606  23.97173  23.98938  23.99633
 Alpha virt. eigenvalues --   24.00895  24.09256  24.10515  24.11473  24.13168
 Alpha virt. eigenvalues --   24.20879  24.21069  49.99262  50.04569  50.09298
          Condensed to atoms (all electrons):
               1          2          3          4          5          6
     1  O    8.050032   0.000145   0.001115   0.278454  -0.354487  -0.306459
     2  O    0.000145   8.046790   0.000034  -0.357762  -0.056933  -0.638391
     3  O    0.001115   0.000034   8.009770   0.206053   0.050868  -0.039867
     4  C    0.278454  -0.357762   0.206053  20.586800  -4.165206   6.346697
     5  C   -0.354487  -0.056933   0.050868  -4.165206  19.492045 -12.141582
     6  C   -0.306459  -0.638391  -0.039867   6.346697 -12.141582  33.442404
     7  C   -0.666706  -0.261572   0.018502  -8.781483   6.555606 -14.855239
     8  C    0.781165  -0.018474  -0.072928   1.297623   1.883611  -0.534987
     9  C   -0.017163   0.707457   0.028677   2.839156  -0.808244  -0.654181
    10  C    0.121933  -0.073514   0.332901   0.222963  -3.454881   1.343921
    11  C   -0.050080   0.342966  -0.007116  -3.851619   3.696476  -5.067336
    12  C    0.305311  -0.030061   0.017969   0.503584  -3.215549   3.936201
    13  C   -0.023275   0.284160   0.000638  -2.489366  -0.369926  -2.774562
    14  C   -0.069621   0.017822  -0.595422  -7.111876   0.497699   0.151551
    15  C    0.004988   0.101660   0.034175   0.466635  -2.185064  -0.182475
    16  C    0.054723   0.003199   0.006127   0.092095   0.044935  -3.636778
    17  C    0.014459   0.090771   0.000748  -0.244690  -0.123129   1.215671
    18  H   -0.000184  -0.016287  -0.000746   0.006367   0.174731  -0.046984
    19  H   -0.027053   0.000635  -0.001282  -0.126182   0.032434   0.100868
    20  H    0.000619  -0.025048   0.000008   0.036734  -0.142570   0.229937
    21  H   -0.000534   0.000000  -0.032084  -0.186128   0.012111   0.001239
    22  H    0.000081   0.001425   0.002248   0.101305  -0.065336   0.000258
    23  H    0.001441  -0.000280   0.000043   0.014925  -0.015020  -0.003617
    24  H   -0.000184   0.002130  -0.000008  -0.018336   0.019925  -0.058460
    25  H    0.065049  -0.000018   0.250028  -0.237482   0.002567   0.003226
               7          8          9         10         11         12
     1  O   -0.666706   0.781165  -0.017163   0.121933  -0.050080   0.305311
     2  O   -0.261572  -0.018474   0.707457  -0.073514   0.342966  -0.030061
     3  O    0.018502  -0.072928   0.028677   0.332901  -0.007116   0.017969
     4  C   -8.781483   1.297623   2.839156   0.222963  -3.851619   0.503584
     5  C    6.555606   1.883611  -0.808244  -3.454881   3.696476  -3.215549
     6  C  -14.855239  -0.534987  -0.654181   1.343921  -5.067336   3.936201
     7  C   32.847354   1.029278   1.178837  -4.910361   1.081405  -5.864402
     8  C    1.029278  11.616293   1.630184  -4.551200  -0.772533  -2.389808
     9  C    1.178837   1.630184  12.840805  -0.988326  -4.104666  -2.159119
    10  C   -4.910361  -4.551200  -0.988326  18.870658   0.954559   0.221698
    11  C    1.081405  -0.772533  -4.104666   0.954559  13.865170  -0.591577
    12  C   -5.864402  -2.389808  -2.159119   0.221698  -0.591577  13.324962
    13  C    1.023602  -1.442762  -2.662490  -1.082251   0.314291   2.965367
    14  C   -0.748001  -1.562488  -1.721346   0.008187  -0.098484  -0.090978
    15  C    0.011396  -0.636065   0.610798  -0.974653   0.146181  -0.069584
    16  C    1.912067   0.609233   0.158316   0.479714  -0.086909  -1.592238
    17  C   -3.510222  -0.276484  -0.060590  -0.340627  -0.030335   0.123543
    18  H   -0.074708  -0.002521  -0.059455   0.070095   0.445961  -0.007555
    19  H    0.184500  -0.083151  -0.010810  -0.050921   0.007768   0.428655
    20  H    0.042421  -0.003287  -0.057873   0.007007  -0.049894   0.079159
    21  H   -0.014518  -0.011612  -0.049607  -0.119137   0.029063  -0.000257
    22  H    0.012681  -0.008717   0.076429   0.037690  -0.066089  -0.000222
    23  H   -0.019215   0.044110  -0.013307   0.010193  -0.002965  -0.083509
    24  H    0.003647  -0.021728   0.039274  -0.003426   0.005099   0.008447
    25  H    0.020288   0.022346  -0.006935   0.084621   0.018979  -0.022245
              13         14         15         16         17         18
     1  O   -0.023275  -0.069621   0.004988   0.054723   0.014459  -0.000184
     2  O    0.284160   0.017822   0.101660   0.003199   0.090771  -0.016287
     3  O    0.000638  -0.595422   0.034175   0.006127   0.000748  -0.000746
     4  C   -2.489366  -7.111876   0.466635   0.092095  -0.244690   0.006367
     5  C   -0.369926   0.497699  -2.185064   0.044935  -0.123129   0.174731
     6  C   -2.774562   0.151551  -0.182475  -3.636778   1.215671  -0.046984
     7  C    1.023602  -0.748001   0.011396   1.912067  -3.510222  -0.074708
     8  C   -1.442762  -1.562488  -0.636065   0.609233  -0.276484  -0.002521
     9  C   -2.662490  -1.721346   0.610798   0.158316  -0.060590  -0.059455
    10  C   -1.082251   0.008187  -0.974653   0.479714  -0.340627   0.070095
    11  C    0.314291  -0.098484   0.146181  -0.086909  -0.030335   0.445961
    12  C    2.965367  -0.090978  -0.069584  -1.592238   0.123543  -0.007555
    13  C   12.427841  -0.343825  -0.035711  -1.307101   1.020550  -0.017197
    14  C   -0.343825  17.217335   0.046971   0.132167  -0.093579   0.024672
    15  C   -0.035711   0.046971   8.940561  -0.008132  -0.005775  -0.176516
    16  C   -1.307101   0.132167  -0.008132  10.665997  -1.162781  -0.000235
    17  C    1.020550  -0.093579  -0.005775  -1.162781   9.695109   0.000724
    18  H   -0.017197   0.024672  -0.176516  -0.000235   0.000724   0.409688
    19  H    0.099380  -0.003487  -0.002385  -0.256208   0.016468  -0.000063
    20  H    0.371206  -0.000995   0.000514   0.004865  -0.172287  -0.001517
    21  H   -0.003845   0.727383  -0.069108   0.000639  -0.000768   0.003541
    22  H    0.004305  -0.225772   0.429976  -0.000325   0.000302  -0.013211
    23  H   -0.011348   0.001231   0.000114   0.480151  -0.088711  -0.000046
    24  H   -0.033894  -0.000232  -0.000382  -0.074487   0.445568   0.000070
    25  H   -0.003850   0.131112  -0.008692   0.000063   0.000191   0.000955
              19         20         21         22         23         24
     1  O   -0.027053   0.000619  -0.000534   0.000081   0.001441  -0.000184
     2  O    0.000635  -0.025048   0.000000   0.001425  -0.000280   0.002130
     3  O   -0.001282   0.000008  -0.032084   0.002248   0.000043  -0.000008
     4  C   -0.126182   0.036734  -0.186128   0.101305   0.014925  -0.018336
     5  C    0.032434  -0.142570   0.012111  -0.065336  -0.015020   0.019925
     6  C    0.100868   0.229937   0.001239   0.000258  -0.003617  -0.058460
     7  C    0.184500   0.042421  -0.014518   0.012681  -0.019215   0.003647
     8  C   -0.083151  -0.003287  -0.011612  -0.008717   0.044110  -0.021728
     9  C   -0.010810  -0.057873  -0.049607   0.076429  -0.013307   0.039274
    10  C   -0.050921   0.007007  -0.119137   0.037690   0.010193  -0.003426
    11  C    0.007768  -0.049894   0.029063  -0.066089  -0.002965   0.005099
    12  C    0.428655   0.079159  -0.000257  -0.000222  -0.083509   0.008447
    13  C    0.099380   0.371206  -0.003845   0.004305  -0.011348  -0.033894
    14  C   -0.003487  -0.000995   0.727383  -0.225772   0.001231  -0.000232
    15  C   -0.002385   0.000514  -0.069108   0.429976   0.000114  -0.000382
    16  C   -0.256208   0.004865   0.000639  -0.000325   0.480151  -0.074487
    17  C    0.016468  -0.172287  -0.000768   0.000302  -0.088711   0.445568
    18  H   -0.000063  -0.001517   0.003541  -0.013211  -0.000046   0.000070
    19  H    0.407973   0.001862   0.000015  -0.000059  -0.012690   0.002634
    20  H    0.001862   0.398732  -0.000057   0.000130   0.002293  -0.010973
    21  H    0.000015  -0.000057   0.411402  -0.014618  -0.000005   0.000000
    22  H   -0.000059   0.000130  -0.014618   0.417283   0.000003  -0.000019
    23  H   -0.012690   0.002293  -0.000005   0.000003   0.409953  -0.008805
    24  H    0.002634  -0.010973   0.000000  -0.000019  -0.008805   0.408051
    25  H    0.000294  -0.000132   0.003622  -0.000578  -0.000120   0.000009
              25
     1  O    0.065049
     2  O   -0.000018
     3  O    0.250028
     4  C   -0.237482
     5  C    0.002567
     6  C    0.003226
     7  C    0.020288
     8  C    0.022346
     9  C   -0.006935
    10  C    0.084621
    11  C    0.018979
    12  C   -0.022245
    13  C   -0.003850
    14  C    0.131112
    15  C   -0.008692
    16  C    0.000063
    17  C    0.000191
    18  H    0.000955
    19  H    0.000294
    20  H   -0.000132
    21  H    0.003622
    22  H   -0.000578
    23  H   -0.000120
    24  H    0.000009
    25  H    0.340310
 Mulliken charges:
               1
     1  O   -0.163768
     2  O   -0.120856
     3  O   -0.210452
     4  C    0.570739
     5  C    0.634917
     6  C    0.168944
     7  C   -0.215158
     8  C   -0.525097
     9  C   -0.735818
    10  C   -0.216843
    11  C   -0.128316
    12  C    0.202207
    13  C    0.090064
    14  C   -0.290024
    15  C   -0.439428
    16  C   -0.519098
    17  C   -0.514126
    18  H    0.280419
    19  H    0.290805
    20  H    0.289146
    21  H    0.313262
    22  H    0.310828
    23  H    0.295181
    24  H    0.296080
    25  H    0.336391
 Sum of Mulliken charges =  -0.00000
 Mulliken charges with hydrogens summed into heavy atoms:
               1
     1  O   -0.163768
     2  O   -0.120856
     3  O    0.125938
     4  C    0.570739
     5  C    0.634917
     6  C    0.168944
     7  C   -0.215158
     8  C   -0.525097
     9  C   -0.735818
    10  C   -0.216843
    11  C    0.152103
    12  C    0.493013
    13  C    0.379210
    14  C    0.023237
    15  C   -0.128600
    16  C   -0.223917
    17  C   -0.218046
 Electronic spatial extent (au):  <R**2>=           3681.6447
 Charge=             -0.0000 electrons
 Dipole moment (field-independent basis, Debye):
    X=             -1.5324    Y=              0.1211    Z=              0.0047  Tot=              1.5372
 Quadrupole moment (field-independent basis, Debye-Ang):
   XX=            -77.2242   YY=           -105.5881   ZZ=           -100.7735
   XY=              9.2616   XZ=              0.0036   YZ=             -0.0023
 Traceless Quadrupole moment (field-independent basis, Debye-Ang):
   XX=             17.3044   YY=            -11.0595   ZZ=             -6.2449
   XY=              9.2616   XZ=              0.0036   YZ=             -0.0023
 Octapole moment (field-independent basis, Debye-Ang**2):
  XXX=            -28.3864  YYY=            -21.9017  ZZZ=             -0.0064  XYY=             -3.2740
  XXY=             22.5821  XXZ=             -0.0334  XZZ=              4.4051  YZZ=             -3.9588
  YYZ=              0.0520  XYZ=             -0.0193
 Hexadecapole moment (field-independent basis, Debye-Ang**3):
 XXXX=          -2937.4880 YYYY=          -1516.9075 ZZZZ=           -110.2518 XXXY=             86.1458
 XXXZ=              0.0183 YYYX=             46.0727 YYYZ=             -0.0206 ZZZX=             -0.0134
 ZZZY=             -0.0054 XXYY=           -762.5540 XXZZ=           -655.4156 YYZZ=           -266.8205
 XXYZ=             -0.0083 YYXZ=              0.0433 ZZXY=            -16.9764
 N-N= 1.107810041468D+03 E-N=-3.996118518238D+03  KE= 7.606947133535D+02
 R6APFD:  NTU= -4 IXU= 1 FactS= 1.050
 Calling FoFJK, ICntrl=      2127 FMM=F ISym2X=0 I1Cent= 0 IOpClX= 0 NMat=1 NMatS=1 NMatT=0.
 ***** Axes restored to original set *****
 -------------------------------------------------------------------
 Center     Atomic                   Forces (Hartrees/Bohr)
 Number     Number              X              Y              Z
 -------------------------------------------------------------------
      1        8           0.000145985   -0.001427330   -0.000076026
      2        8           0.001796927    0.019338316   -0.000094558
      3        8           0.006644308   -0.019831025    0.000028417
      4        6          -0.009480767    0.007828849   -0.000014871
      5        6           0.016251521   -0.009254376   -0.000025662
      6        6          -0.008567576    0.000894369   -0.000045328
      7        6          -0.009749517    0.000293670   -0.000030173
      8        6           0.003365294    0.008345759    0.000120011
      9        6          -0.003249231   -0.034374061    0.000165215
     10        6           0.007791604    0.028675761   -0.000126212
     11        6          -0.003639907   -0.000292737    0.000026240
     12        6          -0.006581567   -0.002353814    0.000034037
     13        6          -0.005667879    0.004180148    0.000004548
     14        6           0.004835732   -0.011320159    0.000021227
     15        6          -0.006679706    0.011489208   -0.000004103
     16        6           0.006657357    0.000472898   -0.000032991
     17        6           0.006514710   -0.001923249    0.000004176
     18        1          -0.006259760    0.000283169   -0.000006164
     19        1           0.005974073    0.000149584   -0.000004823
     20        1           0.005948041   -0.001511394   -0.000001444
     21        1          -0.001523387    0.004500022    0.000000725
     22        1           0.001251482   -0.000445326    0.000000670
     23        1          -0.000778658    0.001390782    0.000005941
     24        1          -0.001205468   -0.001160307   -0.000001522
     25        1          -0.003793609   -0.003948757    0.000052668
 -------------------------------------------------------------------
 Cartesian Forces:  Max     0.034374061 RMS     0.007612337

 GradGradGradGradGradGradGradGradGradGradGradGradGradGradGradGradGradGrad
 Berny optimization.
 FormGI is forming the generalized inverse of G from B-inverse, IUseBI=4.
 Internal  Forces:  Max     0.022959265 RMS     0.004076728
 Search for a local minimum.
 Step number   1 out of a maximum of  146
 All quantities printed in internal units (Hartrees-Bohrs-Radians)
 Mixed Optimization -- RFO/linear search
 Second derivative matrix not updated -- first step.
 ITU=  0
     Eigenvalues ---    0.01068   0.01068   0.01068   0.01553   0.01638
     Eigenvalues ---    0.01766   0.01806   0.01881   0.01917   0.02115
     Eigenvalues ---    0.02116   0.02118   0.02119   0.02120   0.02128
     Eigenvalues ---    0.02157   0.02158   0.02161   0.02161   0.02166
     Eigenvalues ---    0.02167   0.02177   0.16000   0.16000   0.16000
     Eigenvalues ---    0.16000   0.16000   0.16000   0.16000   0.16000
     Eigenvalues ---    0.22000   0.22098   0.22589   0.23529   0.24504
     Eigenvalues ---    0.24916   0.25000   0.25000   0.25000   0.25000
     Eigenvalues ---    0.25000   0.25000   0.33197   0.33899   0.34892
     Eigenvalues ---    0.34900   0.35175   0.35191   0.35194   0.35202
     Eigenvalues ---    0.35246   0.35256   0.35264   0.39982   0.41810
     Eigenvalues ---    0.41950   0.41999   0.45121   0.45755   0.46015
     Eigenvalues ---    0.46057   0.46062   0.46351   0.46554   0.46581
     Eigenvalues ---    0.52285   0.53612   0.93330   0.93332
 RFO step:  Lambda=-6.31852532D-03 EMin= 1.06780145D-02
 Linear search not attempted -- first point.
 Iteration  1 RMS(Cart)=  0.02261743 RMS(Int)=  0.00029639
 Iteration  2 RMS(Cart)=  0.00037691 RMS(Int)=  0.00000727
 Iteration  3 RMS(Cart)=  0.00000007 RMS(Int)=  0.00000727
 Variable       Old X    -DE/DX   Delta X   Delta X   Delta X     New X
                                 (Linear)    (Quad)   (Total)
    R1        2.31435  -0.00141   0.00000  -0.00150  -0.00150   2.31285
    R2        2.31434  -0.01942   0.00000  -0.02066  -0.02066   2.29368
    R3        2.57628  -0.02296   0.00000  -0.04339  -0.04339   2.53289
    R4        1.83086   0.00127   0.00000   0.00234   0.00234   1.83320
    R5        2.63900   0.01142   0.00000   0.02620   0.02621   2.66521
    R6        2.79145   0.00131   0.00000   0.00400   0.00400   2.79545
    R7        2.64575   0.01038   0.00000   0.02405   0.02407   2.66981
    R8        2.79164   0.00706   0.00000   0.02038   0.02039   2.81203
    R9        2.64571  -0.01250   0.00000  -0.02743  -0.02743   2.61827
   R10        2.63883   0.00378   0.00000   0.00735   0.00734   2.64618
   R11        2.79137   0.00697   0.00000   0.01912   0.01911   2.81047
   R12        2.64597  -0.00612   0.00000  -0.01328  -0.01328   2.63269
   R13        2.79130   0.00628   0.00000   0.01736   0.01736   2.80866
   R14        2.64557  -0.00661   0.00000  -0.01437  -0.01437   2.63121
   R15        2.63647   0.00035   0.00000   0.00113   0.00114   2.63761
   R16        2.63627   0.00107   0.00000   0.00068   0.00067   2.63694
   R17        2.05361   0.00030   0.00000   0.00084   0.00084   2.05445
   R18        2.63635  -0.00449   0.00000  -0.00947  -0.00947   2.62688
   R19        2.05348   0.00070   0.00000   0.00194   0.00194   2.05542
   R20        2.63651  -0.00440   0.00000  -0.00931  -0.00931   2.62720
   R21        2.05367   0.00065   0.00000   0.00181   0.00181   2.05548
   R22        2.63330  -0.00470   0.00000  -0.01111  -0.01112   2.62218
   R23        2.05392   0.00033   0.00000   0.00093   0.00093   2.05485
   R24        2.05248   0.00127   0.00000   0.00354   0.00354   2.05601
   R25        2.63330   0.00333   0.00000   0.00715   0.00715   2.64045
   R26        2.05278   0.00146   0.00000   0.00406   0.00406   2.05684
   R27        2.05261   0.00156   0.00000   0.00436   0.00436   2.05697
    A1        1.93312  -0.00975   0.00000  -0.05864  -0.05864   1.87448
    A2        2.10282   0.00007   0.00000  -0.00028  -0.00029   2.10253
    A3        2.09282  -0.00482   0.00000  -0.01440  -0.01438   2.07845
    A4        2.08754   0.00475   0.00000   0.01468   0.01467   2.10221
    A5        2.10267   0.00253   0.00000   0.01142   0.01144   2.11411
    A6        2.09296   0.00355   0.00000   0.01442   0.01442   2.10738
    A7        2.08756  -0.00608   0.00000  -0.02584  -0.02585   2.06170
    A8        2.10287   0.00310   0.00000   0.01092   0.01091   2.11377
    A9        2.09289   0.00060   0.00000   0.00262   0.00262   2.09552
   A10        2.08743  -0.00370   0.00000  -0.01353  -0.01353   2.07389
   A11        2.10278   0.00165   0.00000   0.00551   0.00551   2.10829
   A12        2.09293   0.00095   0.00000   0.00382   0.00382   2.09675
   A13        2.08747  -0.00259   0.00000  -0.00933  -0.00933   2.07814
   A14        2.12506   0.00099   0.00000   0.00371   0.00371   2.12878
   A15        2.08054   0.00164   0.00000   0.00626   0.00626   2.08680
   A16        2.07758  -0.00263   0.00000  -0.00996  -0.00998   2.06760
   A17        2.10260   0.00292   0.00000   0.01101   0.01100   2.11360
   A18        2.10293   0.00179   0.00000   0.00659   0.00658   2.10951
   A19        2.07766  -0.00471   0.00000  -0.01761  -0.01759   2.06007
   A20        2.14427   0.00503   0.00000   0.01766   0.01765   2.16192
   A21        2.04484  -0.00278   0.00000  -0.01283  -0.01284   2.03200
   A22        2.09407  -0.00226   0.00000  -0.00483  -0.00481   2.08926
   A23        2.09415  -0.00149   0.00000  -0.01042  -0.01044   2.08371
   A24        2.11762  -0.00568   0.00000  -0.03343  -0.03342   2.08420
   A25        2.07141   0.00717   0.00000   0.04385   0.04386   2.11527
   A26        2.09407  -0.00121   0.00000  -0.00539  -0.00539   2.08868
   A27        2.11930  -0.00549   0.00000  -0.03395  -0.03395   2.08535
   A28        2.06982   0.00670   0.00000   0.03934   0.03934   2.10916
   A29        2.09415  -0.00125   0.00000  -0.00568  -0.00568   2.08847
   A30        2.11767  -0.00564   0.00000  -0.03484  -0.03484   2.08284
   A31        2.07137   0.00689   0.00000   0.04051   0.04051   2.11188
   A32        2.09625   0.00017   0.00000  -0.00063  -0.00063   2.09562
   A33        2.10153  -0.00495   0.00000  -0.02895  -0.02895   2.07258
   A34        2.08541   0.00478   0.00000   0.02957   0.02958   2.11499
   A35        2.09612   0.00484   0.00000   0.01586   0.01584   2.11195
   A36        2.09335  -0.00202   0.00000  -0.00552  -0.00550   2.08784
   A37        2.09372  -0.00282   0.00000  -0.01034  -0.01033   2.08339
   A38        2.09618   0.00046   0.00000   0.00232   0.00232   2.09850
   A39        2.09339  -0.00089   0.00000  -0.00517  -0.00517   2.08822
   A40        2.09361   0.00044   0.00000   0.00285   0.00285   2.09646
   A41        2.09615   0.00046   0.00000   0.00231   0.00231   2.09846
   A42        2.09346  -0.00084   0.00000  -0.00481  -0.00480   2.08865
   A43        2.09358   0.00037   0.00000   0.00249   0.00250   2.09607
    D1       -0.00063   0.00003   0.00000   0.00098   0.00098   0.00034
    D2        3.13993   0.00007   0.00000   0.00241   0.00241  -3.14084
    D3       -0.00065  -0.00000   0.00000  -0.00009  -0.00009  -0.00074
    D4        3.14151  -0.00001   0.00000  -0.00028  -0.00028   3.14123
    D5        3.14077   0.00000   0.00000   0.00020   0.00020   3.14098
    D6       -0.00025   0.00000   0.00000   0.00001   0.00001  -0.00024
    D7        3.14106   0.00004   0.00000   0.00235   0.00235  -3.13978
    D8        0.00056  -0.00002   0.00000  -0.00112  -0.00112  -0.00056
    D9       -0.00037   0.00003   0.00000   0.00207   0.00206   0.00169
   D10       -3.14086  -0.00002   0.00000  -0.00141  -0.00141   3.14091
   D11        3.14070   0.00004   0.00000   0.00150   0.00151  -3.14098
   D12        0.00016   0.00000   0.00000   0.00003   0.00003   0.00020
   D13       -0.00106   0.00005   0.00000   0.00179   0.00180   0.00074
   D14        3.14159   0.00001   0.00000   0.00032   0.00032  -3.14128
   D15       -3.13974  -0.00004   0.00000  -0.00207  -0.00207   3.14137
   D16        0.00049   0.00002   0.00000   0.00123   0.00123   0.00172
   D17        0.00128  -0.00003   0.00000  -0.00186  -0.00187  -0.00059
   D18        3.14151   0.00003   0.00000   0.00144   0.00144  -3.14024
   D19        0.00025  -0.00000   0.00000  -0.00013  -0.00013   0.00012
   D20        3.14148   0.00000   0.00000   0.00011   0.00010   3.14158
   D21       -3.14078  -0.00001   0.00000  -0.00034  -0.00033  -3.14111
   D22        0.00046  -0.00000   0.00000  -0.00010  -0.00010   0.00035
   D23        0.00016  -0.00000   0.00000  -0.00001  -0.00001   0.00015
   D24        3.14134   0.00001   0.00000   0.00021   0.00021   3.14155
   D25       -3.14134  -0.00000   0.00000  -0.00014  -0.00013  -3.14148
   D26       -0.00016   0.00000   0.00000   0.00008   0.00008  -0.00008
   D27       -3.14084  -0.00004   0.00000  -0.00222  -0.00222   3.14013
   D28       -0.00032   0.00002   0.00000   0.00117   0.00117   0.00086
   D29        0.00067  -0.00004   0.00000  -0.00209  -0.00209  -0.00142
   D30        3.14119   0.00002   0.00000   0.00129   0.00130  -3.14070
   D31        0.00033  -0.00001   0.00000  -0.00025  -0.00025   0.00008
   D32        3.14158   0.00000   0.00000   0.00005   0.00004  -3.14157
   D33       -3.14118  -0.00001   0.00000  -0.00037  -0.00037  -3.14155
   D34        0.00007  -0.00000   0.00000  -0.00008  -0.00008  -0.00002
   D35        3.13999   0.00004   0.00000   0.00213   0.00212  -3.14107
   D36       -0.00024  -0.00002   0.00000  -0.00118  -0.00118  -0.00142
   D37       -0.00119   0.00003   0.00000   0.00190   0.00190   0.00071
   D38       -3.14142  -0.00002   0.00000  -0.00140  -0.00140   3.14037
   D39       -0.00000   0.00000   0.00000   0.00004   0.00004   0.00004
   D40       -3.14152  -0.00000   0.00000  -0.00004  -0.00004  -3.14156
   D41        3.14118   0.00001   0.00000   0.00027   0.00026   3.14144
   D42       -0.00034   0.00000   0.00000   0.00018   0.00018  -0.00016
   D43       -3.14067  -0.00004   0.00000  -0.00136  -0.00134   3.14117
   D44        0.00076  -0.00003   0.00000  -0.00106  -0.00105  -0.00029
   D45       -0.00008   0.00000   0.00000   0.00005   0.00004  -0.00003
   D46        3.14136   0.00001   0.00000   0.00035   0.00034  -3.14149
   D47       -0.00017   0.00001   0.00000   0.00021   0.00021   0.00005
   D48        3.14157  -0.00000   0.00000  -0.00000  -0.00000   3.14156
   D49       -3.14141   0.00000   0.00000  -0.00000  -0.00001  -3.14141
   D50        0.00033  -0.00001   0.00000  -0.00022  -0.00022   0.00010
   D51       -0.00033   0.00001   0.00000   0.00028   0.00028  -0.00005
   D52        3.14152   0.00000   0.00000   0.00006   0.00006   3.14158
   D53       -3.14159   0.00000   0.00000   0.00001   0.00001  -3.14158
   D54        0.00027  -0.00001   0.00000  -0.00021  -0.00022   0.00005
   D55        0.00000  -0.00000   0.00000  -0.00001  -0.00001  -0.00001
   D56       -3.14150  -0.00000   0.00000  -0.00008  -0.00008  -3.14158
   D57        3.14152   0.00000   0.00000   0.00007   0.00007  -3.14159
   D58        0.00002   0.00000   0.00000   0.00001   0.00001   0.00003
   D59        0.00008  -0.00000   0.00000  -0.00017  -0.00017  -0.00009
   D60        3.14153   0.00000   0.00000   0.00005   0.00005   3.14158
   D61       -3.14136  -0.00001   0.00000  -0.00046  -0.00046   3.14136
   D62        0.00009  -0.00001   0.00000  -0.00025  -0.00025  -0.00015
   D63        0.00017  -0.00000   0.00000  -0.00015  -0.00015   0.00001
   D64       -3.14152  -0.00000   0.00000  -0.00009  -0.00009   3.14158
   D65        3.14150   0.00000   0.00000   0.00007   0.00007   3.14157
   D66       -0.00019   0.00000   0.00000   0.00014   0.00014  -0.00005
         Item               Value     Threshold  Converged?
 Maximum Force            0.022959     0.000450     NO 
 RMS     Force            0.004077     0.000300     NO 
 Maximum Displacement     0.132970     0.001800     NO 
 RMS     Displacement     0.022635     0.001200     NO 
 Predicted change in Energy=-3.233977D-03
 GradGradGradGradGradGradGradGradGradGradGradGradGradGradGradGradGradGrad

                          Input orientation:                          
 ---------------------------------------------------------------------
 Center     Atomic      Atomic             Coordinates (Angstroms)
 Number     Number       Type             X           Y           Z
 ---------------------------------------------------------------------
      1          8           0        0.102378    2.536553   -0.000947
      2          8           0       -0.477738   -2.799049    0.001376
      3          8           0        2.744111    2.281668    0.000720
      4          6           0        1.175229    0.426464    0.000478
      5          6           0        1.013906   -0.974649    0.000411
      6          6           0       -1.358973    0.700650    0.000466
      7          6           0       -1.520144   -0.690341    0.000753
      8          6           0       -0.005653    1.317422    0.000872
      9          6           0       -0.339510   -1.593184    0.001671
     10          6           0        2.480318    0.967536    0.000015
     11          6           0        2.115885   -1.814493   -0.000388
     12          6           0       -2.476359    1.532724   -0.000259
     13          6           0       -2.796787   -1.246120    0.000413
     14          6           0        3.583549    0.112530   -0.000737
     15          6           0        3.397492   -1.262538   -0.000987
     16          6           0       -3.749656    0.975006   -0.000593
     17          6           0       -3.909802   -0.413053   -0.000265
     18          1           0        1.966535   -2.891353   -0.000415
     19          1           0       -2.340189    2.611849   -0.000497
     20          1           0       -2.906935   -2.328241    0.000672
     21          1           0        4.580936    0.545673   -0.000988
     22          1           0        4.265544   -1.918448   -0.001588
     23          1           0       -4.622338    1.625473   -0.001148
     24          1           0       -4.907910   -0.847351   -0.000515
     25          1           0        1.893612    2.748272    0.001880
 ---------------------------------------------------------------------
                    Distance matrix (angstroms):
                    1          2          3          4          5
     1  O    0.000000
     2  O    5.367046   0.000000
     3  O    2.654001   6.016145   0.000000
     4  C    2.367168   3.624395   2.429645   0.000000
     5  C    3.627591   2.356574   3.687439   1.410369   0.000000
     6  C    2.346505   3.608943   4.397148   2.548991   2.904682
     7  C    3.611845   2.352288   5.197760   2.917583   2.549949
     8  C    1.223910   4.143452   2.913928   1.479287   2.508603
     9  C    4.153311   1.213762   4.952090   2.524562   1.488060
    10  C    2.848932   4.789286   1.340347   1.412804   2.433607
    11  C    4.794352   2.774209   4.144056   2.430375   1.385531
    12  C    2.767229   4.770613   5.273919   3.815482   4.297542
    13  C    4.765897   2.790981   6.568625   4.309809   3.820350
    14  C    4.241985   4.997134   2.325901   2.428695   2.790166
    15  C    5.029002   4.168726   3.603929   2.791269   2.400909
    16  C    4.156513   4.994892   6.623925   4.955340   5.147104
    17  C    4.979735   4.179958   7.178864   5.153866   4.955632
    18  H    5.739098   2.446016   5.231135   3.410876   2.140387
    19  H    2.443727   5.722460   5.095010   4.139332   4.910491
    20  H    5.720331   2.474400   7.292844   4.924679   4.147916
    21  H    4.901131   6.064434   2.527372   3.407793   3.877510
    22  H    6.097457   4.824333   4.467185   3.879261   3.385840
    23  H    4.811757   6.062517   7.395619   5.920255   6.207084
    24  H    6.045973   4.841028   8.267055   6.215078   5.923184
    25  H    1.803705   6.032916   0.970087   2.430405   3.825444
                    6          7          8          9         10
     6  C    0.000000
     7  C    1.400298   0.000000
     8  C    1.487239   2.514914   0.000000
     9  C    2.510175   1.486278   2.929690   0.000000
    10  C    3.848556   4.330387   2.510473   3.809031   0.000000
    11  C    4.289590   3.805841   3.782832   2.465349   2.805797
    12  C    1.393161   2.419993   2.480069   3.786479   4.988796
    13  C    2.420170   1.392375   3.789746   2.481665   5.722596
    14  C    4.977389   5.166458   3.786045   4.277834   1.395763
    15  C    5.145684   4.950813   4.270549   3.751602   2.411314
    16  C    2.406375   2.782823   3.759629   4.269039   6.229979
    17  C    2.783356   2.405692   4.270471   3.760279   6.537558
    18  H    4.895047   4.123274   4.647936   2.646336   3.892941
    19  H    2.148364   3.402490   2.669382   4.656718   5.093236
    20  H    3.401525   2.146137   4.659215   2.670576   6.315428
    21  H    5.941930   6.225023   4.651065   5.365213   2.142560
    22  H    6.204423   5.914596   5.358544   4.616528   3.393514
    23  H    3.391881   3.871254   4.626951   5.357460   7.133065
    24  H    3.871856   3.391403   5.358952   4.628882   7.607873
    25  H    3.843444   4.845389   2.377928   4.882118   1.874900
                   11         12         13         14         15
    11  C    0.000000
    12  C    5.682654   0.000000
    13  C    4.945442   2.797257   0.000000
    14  C    2.422283   6.224101   6.523390   0.000000
    15  C    1.395410   6.505045   6.194300   1.387599   0.000000
    16  C    6.495065   1.390085   2.416890   7.383750   7.489214
    17  C    6.186513   2.416776   1.390253   7.511761   7.356505
    18  H    1.087167   6.269909   5.039447   3.411458   2.168104
    19  H    6.280852   1.087683   3.884895   6.429406   6.923283
    20  H    5.049025   3.884900   1.087713   6.934244   6.393865
    21  H    3.412750   7.125986   7.592188   1.087379   2.161057
    22  H    2.152172   7.573892   7.094262   2.142427   1.087995
    23  H    7.565515   2.147983   3.402747   8.344195   8.523983
    24  H    7.090068   3.402528   2.148455   8.545540   8.315773
    25  H    4.568176   4.535880   6.160764   3.130979   4.283487
                   16         17         18         19         20
    16  C    0.000000
    17  C    1.397266   0.000000
    18  H    6.900984   6.377563   0.000000
    19  H    2.160059   3.407891   6.988069   0.000000
    20  H    3.409050   2.161872   4.905895   4.972494   0.000000
    21  H    8.341648   8.544694   4.318360   7.222953   8.020448
    22  H    8.521474   8.312792   2.496395   8.009950   7.184176
    23  H    1.088431   2.159467   7.988428   2.486191   4.309811
    24  H    2.159290   1.088501   7.171886   4.308046   2.489365
    25  H    5.915315   6.608600   5.640097   4.235999   6.986861
                   21         22         23         24         25
    21  H    0.000000
    22  H    2.484223   0.000000
    23  H    9.266403   9.568377   0.000000
    24  H    9.590553   9.235773   2.489259   0.000000
    25  H    3.474646   5.234917   6.611981   7.693452   0.000000
 Stoichiometry    C14H8O3
 Framework group  C1[X(C14H8O3)]
 Deg. of freedom    69
 Full point group                 C1      NOp   1
 Largest Abelian subgroup         C1      NOp   1
 Largest concise Abelian subgroup C1      NOp   1
                         Standard orientation:                         
 ---------------------------------------------------------------------
 Center     Atomic      Atomic             Coordinates (Angstroms)
 Number     Number       Type             X           Y           Z
 ---------------------------------------------------------------------
      1          8           0        0.137310   -2.500227    0.001099
      2          8           0       -0.563787    2.820830   -0.001224
      3          8           0        2.772576   -2.185435   -0.000567
      4          6           0        1.161981   -0.366326   -0.000325
      5          6           0        0.968891    1.030763   -0.000258
      6          6           0       -1.365343   -0.697973   -0.000314
      7          6           0       -1.558052    0.689001   -0.000601
      8          6           0        0.001629   -1.283862   -0.000720
      9          6           0       -0.398218    1.618414   -0.001518
     10          6           0        2.479017   -0.877630    0.000138
     11          6           0        2.051520    1.895409    0.000541
     12          6           0       -2.463551   -1.555199    0.000411
     13          6           0       -2.846983    1.215654   -0.000260
     14          6           0        3.562553    0.002201    0.000890
     15          6           0        3.345327    1.372691    0.001139
     16          6           0       -3.749182   -1.026532    0.000746
     17          6           0       -3.940799    0.357533    0.000417
     18          1           0        1.877762    2.968600    0.000568
     19          1           0       -2.302918   -2.630955    0.000650
     20          1           0       -2.981669    2.294995   -0.000519
     21          1           0        4.569516   -0.408187    0.001140
     22          1           0        4.198265    2.048139    0.001740
     23          1           0       -4.606872   -1.696643    0.001301
     24          1           0       -4.948509    0.769060    0.000667
     25          1           0        1.932889   -2.671226   -0.001727
 ---------------------------------------------------------------------
 Rotational constants (GHZ):           0.9142726           0.4037172           0.2800535
 Standard basis: 6-311++G(d,p) (5D, 7F)
 There are   447 symmetry adapted cartesian basis functions of A   symmetry.
 There are   430 symmetry adapted basis functions of A   symmetry.
   430 basis functions,   684 primitive gaussians,   447 cartesian basis functions
    58 alpha electrons       58 beta electrons
       nuclear repulsion energy      1107.4433818364 Hartrees.
 NAtoms=   25 NActive=   25 NUniq=   25 SFac= 1.00D+00 NAtFMM=   60 NAOKFM=F Big=F
 Integral buffers will be    131072 words long.
 Raffenetti 2 integral format.
 Two-electron integral symmetry is turned on.
 R6APFD:  NTU= -4 IXU= 1 FactS= 1.050
 Nuclear repulsion after empirical dispersion term =     1107.4230429036 Hartrees.
 One-electron integrals computed using PRISM.
 NBasis=   430 RedAO= T EigKep=  1.42D-06  NBF=   430
 NBsUse=   423 1.00D-06 EigRej=  8.22D-07 NBFU=   423
 Initial guess from the checkpoint file:  "HTHE0127.chk"
 B after Tr=    -0.000000   -0.000000   -0.000000
         Rot=    0.999995    0.000060    0.000013   -0.003096 Ang=   0.35 deg.
 ExpMin= 3.60D-02 ExpMax= 8.59D+03 ExpMxC= 1.30D+03 IAcc=3 IRadAn=         5 AccDes= 0.00D+00
 Harris functional with IExCor= 1009 and IRadAn=       5 diagonalized for initial guess.
 HarFok:  IExCor= 1009 AccDes= 0.00D+00 IRadAn=         5 IDoV= 1 UseB2=F ITyADJ=14
 ICtDFT=  3500011 ScaDFX=  1.000000  1.000000  1.000000  1.000000
 FoFCou: FMM=F IPFlag=           0 FMFlag=      100000 FMFlg1=           0
         NFxFlg=           0 DoJE=T BraDBF=F KetDBF=T FulRan=T
         wScrn=  0.000000 ICntrl=       500 IOpCl=  0 I1Cent=   200000004 NGrid=           0
         NMat0=    1 NMatS0=      1 NMatT0=    0 NMatD0=    1 NMtDS0=    0 NMtDT0=    0
 Petite list used in FoFCou.
 Requested convergence on RMS density matrix=1.00D-08 within  32 cycles.
 Requested convergence on MAX density matrix=1.00D-06.
 Requested convergence on             energy=1.00D-06.
 No special actions if energy rises.
 SCF Done:  E(RM08HX) =  -763.986744492     A.U. after   14 cycles
            NFock= 14  Conv=0.67D-08     -V/T= 2.0043
 QCSCF skips out because SCF is already converged.
 R6APFD:  NTU= -4 IXU= 1 FactS= 1.050
 Calling FoFJK, ICntrl=      2127 FMM=F ISym2X=0 I1Cent= 0 IOpClX= 0 NMat=1 NMatS=1 NMatT=0.
 ***** Axes restored to original set *****
 -------------------------------------------------------------------
 Center     Atomic                   Forces (Hartrees/Bohr)
 Number     Number              X              Y              Z
 -------------------------------------------------------------------
      1        8           0.004288336   -0.001489568    0.000144618
      2        8           0.000763476    0.006189922    0.000092350
      3        8          -0.005733365   -0.004288449    0.000007247
      4        6          -0.003627242    0.002368681    0.000081561
      5        6           0.004920431    0.001156324    0.000088875
      6        6           0.000269863   -0.002097532    0.000075255
      7        6          -0.000193542    0.002387304    0.000097456
      8        6           0.002815026    0.000796351   -0.000281747
      9        6          -0.002227699   -0.010360443   -0.000255407
     10        6           0.000640405    0.005608587    0.000032964
     11        6          -0.000177532   -0.000658059    0.000001803
     12        6          -0.002952302    0.000087357   -0.000002167
     13        6          -0.002935275    0.001099835   -0.000007676
     14        6           0.001781288   -0.009732941   -0.000009872
     15        6           0.001695904    0.003844311   -0.000013512
     16        6           0.000218845   -0.000639217   -0.000006476
     17        6           0.000288026    0.000462653   -0.000002411
     18        1          -0.001321457    0.000249043    0.000001161
     19        1           0.001637640   -0.000043803   -0.000000573
     20        1           0.001641710   -0.000413239    0.000001762
     21        1          -0.000544332    0.001311608   -0.000001000
     22        1           0.000520980   -0.000198373    0.000001290
     23        1          -0.000264374   -0.000280746    0.000002145
     24        1          -0.000215284    0.000350162   -0.000001040
     25        1          -0.001289525    0.004290231   -0.000046606
 -------------------------------------------------------------------
 Cartesian Forces:  Max     0.010360443 RMS     0.002539355

 GradGradGradGradGradGradGradGradGradGradGradGradGradGradGradGradGradGrad
 Berny optimization.
 Using GEDIIS/GDIIS optimizer.
 FormGI is forming the generalized inverse of G from B-inverse, IUseBI=4.
 Internal  Forces:  Max     0.007017530 RMS     0.001787133
 Search for a local minimum.
 Step number   2 out of a maximum of  146
 All quantities printed in internal units (Hartrees-Bohrs-Radians)
 Mixed Optimization -- RFO/linear search
 Update second derivatives using D2CorX and points    1    2
 DE= -3.16D-03 DEPred=-3.23D-03 R= 9.79D-01
 TightC=F SS=  1.41D+00  RLast= 1.54D-01 DXNew= 5.0454D-01 4.6205D-01
 Trust test= 9.79D-01 RLast= 1.54D-01 DXMaxT set to 4.62D-01
 ITU=  1  0
 Use linear search instead of GDIIS.
     Eigenvalues ---    0.01068   0.01068   0.01069   0.01557   0.01638
     Eigenvalues ---    0.01767   0.01806   0.01884   0.01919   0.02115
     Eigenvalues ---    0.02116   0.02119   0.02120   0.02121   0.02128
     Eigenvalues ---    0.02157   0.02158   0.02161   0.02161   0.02166
     Eigenvalues ---    0.02167   0.02177   0.12780   0.16000   0.16000
     Eigenvalues ---    0.16000   0.16000   0.16000   0.16000   0.17068
     Eigenvalues ---    0.21967   0.22001   0.22576   0.23179   0.24160
     Eigenvalues ---    0.24508   0.24922   0.25000   0.25000   0.25000
     Eigenvalues ---    0.25000   0.28747   0.32088   0.33735   0.34663
     Eigenvalues ---    0.35174   0.35189   0.35193   0.35200   0.35230
     Eigenvalues ---    0.35252   0.35261   0.35777   0.40298   0.41834
     Eigenvalues ---    0.41884   0.42999   0.44705   0.45441   0.45998
     Eigenvalues ---    0.46054   0.46116   0.46370   0.46479   0.49292
     Eigenvalues ---    0.52856   0.57534   0.90551   0.93348
 RFO step:  Lambda=-1.50253933D-03 EMin= 1.06785162D-02
 Quartic linear search produced a step of -0.00128.
 Iteration  1 RMS(Cart)=  0.01753309 RMS(Int)=  0.00012795
 Iteration  2 RMS(Cart)=  0.00016007 RMS(Int)=  0.00001814
[...]
 58,-0.01313475,0.02849337,0.00000078,-0.05639374,-0.01005509,0.0000047
 1,0.00009088,0.00082639,-0.00000033,-0.00553094,-0.00761294,0.00000223
 ,0.00106597,0.00021589,0.00000027,0.00003924,-0.00036757,0.00000019,0.
 02882777,-0.03734054,-0.00000254,-0.27082972,0.14169935,0.00001335,-0.
 00023407,0.00052910,-0.00000007,-0.00047127,-0.00018369,-0.00000002,-0
 .13725515,-0.06314752,0.00000427,0.73804775,-0.00289935,-0.00115720,0.
 00000025,0.00013555,-0.00005079,0.00000051,-0.00031423,0.00030567,0.00
 000007,0.00102403,-0.00005564,0.00000036,0.00046751,0.00138792,0.00000
 047,0.02599089,-0.06482122,-0.00000323,0.04477697,0.06765998,-0.000001
 93,0.00483077,-0.00290496,-0.00000121,-0.00453903,0.00182326,-0.000000
 60,-0.00134741,-0.00026162,-0.00000019,-0.00156615,0.00017441,-0.00000
 021,-0.09188919,-0.01013496,0.00000674,0.06425254,-0.21046854,-0.00000
 472,0.00058554,-0.00101785,-0.00000006,0.00086230,0.00111678,0.0000000
 4,0.01607874,-0.32895264,-0.00000390,0.02537563,0.67119319,0.00000021,
 -0.00000030,0.00004490,-0.00000056,-0.00000072,-0.00058958,-0.00000007
 ,0.,-0.00011199,0.00000002,-0.00000002,0.00034379,0.00000035,0.0000000
 5,-0.00073560,0.00000024,-0.00000263,-0.00589217,0.00000655,0.00000156
 ,0.00627729,-0.00000011,0.00000015,-0.00093238,0.00000022,0.00000159,0
 .00736517,-0.00000002,-0.00000013,0.00060745,0.00000010,-0.00000001,-0
 .00061155,-0.00000247,0.00000253,0.00463752,0.00001223,-0.00001071,-0.
 06162610,0.00000002,0.00000002,-0.00058533,-0.00000004,-0.00000008,0.0
 0059031,0.00000516,0.00000144,-0.06115860,-0.00003719,0.00000256,0.136
 48687,-0.00067129,0.00074353,0.00000024,-0.00161889,-0.00175381,0.0000
 0022,0.00040519,0.00002158,0.00000008,-0.00464440,0.00245742,-0.000000
 62,0.00921141,0.02451299,0.00000016,-0.00007998,0.00007277,0.00000011,
 0.00039789,-0.00043954,0.00000009,0.00186260,0.00080666,-0.00000024,-0
 .00007527,0.00227327,-0.00000026,-0.00178247,0.00019620,-0.00000015,-0
 .06247075,-0.03928806,-0.00000064,0.00016456,-0.00014130,-0.00000003,0
 .00004308,-0.00012711,0.00000004,-0.00484191,-0.00154383,-0.00000012,0
 .00152586,-0.02789987,0.,-0.00004348,-0.00015021,-0.00000001,-0.000089
 25,0.00001849,-0.00000002,0.06211524,0.00029928,-0.00031674,-0.0000001
 4,-0.00217465,0.00150485,-0.00000036,-0.00000303,0.00044706,0.,0.00320
 085,0.00045895,0.00000035,-0.00260707,-0.01559617,0.00000041,0.0001359
 8,-0.00003250,-0.00000003,0.00014952,-0.00000035,0.00000008,-0.0007412
 8,-0.00038734,0.00000008,-0.00099803,-0.00259397,0.00000037,-0.0002061
 2,0.00017811,0.00000010,-0.03815655,-0.33736075,0.00000194,-0.00006651
 ,0.00004324,0.,-0.00004315,-0.00001925,-0.00000003,-0.00158768,0.00116
 077,-0.00000002,0.00156752,-0.00466248,0.00000027,0.00002837,0.0000496
 1,-0.00000001,0.00004821,-0.00000343,0.00000002,0.04114436,0.35689722,
 -0.00000009,0.00000009,-0.00063716,0.00000039,0.00000024,-0.00007809,0
 .,0.00000026,-0.00043439,0.00000034,0.00000043,0.00726832,0.00000046,-
 0.00000048,0.00273322,0.,0.00000003,-0.00006384,0.,0.00000014,0.000341
 33,-0.00000018,0.00000004,0.00136224,-0.00000024,0.00000019,-0.0046926
 0,-0.00000048,-0.00000034,-0.00109858,-0.00000078,0.00000339,-0.036676
 06,-0.00000004,0.,0.00000830,0.00000004,0.00000003,-0.00002462,-0.0000
 0063,0.00000029,0.00647607,-0.00000009,-0.00000142,0.00284333,0.,0.000
 00001,-0.00002881,-0.00000001,0.00000002,-0.00001756,0.00000102,-0.000
 00287,0.02626890,-0.00154622,-0.00193800,-0.00000053,-0.00074092,0.000
 69998,-0.00000027,0.00029866,-0.00012943,-0.00000018,0.00054155,-0.000
 63137,-0.00000004,-0.00014151,0.00029040,-0.00000016,0.00940273,0.0242
 2853,-0.00000001,-0.00465325,0.00279455,0.00000115,-0.00001154,0.00248
 803,0.00000005,0.00178346,0.00078192,0.00000021,-0.00007178,-0.0000130
 9,0.00000015,0.00024548,-0.00018755,-0.00000002,-0.06284606,-0.0380811
 2,0.00000101,-0.00140574,0.00028543,0.00000010,-0.00007713,0.00001968,
 -0.00000018,-0.00009190,-0.00017556,0.00000009,0.00188990,-0.02781907,
 -0.00000017,-0.00492194,-0.00186667,0.00000059,0.00004803,-0.00001347,
 0.,0.06207358,-0.00229202,0.00150890,0.00000037,0.00030676,-0.00045643
 ,0.00000016,-0.00011903,0.00007882,0.00000003,0.00007400,0.00007974,-0
 .00000016,0.00010359,-0.00006783,0.00000006,-0.00273525,-0.01510500,-0
 .00000044,0.00343844,0.00011592,-0.00000060,-0.00098076,-0.00260485,-0
 .00000005,-0.00093246,-0.00019584,-0.00000003,0.00004167,-0.00011541,-
 0.00000002,-0.00005729,0.00005695,-0.00000002,-0.03701676,-0.33559308,
 -0.00000135,-0.00007659,0.00075743,0.00000002,0.00003189,0.00001605,0.
 00000002,0.00002249,0.00003387,0.,0.00165541,-0.00480123,-0.00000042,-
 0.00166788,0.00093502,-0.00000002,-0.00001758,-0.00000426,0.,0.0402317
 3,0.35513308,-0.00000049,0.00000006,-0.00017955,0.00000005,-0.00000019
 ,-0.00043387,0.00000005,0.00000013,0.00006496,0.00000012,-0.00000016,0
 .00019944,0.00000002,0.00000005,0.00000547,-0.00000016,-0.00000128,0.0
 0347003,0.00000047,-0.00000051,0.00722504,0.,-0.00000030,-0.00390533,0
 .00000017,0.00000008,0.00074331,-0.00000009,-0.00000013,-0.00005866,0.
 00000006,-0.00000001,0.00003501,0.00000112,-0.00000227,-0.03985717,0.0
 0000025,0.00000013,-0.00140000,0.,-0.00000002,0.00003665,-0.00000002,-
 0.00000002,-0.00003776,-0.00000007,0.00000185,0.00438139,0.00000085,0.
 00000024,0.00779570,0.,0.,-0.00000045,-0.00000188,0.00000236,0.0271528
 8,-0.00096638,-0.00055687,-0.00000016,-0.00026761,0.00222677,-0.000000
 30,-0.00009890,0.00021347,-0.00000001,-0.00021269,0.00006193,-0.000000
 10,0.00048883,0.00019424,-0.00000010,-0.00572607,-0.00138303,0.0000012
 5,0.00310331,-0.02878782,-0.00000048,0.00163448,-0.00133362,0.00000010
 ,-0.00042581,-0.00271079,0.00000025,0.00024985,-0.00008153,0.00000005,
 0.00005103,0.00013409,-0.00000003,-0.00133936,0.00024032,0.00000005,-0
 .06087431,-0.02750381,0.00000153,-0.00001994,0.00016757,0.00000002,-0.
 00009553,0.00001347,0.00000002,-0.00378672,0.00298723,0.00000063,0.007
 40688,0.02489339,0.00000012,-0.00007787,0.00002343,0.,0.00007871,-0.00
 003401,-0.00000007,0.05984065,-0.00018175,-0.00023246,-0.00000005,0.00
 243427,0.00062139,-0.00000045,-0.00002956,-0.00003283,0.,-0.00008973,0
 .00002350,-0.00000002,-0.00021622,-0.00006930,0.00000010,-0.00197813,0
 .00115752,0.00000032,-0.00175622,-0.00892890,0.00000026,0.00043079,-0.
 00014857,-0.00000004,0.00060822,-0.00221844,0.00000034,0.00001293,0.00
 003680,0.00000002,-0.00002088,-0.00004110,-0.00000002,0.00053804,0.000
 71157,-0.00000007,-0.02848858,-0.33710451,-0.00000082,0.00000186,-0.00
 001514,-0.00000001,-0.00000020,0.00003677,0.00000001,0.00279145,-0.000
 13318,-0.00000013,-0.00455779,-0.01032098,0.00000021,0.00000279,0.0000
 2424,0.,-0.00000471,-0.00008726,0.,0.03050149,0.35668491,0.00000015,0.
 00000022,-0.00042395,-0.00000018,0.00000020,-0.00015700,0.,-0.00000002
 ,-0.00001700,0.00000002,0.00000001,0.00004432,0.00000003,0.00000012,0.
 00028100,0.00000072,0.00000045,0.00722797,-0.00000028,0.00000095,0.003
 72452,0.00000009,-0.00000009,0.00076000,0.00000002,0.00000026,-0.00423
 353,0.00000003,0.00000003,-0.00003042,-0.00000007,0.00000004,0.0000190
 3,0.00000031,-0.00000025,-0.00136121,0.00000197,-0.00000016,-0.0401694
 9,0.,-0.00000003,0.00001863,0.00000003,0.00000003,-0.00005260,0.000000
 66,-0.00000057,0.00774750,-0.00000064,-0.00000160,0.00438305,0.,0.,0.0
 0005070,-0.00000006,0.00000001,-0.00079798,-0.00000243,0.00000040,0.02
 737427,0.00040717,0.00051674,-0.00000001,0.00008727,0.00005299,0.00000
 004,0.00195085,-0.00083636,0.00000019,-0.00300446,0.00368420,-0.000000
 17,0.00068122,0.00140637,-0.00000005,-0.00029347,0.00040978,0.00000010
 ,0.00004830,0.00003314,-0.00000002,-0.00046940,-0.00169736,-0.00000023
 ,-0.00038802,-0.00007754,-0.00000007,-0.01834646,-0.01437750,0.0000003
 7,0.00214041,-0.00001407,0.00000013,-0.00006582,-0.00013485,0.,-0.0000
 0804,-0.00000783,0.,-0.29481791,-0.10308872,0.00000219,0.00203338,0.00
 096199,-0.00000007,-0.00003273,0.00001512,0.,-0.00001668,-0.00000215,0
 .,0.00002697,0.00017812,0.00000004,0.00001300,0.00000288,0.,-0.0000130
 9,-0.00000307,0.,0.30972297,-0.00028546,0.00003009,0.00000017,-0.00017
 893,0.00018070,-0.00000002,-0.00151700,0.00101963,-0.00000037,0.002666
 16,-0.00218508,0.00000039,0.00086173,-0.00112340,0.00000003,0.00021981
 ,-0.00033058,-0.00000007,-0.00006130,-0.00003622,0.00000001,0.00103619
 ,0.00071832,-0.00000005,-0.00002827,-0.00019423,0.00000002,0.01862985,
 0.01143525,-0.00000008,0.00023444,-0.00554736,0.00000028,0.00004700,0.
 00009443,0.,-0.00003841,0.00002884,0.00000002,-0.10558901,-0.10388973,
 0.00000169,-0.02856703,-0.00591645,0.00000010,0.00003676,-0.00000042,0
 .00000001,0.00001173,-0.00002160,-0.00000002,-0.00125480,-0.00024216,-
 0.00000015,-0.00000174,0.00000006,0.,0.00001279,0.00000085,0.,0.113262
 75,0.10544546,-0.00000003,-0.00000018,-0.00000093,0.00000003,0.0000000
 5,0.00004369,-0.00000005,-0.00000051,-0.00320794,-0.00000096,-0.000000
 53,0.00531292,-0.00000005,0.00000083,-0.00118860,-0.00000004,0.0000000
 6,-0.00014884,0.00000003,0.,0.00023635,-0.00000019,0.00000025,-0.00018
 508,-0.00000018,-0.00000005,-0.00073388,0.00000130,-0.00000118,0.00511
 880,0.00000042,0.00000016,0.00824082,-0.00000001,-0.00000001,0.0000056
 7,0.00000001,0.,-0.00007103,0.00000196,0.00000370,-0.03594842,0.000000
 14,-0.00000073,0.00273812,0.,0.,-0.00005150,0.,0.,0.00002151,0.0000000
 6,0.,0.00006412,0.,0.,0.00000488,0.,0.,0.00000797,-0.00000248,-0.00000
 178,0.02478936,0.00001520,-0.00001820,0.00000007,-0.00003588,-0.000527
 37,0.00000019,0.00023316,0.00021653,0.00000003,0.00060199,-0.00113012,
 0.00000004,-0.00456513,-0.00342734,-0.00000039,0.00007623,-0.00006007,
 -0.00000004,-0.00045223,-0.00037255,0.00000004,-0.00033845,0.00017815,
 -0.00000004,-0.00013394,0.00190879,-0.00000027,0.00112164,-0.00213238,
 -0.00000008,-0.01639970,0.01920406,-0.00000050,-0.00004116,0.00002347,
 0.00000002,-0.00007639,0.00017759,0.00000004,0.00683816,-0.00446739,-0
 .00000002,-0.23767046,0.13357336,-0.00000505,-0.00000050,0.00003293,0.
 ,-0.00002590,-0.00003302,0.,0.00070965,-0.00030688,0.00000011,-0.00001
 408,0.00000714,0.,0.00001970,-0.00000704,0.,0.00054847,0.00027057,0.00
 000003,0.24952071,0.00014060,-0.00002120,-0.00000003,0.00017826,-0.000
 03204,0.00000004,0.00167270,-0.00106939,0.00000029,-0.00069160,-0.0008
 5603,-0.00000002,-0.00317276,0.00020946,-0.00000016,0.00004667,-0.0000
 3163,-0.00000002,-0.00021072,-0.00013999,0.00000005,-0.00019552,0.0001
 0061,-0.00000002,-0.00056194,0.00066764,-0.00000017,-0.00211346,-0.004
 56781,0.00000033,-0.01105155,0.01148356,-0.00000029,0.00004006,0.00001
 775,0.,0.00000608,0.00005295,0.00000003,0.02623642,-0.01277837,0.00000
 035,0.13300296,-0.15865678,0.00000364,-0.00001683,-0.00001597,0.000000
 01,-0.00002324,0.00001793,-0.00000002,0.00044690,0.00045305,0.00000008
 ,-0.00001215,0.00000276,0.,-0.00000150,-0.00000101,0.,-0.00038977,0.00
 060976,-0.00000015,-0.14300220,0.16485751,-0.00000012,0.00000002,0.000
 07006,0.00000007,0.00000013,0.00011580,0.00000008,-0.00000046,-0.00026
 070,-0.00000002,0.00000002,-0.00137225,-0.00000021,0.00000019,0.006688
 66,0.00000004,-0.00000003,0.00043239,-0.00000002,-0.00000002,-0.000189
 00,0.00000005,0.00000010,-0.00101851,-0.00000006,-0.00000023,0.0000200
 3,-0.00000032,0.00000048,0.00916413,-0.00000056,0.00000036,0.00457930,
 0.00000003,-0.00000001,-0.00001731,0.,0.,-0.00015324,0.00000021,0.0000
 0003,0.00478679,-0.00000495,0.00000371,-0.04160931,-0.00000003,-0.0000
 0001,-0.00002851,0.,0.00000002,0.00000941,0.00000002,-0.00000011,-0.00
 357256,0.,0.,0.00000070,0.,0.,0.00000136,-0.00000005,-0.00000013,-0.00
 451771,0.00000582,-0.00000389,0.02716706,-0.00002141,-0.00047588,-0.00
 000014,0.00006913,0.00007173,-0.00000006,-0.00006199,-0.00010909,0.,-0
 .00052649,-0.00030070,-0.00000006,0.00007812,-0.00014934,0.00000001,-0
 .00414590,-0.00334280,0.00000079,0.00016286,-0.00119828,-0.00000006,-0
 .00016543,0.00179345,0.00000024,-0.00019215,0.00001632,0.00000004,-0.0
 0001133,0.00029204,0.00000002,-0.00009060,0.00003374,-0.00000002,-0.01
 704955,0.01909209,0.00000132,0.00143248,-0.00142365,0.00000033,-0.0000
 2229,-0.00006602,-0.00000001,0.00003254,0.00006068,0.00000001,-0.23798
 910,0.13368167,0.00001331,0.00678187,-0.00462639,-0.00000024,-0.000011
 79,0.00000597,0.,0.00066323,-0.00030903,-0.00000026,0.00019376,-0.0002
 8321,-0.00000003,-0.00001910,0.00001088,0.,-0.00000163,0.00000427,0.,0
 .25027401,0.00018439,-0.00005512,-0.00000005,0.00023304,0.00014513,-0.
 00000003,0.00001881,0.00000285,-0.00000002,-0.00020409,-0.00016246,-0.
 00000002,0.00006717,-0.00004615,0.00000001,-0.00307373,-0.00000264,0.0
 0000024,-0.00132988,-0.00069981,0.00000002,-0.00062161,0.00071093,0.00
 000014,-0.00002521,-0.00022127,0.00000007,0.00000052,0.00005481,0.0000
 0002,0.00005017,0.00001949,-0.00000001,-0.01174727,0.01133853,0.000000
 67,-0.00163603,-0.00567506,-0.00000004,-0.00003089,0.00002074,0.,-0.00
 002432,-0.00002444,0.,0.13374067,-0.15855044,-0.00000918,0.02638291,-0
 .01201227,-0.00000170,-0.00001167,0.00000330,0.,0.00041332,0.00052230,
 0.,0.00121094,-0.00051754,-0.00000010,-0.00000582,0.00000526,0.,0.0000
 0386,-0.00000063,0.,-0.14319063,0.16459283,-0.00000011,-0.00000007,0.0
 0011041,0.,0.00000010,0.00019576,0.,0.,-0.00002980,0.00000004,0.000000
 01,-0.00023196,0.,0.,0.00022655,0.00000080,-0.00000030,0.00789078,-0.0
 0000018,0.00000004,-0.00105016,0.00000009,0.00000007,0.00012477,-0.000
 00003,-0.00000008,-0.00132003,0.,0.00000001,-0.00008419,-0.00000003,0.
 00000002,0.00000980,0.00000080,-0.00000115,0.00416128,0.00000058,0.,0.
 00754387,0.,-0.00000002,0.00000931,0.00000003,0.00000002,-0.00002691,0
 .00001335,-0.00000909,-0.04021091,0.00000004,0.00000034,0.00394647,0.,
 0.,0.00000718,-0.00000019,0.00000016,-0.00420443,-0.00000003,0.0000000
 3,-0.00019764,0.,0.,0.00002545,0.,0.,0.00000063,-0.00001493,0.00000990
 ,0.02684561,0.00000227,-0.00004028,-0.00000003,0.00004009,0.00047418,-
 0.00000015,-0.00001305,-0.00009577,0.00000001,0.00005403,0.00002899,0.
 ,-0.00029658,0.00040047,0.00000002,0.00070698,0.00092260,-0.00000006,-
 0.00262856,0.00393665,0.00000079,-0.00021746,-0.00003374,-0.00000001,-
 0.00035767,-0.00162047,0.00000016,-0.00004117,0.00009004,-0.00000003,-
 0.00011864,-0.00014080,-0.00000004,0.00174265,-0.00034712,0.00000033,-
 0.01714791,-0.01232549,0.00000117,0.00000149,-0.00005048,0.,0.00000018
 ,0.00005223,0.,0.00091189,0.00149704,0.00000022,-0.29470308,-0.1009745
 1,0.00001499,0.00001972,0.00000166,0.,-0.00005073,0.00017315,-0.000000
 01,0.00064653,0.00026071,-0.00000029,-0.00000091,-0.00000223,0.,-0.000
 02288,-0.00000429,0.,0.00053833,-0.00038660,-0.00000025,0.31093646,-0.
 00021821,0.00021005,0.00000007,-0.00018958,-0.00014735,0.00000010,-0.0
 0002805,0.00003704,0.,-0.00009497,-0.00000645,0.00000002,0.00025191,-0
 .00031460,0.,0.00100800,-0.00123024,-0.00000008,0.00370580,-0.00169924
 ,-0.00000040,0.00001816,-0.00025436,-0.00000009,0.00082758,0.00097690,
 -0.00000022,-0.00002314,-0.00000387,0.00000004,0.00003503,0.00009732,0
 .00000003,-0.00019845,-0.00599521,-0.00000007,0.01853743,0.01155068,-0
 .00000103,0.00000872,-0.00001308,0.,0.00003792,-0.00000128,-0.00000002
 ,-0.02944491,-0.00601895,0.00000175,-0.10105707,-0.10240292,0.00000615
 ,-0.00000446,-0.00000273,0.,-0.00132946,-0.00027985,0.00000011,-0.0004
 4515,0.00054830,0.00000010,-0.00000185,0.00000083,0.,0.00001174,0.0000
 0502,0.,0.00036951,0.00054285,0.,0.10816336,0.10440224,0.,-0.00000004,
 0.00017649,-0.00000005,0.00000014,0.00011393,0.00000002,0.,-0.00001774
 ,0.00000003,-0.00000002,0.00021752,0.00000001,-0.00000002,-0.00019672,
 -0.00000004,0.,-0.00096956,0.00000074,0.00000006,0.00785574,-0.0000001
 2,0.00000003,-0.00135927,0.00000005,-0.00000017,0.00011417,-0.00000005
 ,-0.00000002,0.00004387,0.,-0.00000001,-0.00014425,0.00000040,-0.00000
 018,0.00756257,0.00000117,0.00000083,0.00429155,0.00000002,-0.00000002
 ,-0.00003271,0.,0.00000001,-0.00000168,-0.00000016,-0.00000025,0.00404
 427,0.00001532,0.00000607,-0.04019283,0.,0.,0.00000680,-0.00000002,-0.
 00000001,-0.00021081,-0.00000023,-0.00000006,-0.00419383,0.,0.,0.00000
 317,0.,0.,0.00003696,-0.00000024,0.00000007,-0.00377066,-0.00001685,-0
 .00000641,0.02660435,0.00459378,0.02246884,-0.00000548,-0.00129403,0.0
 0013194,0.00000011,-0.37468896,0.18129004,-0.00009446,-0.00944397,0.00
 341889,0.00000140,-0.00063460,-0.00477314,-0.00000121,0.00130053,0.003
 73493,0.00000221,-0.00013793,-0.00062723,0.00000036,0.00394426,-0.0320
 4965,-0.00000455,0.00299156,-0.00103791,-0.00000025,0.01505205,0.01951
 073,-0.00000106,-0.00626329,-0.00027025,-0.00000015,0.00026041,0.00030
 099,0.00000007,0.00098577,0.00040834,-0.00000015,0.00402785,-0.0119229
 8,0.00000015,0.00418100,0.00535943,-0.00000021,-0.00051318,-0.00000259
 ,0.00000007,-0.00011432,0.00076574,-0.00000007,-0.00012284,0.00012114,
 0.00000014,-0.00046552,0.00014949,-0.00000009,0.00019057,0.00003453,-0
 .00000004,-0.00018393,0.00022352,0.00000004,0.00009344,-0.00032739,0.0
 0000001,0.00008243,-0.00001806,0.00000002,-0.00000200,0.00006014,0.,0.
 35616092,0.00550694,-0.00872775,-0.00000153,0.00063081,0.00045068,-0.0
 0000014,0.14962361,-0.13910328,0.00004751,0.00152468,0.00076979,-0.000
 00063,0.00131819,-0.00011685,-0.00000034,0.00034225,-0.00098489,-0.000
 00095,0.00007015,-0.00004991,0.00000020,-0.00926780,0.00063167,0.00000
 279,-0.00129493,0.00005071,0.00000004,0.04048239,-0.03813236,0.0000117
 4,0.00035102,0.00064271,0.00000021,0.00025595,0.00020360,0.00000039,-0
 .00001423,-0.00013824,-0.00000011,-0.00401688,-0.00392447,0.00000135,0
 .00140248,-0.00092207,-0.00000005,0.00006658,-0.00001947,-0.00000016,0
 .00005365,-0.00002754,0.00000009,-0.00006472,0.00000170,0.,-0.00003018
 ,0.00007016,-0.00000014,-0.00004298,0.00000535,0.,0.00011280,-0.000082
 23,0.00000007,-0.00012364,-0.00030713,-0.00000015,0.00004267,0.0000088
 2,0.,0.00002070,-0.00000109,-0.00000001,-0.18694951,0.18970209,-0.0000
 0398,-0.00000343,-0.00695183,0.00000011,-0.00000027,0.00004035,-0.0000
 9394,0.00006388,-0.01383711,0.00000308,-0.00000192,-0.00004999,-0.0000
 0071,0.00000118,-0.00099804,-0.00000039,-0.00000246,0.00154233,-0.0000
 0032,-0.00000016,0.00011738,-0.00000174,0.00000745,0.00030199,-0.00000
 022,0.00000029,-0.00001635,-0.00000563,-0.00000359,-0.00212822,0.00000
 160,0.00000012,0.00009396,0.00000005,0.00000007,0.00000895,-0.00000016
 ,-0.00000024,-0.00008596,-0.00000074,0.00000131,0.00310633,-0.00000055
 ,-0.00000171,0.00180261,0.,-0.00000006,-0.00002472,-0.00000005,-0.0000
 0005,-0.00005575,0.00000003,-0.00000005,-0.00010581,0.00000040,-0.0000
 0007,-0.00002943,-0.00000008,-0.00000002,-0.00000567,0.00000010,-0.000
 00005,-0.00055894,0.00000001,-0.00000004,-0.00033422,-0.00000002,0.000
 00002,0.00002882,0.,-0.00000002,0.00001867,0.00010314,-0.00006017,0.01
 812062\\0.00000628,0.00003075,0.00002663,-0.00001554,-0.00015654,0.000
 02433,0.00000283,0.00016658,0.00000262,-0.00001975,-0.00018501,0.00001
 361,-0.00011592,0.00019394,0.00001844,0.00007896,-0.00002157,0.0000137
 0,0.00008510,0.00002028,0.00001949,0.00002186,-0.00008463,-0.00004732,
 -0.00000801,0.00022590,-0.00006032,-0.00005898,-0.00018413,0.00000935,
 0.00001631,-0.00000434,-0.00000186,0.00005113,0.00003769,-0.00000159,0
 .00006214,-0.00004107,0.00000006,-0.00005360,0.00012945,-0.00000132,0.
 00006733,-0.00013621,-0.00000144,-0.00006757,-0.00002496,-0.00000002,-
 0.00005791,0.00003701,-0.00000134,0.00003486,-0.00001139,0.00000018,-0
 .00005577,0.00000311,-0.00000028,-0.00006447,-0.00000425,-0.00000024,0
 .00002424,-0.00002857,-0.00000023,-0.00002127,0.00002120,0.,0.00001976
 ,-0.00001391,0.00000015,0.00002543,0.00000735,0.00000011,0.00004255,0.
 00002330,-0.00001270\\\@


 IF AT FIRST YOU DON'T SUCCEED, TRY, TRY AGAIN.
 THEN GIVE UP;
 THERE'S NO USE BEING A DAMN FOOL ABOUT IT.

                                 -- W. C. FIELDS
 Job cpu time:       0 days  7 hours 25 minutes  4.4 seconds.
 Elapsed time:       0 days  0 hours 27 minutes 56.7 seconds.
 File lengths (MBytes):  RWF=    419 Int=      0 D2E=      0 Chk=     16 Scr=      1
 Normal termination of Gaussian 16 at Sat Sep 20 10:24:31 2025.
