 Entering Gaussian System, Link 0=g16
 Input=HXAE0128.gjf
 Output=HXAE0128.log
 Initial command:
 /usr/local/g16/l1.exe "/dados_01/scratch/Gau-2122440.inp" -scrdir="/dados_01/scratch/"
 Entering Link 1 = /usr/local/g16/l1.exe PID=   2122441.
  
 Copyright (c) 1988-2017, Gaussian, Inc.  All Rights Reserved.
  
 This is part of the Gaussian(R) 16 program.  It is based on
 the Gaussian(R) 09 system (copyright 2009, Gaussian, Inc.),
 the Gaussian(R) 03 system (copyright 2003, Gaussian, Inc.),
 the Gaussian(R) 98 system (copyright 1998, Gaussian, Inc.),
 the Gaussian(R) 94 system (copyright 1995, Gaussian, Inc.),
 the Gaussian 92(TM) system (copyright 1992, Gaussian, Inc.),
 the Gaussian 90(TM) system (copyright 1990, Gaussian, Inc.),
 the Gaussian 88(TM) system (copyright 1988, Gaussian, Inc.),
 the Gaussian 86(TM) system (copyright 1986, Carnegie Mellon
 University), and the Gaussian 82(TM) system (copyright 1983,
 Carnegie Mellon University). Gaussian is a federally registered
 trademark of Gaussian, Inc.
  
 This software contains proprietary and confidential information,
 including trade secrets, belonging to Gaussian, Inc.
  
 This software is provided under written license and may be
 used, copied, transmitted, or stored only in accord with that
 written license.
  
 The following legend is applicable only to US Government
 contracts under FAR:
  
                    RESTRICTED RIGHTS LEGEND
  
 Use, reproduction and disclosure by the US Government is
 subject to restrictions as set forth in subparagraphs (a)
 and (c) of the Commercial Computer Software - Restricted
 Rights clause in FAR 52.227-19.
  
 Gaussian, Inc.
 340 Quinnipiac St., Bldg. 40, Wallingford CT 06492
  
  
 ---------------------------------------------------------------
 Warning -- This program may not be used in any manner that
 competes with the business of Gaussian, Inc. or will provide
 assistance to any competitor of Gaussian, Inc.  The licensee
 of this program is prohibited from giving any competitor of
 Gaussian, Inc. access to this program.  By using this program,
 the user acknowledges that Gaussian, Inc. is engaged in the
 business of creating and licensing software in the field of
 computational chemistry and represents and warrants to the
 licensee that it is not a competitor of Gaussian, Inc. and that
 it will not use this program in any manner prohibited above.
 ---------------------------------------------------------------
  

 Cite this work as:
 Gaussian 16, Revision B.01,
 M. J. Frisch, G. W. Trucks, H. B. Schlegel, G. E. Scuseria, 
 M. A. Robb, J. R. Cheeseman, G. Scalmani, V. Barone, 
 G. A. Petersson, H. Nakatsuji, X. Li, M. Caricato, A. V. Marenich, 
 J. Bloino, B. G. Janesko, R. Gomperts, B. Mennucci, H. P. Hratchian, 
 J. V. Ortiz, A. F. Izmaylov, J. L. Sonnenberg, D. Williams-Young, 
 F. Ding, F. Lipparini, F. Egidi, J. Goings, B. Peng, A. Petrone, 
 T. Henderson, D. Ranasinghe, V. G. Zakrzewski, J. Gao, N. Rega, 
 G. Zheng, W. Liang, M. Hada, M. Ehara, K. Toyota, R. Fukuda, 
 J. Hasegawa, M. Ishida, T. Nakajima, Y. Honda, O. Kitao, H. Nakai, 
 T. Vreven, K. Throssell, J. A. Montgomery, Jr., J. E. Peralta, 
 F. Ogliaro, M. J. Bearpark, J. J. Heyd, E. N. Brothers, K. N. Kudin, 
 V. N. Staroverov, T. A. Keith, R. Kobayashi, J. Normand, 
 K. Raghavachari, A. P. Rendell, J. C. Burant, S. S. Iyengar, 
 J. Tomasi, M. Cossi, J. M. Millam, M. Klene, C. Adamo, R. Cammi, 
 J. W. Ochterski, R. L. Martin, K. Morokuma, O. Farkas, 
 J. B. Foresman, and D. J. Fox, Gaussian, Inc., Wallingford CT, 2016.
 
 ******************************************
 Gaussian 16:  ES64L-G16RevB.01 20-Dec-2017
                20-Sep-2025 
 ******************************************
 %nprocs=16
 Will use up to   16 processors via shared memory.
 %mem=40GB
 %chk=HXAE0128.chk
 ----------------------------------------------------------------------
 # opt freq=noraman M08HX/6-311++G** scf=xqc Empiricaldispersion=pfd In
 t(Grid=ultraFine)
 ----------------------------------------------------------------------
 1/18=20,19=15,26=4,38=1/1,3;
 2/9=110,12=2,17=6,18=5,40=1/2;
 3/5=4,6=6,7=1111,11=2,25=1,30=1,71=1,74=-74,75=-5,124=11/1,2,3;
 4//1;
 5/5=2,8=3,13=1,38=5/2,8;
 6/7=2,8=2,9=2,10=2,28=1/1;
 7//1,2,3,16;
 1/18=20,19=15,26=4/3(2);
 2/9=110/2;
 99//99;
 2/9=110/2;
 3/5=4,6=6,7=1111,11=2,25=1,30=1,71=1,74=-74,75=-5,124=11/1,2,3;
 4/5=5,16=3,69=1/1;
 5/5=2,8=3,13=1,38=5/2,8;
 7//1,2,3,16;
 1/18=20,19=15,26=4/3(-5);
 2/9=110/2;
 6/7=2,8=2,9=2,10=2,19=2,28=1/1;
 99/9=1/99;
 --------
 HXAE0128
 --------
 Symbolic Z-matrix:
 Charge =  0 Multiplicity = 1
 C                     0.6558    0.3935    0.0001 
 C                    -0.6558   -0.3932    0.0227 
 C                     1.8649   -0.5413   -0.0114 
 C                    -1.865     0.5414    0.0001 
 C                     3.1709    0.2369   -0.0001 
 C                    -3.1709   -0.2372   -0.0115 
 H                     0.684     1.0388   -0.8865 
 H                     0.7045    1.0489    0.8783 
 H                    -0.693    -1.0225    0.9203 
 H                    -0.6952   -1.0642   -0.8441 
 H                     1.8337   -1.2015    0.8633 
 H                     1.8334   -1.1803   -0.9015 
 H                    -1.8442    1.1983    0.8775 
 H                    -1.8234    1.1837   -0.8874 
 H                     3.2485    0.8856   -0.8784 
 H                     4.0222   -0.451    -0.0096 
 H                     3.2483    0.8607    0.8961 
 H                    -3.2373   -0.8791   -0.8958 
 H                    -3.2592   -0.8681    0.8788 
 H                    -4.0221    0.4505   -0.0263 
 

 GradGradGradGradGradGradGradGradGradGradGradGradGradGradGradGradGradGrad
 Berny optimization.
 Initialization pass.
                           ----------------------------
                           !    Initial Parameters    !
                           ! (Angstroms and Degrees)  !
 --------------------------                            --------------------------
 ! Name  Definition              Value          Derivative Info.                !
 --------------------------------------------------------------------------------
 ! R1    R(1,2)                  1.5296         estimate D2E/DX2                !
 ! R2    R(1,3)                  1.5284         estimate D2E/DX2                !
 ! R3    R(1,7)                  1.0969         estimate D2E/DX2                !
 ! R4    R(1,8)                  1.0969         estimate D2E/DX2                !
 ! R5    R(2,4)                  1.5284         estimate D2E/DX2                !
 ! R6    R(2,9)                  1.0969         estimate D2E/DX2                !
 ! R7    R(2,10)                 1.0969         estimate D2E/DX2                !
 ! R8    R(3,5)                  1.5203         estimate D2E/DX2                !
 ! R9    R(3,11)                 1.0963         estimate D2E/DX2                !
 ! R10   R(3,12)                 1.0962         estimate D2E/DX2                !
 ! R11   R(4,6)                  1.5204         estimate D2E/DX2                !
 ! R12   R(4,13)                 1.0963         estimate D2E/DX2                !
 ! R13   R(4,14)                 1.0963         estimate D2E/DX2                !
 ! R14   R(5,15)                 1.0946         estimate D2E/DX2                !
 ! R15   R(5,16)                 1.0945         estimate D2E/DX2                !
 ! R16   R(5,17)                 1.0947         estimate D2E/DX2                !
 ! R17   R(6,18)                 1.0947         estimate D2E/DX2                !
 ! R18   R(6,19)                 1.0947         estimate D2E/DX2                !
 ! R19   R(6,20)                 1.0944         estimate D2E/DX2                !
 ! A1    A(2,1,3)              111.3394         estimate D2E/DX2                !
 ! A2    A(2,1,7)              109.6665         estimate D2E/DX2                !
 ! A3    A(2,1,8)              109.4844         estimate D2E/DX2                !
 ! A4    A(3,1,7)              109.4746         estimate D2E/DX2                !
 ! A5    A(3,1,8)              109.6551         estimate D2E/DX2                !
 ! A6    A(7,1,8)              107.1257         estimate D2E/DX2                !
 ! A7    A(1,2,4)              111.3256         estimate D2E/DX2                !
 ! A8    A(1,2,9)              109.6486         estimate D2E/DX2                !
 ! A9    A(1,2,10)             109.4966         estimate D2E/DX2                !
 ! A10   A(4,2,9)              109.6388         estimate D2E/DX2                !
 ! A11   A(4,2,10)             109.5091         estimate D2E/DX2                !
 ! A12   A(9,2,10)             107.1274         estimate D2E/DX2                !
 ! A13   A(1,3,5)              111.4971         estimate D2E/DX2                !
 ! A14   A(1,3,11)             109.8649         estimate D2E/DX2                !
 ! A15   A(1,3,12)             109.872          estimate D2E/DX2                !
 ! A16   A(5,3,11)             109.0722         estimate D2E/DX2                !
 ! A17   A(5,3,12)             109.2146         estimate D2E/DX2                !
 ! A18   A(11,3,12)            107.2174         estimate D2E/DX2                !
 ! A19   A(2,4,6)              111.499          estimate D2E/DX2                !
 ! A20   A(2,4,13)             109.8501         estimate D2E/DX2                !
 ! A21   A(2,4,14)             109.8884         estimate D2E/DX2                !
 ! A22   A(6,4,13)             109.2237         estimate D2E/DX2                !
 ! A23   A(6,4,14)             109.0522         estimate D2E/DX2                !
 ! A24   A(13,4,14)            107.225          estimate D2E/DX2                !
 ! A25   A(3,5,15)             110.9942         estimate D2E/DX2                !
 ! A26   A(3,5,16)             110.2652         estimate D2E/DX2                !
 ! A27   A(3,5,17)             111.009          estimate D2E/DX2                !
 ! A28   A(15,5,16)            108.0802         estimate D2E/DX2                !
 ! A29   A(15,5,17)            108.3111         estimate D2E/DX2                !
 ! A30   A(16,5,17)            108.0748         estimate D2E/DX2                !
 ! A31   A(4,6,18)             111.0097         estimate D2E/DX2                !
 ! A32   A(4,6,19)             110.989          estimate D2E/DX2                !
 ! A33   A(4,6,20)             110.2643         estimate D2E/DX2                !
 ! A34   A(18,6,19)            108.3076         estimate D2E/DX2                !
 ! A35   A(18,6,20)            108.0808         estimate D2E/DX2                !
 ! A36   A(19,6,20)            108.0834         estimate D2E/DX2                !
 ! D1    D(3,1,2,4)           -178.6277         estimate D2E/DX2                !
 ! D2    D(3,1,2,9)             59.8731         estimate D2E/DX2                !
 ! D3    D(3,1,2,10)           -57.3939         estimate D2E/DX2                !
 ! D4    D(7,1,2,4)            -57.3138         estimate D2E/DX2                !
 ! D5    D(7,1,2,9)           -178.8131         estimate D2E/DX2                !
 ! D6    D(7,1,2,10)            63.9199         estimate D2E/DX2                !
 ! D7    D(8,1,2,4)             59.9543         estimate D2E/DX2                !
 ! D8    D(8,1,2,9)            -61.5449         estimate D2E/DX2                !
 ! D9    D(8,1,2,10)          -178.8119         estimate D2E/DX2                !
 ! D10   D(2,1,3,5)           -178.632          estimate D2E/DX2                !
 ! D11   D(2,1,3,11)           -57.5872         estimate D2E/DX2                !
 ! D12   D(2,1,3,12)            60.1387         estimate D2E/DX2                !
 ! D13   D(7,1,3,5)             59.9423         estimate D2E/DX2                !
 ! D14   D(7,1,3,11)          -179.0129         estimate D2E/DX2                !
 ! D15   D(7,1,3,12)           -61.287          estimate D2E/DX2                !
 ! D16   D(8,1,3,5)            -57.3136         estimate D2E/DX2                !
 ! D17   D(8,1,3,11)            63.7312         estimate D2E/DX2                !
 ! D18   D(8,1,3,12)          -178.5429         estimate D2E/DX2                !
 ! D19   D(1,2,4,6)            178.6241         estimate D2E/DX2                !
 ! D20   D(1,2,4,13)           -60.1488         estimate D2E/DX2                !
 ! D21   D(1,2,4,14)            57.5873         estimate D2E/DX2                !
 ! D22   D(9,2,4,6)            -59.8709         estimate D2E/DX2                !
 ! D23   D(9,2,4,13)            61.3562         estimate D2E/DX2                !
 ! D24   D(9,2,4,14)           179.0923         estimate D2E/DX2                !
 ! D25   D(10,2,4,6)            57.3977         estimate D2E/DX2                !
 ! D26   D(10,2,4,13)          178.6248         estimate D2E/DX2                !
 ! D27   D(10,2,4,14)          -63.6391         estimate D2E/DX2                !
 ! D28   D(1,3,5,15)           -60.2056         estimate D2E/DX2                !
 ! D29   D(1,3,5,16)          -179.9437         estimate D2E/DX2                !
 ! D30   D(1,3,5,17)            60.3154         estimate D2E/DX2                !
 ! D31   D(11,3,5,15)          178.2883         estimate D2E/DX2                !
 ! D32   D(11,3,5,16)           58.5502         estimate D2E/DX2                !
 ! D33   D(11,3,5,17)          -61.1907         estimate D2E/DX2                !
 ! D34   D(12,3,5,15)           61.4057         estimate D2E/DX2                !
 ! D35   D(12,3,5,16)          -58.3324         estimate D2E/DX2                !
 ! D36   D(12,3,5,17)         -178.0733         estimate D2E/DX2                !
 ! D37   D(2,4,6,18)           -60.3256         estimate D2E/DX2                !
 ! D38   D(2,4,6,19)            60.188          estimate D2E/DX2                !
 ! D39   D(2,4,6,20)           179.9262         estimate D2E/DX2                !
 ! D40   D(13,4,6,18)          178.0833         estimate D2E/DX2                !
 ! D41   D(13,4,6,19)          -61.4031         estimate D2E/DX2                !
 ! D42   D(13,4,6,20)           58.3351         estimate D2E/DX2                !
 ! D43   D(14,4,6,18)           61.1978         estimate D2E/DX2                !
 ! D44   D(14,4,6,19)         -178.2887         estimate D2E/DX2                !
 ! D45   D(14,4,6,20)          -58.5504         estimate D2E/DX2                !
 --------------------------------------------------------------------------------
 Trust Radius=3.00D-01 FncErr=1.00D-07 GrdErr=1.00D-06 EigMax=2.50D+02 EigMin=1.00D-04
 Number of steps in this run=    110 maximum allowed number of steps=    120.
 GradGradGradGradGradGradGradGradGradGradGradGradGradGradGradGradGradGrad

                          Input orientation:                          
 ---------------------------------------------------------------------
 Center     Atomic      Atomic             Coordinates (Angstroms)
 Number     Number       Type             X           Y           Z
 ---------------------------------------------------------------------
      1          6           0        0.655800    0.393500    0.000100
      2          6           0       -0.655800   -0.393200    0.022700
      3          6           0        1.864900   -0.541300   -0.011400
      4          6           0       -1.865000    0.541400    0.000100
      5          6           0        3.170900    0.236900   -0.000100
      6          6           0       -3.170900   -0.237200   -0.011500
      7          1           0        0.684000    1.038800   -0.886500
      8          1           0        0.704500    1.048900    0.878300
      9          1           0       -0.693000   -1.022500    0.920300
     10          1           0       -0.695200   -1.064200   -0.844100
     11          1           0        1.833700   -1.201500    0.863300
     12          1           0        1.833400   -1.180300   -0.901500
     13          1           0       -1.844200    1.198300    0.877500
     14          1           0       -1.823400    1.183700   -0.887400
     15          1           0        3.248500    0.885600   -0.878400
     16          1           0        4.022200   -0.451000   -0.009600
     17          1           0        3.248300    0.860700    0.896100
     18          1           0       -3.237300   -0.879100   -0.895800
     19          1           0       -3.259200   -0.868100    0.878800
     20          1           0       -4.022100    0.450500   -0.026300
 ---------------------------------------------------------------------
                    Distance matrix (angstroms):
                    1          2          3          4          5
     1  C    0.000000
     2  C    1.529609   0.000000
     3  C    1.528367   2.525277   0.000000
     4  C    2.525135   1.528448   3.883880   0.000000
     5  C    2.519971   3.878296   1.520315   5.045098   0.000000
     6  C    3.878344   2.520165   5.044974   1.520437   6.359507
     7  H    1.096935   2.161558   2.158018   2.744243   2.759243
     8  H    1.096885   2.159194   2.160285   2.762449   2.741178
     9  H    2.161269   1.096854   2.764502   2.160124   4.166887
    10  H    2.159343   1.096875   2.742431   2.158485   4.165564
    11  H    2.162542   2.749103   1.096329   4.178899   2.145357
    12  H    2.162515   2.769438   1.096171   4.177954   2.147064
    13  H    2.769031   2.162371   4.192109   1.096258   5.181284
    14  H    2.749274   2.162911   4.164920   1.096328   5.160113
    15  H    2.781370   4.206051   2.168428   5.199819   1.094643
    16  H    3.470724   4.678469   2.159190   5.970266   1.094536
    17  H    2.782472   4.192504   2.168630   5.201020   1.094665
    18  H    4.192657   2.782783   5.189289   2.168793   6.566031
    19  H    4.206064   2.781390   5.211109   2.168547   6.583288
    20  H    4.678322   3.470765   5.969980   2.159176   7.196218
                    6          7          8          9         10
     6  C    0.000000
     7  H    4.153800   0.000000
     8  H    4.179058   1.764948   0.000000
     9  H    2.761329   3.067509   2.499093   0.000000
    10  H    2.739752   2.515273   3.064476   1.764894   0.000000
    11  H    5.171187   3.066358   2.517860   2.533674   3.054407
    12  H    5.169580   2.499150   3.067806   3.118742   2.531915
    13  H    2.147350   3.086897   2.553075   2.501809   3.066433
    14  H    2.145207   2.511583   3.086446   3.068045   2.515505
    15  H    6.574260   2.569085   3.095900   4.734088   4.399507
    16  H    7.196277   3.759260   3.747693   4.839880   4.829727
    17  H    6.575352   3.128101   2.550814   4.368166   4.720670
    18  H    1.094729   4.365206   4.733118   3.129256   2.549354
    19  H    1.094745   4.722433   4.402932   2.571176   3.095309
    20  H    1.094391   4.820106   4.849446   3.761474   3.745848
                   11         12         13         14         15
    11  H    0.000000
    12  H    1.764927   0.000000
    13  H    4.391605   4.727295   0.000000
    14  H    4.704095   4.354409   1.765083   0.000000
    15  H    3.064501   2.504193   5.395976   5.080661   0.000000
    16  H    2.472799   2.473501   6.158067   6.133010   1.771983
    17  H    2.500967   3.065777   5.103712   5.385846   1.774675
    18  H    5.377120   5.079641   3.066091   2.500865   6.721612
    19  H    5.103825   5.403842   2.504443   3.064452   6.965154
    20  H    6.149056   6.141039   2.473723   2.472520   7.333281
                   16         17         18         19         20
    16  H    0.000000
    17  H    1.771940   0.000000
    18  H    7.325910   6.949879   0.000000
    19  H    7.347245   6.733246   1.774769   0.000000
    20  H    8.094674   7.340150   1.771942   1.771984   0.000000
 Stoichiometry    C6H14
 Framework group  C1[X(C6H14)]
 Deg. of freedom    54
 Full point group                 C1      NOp   1
 Largest Abelian subgroup         C1      NOp   1
 Largest concise Abelian subgroup C1      NOp   1
                         Standard orientation:                         
 ---------------------------------------------------------------------
 Center     Atomic      Atomic             Coordinates (Angstroms)
 Number     Number       Type             X           Y           Z
 ---------------------------------------------------------------------
      1          6           0        0.658904    0.388285    0.000443
      2          6           0       -0.658881   -0.388011    0.022994
      3          6           0        1.860560   -0.556056   -0.011694
      4          6           0       -1.860646    0.556145    0.001030
      5          6           0        3.172685    0.211771   -0.000347
      6          6           0       -3.172673   -0.212083   -0.010617
      7          1           0        0.692032    1.033707   -0.885898
      8          1           0        0.712974    1.042917    0.878901
      9          1           0       -0.700879   -1.017367    0.920343
     10          1           0       -0.703772   -1.058321   -0.844074
     11          1           0        1.824312   -1.216349    0.862742
     12          1           0        1.823817   -1.194420   -0.902049
     13          1           0       -1.834463    1.212498    0.878695
     14          1           0       -1.814142    1.198462   -0.886215
     15          1           0        3.255239    0.860198   -0.878397
     16          1           0        4.018508   -0.482846   -0.010307
     17          1           0        3.255207    0.834569    0.896093
     18          1           0       -3.244337   -0.853072   -0.895167
     19          1           0       -3.265784   -0.842630    0.879442
     20          1           0       -4.018403    0.482343   -0.024957
 ---------------------------------------------------------------------
 Rotational constants (GHZ):          14.3794142           1.1611966           1.1194859
 Standard basis: 6-311++G(d,p) (5D, 7F)
 There are   236 symmetry adapted cartesian basis functions of A   symmetry.
 There are   230 symmetry adapted basis functions of A   symmetry.
   230 basis functions,   342 primitive gaussians,   236 cartesian basis functions
    25 alpha electrons       25 beta electrons
       nuclear repulsion energy       245.2429913439 Hartrees.
 NAtoms=   20 NActive=   20 NUniq=   20 SFac= 1.00D+00 NAtFMM=   60 NAOKFM=F Big=F
 Integral buffers will be    131072 words long.
 Raffenetti 2 integral format.
 Two-electron integral symmetry is turned on.
 R6APFD:  NTU= -4 IXU= 1 FactS= 1.050
 Nuclear repulsion after empirical dispersion term =      245.2322262332 Hartrees.
 One-electron integrals computed using PRISM.
 NBasis=   230 RedAO= T EigKep=  6.76D-06  NBF=   230
 NBsUse=   230 1.00D-06 EigRej= -1.00D+00 NBFU=   230
 ExpMin= 3.60D-02 ExpMax= 4.56D+03 ExpMxC= 6.82D+02 IAcc=3 IRadAn=         5 AccDes= 0.00D+00
 Harris functional with IExCor= 1009 and IRadAn=       5 diagonalized for initial guess.
 HarFok:  IExCor= 1009 AccDes= 0.00D+00 IRadAn=         5 IDoV= 1 UseB2=F ITyADJ=14
 ICtDFT=  3500011 ScaDFX=  1.000000  1.000000  1.000000  1.000000
 FoFCou: FMM=F IPFlag=           0 FMFlag=      100000 FMFlg1=           0
         NFxFlg=           0 DoJE=T BraDBF=F KetDBF=T FulRan=T
         wScrn=  0.000000 ICntrl=       500 IOpCl=  0 I1Cent=   200000004 NGrid=           0
         NMat0=    1 NMatS0=      1 NMatT0=    0 NMatD0=    1 NMtDS0=    0 NMtDT0=    0
 Petite list used in FoFCou.
 Requested convergence on RMS density matrix=1.00D-08 within  32 cycles.
 Requested convergence on MAX density matrix=1.00D-06.
 Requested convergence on             energy=1.00D-06.
 No special actions if energy rises.
 SCF Done:  E(RM08HX) =  -237.096968981     A.U. after   11 cycles
            NFock= 11  Conv=0.35D-08     -V/T= 2.0059
 QCSCF skips out because SCF is already converged.

 **********************************************************************

            Population analysis using the SCF Density.

 **********************************************************************

 Orbital symmetries:
       Occupied  (A) (A) (A) (A) (A) (A) (A) (A) (A) (A) (A) (A)
                 (A) (A) (A) (A) (A) (A) (A) (A) (A) (A) (A) (A)
                 (A)
       Virtual   (A) (A) (A) (A) (A) (A) (A) (A) (A) (A) (A) (A)
                 (A) (A) (A) (A) (A) (A) (A) (A) (A) (A) (A) (A)
                 (A) (A) (A) (A) (A) (A) (A) (A) (A) (A) (A) (A)
                 (A) (A) (A) (A) (A) (A) (A) (A) (A) (A) (A) (A)
                 (A) (A) (A) (A) (A) (A) (A) (A) (A) (A) (A) (A)
                 (A) (A) (A) (A) (A) (A) (A) (A) (A) (A) (A) (A)
                 (A) (A) (A) (A) (A) (A) (A) (A) (A) (A) (A) (A)
                 (A) (A) (A) (A) (A) (A) (A) (A) (A) (A) (A) (A)
                 (A) (A) (A) (A) (A) (A) (A) (A) (A) (A) (A) (A)
                 (A) (A) (A) (A) (A) (A) (A) (A) (A) (A) (A) (A)
                 (A) (A) (A) (A) (A) (A) (A) (A) (A) (A) (A) (A)
                 (A) (A) (A) (A) (A) (A) (A) (A) (A) (A) (A) (A)
                 (A) (A) (A) (A) (A) (A) (A) (A) (A) (A) (A) (A)
                 (A) (A) (A) (A) (A) (A) (A) (A) (A) (A) (A) (A)
                 (A) (A) (A) (A) (A) (A) (A) (A) (A) (A) (A) (A)
                 (A) (A) (A) (A) (A) (A) (A) (A) (A) (A) (A) (A)
                 (A) (A) (A) (A) (A) (A) (A) (A) (A) (A) (A) (A)
                 (A)
 The electronic state is 1-A.
 Alpha  occ. eigenvalues --  -10.51776 -10.51773 -10.51684 -10.51646 -10.50967
 Alpha  occ. eigenvalues --  -10.50967  -0.91482  -0.87275  -0.80651  -0.72676
 Alpha  occ. eigenvalues --   -0.66506  -0.66067  -0.55613  -0.51937  -0.50611
 Alpha  occ. eigenvalues --   -0.49255  -0.46784  -0.44428  -0.44396  -0.41811
 Alpha  occ. eigenvalues --   -0.40409  -0.38950  -0.38891  -0.38335  -0.36224
 Alpha virt. eigenvalues --   -0.02541  -0.01475  -0.01120  -0.01030   0.00446
 Alpha virt. eigenvalues --    0.01145   0.01440   0.02409   0.03086   0.03836
 Alpha virt. eigenvalues --    0.03866   0.04504   0.04938   0.06441   0.06615
 Alpha virt. eigenvalues --    0.08015   0.08186   0.09970   0.10444   0.10853
 Alpha virt. eigenvalues --    0.11611   0.12127   0.12525   0.12704   0.13544
 Alpha virt. eigenvalues --    0.14134   0.14435   0.14817   0.14963   0.15371
 Alpha virt. eigenvalues --    0.15466   0.17052   0.17217   0.17680   0.18018
 Alpha virt. eigenvalues --    0.19118   0.19789   0.20190   0.21464   0.21638
 Alpha virt. eigenvalues --    0.22816   0.23629   0.24036   0.24728   0.24984
 Alpha virt. eigenvalues --    0.27595   0.29287   0.29671   0.31261   0.31292
 Alpha virt. eigenvalues --    0.31550   0.32929   0.33443   0.35480   0.35643
 Alpha virt. eigenvalues --    0.36102   0.37543   0.43552   0.46115   0.46190
 Alpha virt. eigenvalues --    0.47563   0.48059   0.50760   0.50988   0.51412
 Alpha virt. eigenvalues --    0.57789   0.58871   0.60698   0.65549   0.67925
 Alpha virt. eigenvalues --    0.68250   0.68690   0.69365   0.70445   0.70464
 Alpha virt. eigenvalues --    0.70885   0.71033   0.72580   0.72867   0.73204
 Alpha virt. eigenvalues --    0.74888   0.75651   0.76612   0.77785   0.79149
 Alpha virt. eigenvalues --    0.79459   0.79653   0.80026   0.81896   0.86532
 Alpha virt. eigenvalues --    0.97335   0.97580   0.99850   1.02041   1.03960
 Alpha virt. eigenvalues --    1.05125   1.11991   1.13587   1.21358   1.29202
 Alpha virt. eigenvalues --    1.29581   1.29787   1.31378   1.31838   1.41420
 Alpha virt. eigenvalues --    1.49508   1.50119   1.51384   1.51834   1.56701
 Alpha virt. eigenvalues --    1.58503   1.59585   1.61194   1.62057   1.62075
 Alpha virt. eigenvalues --    1.62285   1.63391   1.64132   1.64319   1.67609
 Alpha virt. eigenvalues --    1.68058   1.69734   1.73191   1.75630   1.76087
 Alpha virt. eigenvalues --    1.76948   1.77332   1.78828   1.80385   1.85111
 Alpha virt. eigenvalues --    1.85294   1.86745   1.89985   1.92919   1.97913
 Alpha virt. eigenvalues --    2.03640   2.06438   2.09512   2.10012   2.16058
 Alpha virt. eigenvalues --    2.16766   2.18936   2.23864   2.24411   2.25821
 Alpha virt. eigenvalues --    2.27507   2.29944   2.36769   2.38751   2.39961
 Alpha virt. eigenvalues --    2.45067   2.45940   2.46808   2.48785   2.50149
 Alpha virt. eigenvalues --    2.50992   2.52254   2.56565   2.57292   2.59014
 Alpha virt. eigenvalues --    2.59764   2.60230   2.62200   2.64749   2.65544
 Alpha virt. eigenvalues --    2.67206   2.68628   2.69273   2.72906   2.73227
 Alpha virt. eigenvalues --    2.73968   2.77551   2.78548   2.80303   2.80951
 Alpha virt. eigenvalues --    2.84238   2.85007   2.91208   2.93381   2.93513
 Alpha virt. eigenvalues --    2.97608   3.09559   3.13052   3.28783   3.42837
 Alpha virt. eigenvalues --    3.51347   3.81106   3.82995   3.83912   3.84797
 Alpha virt. eigenvalues --    3.85376   3.86209   3.88392   3.95104   4.13628
 Alpha virt. eigenvalues --    4.19260   4.29012   4.39725   4.44053  23.94831
 Alpha virt. eigenvalues --   23.94884  23.97143  23.98171  24.04397  24.04712
          Condensed to atoms (all electrons):
               1          2          3          4          5          6
     1  C    6.730644  -0.522491  -0.852496   0.138738   0.253780  -0.139603
     2  C   -0.522491   6.727893   0.139452  -0.848714  -0.139926   0.253073
     3  C   -0.852496   0.139452   6.826422  -0.181670  -0.385511  -0.076813
     4  C    0.138738  -0.848714  -0.181670   6.821412  -0.076053  -0.385133
     5  C    0.253780  -0.139926  -0.385511  -0.076053   6.104847   0.002226
     6  C   -0.139603   0.253073  -0.076813  -0.385133   0.002226   6.106063
     7  H    0.504033  -0.091073  -0.071825   0.013913   0.008975  -0.003060
     8  H    0.507984  -0.094675  -0.071821   0.007776   0.013251  -0.003054
     9  H   -0.087409   0.499733   0.006257  -0.062976  -0.003326   0.010692
    10  H   -0.098330   0.512076   0.015566  -0.080437  -0.002816   0.011364
    11  H   -0.070200   0.007866   0.472291   0.003929  -0.068703  -0.000177
    12  H   -0.056495  -0.010520   0.466240   0.000256  -0.050023  -0.000762
    13  H   -0.005667  -0.057090   0.002594   0.463937  -0.000433  -0.055503
    14  H    0.002654  -0.069406   0.001674   0.474540  -0.000539  -0.063233
    15  H   -0.045988  -0.005358   0.003433  -0.002428   0.406270  -0.000074
    16  H    0.042535   0.010758  -0.069489   0.000085   0.373035  -0.000359
    17  H   -0.046870  -0.008093   0.000152  -0.003954   0.415894  -0.000134
    18  H   -0.007860  -0.047906  -0.003620   0.002525  -0.000125   0.413753
    19  H   -0.005473  -0.044703  -0.002747   0.000520  -0.000071   0.408578
    20  H    0.010652   0.042375   0.000081  -0.069328  -0.000357   0.373236
               7          8          9         10         11         12
     1  C    0.504033   0.507984  -0.087409  -0.098330  -0.070200  -0.056495
     2  C   -0.091073  -0.094675   0.499733   0.512076   0.007866  -0.010520
     3  C   -0.071825  -0.071821   0.006257   0.015566   0.472291   0.466240
     4  C    0.013913   0.007776  -0.062976  -0.080437   0.003929   0.000256
     5  C    0.008975   0.013251  -0.003326  -0.002816  -0.068703  -0.050023
     6  C   -0.003060  -0.003054   0.010692   0.011364  -0.000177  -0.000762
     7  H    0.565335  -0.089572   0.012494  -0.023332   0.009919  -0.019136
     8  H   -0.089572   0.563602  -0.024640   0.013043  -0.017251   0.009326
     9  H    0.012494  -0.024640   0.561353  -0.089619  -0.000763   0.002875
    10  H   -0.023332   0.013043  -0.089619   0.567579   0.001969  -0.000451
    11  H    0.009919  -0.017251  -0.000763   0.001969   0.554652  -0.074171
    12  H   -0.019136   0.009326   0.002875  -0.000451  -0.074171   0.549209
    13  H    0.002206  -0.000449  -0.019114   0.009839   0.001656  -0.000481
    14  H   -0.000503   0.002569   0.009607  -0.017519  -0.000590   0.001776
    15  H    0.002147   0.000876  -0.000117   0.001347   0.013218  -0.023121
    16  H   -0.001636  -0.000885   0.000243   0.000399  -0.003712  -0.002254
    17  H    0.001703   0.001782   0.001439  -0.000062  -0.023122   0.012351
    18  H    0.001252  -0.000030   0.001419   0.002065   0.000151   0.000042
    19  H   -0.000131   0.001503   0.001970   0.001112  -0.000064   0.000154
    20  H    0.000533   0.000114  -0.001120  -0.001425   0.000047  -0.000050
              13         14         15         16         17         18
     1  C   -0.005667   0.002654  -0.045988   0.042535  -0.046870  -0.007860
     2  C   -0.057090  -0.069406  -0.005358   0.010758  -0.008093  -0.047906
     3  C    0.002594   0.001674   0.003433  -0.069489   0.000152  -0.003620
     4  C    0.463937   0.474540  -0.002428   0.000085  -0.003954   0.002525
     5  C   -0.000433  -0.000539   0.406270   0.373035   0.415894  -0.000125
     6  C   -0.055503  -0.063233  -0.000074  -0.000359  -0.000134   0.413753
     7  H    0.002206  -0.000503   0.002147  -0.001636   0.001703   0.001252
     8  H   -0.000449   0.002569   0.000876  -0.000885   0.001782  -0.000030
     9  H   -0.019114   0.009607  -0.000117   0.000243   0.001439   0.001419
    10  H    0.009839  -0.017519   0.001347   0.000399  -0.000062   0.002065
    11  H    0.001656  -0.000590   0.013218  -0.003712  -0.023122   0.000151
    12  H   -0.000481   0.001776  -0.023121  -0.002254   0.012351   0.000042
    13  H    0.550625  -0.074250   0.000166  -0.000020   0.000017   0.012395
    14  H   -0.074250   0.553502  -0.000036   0.000017   0.000139  -0.023028
    15  H    0.000166  -0.000036   0.560473  -0.025152  -0.070333   0.000014
    16  H   -0.000020   0.000017  -0.025152   0.495569  -0.024033  -0.000043
    17  H    0.000017   0.000139  -0.070333  -0.024033   0.558450   0.000003
    18  H    0.012395  -0.023028   0.000014  -0.000043   0.000003   0.558085
    19  H   -0.023109   0.013094   0.000000  -0.000032   0.000011  -0.070234
    20  H   -0.002312  -0.003675  -0.000032   0.000017  -0.000043  -0.023669
              19         20
     1  C   -0.005473   0.010652
     2  C   -0.044703   0.042375
     3  C   -0.002747   0.000081
     4  C    0.000520  -0.069328
     5  C   -0.000071  -0.000357
     6  C    0.408578   0.373236
     7  H   -0.000131   0.000533
     8  H    0.001503   0.000114
     9  H    0.001970  -0.001120
    10  H    0.001112  -0.001425
    11  H   -0.000064   0.000047
    12  H    0.000154  -0.000050
    13  H   -0.023109  -0.002312
    14  H    0.013094  -0.003675
    15  H    0.000000  -0.000032
    16  H   -0.000032   0.000017
    17  H    0.000011  -0.000043
    18  H   -0.070234  -0.023669
    19  H    0.560616  -0.025597
    20  H   -0.025597   0.495773
 Mulliken charges:
               1
     1  C   -0.252138
     2  C   -0.253272
     3  C   -0.218171
     4  C   -0.216938
     5  C   -0.850395
     6  C   -0.851079
     7  H    0.177757
     8  H    0.180550
     9  H    0.181001
    10  H    0.177632
    11  H    0.193057
    12  H    0.195237
    13  H    0.194995
    14  H    0.193209
    15  H    0.184696
    16  H    0.204956
    17  H    0.184703
    18  H    0.184812
    19  H    0.184605
    20  H    0.204781
 Sum of Mulliken charges =  -0.00000
 Mulliken charges with hydrogens summed into heavy atoms:
               1
     1  C    0.106169
     2  C    0.105362
     3  C    0.170123
     4  C    0.171267
     5  C   -0.276040
     6  C   -0.276880
 Electronic spatial extent (au):  <R**2>=           1118.1976
 Charge=              0.0000 electrons
 Dipole moment (field-independent basis, Debye):
    X=             -0.0000    Y=              0.0000    Z=              0.0006  Tot=              0.0006
 Quadrupole moment (field-independent basis, Debye-Ang):
   XX=            -43.8827   YY=            -42.9231   ZZ=            -41.4946
   XY=             -0.6696   XZ=             -0.0075   YZ=              0.0039
 Traceless Quadrupole moment (field-independent basis, Debye-Ang):
   XX=             -1.1159   YY=             -0.1563   ZZ=              1.2723
   XY=             -0.6696   XZ=             -0.0075   YZ=              0.0039
 Octapole moment (field-independent basis, Debye-Ang**2):
  XXX=             -0.0008  YYY=             -0.0012  ZZZ=              0.0431  XYY=              0.0003
  XXY=              0.0025  XXZ=             -0.0019  XZZ=              0.0003  YZZ=              0.0011
  YYZ=             -0.0249  XYZ=              0.0097
 Hexadecapole moment (field-independent basis, Debye-Ang**3):
 XXXX=          -1397.5156 YYYY=           -151.8871 ZZZZ=            -90.7021 XXXY=            -19.9370
 XXXZ=             -0.1012 YYYX=             -2.2764 YYYZ=              0.0466 ZZZX=             -0.0555
 ZZZY=             -0.0002 XXYY=           -250.9337 XXZZ=           -241.0499 YYZZ=            -35.8852
 XXYZ=             -0.0407 YYXZ=             -0.0138 ZZXY=              2.2296
 N-N= 2.452322262332D+02 E-N=-1.038152805235D+03  KE= 2.357108172868D+02
 R6APFD:  NTU= -4 IXU= 1 FactS= 1.050
 Calling FoFJK, ICntrl=      2127 FMM=F ISym2X=0 I1Cent= 0 IOpClX= 0 NMat=1 NMatS=1 NMatT=0.
 ***** Axes restored to original set *****
 -------------------------------------------------------------------
 Center     Atomic                   Forces (Hartrees/Bohr)
 Number     Number              X              Y              Z
 -------------------------------------------------------------------
      1        6          -0.000822160   -0.012765750    0.000291247
      2        6           0.000829639    0.012842901   -0.000884071
      3        6           0.000573407    0.007196060    0.000601410
      4        6          -0.000615860   -0.007244831    0.000092922
      5        6           0.003692923   -0.003424799   -0.000247800
      6        6          -0.003573371    0.003329247    0.000232859
      7        1           0.000040076    0.002459173   -0.001819789
      8        1           0.000445254    0.002537754    0.001830434
      9        1          -0.000230561   -0.002427736    0.001843702
     10        1          -0.000279020   -0.002598330   -0.001855773
     11        1          -0.002083115   -0.002623938    0.001353608
     12        1          -0.002037161   -0.002564023   -0.001439212
     13        1           0.001933248    0.002640413    0.001354502
     14        1           0.002192929    0.002519498   -0.001373074
     15        1           0.000564743    0.001858894   -0.001075056
     16        1           0.003349443    0.001292862   -0.000002280
     17        1           0.000503441    0.001756473    0.001095696
     18        1          -0.000466962   -0.001753025   -0.001040956
     19        1          -0.000596296   -0.001791484    0.001048327
     20        1          -0.003420598   -0.001239360   -0.000006697
 -------------------------------------------------------------------
 Cartesian Forces:  Max     0.012842901 RMS     0.003214193

 GradGradGradGradGradGradGradGradGradGradGradGradGradGradGradGradGradGrad
 Berny optimization.
 FormGI is forming the generalized inverse of G from B-inverse, IUseBI=4.
 Internal  Forces:  Max     0.007722818 RMS     0.002052637
 Search for a local minimum.
 Step number   1 out of a maximum of  110
 All quantities printed in internal units (Hartrees-Bohrs-Radians)
 Mixed Optimization -- RFO/linear search
 Second derivative matrix not updated -- first step.
 ITU=  0
     Eigenvalues ---    0.00374   0.00390   0.00391   0.00496   0.00497
     Eigenvalues ---    0.03683   0.03684   0.03721   0.03721   0.04888
     Eigenvalues ---    0.04889   0.04928   0.04929   0.05607   0.05608
     Eigenvalues ---    0.05702   0.05703   0.08111   0.08114   0.08168
     Eigenvalues ---    0.08169   0.12035   0.12037   0.12068   0.12069
     Eigenvalues ---    0.16000   0.16000   0.16000   0.16000   0.16000
     Eigenvalues ---    0.16000   0.21898   0.21898   0.21906   0.21906
     Eigenvalues ---    0.29460   0.29567   0.29575   0.30325   0.30336
     Eigenvalues ---    0.34023   0.34029   0.34030   0.34032   0.34091
     Eigenvalues ---    0.34091   0.34099   0.34109   0.34270   0.34272
     Eigenvalues ---    0.34279   0.34281   0.34294   0.34310
 RFO step:  Lambda=-2.23063725D-03 EMin= 3.74283632D-03
 Linear search not attempted -- first point.
 Iteration  1 RMS(Cart)=  0.02667742 RMS(Int)=  0.00020258
 Iteration  2 RMS(Cart)=  0.00030458 RMS(Int)=  0.00010198
 Iteration  3 RMS(Cart)=  0.00000006 RMS(Int)=  0.00010198
 Variable       Old X    -DE/DX   Delta X   Delta X   Delta X     New X
                                 (Linear)    (Quad)   (Total)
    R1        2.89054   0.00141   0.00000   0.00476   0.00476   2.89530
    R2        2.88820   0.00148   0.00000   0.00495   0.00495   2.89315
    R3        2.07291   0.00292   0.00000   0.00852   0.00852   2.08143
    R4        2.07281   0.00300   0.00000   0.00876   0.00876   2.08157
    R5        2.88835   0.00143   0.00000   0.00481   0.00481   2.89315
    R6        2.07275   0.00291   0.00000   0.00849   0.00849   2.08125
    R7        2.07279   0.00307   0.00000   0.00895   0.00895   2.08174
    R8        2.87298   0.00772   0.00000   0.02527   0.02527   2.89825
    R9        2.07176   0.00272   0.00000   0.00793   0.00793   2.07969
   R10        2.07146   0.00272   0.00000   0.00793   0.00793   2.07939
   R11        2.87321   0.00766   0.00000   0.02508   0.02508   2.89829
   R12        2.07163   0.00270   0.00000   0.00788   0.00788   2.07950
   R13        2.07176   0.00267   0.00000   0.00778   0.00778   2.07954
   R14        2.06858   0.00200   0.00000   0.00581   0.00581   2.07438
   R15        2.06837   0.00179   0.00000   0.00520   0.00520   2.07357
   R16        2.06862   0.00193   0.00000   0.00560   0.00560   2.07422
   R17        2.06874   0.00190   0.00000   0.00550   0.00550   2.07423
   R18        2.06877   0.00193   0.00000   0.00560   0.00560   2.07437
   R19        2.06810   0.00188   0.00000   0.00545   0.00545   2.07355
    A1        1.94324   0.00566   0.00000   0.03033   0.03025   1.97349
    A2        1.91404  -0.00174   0.00000  -0.00587  -0.00595   1.90809
    A3        1.91086  -0.00128   0.00000  -0.00188  -0.00193   1.90893
    A4        1.91069  -0.00141   0.00000  -0.00354  -0.00361   1.90708
    A5        1.91384  -0.00184   0.00000  -0.00684  -0.00696   1.90688
    A6        1.86970   0.00038   0.00000  -0.01397  -0.01404   1.85565
    A7        1.94300   0.00573   0.00000   0.03066   0.03057   1.97357
    A8        1.91373  -0.00163   0.00000  -0.00594  -0.00596   1.90777
    A9        1.91108  -0.00142   0.00000  -0.00179  -0.00190   1.90917
   A10        1.91356  -0.00170   0.00000  -0.00696  -0.00700   1.90655
   A11        1.91129  -0.00160   0.00000  -0.00374  -0.00389   1.90740
   A12        1.86973   0.00039   0.00000  -0.01399  -0.01407   1.85565
   A13        1.94599   0.00312   0.00000   0.01872   0.01870   1.96469
   A14        1.91750  -0.00186   0.00000  -0.01379  -0.01408   1.90342
   A15        1.91763  -0.00186   0.00000  -0.01520  -0.01544   1.90219
   A16        1.90367   0.00045   0.00000   0.01410   0.01418   1.91784
   A17        1.90616   0.00027   0.00000   0.01113   0.01123   1.91739
   A18        1.87130  -0.00023   0.00000  -0.01600  -0.01631   1.85498
   A19        1.94602   0.00310   0.00000   0.01868   0.01865   1.96468
   A20        1.91725  -0.00174   0.00000  -0.01399  -0.01423   1.90301
   A21        1.91791  -0.00198   0.00000  -0.01501  -0.01530   1.90262
   A22        1.90631   0.00020   0.00000   0.01082   0.01091   1.91722
   A23        1.90332   0.00054   0.00000   0.01452   0.01461   1.91793
   A24        1.87143  -0.00023   0.00000  -0.01606  -0.01638   1.85505
   A25        1.93721   0.00008   0.00000  -0.00169  -0.00177   1.93544
   A26        1.92449   0.00448   0.00000   0.03200   0.03189   1.95638
   A27        1.93747  -0.00004   0.00000  -0.00247  -0.00255   1.93493
   A28        1.88636  -0.00189   0.00000  -0.00741  -0.00752   1.87884
   A29        1.89039  -0.00098   0.00000  -0.01425  -0.01429   1.87609
   A30        1.88626  -0.00184   0.00000  -0.00723  -0.00733   1.87893
   A31        1.93748  -0.00007   0.00000  -0.00269  -0.00276   1.93472
   A32        1.93712   0.00011   0.00000  -0.00147  -0.00155   1.93557
   A33        1.92447   0.00448   0.00000   0.03200   0.03189   1.95636
   A34        1.89032  -0.00098   0.00000  -0.01420  -0.01425   1.87608
   A35        1.88637  -0.00183   0.00000  -0.00718  -0.00727   1.87909
   A36        1.88641  -0.00191   0.00000  -0.00752  -0.00763   1.87878
    D1       -3.11764  -0.00021   0.00000  -0.01135  -0.01135  -3.12899
    D2        1.04498  -0.00074   0.00000  -0.01874  -0.01871   1.02627
    D3       -1.00171   0.00056   0.00000   0.00271   0.00275  -0.99896
    D4       -1.00032   0.00056   0.00000   0.00014   0.00011  -1.00021
    D5       -3.12088   0.00003   0.00000  -0.00725  -0.00726  -3.12813
    D6        1.11561   0.00133   0.00000   0.01419   0.01421   1.12982
    D7        1.04640  -0.00074   0.00000  -0.02130  -0.02134   1.02507
    D8       -1.07416  -0.00127   0.00000  -0.02869  -0.02870  -1.10286
    D9       -3.12086   0.00003   0.00000  -0.00724  -0.00724  -3.12809
   D10       -3.11772  -0.00022   0.00000  -0.01052  -0.01050  -3.12822
   D11       -1.00509   0.00114   0.00000   0.01025   0.01012  -0.99497
   D12        1.04962  -0.00136   0.00000  -0.02662  -0.02645   1.02317
   D13        1.04619  -0.00079   0.00000  -0.02057  -0.02057   1.02562
   D14       -3.12437   0.00057   0.00000   0.00020   0.00005  -3.12431
   D15       -1.06966  -0.00193   0.00000  -0.03666  -0.03652  -1.10618
   D16       -1.00031   0.00064   0.00000   0.00239   0.00237  -0.99794
   D17        1.11232   0.00201   0.00000   0.02316   0.02299   1.13531
   D18       -3.11616  -0.00050   0.00000  -0.01371  -0.01358  -3.12974
   D19        3.11758   0.00026   0.00000   0.01499   0.01499   3.13257
   D20       -1.04979   0.00138   0.00000   0.03147   0.03134  -1.01845
   D21        1.00509  -0.00113   0.00000  -0.00548  -0.00531   0.99978
   D22       -1.04494   0.00083   0.00000   0.02296   0.02294  -1.02200
   D23        1.07087   0.00195   0.00000   0.03945   0.03929   1.11016
   D24        3.12575  -0.00056   0.00000   0.00250   0.00264   3.12839
   D25        1.00178  -0.00062   0.00000  -0.00022  -0.00022   1.00155
   D26        3.11759   0.00050   0.00000   0.01627   0.01613   3.13372
   D27       -1.11071  -0.00201   0.00000  -0.02068  -0.02052  -1.13124
   D28       -1.05079   0.00065   0.00000   0.01269   0.01272  -1.03807
   D29       -3.14061   0.00004   0.00000   0.00214   0.00215  -3.13846
   D30        1.05270  -0.00056   0.00000  -0.00813  -0.00812   1.04458
   D31        3.11172   0.00067   0.00000   0.00837   0.00831   3.12003
   D32        1.02189   0.00005   0.00000  -0.00218  -0.00225   1.01964
   D33       -1.06798  -0.00055   0.00000  -0.01244  -0.01253  -1.08051
   D34        1.07173   0.00053   0.00000   0.01331   0.01339   1.08512
   D35       -1.01809  -0.00009   0.00000   0.00277   0.00282  -1.01527
   D36       -3.10797  -0.00068   0.00000  -0.00750  -0.00746  -3.11542
   D37       -1.05288   0.00062   0.00000   0.00927   0.00927  -1.04361
   D38        1.05048  -0.00059   0.00000  -0.01148  -0.01152   1.03896
   D39        3.14030   0.00003   0.00000  -0.00093  -0.00094   3.13936
   D40        3.10814   0.00065   0.00000   0.00736   0.00732   3.11546
   D41       -1.07169  -0.00056   0.00000  -0.01339  -0.01347  -1.08515
   D42        1.01814   0.00006   0.00000  -0.00284  -0.00289   1.01525
   D43        1.06810   0.00051   0.00000   0.01231   0.01240   1.08050
   D44       -3.11172  -0.00070   0.00000  -0.00844  -0.00838  -3.12011
   D45       -1.02190  -0.00008   0.00000   0.00211   0.00219  -1.01971
         Item               Value     Threshold  Converged?
 Maximum Force            0.007723     0.000450     NO 
 RMS     Force            0.002053     0.000300     NO 
 Maximum Displacement     0.108299     0.001800     NO 
 RMS     Displacement     0.026468     0.001200     NO 
 Predicted change in Energy=-1.134643D-03
 GradGradGradGradGradGradGradGradGradGradGradGradGradGradGradGradGradGrad

                          Input orientation:                          
 ---------------------------------------------------------------------
 Center     Atomic      Atomic             Coordinates (Angstroms)
 Number     Number       Type             X           Y           Z
 ---------------------------------------------------------------------
      1          6           0        0.664326    0.381622   -0.001448
      2          6           0       -0.664286   -0.381318    0.009748
      3          6           0        1.886032   -0.541062   -0.005484
      4          6           0       -1.886121    0.541106   -0.003968
      5          6           0        3.209264    0.234307    0.002243
      6          6           0       -3.209225   -0.234558   -0.005362
      7          1           0        0.700881    1.036976   -0.885957
      8          1           0        0.712525    1.044377    0.877064
      9          1           0       -0.706410   -1.026140    0.901599
     10          1           0       -0.706783   -1.054456   -0.861244
     11          1           0        1.836856   -1.206261    0.869869
     12          1           0        1.839720   -1.192555   -0.891047
     13          1           0       -1.843710    1.205975    0.871868
     14          1           0       -1.833318    1.192885   -0.889056
     15          1           0        3.285307    0.887619   -0.876610
     16          1           0        4.079358   -0.434224   -0.003897
     17          1           0        3.284439    0.870346    0.893644
     18          1           0       -3.280423   -0.884051   -0.887348
     19          1           0       -3.288921   -0.874514    0.882934
     20          1           0       -4.079409    0.433826   -0.012949
 ---------------------------------------------------------------------
                    Distance matrix (angstroms):
                    1          2          3          4          5
     1  C    0.000000
     2  C    1.532126   0.000000
     3  C    1.530989   2.555361   0.000000
     4  C    2.555429   1.530992   3.924312   0.000000
     5  C    2.549201   3.922173   1.533689   5.104617   0.000000
     6  C    3.922256   2.549212   5.104467   1.533708   6.435596
     7  H    1.101445   2.162758   2.161022   2.777835   2.779418
     8  H    1.101522   2.163435   2.160932   2.789706   2.766808
     9  H    2.162453   1.101348   2.789059   2.160562   4.210708
    10  H    2.163680   1.101612   2.778234   2.161384   4.212119
    11  H    2.157636   2.770569   1.100523   4.204455   2.170602
    12  H    2.156611   2.782011   1.100367   4.204091   2.170151
    13  H    2.780734   2.157265   4.211040   1.100426   5.218518
    14  H    2.772042   2.156988   4.197718   1.100447   5.209694
    15  H    2.809179   4.242065   2.181275   5.255972   1.097717
    16  H    3.511133   4.743958   2.195927   6.044684   1.097285
    17  H    2.811589   4.235607   2.180836   5.258213   1.097629
    18  H    4.236483   2.810995   5.252388   2.180713   6.645159
    19  H    4.241246   2.809698   5.261236   2.181381   6.650677
    20  H    4.744036   3.511131   6.044580   2.195929   7.291419
                    6          7          8          9         10
     6  C    0.000000
     7  H    4.204899   0.000000
     8  H    4.218350   1.763075   0.000000
     9  H    2.777277   3.071199   2.510183   0.000000
    10  H    2.768932   2.521154   3.072662   1.763070   0.000000
    11  H    5.212790   3.066834   2.515858   2.549834   3.080568
    12  H    5.214791   2.503555   3.066048   3.118341   2.550419
    13  H    2.170092   3.097329   2.561343   2.505329   3.066893
    14  H    2.170629   2.538992   3.102024   3.066013   2.514040
    15  H    6.648105   2.588755   3.117555   4.770566   4.439445
    16  H    7.291318   3.789006   3.781258   4.906512   4.901722
    17  H    6.648060   3.141579   2.577849   4.418551   4.765957
    18  H    1.097638   4.420534   4.772381   3.137844   2.579407
    19  H    1.097710   4.764586   4.437764   2.587026   3.121213
    20  H    1.097276   4.896642   4.911978   3.787482   3.782750
                   11         12         13         14         15
    11  H    0.000000
    12  H    1.760971   0.000000
    13  H    4.400620   4.735871   0.000000
    14  H    4.724394   4.379673   1.761003   0.000000
    15  H    3.087479   2.533190   5.428199   5.127735   0.000000
    16  H    2.527513   2.525486   6.208055   6.196025   1.771838
    17  H    2.531473   3.086728   5.139167   5.428949   1.770338
    18  H    5.420164   5.129430   3.086615   2.531359   6.800569
    19  H    5.136518   5.436094   2.533218   3.087534   7.030048
    20  H    6.202536   6.200989   2.525365   2.527580   7.429057
                   16         17         18         19         20
    16  H    0.000000
    17  H    1.771828   0.000000
    18  H    7.426251   7.024760   0.000000
    19  H    7.434504   6.801008   1.770328   0.000000
    20  H    8.204820   7.432276   1.771934   1.771788   0.000000
 Stoichiometry    C6H14
 Framework group  C1[X(C6H14)]
 Deg. of freedom    54
 Full point group                 C1      NOp   1
 Largest Abelian subgroup         C1      NOp   1
 Largest concise Abelian subgroup C1      NOp   1
                         Standard orientation:                         
 ---------------------------------------------------------------------
 Center     Atomic      Atomic             Coordinates (Angstroms)
 Number     Number       Type             X           Y           Z
 ---------------------------------------------------------------------
      1          6           0        0.667357    0.376286   -0.000391
      2          6           0       -0.667312   -0.376016    0.010162
      3          6           0        1.881637   -0.556137   -0.006809
      4          6           0       -1.881732    0.556181   -0.001173
      5          6           0        3.211037    0.208602    0.001588
      6          6           0       -3.211003   -0.208865   -0.003237
      7          1           0        0.708668    1.032947   -0.883720
      8          1           0        0.721346    1.037022    0.879304
      9          1           0       -0.714103   -1.022114    0.900855
     10          1           0       -0.715677   -1.047194   -0.862036
     11          1           0        1.827622   -1.222525    0.867354
     12          1           0        1.829623   -1.205614   -0.893535
     13          1           0       -1.833517    1.219082    0.875853
     14          1           0       -1.824202    1.209139   -0.885097
     15          1           0        3.291821    0.862895   -0.876112
     16          1           0        4.075748   -0.466859   -0.006269
     17          1           0        3.291793    0.842382    0.894107
     18          1           0       -3.287884   -0.856149   -0.886369
     19          1           0       -3.295327   -0.849791    0.883933
     20          1           0       -4.075813    0.466474   -0.009107
 ---------------------------------------------------------------------
 Rotational constants (GHZ):          14.4768716           1.1350380           1.0954971
 Standard basis: 6-311++G(d,p) (5D, 7F)
 There are   236 symmetry adapted cartesian basis functions of A   symmetry.
 There are   230 symmetry adapted basis functions of A   symmetry.
   230 basis functions,   342 primitive gaussians,   236 cartesian basis functions
    25 alpha electrons       25 beta electrons
       nuclear repulsion energy       243.5788924792 Hartrees.
 NAtoms=   20 NActive=   20 NUniq=   20 SFac= 1.00D+00 NAtFMM=   60 NAOKFM=F Big=F
 Integral buffers will be    131072 words long.
 Raffenetti 2 integral format.
 Two-electron integral symmetry is turned on.
 R6APFD:  NTU= -4 IXU= 1 FactS= 1.050
 Nuclear repulsion after empirical dispersion term =      243.5681452158 Hartrees.
 One-electron integrals computed using PRISM.
 NBasis=   230 RedAO= T EigKep=  6.58D-06  NBF=   230
 NBsUse=   230 1.00D-06 EigRej= -1.00D+00 NBFU=   230
 Initial guess from the checkpoint file:  "HXAE0128.chk"
 B after Tr=     0.000000    0.000000    0.000000
         Rot=    1.000000   -0.000522   -0.000044    0.000338 Ang=  -0.07 deg.
 ExpMin= 3.60D-02 ExpMax= 4.56D+03 ExpMxC= 6.82D+02 IAcc=3 IRadAn=         5 AccDes= 0.00D+00
 Harris functional with IExCor= 1009 and IRadAn=       5 diagonalized for initial guess.
 HarFok:  IExCor= 1009 AccDes= 0.00D+00 IRadAn=         5 IDoV= 1 UseB2=F ITyADJ=14
 ICtDFT=  3500011 ScaDFX=  1.000000  1.000000  1.000000  1.000000
 FoFCou: FMM=F IPFlag=           0 FMFlag=      100000 FMFlg1=           0
         NFxFlg=           0 DoJE=T BraDBF=F KetDBF=T FulRan=T
         wScrn=  0.000000 ICntrl=       500 IOpCl=  0 I1Cent=   200000004 NGrid=           0
         NMat0=    1 NMatS0=      1 NMatT0=    0 NMatD0=    1 NMtDS0=    0 NMtDT0=    0
 Petite list used in FoFCou.
 Requested convergence on RMS density matrix=1.00D-08 within  32 cycles.
 Requested convergence on MAX density matrix=1.00D-06.
 Requested convergence on             energy=1.00D-06.
 No special actions if energy rises.
 SCF Done:  E(RM08HX) =  -237.097893683     A.U. after    9 cycles
            NFock=  9  Conv=0.53D-08     -V/T= 2.0065
 QCSCF skips out because SCF is already converged.
 R6APFD:  NTU= -4 IXU= 1 FactS= 1.050
 Calling FoFJK, ICntrl=      2127 FMM=F ISym2X=0 I1Cent= 0 IOpClX= 0 NMat=1 NMatS=1 NMatT=0.
 ***** Axes restored to original set *****
 -------------------------------------------------------------------
 Center     Atomic                   Forces (Hartrees/Bohr)
 Number     Number              X              Y              Z
 -------------------------------------------------------------------
      1        6          -0.000702306   -0.001495668    0.000029237
      2        6           0.000700145    0.001501740    0.000038212
      3        6           0.000560271    0.001210635   -0.000040789
      4        6          -0.000566382   -0.001221074    0.000059872
      5        6          -0.001904708   -0.001178695   -0.000022798
      6        6           0.001924973    0.001172682   -0.000012711
      7        1           0.000043109    0.000809254   -0.000177317
      8        1          -0.000120682    0.000771929    0.000153808
      9        1           0.000003827   -0.000921353    0.000172693
     10        1           0.000070929   -0.000666006   -0.000164111
     11        1           0.000134249   -0.000367332    0.000039539
     12        1           0.000116009   -0.000523862   -0.000042705
     13        1          -0.000059685    0.000486118    0.000016309
     14        1          -0.000186328    0.000416705   -0.000066266
     15        1          -0.000230008    0.000206198   -0.000129441
     16        1          -0.000715253    0.000026852    0.000005215
     17        1          -0.000181146    0.000245042    0.000158937
     18        1           0.000167827   -0.000248614   -0.000149551
     19        1           0.000234742   -0.000197581    0.000140676
     20        1           0.000710419   -0.000026971   -0.000008810
 -------------------------------------------------------------------
 Cartesian Forces:  Max     0.001924973 RMS     0.000635365

 GradGradGradGradGradGradGradGradGradGradGradGradGradGradGradGradGradGrad
 Berny optimization.
 Using GEDIIS/GDIIS optimizer.
 FormGI is forming the generalized inverse of G from B-inverse, IUseBI=4.
 Internal  Forces:  Max     0.002976642 RMS     0.000711334
 Search for a local minimum.
 Step number   2 out of a maximum of  110
 All quantities printed in internal units (Hartrees-Bohrs-Radians)
 Mixed Optimization -- En-DIIS/RFO-DIIS
 Update second derivatives using D2CorX and points    1    2
 DE= -9.25D-04 DEPred=-1.13D-03 R= 8.15D-01
 TightC=F SS=  1.41D+00  RLast= 1.44D-01 DXNew= 5.0454D-01 4.3286D-01
 Trust test= 8.15D-01 RLast= 1.44D-01 DXMaxT set to 4.33D-01
 ITU=  1  0
 Use linear search instead of GDIIS.
     Eigenvalues ---    0.00374   0.00389   0.00390   0.00496   0.00497
     Eigenvalues ---    0.03498   0.03499   0.03589   0.03591   0.04664
     Eigenvalues ---    0.04832   0.04881   0.04884   0.05485   0.05486
     Eigenvalues ---    0.05576   0.05632   0.08283   0.08373   0.08423
     Eigenvalues ---    0.08430   0.12222   0.12223   0.12266   0.12268
     Eigenvalues ---    0.15954   0.16000   0.16000   0.16000   0.16000
     Eigenvalues ---    0.16073   0.21731   0.21894   0.21908   0.23666
     Eigenvalues ---    0.29300   0.29566   0.29575   0.30330   0.32833
     Eigenvalues ---    0.33949   0.34026   0.34030   0.34034   0.34091
     Eigenvalues ---    0.34097   0.34106   0.34123   0.34246   0.34271
     Eigenvalues ---    0.34276   0.34281   0.34302   0.37070
 RFO step:  Lambda=-1.04194416D-04 EMin= 3.74071989D-03
 Quartic linear search produced a step of -0.14154.
 Iteration  1 RMS(Cart)=  0.00947247 RMS(Int)=  0.00001984
 Iteration  2 RMS(Cart)=  0.00002322 RMS(Int)=  0.00001379
 Iteration  3 RMS(Cart)=  0.00000000 RMS(Int)=  0.00001379
 Variable       Old X    -DE/DX   Delta X   Delta X   Delta X     New X
                                 (Linear)    (Quad)   (Total)
    R1        2.89530  -0.00275  -0.00067  -0.00713  -0.00781   2.88749
    R2        2.89315  -0.00154  -0.00070  -0.00354  -0.00424   2.88891
    R3        2.08143   0.00063  -0.00121   0.00316   0.00195   2.08338
    R4        2.08157   0.00058  -0.00124   0.00309   0.00185   2.08343
    R5        2.89315  -0.00154  -0.00068  -0.00358  -0.00426   2.88889
    R6        2.08125   0.00068  -0.00120   0.00329   0.00208   2.08333
    R7        2.08174   0.00053  -0.00127   0.00301   0.00174   2.08348
    R8        2.89825  -0.00297  -0.00358  -0.00372  -0.00730   2.89096
    R9        2.07969   0.00025  -0.00112   0.00209   0.00097   2.08066
   R10        2.07939   0.00034  -0.00112   0.00233   0.00120   2.08060
   R11        2.89829  -0.00298  -0.00355  -0.00377  -0.00732   2.89097
   R12        2.07950   0.00030  -0.00111   0.00223   0.00111   2.08062
   R13        2.07954   0.00029  -0.00110   0.00218   0.00107   2.08062
   R14        2.07438   0.00021  -0.00082   0.00160   0.00078   2.07516
   R15        2.07357  -0.00058  -0.00074  -0.00049  -0.00123   2.07234
   R16        2.07422   0.00026  -0.00079   0.00168   0.00089   2.07511
   R17        2.07423   0.00026  -0.00078   0.00166   0.00088   2.07512
   R18        2.07437   0.00021  -0.00079   0.00157   0.00077   2.07515
   R19        2.07355  -0.00058  -0.00077  -0.00044  -0.00121   2.07234
    A1        1.97349  -0.00141  -0.00428   0.00057  -0.00370   1.96979
    A2        1.90809   0.00048   0.00084   0.00092   0.00177   1.90986
    A3        1.90893   0.00039   0.00027   0.00089   0.00117   1.91010
    A4        1.90708   0.00051   0.00051   0.00190   0.00242   1.90950
    A5        1.90688   0.00058   0.00098   0.00163   0.00263   1.90951
    A6        1.85565  -0.00050   0.00199  -0.00634  -0.00434   1.85131
    A7        1.97357  -0.00142  -0.00433   0.00061  -0.00370   1.96987
    A8        1.90777   0.00047   0.00084   0.00106   0.00191   1.90968
    A9        1.90917   0.00041   0.00027   0.00078   0.00107   1.91024
   A10        1.90655   0.00054   0.00099   0.00169   0.00269   1.90925
   A11        1.90740   0.00055   0.00055   0.00177   0.00234   1.90974
   A12        1.85565  -0.00050   0.00199  -0.00636  -0.00435   1.85130
   A13        1.96469  -0.00184  -0.00265  -0.00387  -0.00651   1.95818
   A14        1.90342   0.00067   0.00199   0.00032   0.00236   1.90578
   A15        1.90219   0.00072   0.00219   0.00083   0.00304   1.90523
   A16        1.91784   0.00050  -0.00201   0.00367   0.00165   1.91950
   A17        1.91739   0.00049  -0.00159   0.00349   0.00189   1.91927
   A18        1.85498  -0.00046   0.00231  -0.00452  -0.00217   1.85281
   A19        1.96468  -0.00184  -0.00264  -0.00389  -0.00652   1.95816
   A20        1.90301   0.00066   0.00201   0.00049   0.00254   1.90555
   A21        1.90262   0.00073   0.00217   0.00066   0.00287   1.90549
   A22        1.91722   0.00053  -0.00154   0.00356   0.00201   1.91923
   A23        1.91793   0.00046  -0.00207   0.00366   0.00158   1.91952
   A24        1.85505  -0.00046   0.00232  -0.00457  -0.00221   1.85284
   A25        1.93544  -0.00015   0.00025  -0.00129  -0.00103   1.93441
   A26        1.95638  -0.00049  -0.00451   0.00352  -0.00098   1.95540
   A27        1.93493  -0.00007   0.00036  -0.00093  -0.00056   1.93437
   A28        1.87884   0.00037   0.00106   0.00074   0.00182   1.88065
   A29        1.87609   0.00005   0.00202  -0.00290  -0.00087   1.87523
   A30        1.87893   0.00033   0.00104   0.00070   0.00175   1.88068
   A31        1.93472  -0.00004   0.00039  -0.00083  -0.00043   1.93430
   A32        1.93557  -0.00017   0.00022  -0.00135  -0.00112   1.93446
   A33        1.95636  -0.00049  -0.00451   0.00352  -0.00098   1.95539
   A34        1.87608   0.00005   0.00202  -0.00287  -0.00085   1.87523
   A35        1.87909   0.00032   0.00103   0.00065   0.00170   1.88079
   A36        1.87878   0.00037   0.00108   0.00071   0.00180   1.88058
    D1       -3.12899  -0.00000   0.00161  -0.00692  -0.00532  -3.13430
    D2        1.02627  -0.00008   0.00265  -0.01027  -0.00762   1.01865
    D3       -0.99896   0.00003  -0.00039  -0.00367  -0.00407  -1.00303
    D4       -1.00021   0.00004  -0.00002  -0.00344  -0.00346  -1.00366
    D5       -3.12813  -0.00004   0.00103  -0.00679  -0.00576  -3.13390
    D6        1.12982   0.00007  -0.00201  -0.00020  -0.00221   1.12761
    D7        1.02507  -0.00007   0.00302  -0.01003  -0.00701   1.01806
    D8       -1.10286  -0.00015   0.00406  -0.01338  -0.00932  -1.11218
    D9       -3.12809  -0.00004   0.00102  -0.00679  -0.00576  -3.13385
   D10       -3.12822   0.00000   0.00149  -0.00713  -0.00565  -3.13387
   D11       -0.99497  -0.00012  -0.00143  -0.00482  -0.00624  -1.00120
   D12        1.02317   0.00010   0.00374  -0.00957  -0.00585   1.01732
   D13        1.02562  -0.00002   0.00291  -0.01006  -0.00715   1.01847
   D14       -3.12431  -0.00015  -0.00001  -0.00775  -0.00773  -3.13205
   D15       -1.10618   0.00007   0.00517  -0.01250  -0.00735  -1.11352
   D16       -0.99794  -0.00003  -0.00034  -0.00444  -0.00477  -1.00271
   D17        1.13531  -0.00016  -0.00325  -0.00212  -0.00536   1.12995
   D18       -3.12974   0.00006   0.00192  -0.00688  -0.00497  -3.13471
   D19        3.13257  -0.00001  -0.00212   0.00832   0.00619   3.13877
   D20       -1.01845  -0.00010  -0.00444   0.01060   0.00618  -1.01227
   D21        0.99978   0.00012   0.00075   0.00579   0.00652   1.00630
   D22       -1.02200   0.00003  -0.00325   0.01131   0.00806  -1.01394
   D23        1.11016  -0.00006  -0.00556   0.01359   0.00804   1.11821
   D24        3.12839   0.00016  -0.00037   0.00878   0.00839   3.13678
   D25        1.00155   0.00003   0.00003   0.00563   0.00566   1.00721
   D26        3.13372  -0.00005  -0.00228   0.00791   0.00564   3.13936
   D27       -1.13124   0.00016   0.00290   0.00310   0.00599  -1.12525
   D28       -1.03807   0.00002  -0.00180   0.00244   0.00063  -1.03743
   D29       -3.13846  -0.00002  -0.00030   0.00000  -0.00030  -3.13876
   D30        1.04458  -0.00006   0.00115  -0.00264  -0.00149   1.04309
   D31        3.12003   0.00006  -0.00118   0.00205   0.00088   3.12091
   D32        1.01964   0.00003   0.00032  -0.00039  -0.00006   1.01958
   D33       -1.08051  -0.00002   0.00177  -0.00303  -0.00124  -1.08175
   D34        1.08512   0.00004  -0.00189   0.00334   0.00144   1.08656
   D35       -1.01527   0.00000  -0.00040   0.00091   0.00050  -1.01477
   D36       -3.11542  -0.00004   0.00106  -0.00173  -0.00068  -3.11611
   D37       -1.04361   0.00004  -0.00131   0.00278   0.00147  -1.04214
   D38        1.03896  -0.00004   0.00163  -0.00222  -0.00059   1.03837
   D39        3.13936  -0.00001   0.00013   0.00013   0.00027   3.13963
   D40        3.11546   0.00006  -0.00104   0.00227   0.00124   3.11670
   D41       -1.08515  -0.00002   0.00191  -0.00274  -0.00082  -1.08597
   D42        1.01525   0.00001   0.00041  -0.00038   0.00004   1.01529
   D43        1.08050   0.00004  -0.00176   0.00359   0.00182   1.08232
   D44       -3.12011  -0.00004   0.00119  -0.00142  -0.00024  -3.12035
   D45       -1.01971  -0.00001  -0.00031   0.00094   0.00062  -1.01909
         Item               Value     Threshold  Converged?
 Maximum Force            0.002977     0.000450     NO 
 RMS     Force            0.000711     0.000300     NO 
 Maximum Displacement     0.035525     0.001800     NO 
 RMS     Displacement     0.009476     0.001200     NO 
 Predicted change in Energy=-7.866697D-05
 GradGradGradGradGradGradGradGradGradGradGradGradGradGradGradGradGradGrad

                          Input orientation:                          
 ---------------------------------------------------------------------
 Center     Atomic      Atomic             Coordinates (Angstroms)
 Number     Number       Type             X           Y           Z
 ---------------------------------------------------------------------
      1          6           0        0.662320    0.380928   -0.001559
      2          6           0       -0.662292   -0.380741    0.004322
      3          6           0        1.879366   -0.544195   -0.002479
      4          6           0       -1.879417    0.544218   -0.005024
      5          6           0        3.196630    0.233727    0.002557
      6          6           0       -3.196592   -0.233881   -0.002993
      7          1           0        0.702453    1.039935   -0.884483
      8          1           0        0.707641    1.045035    0.877314
      9          1           0       -0.705615   -1.033764    0.891498
     10          1           0       -0.704347   -1.050796   -0.870225
     11          1           0        1.830682   -1.207259    0.875165
     12          1           0        1.833729   -1.200545   -0.885277
     13          1           0       -1.834650    1.209819    0.870879
     14          1           0       -1.830035    1.197992   -0.889545
     15          1           0        3.269176    0.884637   -0.878886
     16          1           0        4.067824   -0.432317   -0.000995
     17          1           0        3.268458    0.874291    0.891570
     18          1           0       -3.267251   -0.884201   -0.884992
     19          1           0       -3.270122   -0.875051    0.885467
     20          1           0       -4.067857    0.432067   -0.007716
 ---------------------------------------------------------------------
                    Distance matrix (angstroms):
                    1          2          3          4          5
     1  C    0.000000
     2  C    1.527995   0.000000
     3  C    1.528743   2.546917   0.000000
     4  C    2.546979   1.528735   3.913195   0.000000
     5  C    2.538585   3.907537   1.529828   5.085540   0.000000
     6  C    3.907581   2.538562   5.085434   1.529834   6.410302
     7  H    1.102477   2.161209   2.161601   2.772226   2.767260
     8  H    1.102501   2.161403   2.161626   2.778885   2.760161
     9  H    2.161054   1.102451   2.778669   2.161387   4.198127
    10  H    2.161526   1.102532   2.772219   2.161812   4.198734
    11  H    2.157789   2.767023   1.101037   4.196098   2.168801
    12  H    2.157363   2.773731   1.101004   4.196009   2.168614
    13  H    2.771834   2.157597   4.199194   1.101015   5.198126
    14  H    2.769105   2.157550   4.193060   1.101016   5.195480
    15  H    2.796270   4.223468   2.177435   5.233310   1.098129
    16  H    3.501261   4.730400   2.191317   6.026883   1.096634
    17  H    2.798757   4.220558   2.177385   5.235785   1.098101
    18  H    4.221674   2.798243   5.232790   2.177339   6.619612
    19  H    4.222368   2.796701   5.235946   2.177466   6.620256
    20  H    4.730457   3.501239   6.026821   2.191313   7.267201
                    6          7          8          9         10
     6  C    0.000000
     7  H    4.195496   0.000000
     8  H    4.201618   1.761812   0.000000
     9  H    2.764940   3.071969   2.513742   0.000000
    10  H    2.762377   2.520009   3.072476   1.761807   0.000000
    11  H    5.195393   3.069061   2.516754   2.542277   3.081760
    12  H    5.197787   2.509887   3.068783   3.103710   2.542534
    13  H    2.168595   3.089830   2.547634   2.511735   3.069105
    14  H    2.168805   2.537421   3.095962   3.068741   2.514874
    15  H    6.620002   2.571423   3.109892   4.755364   4.419826
    16  H    7.267126   3.778068   3.774232   4.893261   4.889959
    17  H    6.620057   3.125089   2.566543   4.408394   4.753216
    18  H    1.098104   4.411445   4.756830   3.120939   2.568355
    19  H    1.098120   4.751973   4.416943   2.569420   3.113927
    20  H    1.096636   4.888158   4.895343   3.776495   3.775712
                   11         12         13         14         15
    11  H    0.000000
    12  H    1.760457   0.000000
    13  H    4.390552   4.727678   0.000000
    14  H    4.722317   4.379060   1.760469   0.000000
    15  H    3.085771   2.531508   5.405226   5.108841   0.000000
    16  H    2.524479   2.522561   6.188374   6.183217   1.772822
    17  H    2.529885   3.085543   5.114168   5.410340   1.770486
    18  H    5.402910   5.110779   3.085506   2.530047   6.771536
    19  H    5.111621   5.412095   2.531299   3.085778   6.997990
    20  H    6.185437   6.185810   2.522705   2.524305   7.402420
                   16         17         18         19         20
    16  H    0.000000
    17  H    1.772818   0.000000
    18  H    7.401957   6.997425   0.000000
    19  H    7.404544   6.768549   1.770485   0.000000
    20  H    8.181474   7.404444   1.772892   1.772770   0.000000
 Stoichiometry    C6H14
 Framework group  C1[X(C6H14)]
 Deg. of freedom    54
 Full point group                 C1      NOp   1
 Largest Abelian subgroup         C1      NOp   1
 Largest concise Abelian subgroup C1      NOp   1
                         Standard orientation:                         
 ---------------------------------------------------------------------
 Center     Atomic      Atomic             Coordinates (Angstroms)
 Number     Number       Type             X           Y           Z
 ---------------------------------------------------------------------
      1          6           0        0.665165    0.375929   -0.000278
      2          6           0       -0.665139   -0.375760    0.004693
      3          6           0        1.875210   -0.558325   -0.004237
      4          6           0       -1.875272    0.558355   -0.001615
      5          6           0        3.198297    0.209646    0.001753
      6          6           0       -3.198266   -0.209810   -0.000538
      7          1           0        0.709671    1.036723   -0.881655
      8          1           0        0.716070    1.037573    0.880145
      9          1           0       -0.712787   -1.030557    0.890338
     10          1           0       -0.712821   -1.043387   -0.871421
     11          1           0        1.822120   -1.223099    0.871856
     12          1           0        1.824045   -1.212201   -0.888566
     13          1           0       -1.824912    1.221505    0.875842
     14          1           0       -1.821558    1.213851   -0.884608
     15          1           0        3.275155    0.862095   -0.878184
     16          1           0        4.064449   -0.462927   -0.003983
     17          1           0        3.275538    0.847524    0.892242
     18          1           0       -3.274407   -0.857470   -0.884037
     19          1           0       -3.276030   -0.852529    0.886440
     20          1           0       -4.064496    0.462687   -0.003077
 ---------------------------------------------------------------------
 Rotational constants (GHZ):          14.4291038           1.1435971           1.1031531
 Standard basis: 6-311++G(d,p) (5D, 7F)
 There are   236 symmetry adapted cartesian basis functions of A   symmetry.
 There are   230 symmetry adapted basis functions of A   symmetry.
   230 basis functions,   342 primitive gaussians,   236 cartesian basis functions
    25 alpha electrons       25 beta electrons
       nuclear repulsion energy       244.0701730293 Hartrees.
 NAtoms=   20 NActive=   20 NUniq=   20 SFac= 1.00D+00 NAtFMM=   60 NAOKFM=F Big=F
 Integral buffers will be    131072 words long.
 Raffenetti 2 integral format.
 Two-electron integral symmetry is turned on.
 R6APFD:  NTU= -4 IXU= 1 FactS= 1.050
 Nuclear repulsion after empirical dispersion term =      244.0593876340 Hartrees.
 One-electron integrals computed using PRISM.
 NBasis=   230 RedAO= T EigKep=  6.50D-06  NBF=   230
 NBsUse=   230 1.00D-06 EigRej= -1.00D+00 NBFU=   230
 Initial guess from the checkpoint file:  "HXAE0128.chk"
 B after Tr=    -0.000000    0.000000   -0.000000
         Rot=    1.000000   -0.000217   -0.000014   -0.000092 Ang=  -0.03 deg.
 ExpMin= 3.60D-02 ExpMax= 4.56D+03 ExpMxC= 6.82D+02 IAcc=3 IRadAn=         5 AccDes= 0.00D+00
 Harris functional with IExCor= 1009 and IRadAn=       5 diagonalized for initial guess.
 HarFok:  IExCor= 1009 AccDes= 0.00D+00 IRadAn=         5 IDoV= 1 UseB2=F ITyADJ=14
 ICtDFT=  3500011 ScaDFX=  1.000000  1.000000  1.000000  1.000000
 FoFCou: FMM=F IPFlag=           0 FMFlag=      100000 FMFlg1=           0
         NFxFlg=           0 DoJE=T BraDBF=F KetDBF=T FulRan=T
         wScrn=  0.000000 ICntrl=       500 IOpCl=  0 I1Cent=   200000004 NGrid=           0
         NMat0=    1 NMatS0=      1 NMatT0=    0 NMatD0=    1 NMtDS0=    0 NMtDT0=    0
 Petite list used in FoFCou.
 Requested convergence on RMS density matrix=1.00D-08 within  32 cycles.
 Requested convergence on MAX density matrix=1.00D-06.
 Requested convergence on             energy=1.00D-06.
 No special actions if energy rises.
 SCF Done:  E(RM08HX) =  -237.097981791     A.U. after    8 cycles
            NFock=  8  Conv=0.40D-08     -V/T= 2.0064
 QCSCF skips out because SCF is already converged.
 R6APFD:  NTU= -4 IXU= 1 FactS= 1.050
 Calling FoFJK, ICntrl=      2127 FMM=F ISym2X=0 I1Cent= 0 IOpClX= 0 NMat=1 NMatS=1 NMatT=0.
 ***** Axes restored to original set *****
 -------------------------------------------------------------------
 Center     Atomic                   Forces (Hartrees/Bohr)
 Number     Number              X              Y              Z
 -------------------------------------------------------------------
      1        6          -0.000205395   -0.000631346    0.000010672
      2        6           0.000205672    0.000627218    0.000026011
      3        6           0.000390813    0.000530205   -0.000027478
      4        6          -0.000392711   -0.000532889    0.000028000
      5        6          -0.000326515   -0.000429058   -0.000011602
      6        6           0.000329831    0.000433711   -0.000002462
      7        1           0.000090807    0.000164819    0.000064384
      8        1           0.000024590    0.000151932   -0.000068489
      9        1          -0.000064162   -0.000209044   -0.000078967
     10        1          -0.000051795   -0.000107554    0.000054408
     11        1           0.000015015   -0.000039007   -0.000076136
     12        1          -0.000001977   -0.000091675    0.000098144
     13        1           0.000017199    0.000080363   -0.000093879
     14        1          -0.000028242    0.000056455    0.000078501
     15        1          -0.000042254    0.000014247    0.000040264
     16        1          -0.000087134    0.000102438    0.000006705
     17        1          -0.000033280    0.000026726   -0.000039267
     18        1           0.000027631   -0.000027054    0.000040196
     19        1           0.000044375   -0.000015336   -0.000035999
     20        1           0.000087533   -0.000105152   -0.000013005
 -------------------------------------------------------------------
 Cartesian Forces:  Max     0.000631346 RMS     0.000207352

[...]
 04579965,-0.00588998,-0.00729872,-0.00316636,-0.01751676,-0.02461215,-
 0.00110016,0.01629239,0.02254612,0.00168150,-0.00094215,-0.00104696,0.
 00168736,0.00063679,0.00099447,-0.00012582,-0.00000149,0.00016757,-0.0
 0084334,0.00074930,0.00098741,0.05537818,-0.00589898,-0.13230941,-0.11
 627440,-0.00173830,-0.01099696,-0.01438143,0.00053833,-0.01358235,-0.0
 1755042,0.00089749,0.00028375,0.00023678,-0.00108383,0.00053345,0.0002
 9492,-0.00000797,0.00011710,0.00027294,0.00072523,0.01114624,0.0152774
 5,0.00612197,0.14673173,-0.00744013,-0.11704151,-0.20968084,0.00011317
 ,0.00041804,0.00025738,-0.00013263,0.00034135,0.00013873,0.00025537,0.
 00001510,0.00004569,-0.00011605,0.00020823,0.00017352,-0.00017614,0.00
 031788,0.00030433,-0.00096528,-0.01542267,-0.02077715,0.00821708,0.130
 57364,0.22472172,-0.00320213,-0.01739466,0.02469292,-0.04582175,-0.006
 02737,0.00757335,0.00168040,-0.00093661,0.00105381,-0.00106767,0.01618
 055,-0.02262746,-0.00012590,-0.00000196,-0.00016809,0.00168869,0.00063
 310,-0.00099620,-0.00484766,-0.00282736,-0.00019309,0.00101697,0.00041
 171,-0.00050748,0.05540343,-0.00175980,-0.01092779,0.01443362,-0.00603
 391,-0.13116500,0.11588031,0.00089648,0.00028256,-0.00023644,0.0005130
 8,-0.01349652,0.01761867,-0.00000673,0.00011414,-0.00027195,-0.0010833
 8,0.00053094,-0.00029839,-0.00282873,-0.00116337,-0.00019677,0.0004143
 4,-0.00010257,-0.00007824,0.00627490,0.14544917,-0.00010970,-0.0003891
 3,0.00022506,0.00771429,0.11664676,-0.21080325,-0.00025728,-0.00001767
 ,0.00004819,0.00012798,-0.00024974,0.00001992,0.00017556,-0.00031699,0
 .00030715,0.00012395,-0.00020914,0.00017479,-0.00019378,-0.00019775,0.
 00158181,0.00050594,0.00008279,0.00069301,-0.00850047,-0.13017546,0.22
 597868,-0.00316403,-0.01752243,-0.02460855,-0.04579795,-0.00586862,-0.
 00726260,0.00168115,-0.00094172,-0.00104726,-0.00110321,0.01630224,0.0
 2253845,-0.00012550,-0.00000128,0.00016689,0.00168680,0.00063867,0.000
 99416,0.00101594,0.00041425,0.00050603,-0.00484825,-0.00282806,0.00019
 809,-0.00084334,0.00075298,0.00099132,0.05537764,-0.00173521,-0.010998
 07,-0.01437869,-0.00587918,-0.13238832,-0.11629956,0.00089923,0.000285
 37,0.00023505,0.00054184,-0.01359292,-0.01754493,-0.00000792,0.0001167
 8,0.00027402,-0.00108262,0.00053209,0.00029590,0.00041162,-0.00010307,
 0.00008286,-0.00282667,-0.00116147,0.00020705,0.00072164,0.01114620,0.
 01526684,0.00609586,0.14682103,0.00010994,0.00041605,0.00025542,-0.007
 40317,-0.11706657,-0.20959857,0.00025659,0.00001567,0.00004727,-0.0001
 3479,0.00035172,0.00015095,-0.00017613,0.00031773,0.00030423,-0.000114
 88,0.00020760,0.00017197,-0.00050758,-0.00007833,0.00069157,0.00019739
 ,0.00020608,0.00158044,-0.00096142,-0.01543327,-0.02077707,0.00818274,
 0.13059901,0.22463006,-0.00099803,0.01621887,-0.02271759,0.00173318,0.
 00075470,-0.00107711,-0.04585455,-0.00608342,0.00785580,-0.00013660,0.
 00009193,0.00009353,-0.00256491,-0.01793231,0.02475026,0.00002309,-0.0
 0008104,0.00008126,-0.00415063,0.00327758,0.00015676,0.00095311,-0.000
 61936,0.00048609,-0.00060103,-0.00043211,0.00064057,-0.00000165,-0.000
 08529,0.00000257,0.05563459,0.00064403,-0.01358633,0.01780608,-0.00113
 298,0.00030554,-0.00008654,-0.00632326,-0.13320687,0.11753559,0.000049
 27,0.00009553,-0.00027802,-0.00138718,-0.00999481,0.01339484,0.0000163
 4,0.00002017,-0.00006074,0.00337641,-0.00197953,-0.00025231,-0.0006234
 7,0.00008455,-0.00014235,0.00058873,0.00059391,-0.00018823,0.00008879,
 0.00000725,-0.00011055,0.00646895,0.14670857,-0.00010886,-0.00020148,0
 .00002411,0.00024695,-0.00004477,0.00004454,0.00817089,0.11858366,-0.2
 1328868,-0.00021240,-0.00030861,0.00031632,-0.00006285,-0.00123326,0.0
 0114329,-0.00006394,0.00005935,-0.00003315,0.00010068,-0.00025879,0.00
 162166,-0.00047455,0.00011621,0.00070113,-0.00066922,-0.00009756,0.000
 17585,0.00000670,0.00010701,-0.00008767,-0.00892541,-0.13155963,0.2280
 8031,-0.00103322,0.01631310,0.02264665,0.00173269,0.00075969,0.0010768
 9,-0.04582964,-0.00593024,-0.00756192,-0.00013684,0.00009164,-0.000095
 37,-0.00252987,-0.01803344,-0.02468466,0.00002313,-0.00008134,-0.00008
 081,0.00095379,-0.00062134,-0.00048294,-0.00415068,0.00327570,-0.00017
 895,-0.00000198,-0.00008439,-0.00000252,-0.00060146,-0.00043628,-0.000
 63936,-0.00083888,0.00083262,0.00094914,0.05560942,0.00067216,-0.01366
 267,-0.01774769,-0.00113400,0.00030514,0.00008520,-0.00617483,-0.13419
 759,-0.11787966,0.00004953,0.00009822,0.00027820,-0.00136580,-0.010040
 50,-0.01335062,0.00001652,0.00002030,0.00006069,-0.00062171,0.00008504
 ,0.00014413,0.00337711,-0.00197752,0.00027240,0.00008786,0.00000753,0.
 00011023,0.00059068,0.00059555,0.00018676,0.00080431,0.01135656,0.0152
 6250,0.00629902,0.14780933,0.00010198,0.00028647,0.00013437,-0.0002389
 2,0.00004402,0.00004389,-0.00787483,-0.11892567,-0.21233653,0.00021150
 ,0.00031000,0.00031410,0.00006103,0.00124925,0.00115412,0.00006391,-0.
 00005973,-0.00003315,0.00047754,-0.00011428,0.00070194,-0.00012409,0.0
 0027987,0.00161898,-0.00000754,-0.00010742,-0.00008683,0.00066595,0.00
 009553,0.00017480,-0.00092036,-0.01539562,-0.02080376,0.00862512,0.131
 90779,0.22701772,0.00173209,0.00076011,0.00107596,-0.00103042,0.016331
 88,0.02263399,-0.00013675,0.00009106,-0.00009454,-0.04583166,-0.005954
 20,-0.00758879,0.00002312,-0.00008138,-0.00008078,-0.00253086,-0.01805
 663,-0.02466613,-0.00000163,-0.00008525,-0.00000196,-0.00060113,-0.000
 43532,-0.00063963,0.00095294,-0.00062154,-0.00048269,-0.00415022,0.003
 27658,-0.00018155,0.00003654,0.00000287,0.00002353,0.00007689,-0.00021
 469,-0.00018462,0.05561012,-0.00113466,0.00030641,0.00008343,0.0006697
 2,-0.01367379,-0.01773637,0.00004991,0.00009845,0.00027924,-0.00619747
 ,-0.13440447,-0.11794575,0.00001656,0.00002018,0.00006049,-0.00136731,
 -0.01005392,-0.01334026,0.00008867,0.00000725,0.00011022,0.00059194,0.
 00059537,0.00018715,-0.00062127,0.00008466,0.00014460,0.00337540,-0.00
 197683,0.00027540,0.00000278,-0.00006521,-0.00000905,-0.00021499,0.000
 11481,0.00009413,0.00632605,0.14803888,-0.00023899,0.00004467,0.000045
 34,0.00010437,0.00029359,0.00014472,0.00021150,0.00030986,0.00031351,-
 0.00790278,-0.11899147,-0.21211732,0.00006393,-0.00005972,-0.00003316,
 0.00006396,0.00126377,0.00116926,-0.00000694,-0.00010762,-0.00008780,0
 .00066511,0.00009480,0.00017449,0.00047808,-0.00011416,0.00070068,-0.0
 0012590,0.00028123,0.00161859,-0.00002345,0.00000925,-0.00002771,-0.00
 018445,0.00009402,-0.00001127,0.00865027,0.13197569,0.22677577,0.00173
 376,0.00075433,-0.00107805,-0.00100073,0.01619989,-0.02272995,-0.00013
 669,0.00009250,0.00009434,-0.04585253,-0.00606044,0.00783034,0.0000231
 0,-0.00008100,0.00008128,-0.00256414,-0.01790912,0.02476882,-0.0006014
 0,-0.00043306,0.00064030,-0.00000199,-0.00008444,0.00000311,-0.0041510
 6,0.00327669,0.00015415,0.00095397,-0.00061917,0.00048634,0.00007637,-
 0.00021390,0.00018563,0.00003613,0.00000292,-0.00002319,-0.00083886,0.
 00080610,-0.00092492,0.05563403,-0.00113237,0.00030425,-0.00008829,0.0
 0064642,-0.01357530,0.01781751,0.00004889,0.00009531,-0.00027698,-0.00
 630158,-0.13300058,0.11746727,0.00001630,0.00002029,-0.00006094,-0.001
 38575,-0.00998109,0.01340483,0.00058747,0.00059411,-0.00018785,0.00008
 799,0.00000753,-0.00011056,0.00337814,-0.00198026,-0.00024931,-0.00062
 393,0.00008494,-0.00014189,-0.00021360,0.00011384,-0.00009496,0.000003
 00,-0.00006532,0.00000896,0.00083096,0.01135641,-0.01542386,0.00644289
 ,0.14647963,0.00024691,-0.00004413,0.00004308,-0.00010647,-0.00019448,
 0.00001363,-0.00021240,-0.00030875,0.00031691,0.00814431,0.11851562,-0
 .21350701,-0.00006392,0.00005936,-0.00003314,-0.00005991,-0.00121886,0
 .00112807,-0.00067005,-0.00009829,0.00017617,0.00000730,0.00010682,-0.
 00008670,0.00009886,-0.00025741,0.00162202,-0.00047401,0.00011634,0.00
 070239,0.00018580,-0.00009507,-0.00000979,0.00002327,-0.00000875,-0.00
 002775,0.00094474,0.01523426,-0.02080365,-0.00890181,-0.13148926,0.228
 32138,0.00191077,-0.00087337,0.00119809,-0.00014586,-0.00008712,-0.000
 15423,-0.00260318,-0.01716804,0.02480262,0.00003737,0.00009636,-0.0000
 8779,-0.04639249,-0.00713875,0.01073531,0.00002092,-0.00001642,-0.0000
 0229,-0.00051412,0.00058211,-0.00066958,-0.00001364,0.00009964,-0.0000
 2874,0.00013632,0.00020317,-0.00018888,0.00004006,-0.00001189,0.000030
 81,-0.00491561,-0.00289532,-0.00018045,0.00106296,0.00047814,-0.000393
 85,-0.00000313,-0.00000168,0.00000300,-0.00005327,0.00003970,-0.000018
 52,0.05097276,0.00101470,0.00041074,-0.00043278,0.00002552,0.00011383,
 -0.00022362,-0.00132514,-0.01117345,0.01472528,-0.00001108,-0.00000655
 ,-0.00005386,-0.00742873,-0.13402817,0.12292785,-0.00000294,0.00001793
 ,0.00000816,-0.00048093,0.00057518,-0.00006293,-0.00007505,0.00000917,
 -0.00009567,0.00019698,0.00004214,-0.00006131,-0.00001653,-0.00006238,
 -0.00000224,-0.00332545,-0.00094024,-0.00059366,0.00037077,-0.00017711
 ,-0.00014059,0.00000358,0.00000309,0.00000015,-0.00002872,0.00002359,-
 0.00000098,0.01220153,0.14460312,-0.00027101,-0.00016785,0.00013126,0.
 00014571,-0.00031375,0.00029068,-0.00009912,-0.00069793,0.00094866,0.0
 0005785,0.00006294,-0.00003315,0.01128886,0.12322507,-0.21930793,0.000
 02447,-0.00002609,0.00000588,0.00067730,-0.00013229,0.00008333,0.00000
 799,0.00011315,-0.00010843,-0.00017901,-0.00005515,-0.00001584,-0.0000
 2482,-0.00000825,-0.00002430,-0.00033241,-0.00026355,0.00153414,0.0005
 4227,0.00004188,0.00064845,0.00000244,-0.00000092,-0.00001089,0.000012
 57,-0.00000484,0.00002408,-0.01260905,-0.13590207,0.23514905,-0.003850
 20,-0.00554461,0.00000952,-0.00080188,0.00186480,-0.00000560,-0.020021
 20,0.01893033,-0.00004400,-0.00042247,-0.00063524,0.00000138,-0.210010
 89,0.12838739,-0.00030401,-0.00016152,0.00024672,-0.00000085,0.0002784
 8,-0.00010762,-0.00013335,0.00027909,-0.00010794,0.00013381,-0.0000068
 9,-0.00004295,0.00010609,-0.00000680,-0.00004353,-0.00010593,0.0005773
 6,-0.00002056,0.00067309,0.00058006,-0.00002323,-0.00067235,0.00001928
 ,0.00001093,0.00002965,0.00001927,0.00001078,-0.00002970,0.00176849,-0
 .00210579,-0.00019802,0.23011729,-0.00245016,-0.00207149,0.00000306,-0
 .00085686,0.00086907,-0.00000149,-0.01562107,0.01296422,-0.00003445,-0
 .00026097,-0.00024528,0.00000042,0.12944232,-0.14762806,0.00023735,-0.
 00007083,0.00007637,-0.00000028,-0.00016979,0.00002754,-0.00025804,-0.
 00017124,0.00002993,0.00025875,0.00007599,0.00003558,0.00002704,0.0000
 7642,0.00003561,-0.00002722,0.00080277,0.00064126,0.00014722,0.0008013
 5,0.00064312,-0.00014837,0.00000697,-0.00000497,0.00001718,0.00000701,
 -0.00000505,-0.00001712,0.01350542,-0.01127138,-0.00164041,-0.13866288
 ,0.15723819,0.00000001,-0.00000032,0.00022368,0.00000056,0.00000124,0.
 00060882,0.00001392,-0.00001399,-0.00141860,0.00000022,-0.00000004,-0.
 00000884,-0.00030600,0.00023732,-0.04656793,0.,0.00000006,0.00000427,0
 .00029467,-0.00033216,0.00022437,-0.00029344,0.00033323,0.00022136,-0.
 00007667,-0.00003927,-0.00001981,0.00007631,0.00003882,-0.00001993,0.0
 0027475,-0.00027518,-0.00005738,-0.00027717,0.00027258,-0.00005783,-0.
 00000176,-0.00000396,0.00000393,0.00000174,0.00000406,0.00000395,-0.02
 150404,0.01578397,0.00059052,0.00033513,-0.00025898,0.04561913,0.00191
 152,-0.00087892,-0.00119163,-0.00014625,-0.00008709,0.00015467,-0.0025
 7306,-0.01725393,-0.02474723,0.00003722,0.00009666,0.00008757,-0.04638
 092,-0.00704255,-0.01052735,0.00002089,-0.00001638,0.00000239,-0.00001
 389,0.00009907,0.00002907,-0.00051380,0.00058560,0.00066558,0.00003962
 ,-0.00001215,-0.00003037,0.00013578,0.00020419,0.00018807,0.00106472,0
 .00047985,0.00039221,-0.00491545,-0.00289299,0.00018187,-0.00005328,0.
 00003981,0.00001817,-0.00000300,-0.00000174,-0.00000296,-0.00132810,0.
 00100108,0.00094829,0.00174434,0.01357562,0.02146179,0.05095393,0.0010
 1246,0.00041100,0.00043456,0.00002471,0.00011612,0.00022316,-0.0013089
 7,-0.01122532,-0.01468494,-0.00001138,-0.00000650,0.00005399,-0.007332
 32,-0.13485013,-0.12321315,-0.00000305,0.00001801,-0.00000831,-0.00007
 445,0.00000924,0.00009488,-0.00048248,0.00057559,0.00005974,-0.0000165
 0,-0.00006235,0.00000264,0.00019734,0.00004265,0.00006132,0.00036882,-
 0.00017582,0.00014407,-0.00332668,-0.00093656,0.00059741,-0.00002875,0
 .00002360,0.00000086,0.00000359,0.00000305,-0.00000023,0.00098121,0.01
 187316,0.01576817,-0.00208828,-0.01131876,-0.01574733,0.01209858,0.145
 51566,0.00026839,0.00016484,0.00012569,-0.00014625,0.00031445,0.000288
 80,0.00010265,0.00072145,0.00097043,-0.00005764,-0.00006295,-0.0000330
 9,-0.01107796,-0.12351433,-0.21852904,-0.00002443,0.00002605,0.0000057
 7,-0.00000696,-0.00011346,-0.00010739,-0.00067646,0.00013154,0.0000824
 4,0.00002469,0.00000813,-0.00002434,0.00017849,0.00005520,-0.00001583,
 -0.00054298,-0.00003793,0.00064967,0.00033667,0.00027035,0.00153160,-0
 .00001258,0.00000497,0.00002406,-0.00000242,0.00000084,-0.00001083,-0.
 00093147,-0.01587187,-0.01990448,0.00020497,0.00169534,0.00066022,0.01
 236893,0.13620924,0.23428739,-0.00014604,-0.00008668,0.00015424,0.0019
 1192,-0.00087890,-0.00119074,0.00003729,0.00009681,0.00008744,-0.00257
 068,-0.01728706,-0.02472544,0.00002092,-0.00001642,0.00000239,-0.04636
 772,-0.00703656,-0.01049084,0.00004003,-0.00001209,-0.00003064,0.00013
 583,0.00020401,0.00018807,-0.00001374,0.00009978,0.00002847,-0.0005138
 0,0.00058526,0.00066566,-0.00000310,-0.00000169,-0.00000298,-0.0000532
 8,0.00003978,0.00001821,-0.00491623,-0.00289425,0.00018582,0.00106377,
 0.00048017,0.00039192,0.00000008,-0.00000016,-0.00000369,0.00001185,0.
 00000150,-0.00000154,0.00000781,0.00000396,0.00000617,0.05094157,0.000
 02441,0.00011649,0.00022427,0.00101433,0.00041314,0.00043294,-0.000011
 43,-0.00000660,0.00005376,-0.00130602,-0.01124116,-0.01466859,-0.00000
 306,0.00001803,-0.00000823,-0.00732845,-0.13519023,-0.12333304,-0.0000
 1639,-0.00006232,0.00000242,0.00019770,0.00004269,0.00006133,-0.000075
 15,0.00000912,0.00009494,-0.00048409,0.00057590,0.00005963,0.00000357,
 0.00000309,-0.00000022,-0.00002878,0.00002362,0.00000093,-0.00332536,-
 0.00093579,0.00060082,0.00036807,-0.00017630,0.00014502,-0.00000014,-0
 .00000937,0.00000274,-0.00001767,0.00000170,-0.00000157,0.00000397,-0.
 00000497,0.00000271,0.01209253,0.14588804,-0.00014645,0.00031442,0.000
 28805,0.00026784,0.00016514,0.00012655,-0.00005769,-0.00006296,-0.0000
 3309,0.00010209,0.00073497,0.00098484,-0.00002444,0.00002601,0.0000057
 7,-0.01104232,-0.12363164,-0.21817638,0.00002496,0.00000839,-0.0000243
 4,0.00017822,0.00005513,-0.00001590,-0.00000738,-0.00011358,-0.0001081
 6,-0.00067574,0.00013061,0.00008222,-0.00000244,0.00000085,-0.00001089
 ,-0.00001254,0.00000490,0.00002406,0.00034024,0.00027232,0.00153060,-0
 .00054344,-0.00003712,0.00064848,0.00000370,-0.00000270,-0.00000087,-0
 .00001546,-0.00000183,-0.00000262,0.00000616,0.00000271,0.00000243,0.0
 1232565,0.13633752,0.23390006,-0.00014607,-0.00008754,-0.00015466,0.00
 191038,-0.00087338,0.00119897,0.00003730,0.00009621,-0.00008792,-0.002
 60574,-0.01713493,0.02482444,0.00002088,-0.00001638,-0.00000229,-0.046
 40589,-0.00714540,0.01077361,0.00013627,0.00020335,-0.00018888,0.00003
 965,-0.00001196,0.00003054,-0.00051411,0.00058246,-0.00066949,-0.00001
 379,0.00009893,-0.00002934,-0.00005327,0.00003972,-0.00001847,-0.00000
 302,-0.00000172,0.00000298,0.00106392,0.00047781,-0.00039415,-0.004914
 91,-0.00289401,-0.00017652,0.00000783,0.00000395,-0.00000617,0.0000118
 2,0.00000150,0.00000156,0.00000007,-0.00000015,0.00000368,-0.00132808,
 0.00097728,-0.00093002,0.05098535,0.00002582,0.00011347,-0.00022250,0.
 00101279,0.00040861,-0.00043441,-0.00001103,-0.00000645,-0.00005410,-0
 .00132818,-0.01115727,0.01474121,-0.00000293,0.00001791,0.00000825,-0.
 00743325,-0.13368910,0.12280457,0.00019662,0.00004210,-0.00006130,-0.0
 0001664,-0.00006242,-0.00000246,-0.00047932,0.00057485,-0.00006303,-0.
 00007435,0.00000929,-0.00009560,-0.00002869,0.00002357,-0.00000091,0.0
 0000360,0.00000304,0.00000016,0.00037151,-0.00017663,-0.00013963,-0.00
 332672,-0.00094092,-0.00059024,0.00000394,-0.00000499,-0.00000267,-0.0
 0001758,0.00000171,0.00000152,-0.00000017,-0.00000936,-0.00000273,0.00
 100522,0.01187294,-0.01591662,0.01220825,0.14423175,0.00014551,-0.0003
 1377,0.00029142,-0.00027154,-0.00016754,0.00013040,0.00005781,0.000062
 93,-0.00003315,-0.00009965,-0.00068451,0.00093416,0.00002446,-0.000026
 12,0.00000588,0.01132627,0.12310440,-0.21965899,-0.00017928,-0.0000552
 2,-0.00001577,-0.00002456,-0.00000800,-0.00002430,0.00067801,-0.000133
 21,0.00008355,0.00000756,0.00011302,-0.00010765,0.00001261,-0.00000490
 ,0.00002408,0.00000242,-0.00000091,-0.00001083,0.00054181,0.00004269,0
 .00064964,-0.00032884,-0.00026158,0.00153513,-0.00000618,-0.00000267,0
 .00000244,0.00001559,0.00000181,-0.00000262,-0.00000368,0.00000277,-0.
 00000086,0.00094988,0.01572338,-0.01990430,-0.01265430,-0.13577007,0.2
 3553475,-0.00080189,0.00186481,-0.00000556,-0.00385022,-0.00554461,0.0
 0001264,-0.00042247,-0.00063525,0.00000109,-0.02002121,0.01893045,-0.0
 0007016,-0.00016153,0.00024672,-0.00000059,-0.21000936,0.12838715,-0.0
 0050542,-0.00000683,-0.00004293,0.00010614,-0.00000686,-0.00004354,-0.
 00010588,0.00027890,-0.00010819,-0.00013312,0.00027867,-0.00010737,0.0
 0013403,0.00001930,0.00001079,-0.00002969,0.00001925,0.00001092,0.0000
 2967,0.00057924,-0.00002405,-0.00067227,0.00057820,-0.00001973,0.00067
 316,0.00001185,-0.00001759,0.00001556,-0.00012549,-0.00003309,-0.00000
 004,0.00001183,-0.00001766,-0.00001549,0.00174158,-0.00208530,0.000209
 05,0.00177141,-0.00210891,-0.00019390,0.23011563,-0.00085685,0.0008690
 5,-0.00000122,-0.00245014,-0.00207142,0.00000535,-0.00026097,-0.000245
 27,0.00000032,-0.01562084,0.01296412,-0.00005413,-0.00007083,0.0000763
 7,-0.00000018,0.12944208,-0.14762865,0.00040040,0.00007603,0.00003557,
 0.00002706,0.00007639,0.00003561,-0.00002720,-0.00016942,0.00002706,-0
 .00025808,-0.00017161,0.00003041,0.00025869,0.00000700,-0.00000503,-0.
 00001712,0.00000698,-0.00000499,0.00001717,0.00080153,0.00064250,-0.00
 014943,0.00080260,0.00064187,0.00014616,0.00000151,0.00000171,0.000001
 81,-0.00003309,-0.00001930,0.,0.00000149,0.00000169,-0.00000183,0.0136
 0479,-0.01133801,0.00171349,0.01347599,-0.01125209,-0.00162250,-0.1386
 6264,0.15723879,0.00000158,0.00000008,0.00060882,0.00000517,0.00000410
 ,0.00022367,0.00000048,0.00000031,-0.00000884,0.00003546,-0.00003043,-
 0.00141852,0.00000011,-0.00000008,0.00000427,-0.00050814,0.00039899,-0
 .04656895,-0.00007667,-0.00003918,-0.00001982,0.00007631,0.00003891,-0
 .00001991,0.00029430,-0.00033244,0.00022459,-0.00029382,0.00033295,0.0
 0022114,0.00000175,0.00000403,0.00000396,-0.00000175,-0.00000400,0.000
 00392,-0.00027794,0.00027173,-0.00005879,0.00027399,-0.00027604,-0.000
 05642,0.00000155,0.00000153,-0.00000261,0.00000003,0.00000003,-0.00000
 467,-0.00000155,-0.00000156,-0.00000263,0.02144194,-0.01573074,0.00068
 351,-0.02152356,0.01580057,0.00056704,0.00055077,-0.00043874,0.0456202
 6\\-0.00001335,-0.00001459,-0.00000032,0.00001334,0.00001433,0.0000017
 6,0.00000825,0.00000838,-0.00000337,-0.00000830,-0.00000844,0.00000141
 ,-0.00000871,-0.00000826,0.00000175,0.00000872,0.00000852,0.00000117,0
 .00000220,0.00000331,0.00000012,0.00000285,0.00000219,-0.00000025,-0.0
 0000328,-0.00000318,-0.00000087,-0.00000179,-0.00000218,-0.00000034,-0
 .00000041,-0.00000184,0.00000016,0.00000066,-0.00000367,0.00000212,0.0
 0000038,0.00000377,-0.00000204,-0.00000056,0.00000181,-0.00000008,0.00
 000049,0.00000059,0.00000123,0.00000221,-0.00000108,-0.00000118,0.0000
 0280,-0.00000199,-0.00000040,-0.00000159,0.00000052,0.00000058,-0.0000
 0171,0.00000077,-0.00000106,-0.00000218,0.00000104,-0.00000037\\\@


 MEMORIES ARE LIKE AN ENGLISH GRAMMER LESSON -
 PRESENT TENSE, AND PAST PERFECT.
 Job cpu time:       0 days  1 hours 23 minutes 32.5 seconds.
 Elapsed time:       0 days  0 hours  5 minutes 15.4 seconds.
 File lengths (MBytes):  RWF=     92 Int=      0 D2E=      0 Chk=      6 Scr=      1
 Normal termination of Gaussian 16 at Sat Sep 20 10:32:18 2025.
