 Entering Gaussian System, Link 0=g16
 Input=HYAC0054.gjf
 Output=HYAC0054.log
 Initial command:
 /usr/local/g16/l1.exe "/dados_01/scratch/Gau-2494294.inp" -scrdir="/dados_01/scratch/"
 Entering Link 1 = /usr/local/g16/l1.exe PID=   2494295.
  
 Copyright (c) 1988-2017, Gaussian, Inc.  All Rights Reserved.
  
 This is part of the Gaussian(R) 16 program.  It is based on
 the Gaussian(R) 09 system (copyright 2009, Gaussian, Inc.),
 the Gaussian(R) 03 system (copyright 2003, Gaussian, Inc.),
 the Gaussian(R) 98 system (copyright 1998, Gaussian, Inc.),
 the Gaussian(R) 94 system (copyright 1995, Gaussian, Inc.),
 the Gaussian 92(TM) system (copyright 1992, Gaussian, Inc.),
 the Gaussian 90(TM) system (copyright 1990, Gaussian, Inc.),
 the Gaussian 88(TM) system (copyright 1988, Gaussian, Inc.),
 the Gaussian 86(TM) system (copyright 1986, Carnegie Mellon
 University), and the Gaussian 82(TM) system (copyright 1983,
 Carnegie Mellon University). Gaussian is a federally registered
 trademark of Gaussian, Inc.
  
 This software contains proprietary and confidential information,
 including trade secrets, belonging to Gaussian, Inc.
  
 This software is provided under written license and may be
 used, copied, transmitted, or stored only in accord with that
 written license.
  
 The following legend is applicable only to US Government
 contracts under FAR:
  
                    RESTRICTED RIGHTS LEGEND
  
 Use, reproduction and disclosure by the US Government is
 subject to restrictions as set forth in subparagraphs (a)
 and (c) of the Commercial Computer Software - Restricted
 Rights clause in FAR 52.227-19.
  
 Gaussian, Inc.
 340 Quinnipiac St., Bldg. 40, Wallingford CT 06492
  
  
 ---------------------------------------------------------------
 Warning -- This program may not be used in any manner that
 competes with the business of Gaussian, Inc. or will provide
 assistance to any competitor of Gaussian, Inc.  The licensee
 of this program is prohibited from giving any competitor of
 Gaussian, Inc. access to this program.  By using this program,
 the user acknowledges that Gaussian, Inc. is engaged in the
 business of creating and licensing software in the field of
 computational chemistry and represents and warrants to the
 licensee that it is not a competitor of Gaussian, Inc. and that
 it will not use this program in any manner prohibited above.
 ---------------------------------------------------------------
  

 Cite this work as:
 Gaussian 16, Revision B.01,
 M. J. Frisch, G. W. Trucks, H. B. Schlegel, G. E. Scuseria, 
 M. A. Robb, J. R. Cheeseman, G. Scalmani, V. Barone, 
 G. A. Petersson, H. Nakatsuji, X. Li, M. Caricato, A. V. Marenich, 
 J. Bloino, B. G. Janesko, R. Gomperts, B. Mennucci, H. P. Hratchian, 
 J. V. Ortiz, A. F. Izmaylov, J. L. Sonnenberg, D. Williams-Young, 
 F. Ding, F. Lipparini, F. Egidi, J. Goings, B. Peng, A. Petrone, 
 T. Henderson, D. Ranasinghe, V. G. Zakrzewski, J. Gao, N. Rega, 
 G. Zheng, W. Liang, M. Hada, M. Ehara, K. Toyota, R. Fukuda, 
 J. Hasegawa, M. Ishida, T. Nakajima, Y. Honda, O. Kitao, H. Nakai, 
 T. Vreven, K. Throssell, J. A. Montgomery, Jr., J. E. Peralta, 
 F. Ogliaro, M. J. Bearpark, J. J. Heyd, E. N. Brothers, K. N. Kudin, 
 V. N. Staroverov, T. A. Keith, R. Kobayashi, J. Normand, 
 K. Raghavachari, A. P. Rendell, J. C. Burant, S. S. Iyengar, 
 J. Tomasi, M. Cossi, J. M. Millam, M. Klene, C. Adamo, R. Cammi, 
 J. W. Ochterski, R. L. Martin, K. Morokuma, O. Farkas, 
 J. B. Foresman, and D. J. Fox, Gaussian, Inc., Wallingford CT, 2016.
 
 ******************************************
 Gaussian 16:  ES64L-G16RevB.01 20-Dec-2017
                 7-Oct-2025 
 ******************************************
 %nprocs=16
 Will use up to   16 processors via shared memory.
 %mem=40GB
 %chk=HYAC0054.chk
 ----------------------------------------------------------------------
 # opt freq=noraman M08HX/6-311++G** scf=xqc Empiricaldispersion=pfd In
 t(Grid=ultraFine)
 ----------------------------------------------------------------------
 1/18=20,19=15,26=4,38=1/1,3;
 2/9=110,12=2,17=6,18=5,40=1/2;
 3/5=4,6=6,7=1111,11=2,25=1,30=1,71=1,74=-74,75=-5,124=11/1,2,3;
 4//1;
 5/5=2,8=3,13=1,38=5/2,8;
 6/7=2,8=2,9=2,10=2,28=1/1;
 7//1,2,3,16;
 1/18=20,19=15,26=4/3(2);
 2/9=110/2;
 99//99;
 2/9=110/2;
 3/5=4,6=6,7=1111,11=2,25=1,30=1,71=1,74=-74,75=-5,124=11/1,2,3;
 4/5=5,16=3,69=1/1;
 5/5=2,8=3,13=1,38=5/2,8;
 7//1,2,3,16;
 1/18=20,19=15,26=4/3(-5);
 2/9=110/2;
 6/7=2,8=2,9=2,10=2,19=2,28=1/1;
 99/9=1/99;
 --------
 HYAC0054
 --------
 Symbolic Z-matrix:
 Charge =  0 Multiplicity = 1
 O                     3.9228    0.0762   -1.1419 
 O                     3.4392   -0.0845    1.0716 
 C                     0.6783   -0.0124    0.699 
 C                    -0.7683   -0.0068    0.3358 
 C                     1.6184    0.0362   -0.5112 
 C                    -1.4509    1.2031    0.2092 
 C                    -1.4387   -1.2114    0.1224 
 C                    -2.8036    1.2087   -0.1307 
 C                    -2.7915   -1.2058   -0.2175 
 C                     3.0682   -0.0076   -0.0927 
 C                    -3.4739    0.0042   -0.3441 
 H                     0.8911    0.8344    1.3657 
 H                     0.8968   -0.9044    1.3018 
 H                     1.4286   -0.8187   -1.1701 
 H                     1.4516    0.9596   -1.0775 
 H                    -0.9394    2.1484    0.3707 
 H                    -0.9178   -2.1606    0.2158 
 H                    -3.335     2.1507   -0.2298 
 H                    -3.3135   -2.1435   -0.3843 
 H                    -4.5271    0.0085   -0.609 
 H                     4.8601    0.0594   -0.853 
 

 GradGradGradGradGradGradGradGradGradGradGradGradGradGradGradGradGradGrad
 Berny optimization.
 Initialization pass.
                           ----------------------------
                           !    Initial Parameters    !
                           ! (Angstroms and Degrees)  !
 --------------------------                            --------------------------
 ! Name  Definition              Value          Derivative Info.                !
 --------------------------------------------------------------------------------
 ! R1    R(1,10)                 1.3558         estimate D2E/DX2                !
 ! R2    R(1,21)                 0.981          estimate D2E/DX2                !
 ! R3    R(2,10)                 1.2244         estimate D2E/DX2                !
 ! R4    R(3,4)                  1.4915         estimate D2E/DX2                !
 ! R5    R(3,5)                  1.5332         estimate D2E/DX2                !
 ! R6    R(3,12)                 1.0986         estimate D2E/DX2                !
 ! R7    R(3,13)                 1.0985         estimate D2E/DX2                !
 ! R8    R(4,6)                  1.3949         estimate D2E/DX2                !
 ! R9    R(4,7)                  1.395          estimate D2E/DX2                !
 ! R10   R(5,10)                 1.5096         estimate D2E/DX2                !
 ! R11   R(5,14)                 1.0959         estimate D2E/DX2                !
 ! R12   R(5,15)                 1.096          estimate D2E/DX2                !
 ! R13   R(6,8)                  1.3948         estimate D2E/DX2                !
 ! R14   R(6,16)                 1.0869         estimate D2E/DX2                !
 ! R15   R(7,9)                  1.3949         estimate D2E/DX2                !
 ! R16   R(7,17)                 1.0868         estimate D2E/DX2                !
 ! R17   R(8,11)                 1.3949         estimate D2E/DX2                !
 ! R18   R(8,18)                 1.0861         estimate D2E/DX2                !
 ! R19   R(9,11)                 1.3949         estimate D2E/DX2                !
 ! R20   R(9,19)                 1.0861         estimate D2E/DX2                !
 ! R21   R(11,20)                1.086          estimate D2E/DX2                !
 ! A1    A(10,1,21)            111.9199         estimate D2E/DX2                !
 ! A2    A(4,3,5)              113.7263         estimate D2E/DX2                !
 ! A3    A(4,3,12)             109.4366         estimate D2E/DX2                !
 ! A4    A(4,3,13)             109.2435         estimate D2E/DX2                !
 ! A5    A(5,3,12)             109.6224         estimate D2E/DX2                !
 ! A6    A(5,3,13)             109.6886         estimate D2E/DX2                !
 ! A7    A(12,3,13)            104.7356         estimate D2E/DX2                !
 ! A8    A(3,4,6)              119.9978         estimate D2E/DX2                !
 ! A9    A(3,4,7)              120.0074         estimate D2E/DX2                !
 ! A10   A(6,4,7)              119.9948         estimate D2E/DX2                !
 ! A11   A(3,5,10)             111.6614         estimate D2E/DX2                !
 ! A12   A(3,5,14)             110.0993         estimate D2E/DX2                !
 ! A13   A(3,5,15)             109.9522         estimate D2E/DX2                !
 ! A14   A(10,5,14)            108.0813         estimate D2E/DX2                !
 ! A15   A(10,5,15)            108.2911         estimate D2E/DX2                !
 ! A16   A(14,5,15)            108.6764         estimate D2E/DX2                !
 ! A17   A(4,6,8)              120.0123         estimate D2E/DX2                !
 ! A18   A(4,6,16)             120.7034         estimate D2E/DX2                !
 ! A19   A(8,6,16)             119.2841         estimate D2E/DX2                !
 ! A20   A(4,7,9)              119.9928         estimate D2E/DX2                !
 ! A21   A(4,7,17)             120.7116         estimate D2E/DX2                !
 ! A22   A(9,7,17)             119.2954         estimate D2E/DX2                !
 ! A23   A(6,8,11)             119.9915         estimate D2E/DX2                !
 ! A24   A(6,8,18)             120.0163         estimate D2E/DX2                !
 ! A25   A(11,8,18)            119.9923         estimate D2E/DX2                !
 ! A26   A(7,9,11)             120.0034         estimate D2E/DX2                !
 ! A27   A(7,9,19)             120.0059         estimate D2E/DX2                !
 ! A28   A(11,9,19)            119.9906         estimate D2E/DX2                !
 ! A29   A(1,10,2)             123.2824         estimate D2E/DX2                !
 ! A30   A(1,10,5)             112.8939         estimate D2E/DX2                !
 ! A31   A(2,10,5)             123.8095         estimate D2E/DX2                !
 ! A32   A(8,11,9)             120.0051         estimate D2E/DX2                !
 ! A33   A(8,11,20)            119.9951         estimate D2E/DX2                !
 ! A34   A(9,11,20)            119.9998         estimate D2E/DX2                !
 ! D1    D(21,1,10,2)            0.5042         estimate D2E/DX2                !
 ! D2    D(21,1,10,5)          179.1802         estimate D2E/DX2                !
 ! D3    D(5,3,4,6)            -89.9815         estimate D2E/DX2                !
 ! D4    D(5,3,4,7)             90.0046         estimate D2E/DX2                !
 ! D5    D(12,3,4,6)            32.9808         estimate D2E/DX2                !
 ! D6    D(12,3,4,7)          -147.0331         estimate D2E/DX2                !
 ! D7    D(13,3,4,6)           147.1152         estimate D2E/DX2                !
 ! D8    D(13,3,4,7)           -32.8987         estimate D2E/DX2                !
 ! D9    D(4,3,5,10)          -178.5217         estimate D2E/DX2                !
 ! D10   D(4,3,5,14)           -58.4593         estimate D2E/DX2                !
 ! D11   D(4,3,5,15)            61.2505         estimate D2E/DX2                !
 ! D12   D(12,3,5,10)           58.6178         estimate D2E/DX2                !
 ! D13   D(12,3,5,14)          178.6802         estimate D2E/DX2                !
 ! D14   D(12,3,5,15)          -61.61           estimate D2E/DX2                !
 ! D15   D(13,3,5,10)          -55.8627         estimate D2E/DX2                !
 ! D16   D(13,3,5,14)           64.1998         estimate D2E/DX2                !
 ! D17   D(13,3,5,15)         -176.0905         estimate D2E/DX2                !
 ! D18   D(3,4,6,8)            179.9867         estimate D2E/DX2                !
 ! D19   D(3,4,6,16)             0.1225         estimate D2E/DX2                !
 ! D20   D(7,4,6,8)              0.0006         estimate D2E/DX2                !
 ! D21   D(7,4,6,16)          -179.8636         estimate D2E/DX2                !
 ! D22   D(3,4,7,9)           -179.9879         estimate D2E/DX2                !
 ! D23   D(3,4,7,17)            -0.1195         estimate D2E/DX2                !
 ! D24   D(6,4,7,9)             -0.0018         estimate D2E/DX2                !
 ! D25   D(6,4,7,17)           179.8665         estimate D2E/DX2                !
 ! D26   D(3,5,10,1)          -178.0635         estimate D2E/DX2                !
 ! D27   D(3,5,10,2)             0.6043         estimate D2E/DX2                !
 ! D28   D(14,5,10,1)           60.6954         estimate D2E/DX2                !
 ! D29   D(14,5,10,2)         -120.6368         estimate D2E/DX2                !
 ! D30   D(15,5,10,1)          -56.8663         estimate D2E/DX2                !
 ! D31   D(15,5,10,2)          121.8015         estimate D2E/DX2                !
 ! D32   D(4,6,8,11)            -0.0019         estimate D2E/DX2                !
 ! D33   D(4,6,8,18)          -179.9677         estimate D2E/DX2                !
 ! D34   D(16,6,8,11)          179.8642         estimate D2E/DX2                !
 ! D35   D(16,6,8,18)           -0.1016         estimate D2E/DX2                !
 ! D36   D(4,7,9,11)             0.0043         estimate D2E/DX2                !
 ! D37   D(4,7,9,19)           179.9618         estimate D2E/DX2                !
 ! D38   D(17,7,9,11)         -179.8659         estimate D2E/DX2                !
 ! D39   D(17,7,9,19)            0.0916         estimate D2E/DX2                !
 ! D40   D(6,8,11,9)             0.0044         estimate D2E/DX2                !
 ! D41   D(6,8,11,20)         -179.985          estimate D2E/DX2                !
 ! D42   D(18,8,11,9)          179.9702         estimate D2E/DX2                !
 ! D43   D(18,8,11,20)          -0.0192         estimate D2E/DX2                !
 ! D44   D(7,9,11,8)            -0.0056         estimate D2E/DX2                !
 ! D45   D(7,9,11,20)          179.9838         estimate D2E/DX2                !
 ! D46   D(19,9,11,8)         -179.9631         estimate D2E/DX2                !
 ! D47   D(19,9,11,20)           0.0263         estimate D2E/DX2                !
 --------------------------------------------------------------------------------
 Trust Radius=3.00D-01 FncErr=1.00D-07 GrdErr=1.00D-06 EigMax=2.50D+02 EigMin=1.00D-04
 Number of steps in this run=    112 maximum allowed number of steps=    126.
 GradGradGradGradGradGradGradGradGradGradGradGradGradGradGradGradGradGrad

                          Input orientation:                          
 ---------------------------------------------------------------------
 Center     Atomic      Atomic             Coordinates (Angstroms)
 Number     Number       Type             X           Y           Z
 ---------------------------------------------------------------------
      1          8           0        3.922800    0.076200   -1.141900
      2          8           0        3.439200   -0.084500    1.071600
      3          6           0        0.678300   -0.012400    0.699000
      4          6           0       -0.768300   -0.006800    0.335800
      5          6           0        1.618400    0.036200   -0.511200
      6          6           0       -1.450900    1.203100    0.209200
      7          6           0       -1.438700   -1.211400    0.122400
      8          6           0       -2.803600    1.208700   -0.130700
      9          6           0       -2.791500   -1.205800   -0.217500
     10          6           0        3.068200   -0.007600   -0.092700
     11          6           0       -3.473900    0.004200   -0.344100
     12          1           0        0.891100    0.834400    1.365700
     13          1           0        0.896800   -0.904400    1.301800
     14          1           0        1.428600   -0.818700   -1.170100
     15          1           0        1.451600    0.959600   -1.077500
     16          1           0       -0.939400    2.148400    0.370700
     17          1           0       -0.917800   -2.160600    0.215800
     18          1           0       -3.335000    2.150700   -0.229800
     19          1           0       -3.313500   -2.143500   -0.384300
     20          1           0       -4.527100    0.008500   -0.609000
     21          1           0        4.860100    0.059400   -0.853000
 ---------------------------------------------------------------------
                    Distance matrix (angstroms):
                    1          2          3          4          5
     1  O    0.000000
     2  O    2.271404   0.000000
     3  C    3.731426   2.786862   0.000000
     4  C    4.919035   4.272060   1.491508   0.000000
     5  C    2.389486   2.415603   1.533210   2.532902   0.000000
     6  C    5.654381   5.129788   2.500167   1.394930   3.361731
     7  C    5.657035   5.095566   2.500351   1.395004   3.362115
     8  C    6.895617   6.487715   3.781946   2.416094   4.590601
     9  C    6.897816   6.460705   3.782022   2.416005   4.590865
    10  C    1.355797   1.224397   2.517625   3.860356   1.509629
    11  C    7.439949   7.057126   4.281250   2.789741   5.095141
    12  H    4.006761   2.724644   1.098564   2.126481   2.165373
    13  H    4.011225   2.681236   1.098533   2.124006   2.166196
    14  H    2.650033   3.099481   2.169471   2.784472   1.095914
    15  H    2.625142   3.107946   2.167655   2.803445   1.095986
    16  H    5.497541   4.964800   2.719153   2.162263   3.432416
    17  H    5.502548   4.901636   2.719518   2.162315   3.433187
    18  H    7.603364   7.251176   4.652768   3.400391   5.393187
    19  H    7.606909   7.208196   4.652912   3.400305   5.393592
    20  H    8.466958   8.142174   5.367261   3.875753   6.146341
    21  H    0.980957   2.396612   4.461088   5.752957   3.259752
                    6          7          8          9         10
     6  C    0.000000
     7  C    2.416091   0.000000
     8  C    1.394762   2.789963   0.000000
     9  C    2.789638   1.394859   2.416090   0.000000
    10  C    4.688198   4.669855   5.996571   5.982252   0.000000
    11  C    2.415788   2.416060   1.394870   1.394918   6.546939
    12  H    2.637877   3.340518   4.003763   4.497831   2.752392
    13  H    3.338716   2.634349   4.495576   4.000334   2.732006
    14  H    3.779109   3.169571   4.806477   4.343563   2.122961
    15  H    3.184242   3.808784   4.366372   4.840708   2.125724
    16  H    1.086879   3.405761   2.147016   3.876456   4.574269
    17  H    3.405689   1.086757   3.876659   2.147125   4.540790
    18  H    2.154182   3.876044   1.086080   3.400241   6.758552
    19  H    3.875726   2.154166   3.400229   1.086088   6.735963
    20  H    3.399930   3.400194   2.153997   2.154090   7.612845
    21  H    6.501157   6.499325   7.782988   7.781489   1.947678
                   11         12         13         14         15
    11  C    0.000000
    12  H    4.760869   0.000000
    13  H    4.757894   1.739983   0.000000
    14  H    5.039241   3.074399   2.529910   0.000000
    15  H    5.070623   2.509793   3.073006   1.780858   0.000000
    16  H    3.395913   2.463199   3.682141   4.096971   3.037665
    17  H    3.396100   3.682990   2.459717   3.037599   4.125813
    18  H    2.154024   4.705123   5.439445   5.691519   5.004883
    19  H    2.154057   5.441420   4.701588   4.985989   5.728519
    20  H    1.086011   5.825671   5.822648   6.038995   6.071980
    21  H    8.349706   4.612615   4.613006   3.556235   3.532511
                   16         17         18         19         20
    16  H    0.000000
    17  H    4.311837   0.000000
    18  H    2.469718   4.962733   0.000000
    19  H    4.962538   2.469775   4.297032   0.000000
    20  H    4.290755   4.290960   2.480709   2.480810   0.000000
    21  H    6.284550   6.281311   8.480659   8.478218   9.390509
                   21
    21  H    0.000000
 Stoichiometry    C9H10O2
 Framework group  C1[X(C9H10O2)]
 Deg. of freedom    57
 Full point group                 C1      NOp   1
 Largest Abelian subgroup         C1      NOp   1
 Largest concise Abelian subgroup C1      NOp   1
                         Standard orientation:                         
 ---------------------------------------------------------------------
 Center     Atomic      Atomic             Coordinates (Angstroms)
 Number     Number       Type             X           Y           Z
 ---------------------------------------------------------------------
      1          8           0       -3.787211   -0.065781   -1.111588
      2          8           0       -3.294401    0.081319    1.100825
      3          6           0       -0.535103    0.009871    0.716419
      4          6           0        0.909985    0.005622    0.347231
      5          6           0       -1.480209   -0.030905   -0.490165
      6          6           0        1.591330   -1.203888    0.210543
      7          6           0        1.580225    1.211098    0.138317
      8          6           0        2.942615   -1.208222   -0.134959
      9          6           0        2.931609    1.206763   -0.207185
     10          6           0       -2.928246    0.011212   -0.065436
     11          6           0        3.612754   -0.002847   -0.343872
     12          1           0       -0.745664   -0.840803    1.378886
     13          1           0       -0.750581    0.898353    1.325469
     14          1           0       -1.292611    0.827834   -1.144689
     15          1           0       -1.316298   -0.950977   -1.062692
     16          1           0        1.079932   -2.149847    0.368462
     17          1           0        1.060285    2.160019    0.239571
     18          1           0        3.473036   -2.149915   -0.241912
     19          1           0        3.453482    2.145148   -0.370493
     20          1           0        4.664852   -0.006160   -0.613133
     21          1           0       -4.723303   -0.050179   -0.818731
 ---------------------------------------------------------------------
 Rotational constants (GHZ):           3.3215924           0.4573270           0.4445407
 Standard basis: 6-311++G(d,p) (5D, 7F)
 There are   323 symmetry adapted cartesian basis functions of A   symmetry.
 There are   312 symmetry adapted basis functions of A   symmetry.
   312 basis functions,   486 primitive gaussians,   323 cartesian basis functions
    40 alpha electrons       40 beta electrons
       nuclear repulsion energy       555.7243063813 Hartrees.
 NAtoms=   21 NActive=   21 NUniq=   21 SFac= 1.00D+00 NAtFMM=   60 NAOKFM=F Big=F
 Integral buffers will be    131072 words long.
 Raffenetti 2 integral format.
 Two-electron integral symmetry is turned on.
 R6APFD:  NTU= -4 IXU= 1 FactS= 1.050
 Nuclear repulsion after empirical dispersion term =      555.7112940278 Hartrees.
 One-electron integrals computed using PRISM.
 NBasis=   312 RedAO= T EigKep=  2.98D-06  NBF=   312
 NBsUse=   311 1.00D-06 EigRej=  6.92D-07 NBFU=   311
 ExpMin= 3.60D-02 ExpMax= 8.59D+03 ExpMxC= 1.30D+03 IAcc=3 IRadAn=         5 AccDes= 0.00D+00
 Harris functional with IExCor= 1009 and IRadAn=       5 diagonalized for initial guess.
 HarFok:  IExCor= 1009 AccDes= 0.00D+00 IRadAn=         5 IDoV= 1 UseB2=F ITyADJ=14
 ICtDFT=  3500011 ScaDFX=  1.000000  1.000000  1.000000  1.000000
 FoFCou: FMM=F IPFlag=           0 FMFlag=      100000 FMFlg1=           0
         NFxFlg=           0 DoJE=T BraDBF=F KetDBF=T FulRan=T
         wScrn=  0.000000 ICntrl=       500 IOpCl=  0 I1Cent=   200000004 NGrid=           0
         NMat0=    1 NMatS0=      1 NMatT0=    0 NMatD0=    1 NMtDS0=    0 NMtDT0=    0
 Petite list used in FoFCou.
 Requested convergence on RMS density matrix=1.00D-08 within  32 cycles.
 Requested convergence on MAX density matrix=1.00D-06.
 Requested convergence on             energy=1.00D-06.
 No special actions if energy rises.
 SCF Done:  E(RM08HX) =  -499.443508376     A.U. after   15 cycles
            NFock= 15  Conv=0.25D-08     -V/T= 2.0048
 QCSCF skips out because SCF is already converged.

 **********************************************************************

            Population analysis using the SCF Density.

 **********************************************************************

 Orbital symmetries:
       Occupied  (A) (A) (A) (A) (A) (A) (A) (A) (A) (A) (A) (A)
                 (A) (A) (A) (A) (A) (A) (A) (A) (A) (A) (A) (A)
                 (A) (A) (A) (A) (A) (A) (A) (A) (A) (A) (A) (A)
                 (A) (A) (A) (A)
       Virtual   (A) (A) (A) (A) (A) (A) (A) (A) (A) (A) (A) (A)
                 (A) (A) (A) (A) (A) (A) (A) (A) (A) (A) (A) (A)
                 (A) (A) (A) (A) (A) (A) (A) (A) (A) (A) (A) (A)
                 (A) (A) (A) (A) (A) (A) (A) (A) (A) (A) (A) (A)
                 (A) (A) (A) (A) (A) (A) (A) (A) (A) (A) (A) (A)
                 (A) (A) (A) (A) (A) (A) (A) (A) (A) (A) (A) (A)
                 (A) (A) (A) (A) (A) (A) (A) (A) (A) (A) (A) (A)
                 (A) (A) (A) (A) (A) (A) (A) (A) (A) (A) (A) (A)
                 (A) (A) (A) (A) (A) (A) (A) (A) (A) (A) (A) (A)
                 (A) (A) (A) (A) (A) (A) (A) (A) (A) (A) (A) (A)
                 (A) (A) (A) (A) (A) (A) (A) (A) (A) (A) (A) (A)
                 (A) (A) (A) (A) (A) (A) (A) (A) (A) (A) (A) (A)
                 (A) (A) (A) (A) (A) (A) (A) (A) (A) (A) (A) (A)
                 (A) (A) (A) (A) (A) (A) (A) (A) (A) (A) (A) (A)
                 (A) (A) (A) (A) (A) (A) (A) (A) (A) (A) (A) (A)
                 (A) (A) (A) (A) (A) (A) (A) (A) (A) (A) (A) (A)
                 (A) (A) (A) (A) (A) (A) (A) (A) (A) (A) (A) (A)
                 (A) (A) (A) (A) (A) (A) (A) (A) (A) (A) (A) (A)
                 (A) (A) (A) (A) (A) (A) (A) (A) (A) (A) (A) (A)
                 (A) (A) (A) (A) (A) (A) (A) (A) (A) (A) (A) (A)
                 (A) (A) (A) (A) (A) (A) (A) (A) (A) (A) (A) (A)
                 (A) (A) (A) (A) (A) (A) (A) (A) (A) (A) (A) (A)
                 (A) (A) (A) (A) (A) (A) (A)
 The electronic state is 1-A.
 Alpha  occ. eigenvalues --  -19.66796 -19.61019 -10.68171 -10.55562 -10.54782
 Alpha  occ. eigenvalues --  -10.54045 -10.54035 -10.53860 -10.53858 -10.53829
 Alpha  occ. eigenvalues --  -10.53784  -1.23647  -1.14004  -0.97996  -0.91574
 Alpha  occ. eigenvalues --   -0.85558  -0.85496  -0.77534  -0.70234  -0.70113
 Alpha  occ. eigenvalues --   -0.66534  -0.60191  -0.58441  -0.57655  -0.57250
 Alpha  occ. eigenvalues --   -0.53719  -0.53260  -0.49823  -0.49306  -0.48808
 Alpha  occ. eigenvalues --   -0.47885  -0.46120  -0.43084  -0.42766  -0.40543
 Alpha  occ. eigenvalues --   -0.40490  -0.40221  -0.36668  -0.31616  -0.30685
 Alpha virt. eigenvalues --   -0.03237  -0.02223  -0.01605  -0.00781  -0.00540
 Alpha virt. eigenvalues --   -0.00020   0.00524   0.01044   0.01574   0.02313
 Alpha virt. eigenvalues --    0.02952   0.03470   0.03775   0.03819   0.04759
 Alpha virt. eigenvalues --    0.05430   0.06685   0.07091   0.08060   0.08529
 Alpha virt. eigenvalues --    0.09208   0.09467   0.10295   0.10442   0.11268
 Alpha virt. eigenvalues --    0.11304   0.11532   0.11732   0.12309   0.13037
 Alpha virt. eigenvalues --    0.13234   0.14054   0.14054   0.14365   0.14955
 Alpha virt. eigenvalues --    0.15485   0.15810   0.16195   0.16831   0.17396
 Alpha virt. eigenvalues --    0.17943   0.19020   0.19454   0.20139   0.21077
 Alpha virt. eigenvalues --    0.21356   0.21931   0.22008   0.22806   0.23026
 Alpha virt. eigenvalues --    0.24769   0.24902   0.25689   0.26326   0.27968
 Alpha virt. eigenvalues --    0.28285   0.28948   0.29031   0.29523   0.30693
 Alpha virt. eigenvalues --    0.30777   0.31465   0.32067   0.32244   0.33050
 Alpha virt. eigenvalues --    0.33703   0.34675   0.36434   0.37969   0.38067
 Alpha virt. eigenvalues --    0.38228   0.40050   0.40832   0.40893   0.45869
 Alpha virt. eigenvalues --    0.49158   0.49470   0.50072   0.52712   0.53820
 Alpha virt. eigenvalues --    0.55482   0.56045   0.57164   0.57515   0.58508
 Alpha virt. eigenvalues --    0.59087   0.60342   0.61252   0.61588   0.63195
 Alpha virt. eigenvalues --    0.64484   0.66746   0.66809   0.67904   0.69623
 Alpha virt. eigenvalues --    0.70464   0.71167   0.71820   0.73181   0.74079
 Alpha virt. eigenvalues --    0.74301   0.74716   0.76243   0.76448   0.77213
 Alpha virt. eigenvalues --    0.77930   0.79747   0.80089   0.81725   0.86890
 Alpha virt. eigenvalues --    0.87107   0.87141   0.88480   0.90197   0.90390
 Alpha virt. eigenvalues --    0.93152   0.93424   0.94198   0.94952   1.03385
 Alpha virt. eigenvalues --    1.04273   1.05739   1.07368   1.07992   1.08881
 Alpha virt. eigenvalues --    1.12076   1.12302   1.13565   1.15611   1.17647
 Alpha virt. eigenvalues --    1.19356   1.20450   1.21540   1.23413   1.25049
 Alpha virt. eigenvalues --    1.28126   1.30197   1.31339   1.42351   1.43115
 Alpha virt. eigenvalues --    1.44147   1.44676   1.51198   1.51385   1.54764
 Alpha virt. eigenvalues --    1.54971   1.55597   1.56639   1.57902   1.59312
 Alpha virt. eigenvalues --    1.59495   1.60973   1.61179   1.61956   1.65017
 Alpha virt. eigenvalues --    1.65235   1.66719   1.67517   1.70819   1.72976
 Alpha virt. eigenvalues --    1.74439   1.75442   1.77312   1.79241   1.80729
 Alpha virt. eigenvalues --    1.81847   1.83890   1.86298   1.86860   1.91953
 Alpha virt. eigenvalues --    1.95371   1.96856   1.96967   1.97596   1.98421
 Alpha virt. eigenvalues --    1.99072   2.00138   2.01376   2.05394   2.06035
 Alpha virt. eigenvalues --    2.07112   2.12032   2.13861   2.15362   2.17643
 Alpha virt. eigenvalues --    2.23333   2.24554   2.27471   2.31705   2.38290
 Alpha virt. eigenvalues --    2.41996   2.43057   2.44030   2.46187   2.46780
 Alpha virt. eigenvalues --    2.47507   2.53501   2.56296   2.60202   2.60790
 Alpha virt. eigenvalues --    2.62757   2.65979   2.66652   2.67193   2.69637
 Alpha virt. eigenvalues --    2.70439   2.71003   2.72330   2.74043   2.74824
 Alpha virt. eigenvalues --    2.77081   2.77714   2.81420   2.85571   2.86620
 Alpha virt. eigenvalues --    2.89677   2.90423   2.92303   2.95185   2.96129
 Alpha virt. eigenvalues --    2.99486   2.99614   3.01414   3.02373   3.04553
 Alpha virt. eigenvalues --    3.11064   3.17954   3.18286   3.23985   3.24383
 Alpha virt. eigenvalues --    3.26769   3.30857   3.42220   3.43476   3.44700
 Alpha virt. eigenvalues --    3.46488   3.54673   3.59921   3.62682   3.64394
 Alpha virt. eigenvalues --    3.72462   3.76787   3.83542   3.87324   3.88284
 Alpha virt. eigenvalues --    4.03212   4.08282   4.12864   4.13509   4.20993
 Alpha virt. eigenvalues --    4.21293   4.35494   4.44864   4.92242   5.07231
 Alpha virt. eigenvalues --    5.15334   5.32966   5.46342   5.68370   5.94443
 Alpha virt. eigenvalues --   23.68351  23.82456  23.94210  23.99233  24.02851
 Alpha virt. eigenvalues --   24.03240  24.14872  24.15001  24.24567  49.88106
 Alpha virt. eigenvalues --   49.99626
          Condensed to atoms (all electrons):
               1          2          3          4          5          6
     1  O    8.035831  -0.125828  -0.040578   0.047257  -0.244482   0.004470
     2  O   -0.125828   7.970694  -0.157492   0.194721   0.091981   0.012034
     3  C   -0.040578  -0.157492  24.254808  -9.046385  -2.031558  -3.365668
     4  C    0.047257   0.194721  -9.046385  14.642571   0.669447  -0.130730
     5  C   -0.244482   0.091981  -2.031558   0.669447   8.249075   0.171377
     6  C    0.004470   0.012034  -3.365668  -0.130730   0.171377  12.825532
     7  C    0.003256   0.005671  -3.566381  -0.052869   0.223052  -3.593891
     8  C    0.000700  -0.002523   0.134370  -0.549019   0.035639  -1.643486
     9  C   -0.000146  -0.003813   0.214855  -0.570373   0.029704   1.918126
    10  C    0.237939   0.292959   0.518118  -0.468795  -1.238934   0.031302
    11  C    0.000791   0.000214  -1.137335   0.662733   0.097525  -0.290229
    12  H   -0.003837  -0.014156   0.696338  -0.145449  -0.067998  -0.098946
    13  H   -0.005032  -0.015113   0.711481  -0.158364  -0.070961  -0.005432
    14  H   -0.000486  -0.001682  -0.027967   0.008344   0.437240  -0.025822
    15  H   -0.002278  -0.002239   0.000390  -0.011402   0.440637  -0.016745
    16  H    0.000061   0.001651  -0.138007   0.033745  -0.003146   0.451245
    17  H    0.000238   0.001572  -0.145348   0.036656  -0.001862   0.018353
    18  H   -0.000017   0.000032   0.026564   0.023495  -0.001213  -0.091455
    19  H   -0.000023   0.000032   0.025609   0.024936  -0.001215   0.039675
    20  H    0.000013   0.000003  -0.049325   0.035394   0.001953   0.007300
    21  H    0.257089  -0.012627  -0.011121   0.008954  -0.070136   0.001292
               7          8          9         10         11         12
     1  O    0.003256   0.000700  -0.000146   0.237939   0.000791  -0.003837
     2  O    0.005671  -0.002523  -0.003813   0.292959   0.000214  -0.014156
     3  C   -3.566381   0.134370   0.214855   0.518118  -1.137335   0.696338
     4  C   -0.052869  -0.549019  -0.570373  -0.468795   0.662733  -0.145449
     5  C    0.223052   0.035639   0.029704  -1.238934   0.097525  -0.067998
     6  C   -3.593891  -1.643486   1.918126   0.031302  -0.290229  -0.098946
     7  C   12.978865   1.901369  -1.746363   0.028278  -0.219013  -0.004789
     8  C    1.901369   6.850866  -0.758222   0.028895   0.107508   0.040508
     9  C   -1.746363  -0.758222   6.903531   0.023874   0.087144  -0.041934
    10  C    0.028278   0.028895   0.023874   6.580375   0.019864  -0.029033
    11  C   -0.219013   0.107508   0.087144   0.019864   6.870439  -0.022771
    12  H   -0.004789   0.040508  -0.041934  -0.029033  -0.022771   0.479611
    13  H   -0.102721  -0.043138   0.045314  -0.026761  -0.022851  -0.031468
    14  H   -0.009395  -0.019969   0.008281  -0.056308   0.005430  -0.000785
    15  H   -0.029168   0.012414  -0.020653  -0.058617   0.004058   0.003189
    16  H    0.014955  -0.110301   0.054547  -0.000385   0.001471  -0.016568
    17  H    0.444233   0.054262  -0.106223   0.000910   0.002051   0.001534
    18  H    0.037579   0.395147  -0.007699  -0.001878  -0.078692   0.003094
    19  H   -0.095021  -0.008432   0.395979  -0.001979  -0.077679   0.000344
    20  H    0.006020  -0.051537  -0.050506   0.000451   0.426320  -0.000582
    21  H    0.001279  -0.000022  -0.000262   0.065368   0.000327  -0.001645
              13         14         15         16         17         18
     1  O   -0.005032  -0.000486  -0.002278   0.000061   0.000238  -0.000017
     2  O   -0.015113  -0.001682  -0.002239   0.001651   0.001572   0.000032
     3  C    0.711481  -0.027967   0.000390  -0.138007  -0.145348   0.026564
     4  C   -0.158364   0.008344  -0.011402   0.033745   0.036656   0.023495
     5  C   -0.070961   0.437240   0.440637  -0.003146  -0.001862  -0.001213
     6  C   -0.005432  -0.025822  -0.016745   0.451245   0.018353  -0.091455
     7  C   -0.102721  -0.009395  -0.029168   0.014955   0.444233   0.037579
     8  C   -0.043138  -0.019969   0.012414  -0.110301   0.054262   0.395147
     9  C    0.045314   0.008281  -0.020653   0.054547  -0.106223  -0.007699
    10  C   -0.026761  -0.056308  -0.058617  -0.000385   0.000910  -0.001878
    11  C   -0.022851   0.005430   0.004058   0.001471   0.002051  -0.078692
    12  H   -0.031468  -0.000785   0.003189  -0.016568   0.001534   0.003094
    13  H    0.479340   0.003884  -0.000620   0.001799  -0.017187   0.000333
    14  H    0.003884   0.429374  -0.014751   0.000617  -0.007879  -0.000472
    15  H   -0.000620  -0.014751   0.432388  -0.008644   0.000263   0.000217
    16  H    0.001799   0.000617  -0.008644   0.434258  -0.001021  -0.009990
    17  H   -0.017187  -0.007879   0.000263  -0.001021   0.433863   0.001318
    18  H    0.000333  -0.000472   0.000217  -0.009990   0.001318   0.420956
    19  H    0.003080   0.000156  -0.000463   0.001341  -0.009835   0.000486
    20  H   -0.000583   0.000058  -0.000001   0.000931   0.000871  -0.007171
    21  H   -0.001578   0.002609   0.002897   0.000128   0.000151  -0.000014
              19         20         21
     1  O   -0.000023   0.000013   0.257089
     2  O    0.000032   0.000003  -0.012627
     3  C    0.025609  -0.049325  -0.011121
     4  C    0.024936   0.035394   0.008954
     5  C   -0.001215   0.001953  -0.070136
     6  C    0.039675   0.007300   0.001292
     7  C   -0.095021   0.006020   0.001279
     8  C   -0.008432  -0.051537  -0.000022
     9  C    0.395979  -0.050506  -0.000262
    10  C   -0.001979   0.000451   0.065368
    11  C   -0.077679   0.426320   0.000327
    12  H    0.000344  -0.000582  -0.001645
    13  H    0.003080  -0.000583  -0.001578
    14  H    0.000156   0.000058   0.002609
    15  H   -0.000463  -0.000001   0.002897
    16  H    0.001341   0.000931   0.000128
    17  H   -0.009835   0.000871   0.000151
    18  H    0.000486  -0.007171  -0.000014
    19  H    0.420727  -0.007001  -0.000015
    20  H   -0.007001   0.416194   0.000007
    21  H   -0.000015   0.000007   0.428390
 Mulliken charges:
               1
     1  O   -0.164936
     2  O   -0.236089
     3  C   -0.865368
     4  C    0.745134
     5  C   -0.716123
     6  C   -0.218301
     7  C   -0.224946
     8  C   -0.375030
     9  C   -0.375160
    10  C    0.054356
    11  C   -0.437304
    12  H    0.255344
    13  H    0.256579
    14  H    0.269524
    15  H    0.269129
    16  H    0.291314
    17  H    0.293079
    18  H    0.289381
    19  H    0.289298
    20  H    0.271191
    21  H    0.328930
 Sum of Mulliken charges =  -0.00000
 Mulliken charges with hydrogens summed into heavy atoms:
               1
     1  O    0.163994
     2  O   -0.236089
     3  C   -0.353445
     4  C    0.745134
     5  C   -0.177470
     6  C    0.073013
     7  C    0.068133
     8  C   -0.085649
     9  C   -0.085862
    10  C    0.054356
    11  C   -0.166113
 Electronic spatial extent (au):  <R**2>=           2465.0058
 Charge=             -0.0000 electrons
 Dipole moment (field-independent basis, Debye):
    X=              0.3038    Y=             -0.1088    Z=             -1.5848  Tot=              1.6173
 Quadrupole moment (field-independent basis, Debye-Ang):
   XX=            -58.4398   YY=            -60.1544   ZZ=            -73.5203
   XY=              0.3743   XZ=              4.2934   YZ=             -0.6170
 Traceless Quadrupole moment (field-independent basis, Debye-Ang):
   XX=              5.5983   YY=              3.8838   ZZ=             -9.4821
   XY=              0.3743   XZ=              4.2934   YZ=             -0.6170
 Octapole moment (field-independent basis, Debye-Ang**2):
  XXX=            -59.7066  YYY=             -0.0284  ZZZ=             -0.0103  XYY=             -2.6840
  XXY=             -2.0912  XXZ=            -35.5320  XZZ=             -3.4794  YZZ=             -0.0435
  YYZ=             -0.3062  XYZ=              0.6168
 Hexadecapole moment (field-independent basis, Debye-Ang**3):
 XXXX=          -2185.0888 YYYY=           -316.4863 ZZZZ=           -241.3882 XXXY=              7.3351
 XXXZ=             83.8895 YYYX=             -0.1486 YYYZ=             -1.0207 ZZZX=              8.0929
 ZZZY=             -0.0223 XXYY=           -477.1218 XXZZ=           -567.9880 YYZZ=           -100.0448
 XXYZ=             -5.3491 YYXZ=             -2.6585 ZZXY=              0.6792
 N-N= 5.557112940278D+02 E-N=-2.275320134084D+03  KE= 4.970698617388D+02
 R6APFD:  NTU= -4 IXU= 1 FactS= 1.050
 Calling FoFJK, ICntrl=      2127 FMM=F ISym2X=0 I1Cent= 0 IOpClX= 0 NMat=1 NMatS=1 NMatT=0.
 ***** Axes restored to original set *****
 -------------------------------------------------------------------
 Center     Atomic                   Forces (Hartrees/Bohr)
 Number     Number              X              Y              Z
 -------------------------------------------------------------------
      1        8           0.004708152   -0.001316557    0.006265107
      2        8          -0.006555245    0.001261079   -0.037177398
      3        6           0.010793890   -0.000986003    0.010504442
      4        6          -0.000049015    0.000350529   -0.002272099
      5        6          -0.002659770   -0.000992529    0.003529181
      6        6          -0.008578792   -0.003361704   -0.003583252
      7        6          -0.008653541    0.003741171   -0.003349934
      8        6           0.001666945   -0.003295327   -0.000313260
      9        6           0.001748660    0.003233411   -0.000089675
     10        6           0.018517138    0.001441899    0.034128681
     11        6           0.002017080    0.000051514    0.000463880
     12        1           0.001900667    0.000651161   -0.001412377
     13        1           0.002169312   -0.000506034   -0.001540203
     14        1          -0.000676837    0.001080974   -0.004515612
     15        1           0.000004118   -0.000867947   -0.004684452
     16        1           0.003079109    0.000706840    0.001417185
     17        1           0.003132400   -0.000838847    0.001374990
     18        1          -0.001032684    0.001662930    0.000004342
     19        1          -0.001014178   -0.001668012   -0.000099144
     20        1          -0.001823947   -0.000006783   -0.000259165
     21        1          -0.018693463   -0.000341762    0.001608763
 -------------------------------------------------------------------
 Cartesian Forces:  Max     0.037177398 RMS     0.007896435

 GradGradGradGradGradGradGradGradGradGradGradGradGradGradGradGradGradGrad
 Berny optimization.
 FormGI is forming the generalized inverse of G from B-inverse, IUseBI=4.
 Internal  Forces:  Max     0.037418863 RMS     0.005095319
 Search for a local minimum.
 Step number   1 out of a maximum of  112
 All quantities printed in internal units (Hartrees-Bohrs-Radians)
 Mixed Optimization -- RFO/linear search
 Second derivative matrix not updated -- first step.
 ITU=  0
     Eigenvalues ---    0.00327   0.00639   0.00878   0.01046   0.01645
     Eigenvalues ---    0.02155   0.02156   0.02156   0.02156   0.02156
     Eigenvalues ---    0.02157   0.02157   0.02157   0.02277   0.03957
     Eigenvalues ---    0.04249   0.05373   0.05383   0.09249   0.09689
     Eigenvalues ---    0.12700   0.13035   0.16000   0.16000   0.16000
     Eigenvalues ---    0.16000   0.16000   0.16000   0.21890   0.21999
     Eigenvalues ---    0.22000   0.22000   0.23486   0.24996   0.25000
     Eigenvalues ---    0.25000   0.29129   0.31388   0.33285   0.33841
     Eigenvalues ---    0.33845   0.34130   0.34138   0.35176   0.35190
     Eigenvalues ---    0.35269   0.35270   0.35278   0.42138   0.42318
     Eigenvalues ---    0.46466   0.46472   0.46480   0.46493   0.51199
     Eigenvalues ---    0.53806   0.93461
 RFO step:  Lambda=-6.34297313D-03 EMin= 3.26638123D-03
 Linear search not attempted -- first point.
 Iteration  1 RMS(Cart)=  0.04910351 RMS(Int)=  0.00099924
 Iteration  2 RMS(Cart)=  0.00158197 RMS(Int)=  0.00024142
 Iteration  3 RMS(Cart)=  0.00000129 RMS(Int)=  0.00024142
 Iteration  4 RMS(Cart)=  0.00000000 RMS(Int)=  0.00024142
 Variable       Old X    -DE/DX   Delta X   Delta X   Delta X     New X
                                 (Linear)    (Quad)   (Total)
    R1        2.56208  -0.01501   0.00000  -0.02757  -0.02757   2.53451
    R2        1.85374  -0.01738   0.00000  -0.03354  -0.03354   1.82021
    R3        2.31378  -0.03742   0.00000  -0.03977  -0.03977   2.27401
    R4        2.81854   0.01086   0.00000   0.03200   0.03200   2.85055
    R5        2.89735  -0.00260   0.00000  -0.00875  -0.00875   2.88860
    R6        2.07599   0.00001   0.00000   0.00004   0.00004   2.07602
    R7        2.07593  -0.00000   0.00000  -0.00001  -0.00001   2.07592
    R8        2.63603   0.00061   0.00000   0.00136   0.00139   2.63743
    R9        2.63618   0.00046   0.00000   0.00103   0.00106   2.63724
   R10        2.85279  -0.00064   0.00000  -0.00199  -0.00199   2.85080
   R11        2.07098   0.00199   0.00000   0.00572   0.00572   2.07670
   R12        2.07111   0.00169   0.00000   0.00486   0.00486   2.07597
   R13        2.63572  -0.00067   0.00000  -0.00141  -0.00141   2.63430
   R14        2.05390   0.00227   0.00000   0.00635   0.00635   2.06025
   R15        2.63590  -0.00077   0.00000  -0.00165  -0.00165   2.63425
   R16        2.05367   0.00235   0.00000   0.00657   0.00657   2.06024
   R17        2.63592  -0.00185   0.00000  -0.00398  -0.00401   2.63191
   R18        2.05239   0.00195   0.00000   0.00542   0.00542   2.05782
   R19        2.63601  -0.00180   0.00000  -0.00389  -0.00392   2.63210
   R20        2.05241   0.00194   0.00000   0.00541   0.00541   2.05782
   R21        2.05226   0.00183   0.00000   0.00510   0.00510   2.05737
    A1        1.95337  -0.01311   0.00000  -0.07879  -0.07879   1.87458
    A2        1.98490  -0.00913   0.00000  -0.04500  -0.04507   1.93983
    A3        1.91003   0.00417   0.00000   0.02267   0.02207   1.93210
    A4        1.90666   0.00456   0.00000   0.02688   0.02633   1.93299
    A5        1.91327   0.00090   0.00000  -0.00678  -0.00661   1.90666
    A6        1.91443   0.00062   0.00000  -0.00765  -0.00739   1.90703
    A7        1.82798  -0.00035   0.00000   0.01507   0.01459   1.84257
    A8        2.09436   0.00274   0.00000   0.01078   0.01058   2.10494
    A9        2.09452   0.00251   0.00000   0.00990   0.00971   2.10423
   A10        2.09430  -0.00525   0.00000  -0.02069  -0.02074   2.07357
   A11        1.94886  -0.00236   0.00000  -0.00357  -0.00361   1.94525
   A12        1.92160   0.00177   0.00000   0.01427   0.01426   1.93585
   A13        1.91903   0.00252   0.00000   0.01922   0.01922   1.93824
   A14        1.88637   0.00089   0.00000   0.00632   0.00627   1.89264
   A15        1.89004   0.00013   0.00000  -0.00009  -0.00014   1.88990
   A16        1.89676  -0.00306   0.00000  -0.03776  -0.03777   1.85899
   A17        2.09461   0.00282   0.00000   0.01218   0.01223   2.10684
   A18        2.10667  -0.00402   0.00000  -0.02176  -0.02180   2.08488
   A19        2.08190   0.00120   0.00000   0.00960   0.00956   2.09146
   A20        2.09427   0.00290   0.00000   0.01245   0.01250   2.10677
   A21        2.10682  -0.00407   0.00000  -0.02196  -0.02200   2.08482
   A22        2.08210   0.00117   0.00000   0.00953   0.00949   2.09159
   A23        2.09425   0.00038   0.00000   0.00112   0.00111   2.09535
   A24        2.09468  -0.00015   0.00000  -0.00032  -0.00032   2.09436
   A25        2.09426  -0.00023   0.00000  -0.00080  -0.00080   2.09346
   A26        2.09446   0.00037   0.00000   0.00101   0.00099   2.09545
   A27        2.09450  -0.00015   0.00000  -0.00029  -0.00030   2.09420
   A28        2.09423  -0.00022   0.00000  -0.00071  -0.00071   2.09352
   A29        2.15168  -0.00326   0.00000  -0.01223  -0.01300   2.13869
   A30        1.97037  -0.00508   0.00000  -0.01933  -0.02012   1.95025
   A31        2.16088   0.00837   0.00000   0.03310   0.03228   2.19316
   A32        2.09448  -0.00121   0.00000  -0.00607  -0.00611   2.08838
   A33        2.09431   0.00061   0.00000   0.00308   0.00310   2.09741
   A34        2.09439   0.00060   0.00000   0.00299   0.00300   2.09740
    D1        0.00880  -0.00057   0.00000  -0.03267  -0.03184  -0.02304
    D2        3.12728   0.00077   0.00000   0.03972   0.03888  -3.11702
    D3       -1.57047   0.00034   0.00000   0.01617   0.01630  -1.55417
    D4        1.57088  -0.00038   0.00000  -0.01574  -0.01594   1.55493
    D5        0.57562  -0.00179   0.00000  -0.00733  -0.00756   0.56806
    D6       -2.56621  -0.00252   0.00000  -0.03925  -0.03981  -2.60602
    D7        2.56764   0.00252   0.00000   0.03745   0.03805   2.60569
    D8       -0.57419   0.00179   0.00000   0.00554   0.00580  -0.56839
    D9       -3.11579  -0.00031   0.00000  -0.00913  -0.00913  -3.12492
   D10       -1.02031   0.00046   0.00000   0.00605   0.00607  -1.01424
   D11        1.06902  -0.00063   0.00000  -0.01959  -0.01960   1.04942
   D12        1.02307   0.00006   0.00000  -0.00166  -0.00183   1.02125
   D13        3.11856   0.00082   0.00000   0.01353   0.01337   3.13193
   D14       -1.07530  -0.00027   0.00000  -0.01211  -0.01230  -1.08759
   D15       -0.97499  -0.00036   0.00000  -0.01171  -0.01154  -0.98653
   D16        1.12050   0.00040   0.00000   0.00348   0.00366   1.12416
   D17       -3.07336  -0.00069   0.00000  -0.02216  -0.02201  -3.09537
   D18        3.14136  -0.00061   0.00000  -0.02518  -0.02510   3.11626
   D19        0.00214  -0.00082   0.00000  -0.03278  -0.03262  -0.03048
   D20        0.00001   0.00011   0.00000   0.00672   0.00658   0.00659
   D21       -3.13921  -0.00009   0.00000  -0.00088  -0.00093  -3.14015
   D22       -3.14138   0.00062   0.00000   0.02531   0.02521  -3.11617
   D23       -0.00209   0.00082   0.00000   0.03285   0.03268   0.03059
   D24       -0.00003  -0.00011   0.00000  -0.00660  -0.00646  -0.00649
   D25        3.13926   0.00010   0.00000   0.00095   0.00101   3.14027
   D26       -3.10779  -0.00076   0.00000  -0.03904  -0.03929   3.13610
   D27        0.01055   0.00041   0.00000   0.03309   0.03335   0.04390
   D28        1.05933  -0.00208   0.00000  -0.05874  -0.05899   1.00034
   D29       -2.10551  -0.00091   0.00000   0.01339   0.01365  -2.09186
   D30       -0.99250   0.00099   0.00000  -0.01742  -0.01769  -1.01019
   D31        2.12584   0.00217   0.00000   0.05471   0.05495   2.18079
   D32       -0.00003  -0.00002   0.00000  -0.00197  -0.00197  -0.00200
   D33       -3.14103  -0.00021   0.00000  -0.00830  -0.00830   3.13385
   D34        3.13922   0.00017   0.00000   0.00547   0.00553  -3.13843
   D35       -0.00177  -0.00002   0.00000  -0.00085  -0.00080  -0.00258
   D36        0.00007   0.00002   0.00000   0.00174   0.00172   0.00180
   D37        3.14093   0.00022   0.00000   0.00847   0.00847  -3.13379
   D38       -3.13925  -0.00018   0.00000  -0.00566  -0.00573   3.13820
   D39        0.00160   0.00002   0.00000   0.00107   0.00102   0.00262
   D40        0.00008  -0.00007   0.00000  -0.00289  -0.00287  -0.00279
   D41       -3.14133  -0.00018   0.00000  -0.00631  -0.00631   3.13554
   D42        3.14107   0.00012   0.00000   0.00343   0.00346  -3.13865
   D43       -0.00033   0.00001   0.00000   0.00001   0.00002  -0.00032
   D44       -0.00010   0.00007   0.00000   0.00301   0.00299   0.00289
   D45        3.14131   0.00018   0.00000   0.00643   0.00643  -3.13544
   D46       -3.14095  -0.00013   0.00000  -0.00372  -0.00376   3.13848
   D47        0.00046  -0.00001   0.00000  -0.00030  -0.00031   0.00015
         Item               Value     Threshold  Converged?
 Maximum Force            0.037419     0.000450     NO 
 RMS     Force            0.005095     0.000300     NO 
 Maximum Displacement     0.194822     0.001800     NO 
 RMS     Displacement     0.049297     0.001200     NO 
 Predicted change in Energy=-3.308619D-03
 GradGradGradGradGradGradGradGradGradGradGradGradGradGradGradGradGradGrad

                          Input orientation:                          
 ---------------------------------------------------------------------
 Center     Atomic      Atomic             Coordinates (Angstroms)
 Number     Number       Type             X           Y           Z
 ---------------------------------------------------------------------
      1          8           0        3.844938    0.059712   -1.186630
      2          8           0        3.492395   -0.081212    1.013116
      3          6           0        0.699390   -0.009472    0.762192
      4          6           0       -0.759932   -0.005728    0.380393
      5          6           0        1.593515    0.045418   -0.476389
      6          6           0       -1.451394    1.196975    0.227851
      7          6           0       -1.432520   -1.203798    0.135728
      8          6           0       -2.792014    1.203966   -0.154200
      9          6           0       -2.773036   -1.202377   -0.246646
     10          6           0        3.055031    0.018614   -0.103489
     11          6           0       -3.456190    0.002848   -0.390703
     12          1           0        0.932221    0.842964    1.414900
     13          1           0        0.946178   -0.905434    1.347949
     14          1           0        1.389803   -0.802440   -1.145202
     15          1           0        1.403461    0.956354   -1.060257
     16          1           0       -0.935847    2.139225    0.414932
     17          1           0       -0.902152   -2.149392    0.250484
     18          1           0       -3.322275    2.148875   -0.262745
     19          1           0       -3.288442   -2.144426   -0.427525
     20          1           0       -4.504733    0.005849   -0.683687
     21          1           0        4.757005    0.017180   -0.879872
 ---------------------------------------------------------------------
                    Distance matrix (angstroms):
                    1          2          3          4          5
     1  O    0.000000
     2  O    2.232270   0.000000
     3  C    3.700968   2.805172   0.000000
     4  C    4.864635   4.299805   1.508444   0.000000
     5  C    2.360837   2.416693   1.528580   2.505076   0.000000
     6  C    5.598683   5.166377   2.523273   1.395666   3.330692
     7  C    5.585396   5.126870   2.522679   1.395567   3.330483
     8  C    6.813543   6.519824   3.808163   2.424563   4.547407
     9  C    6.802500   6.488423   3.807691   2.424404   4.547146
    10  C    1.341207   1.203354   2.509829   3.845605   1.508576
    11  C    7.344603   7.089471   4.312558   2.804366   5.050611
    12  H    3.983134   2.751367   1.098584   2.157282   2.156470
    13  H    3.969686   2.697161   1.098528   2.157880   2.156705
    14  H    2.602443   3.098289   2.177985   2.753825   1.098941
    15  H    2.603987   3.120747   2.179417   2.771524   1.098557
    16  H    5.453923   4.989738   2.722405   2.152431   3.402375
    17  H    5.429576   4.916402   2.721403   2.152300   3.402041
    18  H    7.522440   7.282914   4.677900   3.409038   5.351184
    19  H    7.504637   7.232707   4.677206   3.408830   5.350823
    20  H    8.364978   8.175620   5.401267   3.893062   6.101898
    21  H    0.963211   2.278667   4.377365   5.659097   3.189242
                    6          7          8          9         10
     6  C    0.000000
     7  C    2.402614   0.000000
     8  C    1.394014   2.780218   0.000000
     9  C    2.780068   1.393985   2.408193   0.000000
    10  C    4.669710   4.657213   5.966202   5.956314   0.000000
    11  C    2.414074   2.414201   1.392748   1.392846   6.517572
    12  H    2.686267   3.378982   4.057379   4.546767   2.737039
    13  H    3.379807   2.686393   4.547538   4.057519   2.721728
    14  H    3.735684   3.125280   4.742926   4.277450   2.128915
    15  H    3.141229   3.760243   4.299333   4.771290   2.126604
    16  H    1.090240   3.391230   2.154990   3.870304   4.548940
    17  H    3.391216   1.090232   3.870446   2.155036   4.526018
    18  H    2.155689   3.869156   1.088950   3.396000   6.725579
    19  H    3.869008   2.155570   3.396008   1.088952   6.709947
    20  H    3.401847   3.401938   2.156211   2.156291   7.582007
    21  H    6.415854   6.390027   7.676115   7.654398   1.870691
                   11         12         13         14         15
    11  C    0.000000
    12  H    4.819144   0.000000
    13  H    4.819619   1.749735   0.000000
    14  H    4.970051   3.077476   2.534406   0.000000
    15  H    4.997368   2.522167   3.078120   1.760897   0.000000
    16  H    3.400777   2.483929   3.698984   4.061534   3.007944
    17  H    3.400936   3.697970   2.483583   3.002545   4.084061
    18  H    2.154005   4.756116   5.490249   5.629624   4.938696
    19  H    2.154131   5.489356   4.755988   4.919549   5.659430
    20  H    1.088711   5.887724   5.888159   5.967569   5.996000
    21  H    8.227761   4.536173   4.509635   3.475661   3.487240
                   16         17         18         19         20
    16  H    0.000000
    17  H    4.291901   0.000000
    18  H    2.480803   4.959385   0.000000
    19  H    4.959244   2.480747   4.296595   0.000000
    20  H    4.300605   4.300736   2.483537   2.483680   0.000000
    21  H    6.211936   6.164235   8.378528   8.343043   9.263822
                   21
    21  H    0.000000
 Stoichiometry    C9H10O2
 Framework group  C1[X(C9H10O2)]
 Deg. of freedom    57
 Full point group                 C1      NOp   1
 Largest Abelian subgroup         C1      NOp   1
 Largest concise Abelian subgroup C1      NOp   1
                         Standard orientation:                         
 ---------------------------------------------------------------------
 Center     Atomic      Atomic             Coordinates (Angstroms)
 Number     Number       Type             X           Y           Z
 ---------------------------------------------------------------------
      1          8           0       -3.706845   -0.031690   -1.158557
      2          8           0       -3.349009    0.061917    1.042857
      3          6           0       -0.556623   -0.004607    0.783745
      4          6           0        0.901778   -0.000248    0.398452
      5          6           0       -1.453723   -0.032813   -0.453580
      6          6           0        1.592728   -1.199444    0.218447
      7          6           0        1.573922    1.202756    0.177968
      8          6           0        2.932427   -1.198317   -0.166883
      9          6           0        2.913516    1.209458   -0.207565
     10          6           0       -2.914337   -0.013926   -0.076682
     11          6           0        3.596178    0.007559   -0.379120
     12          1           0       -0.787991   -0.870853    1.418546
     13          1           0       -0.801898    0.878581    1.389207
     14          1           0       -1.251514    0.829203   -1.104510
     15          1           0       -1.265180   -0.931009   -1.057337
     16          1           0        1.077517   -2.145460    0.386479
     17          1           0        1.043944    2.145702    0.314286
     18          1           0        3.462312   -2.140712   -0.296976
     19          1           0        3.428601    2.155140   -0.369400
     20          1           0        4.644015    0.010781   -0.674618
     21          1           0       -4.618168    0.004304   -0.848767
 ---------------------------------------------------------------------
 Rotational constants (GHZ):           3.2948620           0.4609975           0.4491169
 Standard basis: 6-311++G(d,p) (5D, 7F)
 There are   323 symmetry adapted cartesian basis functions of A   symmetry.
 There are   312 symmetry adapted basis functions of A   symmetry.
   312 basis functions,   486 primitive gaussians,   323 cartesian basis functions
    40 alpha electrons       40 beta electrons
       nuclear repulsion energy       557.3089678030 Hartrees.
 NAtoms=   21 NActive=   21 NUniq=   21 SFac= 1.00D+00 NAtFMM=   60 NAOKFM=F Big=F
 Integral buffers will be    131072 words long.
 Raffenetti 2 integral format.
 Two-electron integral symmetry is turned on.
 R6APFD:  NTU= -4 IXU= 1 FactS= 1.050
 Nuclear repulsion after empirical dispersion term =      557.2960201782 Hartrees.
 One-electron integrals computed using PRISM.
 NBasis=   312 RedAO= T EigKep=  3.55D-06  NBF=   312
 NBsUse=   311 1.00D-06 EigRej=  6.90D-07 NBFU=   311
 Initial guess from the checkpoint file:  "HYAC0054.chk"
 B after Tr=     0.000000    0.000000    0.000000
         Rot=    0.999964   -0.008052    0.002754   -0.000437 Ang=  -0.98 deg.
 ExpMin= 3.60D-02 ExpMax= 8.59D+03 ExpMxC= 1.30D+03 IAcc=3 IRadAn=         5 AccDes= 0.00D+00
 Harris functional with IExCor= 1009 and IRadAn=       5 diagonalized for initial guess.
 HarFok:  IExCor= 1009 AccDes= 0.00D+00 IRadAn=         5 IDoV= 1 UseB2=F ITyADJ=14
 ICtDFT=  3500011 ScaDFX=  1.000000  1.000000  1.000000  1.000000
 FoFCou: FMM=F IPFlag=           0 FMFlag=      100000 FMFlg1=           0
         NFxFlg=           0 DoJE=T BraDBF=F KetDBF=T FulRan=T
         wScrn=  0.000000 ICntrl=       500 IOpCl=  0 I1Cent=   200000004 NGrid=           0
         NMat0=    1 NMatS0=      1 NMatT0=    0 NMatD0=    1 NMtDS0=    0 NMtDT0=    0
 Petite list used in FoFCou.
 Requested convergence on RMS density matrix=1.00D-08 within  32 cycles.
 Requested convergence on MAX density matrix=1.00D-06.
 Requested convergence on             energy=1.00D-06.
 No special actions if energy rises.
 SCF Done:  E(RM08HX) =  -499.446571689     A.U. after   13 cycles
            NFock= 13  Conv=0.87D-08     -V/T= 2.0045
 QCSCF skips out because SCF is already converged.
 R6APFD:  NTU= -4 IXU= 1 FactS= 1.050
 Calling FoFJK, ICntrl=      2127 FMM=F ISym2X=0 I1Cent= 0 IOpClX= 0 NMat=1 NMatS=1 NMatT=0.
 ***** Axes restored to original set *****
 -------------------------------------------------------------------
 Center     Atomic                   Forces (Hartrees/Bohr)
 Number     Number              X              Y              Z
 -------------------------------------------------------------------
      1        8           0.001267617    0.002242444   -0.002958889
      2        8          -0.001363047    0.002904439   -0.002184192
      3        6          -0.000026411    0.000062102    0.002444981
      4        6           0.001099109    0.000089888    0.000776823
      5        6          -0.001134369    0.002290394    0.001858426
      6        6          -0.001634647    0.000301119   -0.000818286
      7        6          -0.001652922   -0.000290753   -0.000837834
      8        6           0.000986041    0.000131678    0.000133202
      9        6           0.000917518   -0.000111075    0.000134801
     10        6          -0.000690046   -0.007682990    0.004891814
     11        6          -0.000131257   -0.000041438   -0.000136953
     12        1          -0.000561517    0.000214539   -0.000667960
     13        1          -0.000513834   -0.000198730   -0.000898827
     14        1           0.000644683    0.000537350   -0.000918625
     15        1          -0.000616021   -0.000419187   -0.001292234
     16        1           0.000452265    0.000123389    0.000440818
     17        1           0.000458129   -0.000159493    0.000422544
     18        1           0.000270636    0.000119674    0.000065469
     19        1           0.000265592   -0.000109547    0.000044102
     20        1           0.000100565   -0.000002352    0.000002738
     21        1           0.001861917   -0.000001452   -0.000501920
 -------------------------------------------------------------------
 Cartesian Forces:  Max     0.007682990 RMS     0.001548021

 GradGradGradGradGradGradGradGradGradGradGradGradGradGradGradGradGradGrad
 Berny optimization.
 Using GEDIIS/GDIIS optimizer.
 FormGI is forming the generalized inverse of G from B-inverse, IUseBI=4.
 Internal  Forces:  Max     0.004705838 RMS     0.000835710
 Search for a local minimum.
 Step number   2 out of a maximum of  112
 All quantities printed in internal units (Hartrees-Bohrs-Radians)
 Mixed Optimization -- En-DIIS/RFO-DIIS
 Update second derivatives using D2CorX and points    1    2
 DE= -3.06D-03 DEPred=-3.31D-03 R= 9.26D-01
 TightC=F SS=  1.41D+00  RLast= 2.04D-01 DXNew= 5.0454D-01 6.1107D-01
 Trust test= 9.26D-01 RLast= 2.04D-01 DXMaxT set to 5.05D-01
 ITU=  1  0
 Use linear search instead of GDIIS.
     Eigenvalues ---    0.00327   0.00639   0.00878   0.01158   0.01633
     Eigenvalues ---    0.02144   0.02156   0.02156   0.02156   0.02157
     Eigenvalues ---    0.02157   0.02157   0.02160   0.02277   0.04170
     Eigenvalues ---    0.04245   0.05158   0.05445   0.09181   0.09296
     Eigenvalues ---    0.12739   0.12750   0.15831   0.16000   0.16000
     Eigenvalues ---    0.16000   0.16000   0.16742   0.21121   0.21994
     Eigenvalues ---    0.22000   0.22025   0.23560   0.24931   0.24986
     Eigenvalues ---    0.25138   0.29198   0.31403   0.33546   0.33843
     Eigenvalues ---    0.33877   0.34103   0.34145   0.35120   0.35183
     Eigenvalues ---    0.35269   0.35271   0.35285   0.42078   0.42383
     Eigenvalues ---    0.46421   0.46468   0.46479   0.46496   0.51361
     Eigenvalues ---    0.56698   0.88953
 RFO step:  Lambda=-1.22305797D-03 EMin= 3.26595852D-03
 Quartic linear search produced a step of -0.04635.
 Iteration  1 RMS(Cart)=  0.04943033 RMS(Int)=  0.00192850
 Iteration  2 RMS(Cart)=  0.00274523 RMS(Int)=  0.00094309
 Iteration  3 RMS(Cart)=  0.00000506 RMS(Int)=  0.00094309
 Iteration  4 RMS(Cart)=  0.00000000 RMS(Int)=  0.00094309
 Variable       Old X    -DE/DX   Delta X   Delta X   Delta X     New X
                                 (Linear)    (Quad)   (Total)
    R1        2.53451   0.00471   0.00128   0.00108   0.00236   2.53687
    R2        1.82021   0.00160   0.00155  -0.00585  -0.00429   1.81591
    R3        2.27401  -0.00276   0.00184  -0.01329  -0.01144   2.26257
    R4        2.85055  -0.00115  -0.00148   0.00515   0.00366   2.85421
    R5        2.88860   0.00087   0.00041   0.00054   0.00095   2.88954
    R6        2.07602  -0.00035  -0.00000  -0.00097  -0.00098   2.07505
    R7        2.07592  -0.00043   0.00000  -0.00122  -0.00122   2.07470
    R8        2.63743   0.00013  -0.00006   0.00064   0.00059   2.63801
    R9        2.63724   0.00021  -0.00005   0.00072   0.00068   2.63792
   R10        2.85080   0.00090   0.00009   0.00221   0.00231   2.85310
   R11        2.07670   0.00002  -0.00027   0.00158   0.00131   2.07801
   R12        2.07597   0.00045  -0.00023   0.00253   0.00230   2.07827
   R13        2.63430  -0.00121   0.00007  -0.00286  -0.00279   2.63151
   R14        2.06025   0.00040  -0.00029   0.00275   0.00245   2.06271
   R15        2.63425  -0.00117   0.00008  -0.00284  -0.00276   2.63149
   R16        2.06024   0.00041  -0.00030   0.00283   0.00253   2.06277
   R17        2.63191   0.00049   0.00019  -0.00006   0.00012   2.63203
   R18        2.05782  -0.00003  -0.00025   0.00134   0.00109   2.05890
   R19        2.63210   0.00043   0.00018  -0.00016   0.00001   2.63211
   R20        2.05782  -0.00004  -0.00025   0.00132   0.00107   2.05889
   R21        2.05737  -0.00010  -0.00024   0.00108   0.00085   2.05821
    A1        1.87458   0.00195   0.00365  -0.00930  -0.00565   1.86893
    A2        1.93983  -0.00201   0.00209  -0.02336  -0.02132   1.91850
    A3        1.93210   0.00031  -0.00102   0.00463   0.00356   1.93565
    A4        1.93299   0.00044  -0.00122   0.00628   0.00499   1.93798
    A5        1.90666   0.00068   0.00031   0.00130   0.00157   1.90823
    A6        1.90703   0.00048   0.00034  -0.00082  -0.00051   1.90652
    A7        1.84257   0.00024  -0.00068   0.01385   0.01315   1.85573
    A8        2.10494  -0.00016  -0.00049   0.00194   0.00133   2.10627
    A9        2.10423  -0.00012  -0.00045   0.00190   0.00133   2.10556
   A10        2.07357   0.00027   0.00096  -0.00462  -0.00371   2.06986
   A11        1.94525   0.00116   0.00017   0.00680   0.00692   1.95217
   A12        1.93585   0.00052  -0.00066   0.00780   0.00716   1.94301
   A13        1.93824  -0.00019  -0.00089   0.00741   0.00647   1.94471
   A14        1.89264  -0.00105  -0.00029  -0.00615  -0.00647   1.88617
   A15        1.88990   0.00005   0.00001   0.00462   0.00455   1.89445
   A16        1.85899  -0.00060   0.00175  -0.02207  -0.02031   1.83868
   A17        2.10684  -0.00009  -0.00057   0.00290   0.00236   2.10920
   A18        2.08488  -0.00038   0.00101  -0.00814  -0.00714   2.07774
   A19        2.09146   0.00047  -0.00044   0.00523   0.00477   2.09623
   A20        2.10677  -0.00008  -0.00058   0.00300   0.00245   2.10922
   A21        2.08482  -0.00038   0.00102  -0.00818  -0.00717   2.07764
   A22        2.09159   0.00046  -0.00044   0.00517   0.00471   2.09631
   A23        2.09535  -0.00009  -0.00005  -0.00003  -0.00007   2.09528
   A24        2.09436  -0.00027   0.00001  -0.00176  -0.00175   2.09261
   A25        2.09346   0.00035   0.00004   0.00178   0.00182   2.09528
   A26        2.09545  -0.00011  -0.00005  -0.00013  -0.00018   2.09527
   A27        2.09420  -0.00024   0.00001  -0.00163  -0.00161   2.09259
   A28        2.09352   0.00035   0.00003   0.00176   0.00179   2.09531
   A29        2.13869   0.00065   0.00060   0.00191  -0.00296   2.13573
   A30        1.95025  -0.00026   0.00093  -0.00358  -0.00812   1.94213
   A31        2.19316  -0.00027  -0.00150   0.01004   0.00304   2.19620
   A32        2.08838   0.00010   0.00028  -0.00112  -0.00085   2.08753
   A33        2.09741  -0.00005  -0.00014   0.00059   0.00045   2.09786
   A34        2.09740  -0.00005  -0.00014   0.00053   0.00039   2.09779
    D1       -0.02304   0.00120   0.00148   0.09145   0.09241   0.06938
    D2       -3.11702  -0.00123  -0.00180  -0.09093  -0.09222   3.07395
    D3       -1.55417   0.00012  -0.00076   0.01357   0.01282  -1.54135
    D4        1.55493  -0.00024   0.00074  -0.01503  -0.01431   1.54063
    D5        0.56806  -0.00017   0.00035   0.00248   0.00285   0.57091
    D6       -2.60602  -0.00053   0.00185  -0.02611  -0.02428  -2.63030
    D7        2.60569   0.00059  -0.00176   0.02625   0.02451   2.63020
    D8       -0.56839   0.00023  -0.00027  -0.00234  -0.00262  -0.57101
    D9       -3.12492   0.00026   0.00042  -0.00642  -0.00599  -3.13092
   D10       -1.01424   0.00007  -0.00028  -0.00425  -0.00452  -1.01876
   D11        1.04942  -0.00047   0.00091  -0.02204  -0.02116   1.02826
   D12        1.02125   0.00073   0.00008   0.00228   0.00237   1.02361
   D13        3.13193   0.00054  -0.00062   0.00445   0.00384   3.13577
   D14       -1.08759   0.00000   0.00057  -0.01335  -0.01281  -1.10040
   D15       -0.98653  -0.00019   0.00053  -0.01450  -0.01395  -1.00048
   D16        1.12416  -0.00038  -0.00017  -0.01234  -0.01248   1.11168
   D17       -3.09537  -0.00092   0.00102  -0.03013  -0.02912  -3.12449
   D18        3.11626  -0.00046   0.00116  -0.02856  -0.02738   3.08887
   D19       -0.03048  -0.00043   0.00151  -0.02974  -0.02821  -0.05870
   D20        0.00659  -0.00011  -0.00031  -0.00058  -0.00089   0.00570
   D21       -3.14015  -0.00008   0.00004  -0.00176  -0.00172   3.14132
   D22       -3.11617   0.00046  -0.00117   0.02850   0.02732  -3.08885
   D23        0.03059   0.00043  -0.00151   0.02952   0.02799   0.05858
   D24       -0.00649   0.00010   0.00030   0.00053   0.00084  -0.00565
   D25        3.14027   0.00007  -0.00005   0.00155   0.00151  -3.14141
   D26        3.13610   0.00133   0.00182   0.09207   0.09380  -3.05329
   D27        0.04390  -0.00122  -0.00155  -0.09689  -0.09839  -0.05449
   D28        1.00034   0.00064   0.00273   0.08209   0.08477   1.08511
   D29       -2.09186  -0.00191  -0.00063  -0.10687  -0.10742  -2.19927
   D30       -1.01019   0.00187   0.00082   0.10884   0.10959  -0.90060
   D31        2.18079  -0.00068  -0.00255  -0.08012  -0.08259   2.09820
   D32       -0.00200   0.00003   0.00009  -0.00032  -0.00022  -0.00222
   D33        3.13385   0.00005   0.00038  -0.00090  -0.00051   3.13335
   D34       -3.13843  -0.00000  -0.00026   0.00090   0.00065  -3.13778
   D35       -0.00258   0.00002   0.00004   0.00033   0.00037  -0.00221
   D36        0.00180  -0.00002  -0.00008   0.00042   0.00033   0.00213
   D37       -3.13379  -0.00005  -0.00039   0.00073   0.00033  -3.13345
   D38        3.13820   0.00001   0.00027  -0.00065  -0.00038   3.13782
   D39        0.00262  -0.00002  -0.00005  -0.00034  -0.00038   0.00224
   D40       -0.00279   0.00006   0.00013   0.00125   0.00138  -0.00141
   D41        3.13554   0.00002   0.00029  -0.00064  -0.00035   3.13519
   D42       -3.13865   0.00004  -0.00016   0.00183   0.00168  -3.13697
   D43       -0.00032   0.00000  -0.00000  -0.00006  -0.00006  -0.00037
   D44        0.00289  -0.00006  -0.00014  -0.00130  -0.00144   0.00146
   D45       -3.13544  -0.00002  -0.00030   0.00059   0.00030  -3.13514
   D46        3.13848  -0.00003   0.00017  -0.00162  -0.00145   3.13703
   D47        0.00015   0.00000   0.00001   0.00027   0.00028   0.00043
         Item               Value     Threshold  Converged?
 Maximum Force            0.004706     0.000450     NO 
 RMS     Force            0.000836     0.000300     NO 
 Maximum Displacement     0.243273     0.001800     NO 
 RMS     Displacement     0.050021     0.001200     NO 
 Predicted change in Energy=-6.739455D-04
 GradGradGradGradGradGradGradGradGradGradGradGradGradGradGradGradGradGrad

                          Input orientation:                          
 ---------------------------------------------------------------------
 Center     Atomic      Atomic             Coordinates (Angstroms)
 Number     Number       Type             X           Y           Z
 ---------------------------------------------------------------------
      1          8           0        3.798889    0.113323   -1.218378
      2          8           0        3.512293   -0.028029    0.984931
      3          6           0        0.701690   -0.037679    0.802788
      4          6           0       -0.758447   -0.018806    0.416913
      5          6           0        1.573050    0.001038   -0.453126
      6          6           0       -1.433165    1.190572    0.241112
      7          6           0       -1.441775   -1.208586    0.159804
      8          6           0       -2.761835    1.213004   -0.175170
      9          6           0       -2.770441   -1.193255   -0.256769
     10          6           0        3.044662   -0.031166   -0.117265
     11          6           0       -3.434825    0.019367   -0.424636
     12          1           0        0.948800    0.819343    1.443259
     13          1           0        0.944230   -0.937150    1.383713
     14          1           0        1.356000   -0.848450   -1.116796
     15          1           0        1.371143    0.899353   -1.054598
     16          1           0       -0.905969    2.125367    0.440304
     17          1           0       -0.921237   -2.158462    0.295068
     18          1           0       -3.275825    2.165524   -0.299999
     19          1           0       -3.291162   -2.131437   -0.445763
     20          1           0       -4.475832    0.033912   -0.744569
     21          1           0        4.715153    0.145914   -0.930622
 ---------------------------------------------------------------------
                    Distance matrix (angstroms):
                    1          2          3          4          5
     1  O    0.000000
     2  O    2.226362   0.000000
     3  C    3.701426   2.816516   0.000000
     4  C    4.843650   4.308358   1.510383   0.000000
     5  C    2.356391   2.414440   1.529081   2.488622   0.000000
     6  C    5.537596   5.147409   2.526200   1.395975   3.306703
     7  C    5.577759   5.159200   2.525647   1.395929   3.305759
     8  C    6.733549   6.500053   3.810068   2.425177   4.509695
     9  C    6.766678   6.509402   3.809686   2.425138   4.508969
    10  C    1.342455   1.197299   2.517153   3.840461   1.509796
    11  C    7.277738   7.088835   4.315157   2.805826   5.007989
    12  H    3.963052   2.738540   1.098068   2.161151   2.157681
    13  H    4.002930   2.753266   1.097883   2.162676   2.156290
    14  H    2.627362   3.120888   2.184095   2.740704   1.099635
    15  H    2.557072   3.099071   2.185424   2.746546   1.099774
    16  H    5.379148   4.945177   2.719325   2.149370   3.384748
    17  H    5.452625   4.966975   2.718344   2.149296   3.383002
    18  H    7.423377   7.248536   4.678768   3.409172   5.312253
    19  H    7.476945   7.263485   4.678201   3.409114   5.311126
    20  H    8.288656   8.173442   5.404274   3.894968   6.055988
    21  H    0.960940   2.268583   4.375649   5.639440   3.181479
                    6          7          8          9         10
     6  C    0.000000
     7  C    2.400551   0.000000
     8  C    1.392537   2.778284   0.000000
     9  C    2.778277   1.392523   2.407658   0.000000
    10  C    4.655321   4.646634   5.938580   5.931723   0.000000
    11  C    2.412796   2.412817   1.392809   1.392853   6.486970
    12  H    2.693831   3.387418   4.067320   4.557784   2.747952
    13  H    3.388915   2.695302   4.559408   4.068851   2.735974
    14  H    3.712272   3.096280   4.700300   4.229190   2.125699
    15  H    3.102873   3.718963   4.237132   4.708318   2.131930
    16  H    1.091538   3.388364   2.157651   3.869809   4.535306
    17  H    3.388364   1.091568   3.869846   2.157708   4.519266
    18  H    2.153771   3.867787   1.089524   3.396864   6.693833
    19  H    3.867776   2.153740   3.396864   1.089520   6.682942
    20  H    3.401066   3.401058   2.156909   2.156908   7.546892
    21  H    6.345557   6.397770   7.590438   7.634237   1.866399
                   11         12         13         14         15
    11  C    0.000000
    12  H    4.831683   0.000000
    13  H    4.833340   1.757508   0.000000
    14  H    4.917743   3.082406   2.535737   0.000000
    15  H    4.926313   2.534574   3.082265   1.748975   0.000000
    16  H    3.402715   2.480279   3.700306   4.047796   2.987153
    17  H    3.402799   3.699013   2.481273   2.982499   4.053003
    18  H    2.155645   4.764305   5.501849   5.586144   4.875134
    19  H    2.155700   5.500252   4.765695   4.867490   5.594055
    20  H    1.089158   5.901705   5.903357   5.909939   5.918803
    21  H    8.166651   4.502692   4.555111   3.508181   3.430079
                   16         17         18         19         20
    16  H    0.000000
    17  H    4.286317   0.000000
    18  H    2.483119   4.959339   0.000000
    19  H    4.959298   2.483165   4.299460   0.000000
    20  H    4.303723   4.303777   2.486248   2.486255   0.000000
    21  H    6.115119   6.211390   8.266332   8.338015   9.193551
                   21
    21  H    0.000000
 Stoichiometry    C9H10O2
 Framework group  C1[X(C9H10O2)]
 Deg. of freedom    57
 Full point group                 C1      NOp   1
 Largest Abelian subgroup         C1      NOp   1
 Largest concise Abelian subgroup C1      NOp   1
                         Standard orientation:                         
 ---------------------------------------------------------------------
 Center     Atomic      Atomic             Coordinates (Angstroms)
 Number     Number       Type             X           Y           Z
 ---------------------------------------------------------------------
      1          8           0       -3.661106   -0.100472   -1.187943
      2          8           0       -3.369025    0.053023    1.013833
      3          6           0       -0.558819    0.050011    0.825444
      4          6           0        0.900365    0.022800    0.436474
      5          6           0       -1.433126    0.007283   -0.428290
      6          6           0        1.569726   -1.190385    0.266515
      7          6           0        1.587991    1.208182    0.170658
      8          6           0        2.897363   -1.220798   -0.152550
      9          6           0        2.915651    1.184868   -0.248739
     10          6           0       -2.903842    0.047570   -0.089389
     11          6           0        3.574683   -0.031470   -0.410722
     12          1           0       -0.808012   -0.802099    1.471636
     13          1           0       -0.796375    0.953968    1.401443
     14          1           0       -1.214075    0.851842   -1.097569
     15          1           0       -1.236244   -0.895475   -1.024754
     16          1           0        1.039147   -2.121782    0.472527
[...]
 052266,-0.00009118,0.00015584,-0.00052990,-0.00009643,-0.00016182,-0.0
 0070977,-0.00028700,-0.00034766,0.00073315,-0.00029591,0.00030230,-0.0
 0569110,0.24071784,0.08402861,0.00582430,-0.20810233,-0.24026782,0.021
 83821,-0.65052724,0.02789124,-0.00035404,0.00967397,0.00154583,0.00031
 043,-0.00688383,-0.01481509,-0.00061081,-0.08120938,0.00019423,-0.0001
 9995,-0.00000318,0.00015098,0.00019407,-0.00000025,-0.00032421,0.00014
 285,0.00027245,-0.00026681,-0.00018961,0.00028422,0.17645237,-0.027054
 16,0.93552809,-0.00044091,-0.00000745,0.00016372,-0.00026104,0.0000023
 6,-0.00007257,-0.00076664,-0.00003802,0.00107734,0.00096020,0.00018650
 ,0.00171350,-0.00041429,0.00003334,-0.00097855,-0.02286607,-0.02730334
 ,-0.01046794,-0.02352109,0.02766772,-0.00845837,-0.17321383,-0.1223451
 1,-0.03957528,-0.17425333,0.12577907,-0.02988416,0.00051418,-0.0000099
 8,0.00024251,0.69231454,0.00000462,-0.00009940,-0.00000678,0.00000488,
 -0.00008789,-0.00000264,0.00000778,-0.00171482,-0.00003006,0.00014431,
 -0.08477954,-0.00311423,-0.00000171,0.00111068,0.00004799,-0.08216665,
 0.04223469,-0.02526902,0.08255642,0.04010458,0.02813414,-0.04969921,-0
 .28706214,-0.02540352,0.05310668,-0.29046646,0.00826784,-0.00001095,0.
 00072187,0.00002810,-0.00682902,0.66789519,-0.00013686,-0.00000761,0.0
 0008367,-0.00013336,-0.00000287,-0.00002433,-0.00008771,-0.00003400,-0
 .00084658,0.00272350,-0.00311044,-0.00588944,-0.00004066,0.00005074,-0
 .00018054,-0.01300710,-0.00706708,0.00283004,-0.00655716,0.00993040,0.
 00561221,-0.03631336,-0.04774268,-0.07685134,-0.03248893,0.03060785,-0
 .07242599,0.00026548,0.00002842,0.00002223,0.17456147,0.01939300,0.190
 46095,0.00013079,-0.00011719,-0.00062309,-0.00042104,-0.00040054,-0.00
 115381,-0.05699922,-0.04247732,-0.03398290,-0.00841756,-0.02670572,-0.
 01820031,0.00309893,0.01633943,0.01222146,0.00133671,-0.00162193,0.000
 94839,-0.00504150,0.00172402,-0.00201984,-0.00015144,-0.00010959,0.000
 27826,-0.00049580,-0.00133345,0.00064175,0.00092061,0.00101197,0.00222
 240,0.00003322,0.00013390,-0.00013196,0.06720703,0.00020888,-0.0001232
 3,0.00059704,-0.00016128,0.00025276,0.00130688,-0.04292820,-0.21107326
 ,-0.11930315,-0.00040581,0.00048281,0.00208228,0.00104514,0.00227397,0
 .00191403,0.00169043,0.00039249,0.00088555,-0.00039494,0.00030319,-0.0
 0060881,-0.00076319,0.00006797,0.00033769,0.00022411,-0.00010048,0.000
 06167,-0.00089903,0.00006078,-0.00209748,0.00014189,0.00037033,0.00007
 747,0.04759059,0.22425511,-0.00000294,0.00012066,0.00031875,0.00017483
 ,0.00030850,0.00110795,-0.03419208,-0.11771019,-0.13402377,-0.00071186
 ,-0.00461912,-0.00375408,-0.00361407,-0.02261668,-0.01851562,0.0006941
 8,-0.00074397,0.00074630,-0.00101004,0.00055881,0.00001935,-0.00027857
 ,-0.00000154,-0.00001553,0.00054650,-0.00045963,0.00031482,-0.00130843
 ,-0.00035657,-0.00119732,-0.00001972,0.00045281,-0.00002963,0.03365452
 ,0.13039372,0.14821713,0.00013213,0.00016690,-0.00061003,-0.00042729,0
 .00048515,-0.00111177,-0.05749417,0.04593252,-0.03118315,-0.00857707,0
 .02799051,-0.01605678,0.00320027,-0.01723225,0.01091815,-0.00503015,-0
 .00159026,-0.00215262,0.00133647,0.00154602,0.00107881,-0.00050340,0.0
 0127476,0.00074632,-0.00015622,0.00008607,0.00028879,0.00092065,-0.001
 17750,0.00212517,0.00003448,-0.00012435,-0.00014206,0.00085180,-0.0056
 7230,0.00384603,0.06775811,-0.00020657,-0.00006398,-0.00063103,0.00014
 430,0.00038708,-0.00137017,0.04638899,-0.22847869,0.11171734,0.0004139
 7,0.00042222,-0.00185850,-0.00074535,0.00044054,-0.00036592,0.00044340
 ,0.00029026,0.00061852,-0.00173424,0.00040416,-0.00090710,-0.00026828,
 -0.00012360,-0.00009304,0.00078275,0.00009822,-0.00032726,0.00100389,-
 0.00014062,0.00219325,-0.00014251,0.00040867,-0.00004379,0.00546793,-0
 .01964260,0.01322222,-0.05102672,0.24345796,-0.00001895,-0.00015067,0.
 00026090,0.00018752,-0.00036612,0.00097762,-0.03134305,0.11012408,-0.1
 1609966,-0.00070824,0.00493401,-0.00353265,-0.00381669,0.02408117,-0.0
 1678191,-0.00097232,-0.00054311,0.00002249,0.00055461,0.00072060,0.000
 73497,0.00052477,0.00042764,0.00034317,-0.00021822,0.00000893,-0.00004
 094,-0.00123591,0.00043391,-0.00099901,-0.00002823,-0.00041853,-0.0000
 6892,0.00436097,-0.01551627,0.01003774,0.03051763,-0.12274761,0.128439
 54,-0.00089567,0.00244853,0.00178344,-0.00547256,0.00458226,-0.0014849
 8,0.00260827,0.01613481,0.01210403,0.00159424,0.00090295,0.00040533,-0
 .05735424,-0.04207556,-0.02957066,-0.00032011,0.00031752,-0.00030556,0
 .00035178,0.00005833,-0.00035224,0.00026892,0.00011620,0.00011144,-0.0
 0040619,-0.00000386,-0.00022091,-0.00226272,-0.03096065,-0.02076727,0.
 00004680,-0.00032469,0.00002854,-0.00242994,-0.00039922,0.00342791,0.0
 0074130,-0.00048218,-0.00085357,0.06174920,-0.00024603,0.00031630,0.00
 043673,0.00085940,-0.00079434,0.00151049,0.00115588,0.00227644,0.00153
 878,-0.00030292,0.00040855,-0.00001516,-0.04110476,-0.20215882,-0.1220
 2120,0.00024680,-0.00029672,0.00007812,0.00026780,0.00038355,0.0000857
 7,-0.00009246,-0.00003424,-0.00004256,0.00014479,-0.00011077,0.0000933
 2,0.00156450,0.00067001,0.00034806,0.00008170,0.00011412,0.00003577,-0
 .00040238,0.00131176,0.00077466,0.00037409,0.00062381,-0.00009368,0.04
 357886,0.21824039,0.00169652,0.00027367,-0.00025429,-0.00179502,0.0007
 7155,0.00082211,-0.00383703,-0.02080791,-0.01655099,-0.00148651,0.0006
 1317,0.00038965,-0.02894902,-0.12286141,-0.13400826,0.00055271,-0.0002
 4520,0.00028851,-0.00014410,-0.00042440,0.00011487,-0.00050683,-0.0001
 8369,-0.00021144,0.00050404,-0.00000244,0.00019800,-0.00333431,-0.0058
 7053,-0.00755342,-0.00001033,0.00050658,-0.00003658,0.00315606,0.00080
 678,-0.00342126,-0.00062113,0.00022191,0.00051694,0.03106690,0.1329913
 5,0.15026929,-0.00088164,-0.00258696,0.00158716,-0.00545012,-0.0044743
 4,-0.00183634,0.00270676,-0.01702142,0.01081462,0.00159791,-0.00092501
 ,0.00033427,-0.05785148,0.04513167,-0.02682839,0.00035433,-0.00002918,
 -0.00035571,-0.00031625,-0.00029289,-0.00032941,-0.00040511,0.00001916
 ,-0.00021940,0.00026867,-0.00012274,0.00010153,-0.00242623,0.03246409,
 -0.01829078,0.00004528,0.00032073,0.00005415,0.00073985,0.00054765,-0.
 00081364,-0.00243346,0.00010981,0.00345140,0.00127335,-0.00606588,0.00
 383763,0.06226873,0.00010507,0.00035421,-0.00038044,-0.00074367,-0.000
 63300,-0.00163294,-0.00084140,0.00056860,-0.00013630,0.00042271,0.0004
 5253,0.00002174,0.04412719,-0.22025213,0.11511939,-0.00025732,0.000353
 43,-0.00006813,-0.00028862,-0.00030953,-0.00012678,-0.00018451,-0.0001
 0231,-0.00011746,0.00013286,-0.00005252,0.00005531,-0.00132026,0.00036
 454,0.00015377,-0.00008122,0.00015602,-0.00002042,-0.00032402,0.000634
 14,0.00009819,0.00013448,0.00140724,-0.00037880,0.00587123,-0.02093494
 ,0.01350315,-0.04682465,0.23794452,0.00171308,-0.00021539,-0.00030436,
 -0.00185396,-0.00089115,0.00063450,-0.00403793,0.02212345,-0.01493363,
 -0.00145417,-0.00061556,0.00034279,-0.02629701,0.11596029,-0.11544364,
 -0.00016666,0.00044105,0.00014309,0.00053055,0.00020102,0.00029821,0.0
 0049084,-0.00001793,0.00018885,-0.00049895,0.00019338,-0.00019286,-0.0
 0347986,0.00646088,-0.00707989,-0.00001371,-0.00049127,-0.00007817,-0.
 00064736,-0.00021668,0.00050705,0.00318065,-0.00041197,-0.00351451,0.0
 0438531,-0.01587014,0.00969680,0.02826968,-0.12596589,0.13006090,0.000
 10981,0.00000516,-0.00008490,0.00013818,-0.00001184,-0.00000833,0.0004
 4273,0.00073857,0.00173010,0.00991623,0.01263849,0.00236122,-0.0000270
 9,0.00012324,-0.00013023,-0.11710926,-0.11038255,-0.03048778,-0.000114
 15,0.00345818,-0.00212848,-0.00851181,-0.02726289,-0.00474804,-0.00084
 422,0.00085810,0.00014089,-0.00024269,-0.00007569,0.00012007,-0.004592
 21,0.00136233,-0.00376978,-0.00002035,-0.00003127,-0.00043554,0.000110
 01,-0.00020270,-0.00002463,0.00006874,-0.00006407,-0.00001527,0.000070
 62,-0.00016656,0.00013727,0.12064890,-0.00008773,0.00001295,0.00007611
 ,-0.00010757,0.00002485,-0.00001761,-0.00167395,0.00060166,-0.00053869
 ,-0.01529779,-0.01886208,-0.00601407,0.00023565,-0.00001876,0.00008429
 ,-0.11065583,-0.25978912,-0.04494695,0.00387984,-0.00338955,0.00072789
 ,0.00228348,0.00360104,0.00079426,0.00111955,0.00017089,0.00038807,0.0
 0031163,0.00002183,-0.00011488,0.00051700,0.00211560,-0.00011002,0.001
 12728,0.00010159,0.00063633,-0.00002540,0.00038706,0.00018370,-0.00012
 520,0.00006919,0.00007254,0.00026210,-0.00017540,-0.00024267,0.1193673
 8,0.27565914,0.00008171,0.00002070,-0.00005367,-0.00011249,-0.00004722
 ,-0.00016128,0.00161767,0.00107280,-0.00284834,0.00044787,0.00343101,0
 .00408889,0.00030335,-0.00031714,0.00027869,-0.03029703,-0.04592878,-0
 .04857908,-0.00199029,0.00079714,0.00638168,-0.00352295,-0.00843488,0.
 00177973,0.00012252,0.00030436,-0.00111949,0.00018703,0.00018966,-0.00
 001888,-0.00376541,0.00015748,0.00635335,-0.00034281,-0.00046973,-0.00
 024203,-0.00029384,0.00000190,-0.00001295,0.00000387,0.00002840,-0.000
 01753,0.00023377,0.00001574,-0.00019521,0.03581634,0.04915541,0.038766
 24,0.00010948,0.00000201,-0.00008466,0.00013756,0.00001305,-0.00000744
 ,0.00043663,-0.00087206,0.00166177,0.00990216,-0.01261371,0.00133555,-
 0.00002455,-0.00011308,-0.00013892,-0.00007199,-0.00326042,-0.00238720
 ,-0.11842797,0.11330318,-0.02187358,-0.00083214,-0.00087257,0.00007457
 ,-0.00866179,0.02748189,-0.00258349,-0.00024143,0.00006495,0.00012484,
 -0.00458254,-0.00110096,-0.00386649,0.00010861,0.00020227,-0.00000763,
 -0.00001305,0.00006458,-0.00042776,0.00007137,0.00015719,0.00014890,0.
 00006766,0.00006509,-0.00000982,0.00047921,-0.00075989,0.00011385,0.12
 207353,0.00008175,0.00002060,-0.00007089,0.00011706,0.00001927,0.00003
 196,0.00153924,0.00062605,0.00082265,0.01538479,-0.01890757,0.00420683
 ,-0.00025865,-0.00003777,-0.00010995,-0.00369221,-0.00324989,-0.001501
 14,0.11356292,-0.26427813,0.02768830,-0.00113169,0.00020550,-0.0002821
 7,-0.00206718,0.00313980,-0.00071443,-0.00032775,0.00002632,0.00011930
 ,-0.00025823,0.00213772,-0.00024544,0.00004688,0.00040044,-0.00015141,
 -0.00109642,0.00010568,-0.00061104,-0.00027892,-0.00019383,0.00024435,
 0.00012447,0.00007769,-0.00006507,0.00075786,-0.00109989,0.00015756,-0
 .12275679,0.28046436,0.00008828,-0.00001425,-0.00006085,-0.00010408,0.
 00006098,-0.00015534,0.00174984,-0.00078737,-0.00286560,0.00168502,-0.
 00524405,0.00415009,0.00028115,0.00029369,0.00029491,-0.00228206,-0.00
 156979,0.00620034,-0.02166763,0.02867166,-0.04276038,0.00003514,-0.000
 19879,-0.00116588,-0.00374522,0.00851514,0.00239004,0.00016332,-0.0001
 8593,-0.00002410,-0.00379411,-0.00051272,0.00632159,-0.00029047,0.0000
 2968,-0.00002572,-0.00043329,0.00049582,-0.00025415,0.00021297,-0.0000
 1465,-0.00017734,0.00001397,-0.00002087,-0.00002470,0.00017503,-0.0002
 5675,0.00016519,0.02649264,-0.02980831,0.03252396,-0.00014902,-0.00001
 962,0.00008967,-0.00009791,-0.00002057,0.00004017,-0.00008177,0.001343
 09,-0.00013028,-0.00447501,-0.00097057,-0.00366053,-0.00004581,0.00003
 142,-0.00019852,-0.00838908,0.02760922,-0.00254568,-0.00096485,-0.0010
 2388,0.00000257,-0.12025435,0.11587516,-0.02084913,0.00011708,-0.00319
 065,-0.00244010,0.00015712,0.00001453,-0.00005064,0.01103028,-0.014024
 72,0.00169138,0.00004802,-0.00004360,0.00000879,-0.00044457,0.00003998
 ,-0.00004525,-0.00000020,0.00000590,0.00000691,-0.00001051,-0.00001116
 ,0.00002701,0.00013840,-0.00046576,0.00129324,-0.00006319,0.00008572,0
 .00031343,0.12295659,0.00008126,0.00000597,-0.00004140,0.00005951,0.00
 000177,0.00000408,-0.00019193,-0.00000606,-0.00005858,-0.00042893,0.00
 206951,-0.00039626,0.00005993,-0.00002205,0.00007239,-0.00214762,0.003
 18638,-0.00068111,-0.00100441,0.00033442,-0.00025931,0.11590840,-0.269
 80071,0.02605196,-0.00370737,-0.00327172,-0.00162644,-0.00011693,-0.00
 001098,0.00000313,0.01561985,-0.01731748,0.00396485,0.00001628,0.00000
 355,-0.00000852,0.00002947,-0.00000389,-0.00000973,-0.00000444,-0.0000
 0650,-0.00000314,-0.00000942,0.00000595,0.00001528,0.00033209,0.000595
 40,0.00030652,0.00007752,-0.00004928,0.00006733,-0.12484652,0.28473324
 ,-0.00003028,0.00000800,0.00000051,-0.00005319,0.00000043,-0.00002787,
 0.00009516,0.00053037,0.00007272,-0.00408251,-0.00035974,0.00649814,0.
 00001452,-0.00004084,-0.00005300,-0.00385926,0.00844223,0.00272299,-0.
 00002683,-0.00026673,-0.00121290,-0.02079561,0.02593770,-0.04319229,-0
 .00242921,-0.00147886,0.00666149,0.00005464,-0.00004953,0.00002584,0.0
 0300323,-0.00519230,0.00430297,-0.00000306,-0.00004303,-0.00003061,-0.
 00004855,0.00002538,-0.00006348,-0.00000246,-0.00000961,-0.00000028,0.
 00002139,0.00000318,0.00002516,0.00135824,0.00008362,-0.00366116,0.000
 31820,0.00005407,-0.00095382,0.02504799,-0.02766125,0.03237333,-0.0001
 4859,0.00001161,0.00009064,-0.00009764,0.00001680,0.00004166,-0.000074
 96,-0.00132950,-0.00023614,-0.00448505,0.00121749,-0.00357563,-0.00004
 503,-0.00001598,-0.00019975,-0.00097690,0.00101307,0.00008097,-0.00823
 948,-0.02739214,-0.00472064,0.00007492,0.00339390,-0.00218741,-0.11890
 017,-0.11299525,-0.02967616,0.00015648,-0.00000942,-0.00005160,0.01104
 000,0.01401459,0.00282656,-0.00044445,-0.00003887,-0.00004844,0.000047
 88,0.00004301,0.00001210,-0.00001064,0.00000892,0.00002788,-0.00000021
 ,-0.00000637,0.00000641,-0.00006208,-0.00011025,0.00030585,0.00013826,
 0.00035959,0.00132664,0.00036240,0.00076290,0.00013117,0.12149895,-0.0
 0007953,0.00000292,0.00004214,-0.00005572,0.00000173,-0.00000149,0.000
 18316,0.00002475,0.00005397,0.00071081,0.00204923,0.00002269,-0.000061
 05,-0.00002024,-0.00007093,0.00099588,0.00029535,0.00037830,0.00237396
 ,0.00364560,0.00073841,0.00390801,-0.00341090,0.00081476,-0.11303307,-
 0.26565084,-0.04373400,0.00011325,-0.00001377,-0.00000658,-0.01563908,
 -0.01728971,-0.00565806,-0.00002814,-0.00000338,0.00001423,-0.00001574
 ,-0.00000056,0.00001095,0.00000762,0.00000761,-0.00001654,0.00000465,-
 0.00000748,0.00000262,-0.00010246,-0.00004662,0.00000628,-0.00044080,0
 .00059921,0.00003808,-0.00076268,-0.00100523,-0.00028872,0.12153660,0.
 28026230,-0.00003654,-0.00000800,0.00000318,-0.00005776,0.00000164,-0.
 00002803,0.00011282,-0.00053327,0.00003524,-0.00403844,-0.00001662,0.0
 0652866,0.00000980,0.00004332,-0.00005550,0.00005009,0.00038566,-0.001
 16174,-0.00363065,-0.00838549,0.00211417,-0.00213481,0.00066729,0.0068
 4264,-0.02962691,-0.04361901,-0.04870110,0.00006349,0.00004667,0.00002
 918,0.00174381,0.00349930,0.00426616,-0.00005077,-0.00002078,-0.000064
 58,-0.00000462,0.00004542,-0.00002633,0.00002212,-0.00000440,0.0000236
 4,-0.00000212,0.00000906,0.00000072,0.00031116,0.00001958,-0.00095753,
 0.00132725,0.00026113,-0.00366483,0.00006951,0.00020172,0.00010274,0.0
 3455087,0.04737645,0.03830600,-0.00008714,-0.00000253,0.00005714,-0.00
 006277,-0.00000067,0.00001263,-0.00011715,-0.00000778,0.00017473,0.000
 62450,-0.00001504,0.00055304,-0.00001291,0.00000039,-0.00000913,0.0012
 4430,-0.00299222,-0.00202411,0.00121120,0.00317638,-0.00178533,-0.0096
 3930,0.00335354,-0.00382912,-0.00977802,-0.00312691,-0.00413405,0.0001
 3446,0.00000190,-0.00003960,-0.31111014,0.00262617,-0.08548397,0.00002
 544,0.00000475,0.00002754,0.00002603,-0.00000703,0.00002732,0.00000592
 ,0.00001093,-0.00001124,0.00000579,-0.00000998,-0.00001187,-0.00057622
 ,0.00018012,-0.00022883,-0.00058326,-0.00016497,-0.00024497,0.00016032
 ,-0.00048360,0.00128318,0.00016025,0.00037853,0.00131797,0.32835822,-0
 .00000072,0.00000367,0.00000052,0.00000098,0.00000250,0.00000085,-0.00
 001783,0.00013936,0.00003835,-0.00000815,-0.00164269,-0.00003067,-0.00
 000418,0.00001030,-0.00000046,-0.00234861,-0.00440390,-0.00124485,0.00
 252759,-0.00451615,0.00034776,-0.02648532,0.00531980,-0.00815308,0.026
 72095,0.00487536,0.00838709,-0.00000131,0.00001805,0.00000200,0.002624
 79,-0.05850007,-0.00004478,0.00008581,0.00004707,0.00003983,-0.0000826
 0,0.00003869,-0.00003765,-0.00002862,-0.00000235,0.00003153,0.00002779
 ,-0.00000010,-0.00003142,-0.00134610,0.00003242,-0.00042883,0.00136426
 ,0.00000904,0.00042267,0.00036625,0.00055862,0.00030281,-0.00047238,0.
 00056053,0.00003315,-0.00292229,0.05745408,0.00001172,0.00000042,-0.00
 000550,-0.00002920,0.00000072,-0.00001782,0.00043190,0.00003921,-0.000
 81816,0.00037431,-0.00003123,-0.00082581,0.00010472,-0.00000025,0.0000
 2097,-0.00193155,-0.00148781,0.00667063,-0.00174518,0.00059122,0.00681
 535,-0.00514858,0.00101239,0.00154436,-0.00304355,-0.00077895,0.002127
 03,0.00004073,0.00000213,-0.00003517,-0.08544682,-0.00004484,-0.063803
 54,-0.00003708,-0.00013676,0.00001312,-0.00004463,0.00013880,0.0000209
 1,0.00000927,-0.00000381,-0.00000184,0.00001147,0.00000395,-0.00000396
 ,-0.00032882,0.00003846,0.00006605,-0.00022154,-0.00004483,0.00009635,
 0.00133088,0.00005631,-0.00359027,0.00129711,0.00027968,-0.00359206,0.
 09435596,0.00036528,0.05532128,-0.46779005,0.00336286,-0.11658268,0.00
 475161,0.00031864,-0.00727673,-0.00055963,0.00003911,-0.00111318,-0.00
 026940,-0.00001423,0.00034848,0.00085666,-0.00023776,0.00583785,0.0000
 4327,-0.00003378,0.00000911,0.00004285,0.00003294,0.00001170,-0.000007
 50,-0.00000732,-0.00003983,-0.00000719,0.00001034,-0.00003897,-0.03980
 592,-0.00011525,-0.00022445,0.00000311,-0.00000013,0.00000832,-0.00007
 973,0.00008202,0.00006265,-0.00007973,-0.00008703,0.00005650,0.0003723
 9,-0.00017825,-0.00028676,0.00037607,0.00020112,-0.00026953,-0.0000227
 4,0.00002535,0.00002658,-0.00002257,-0.00002745,0.00002439,0.00000606,
 -0.00000603,0.00000324,0.00000607,0.00000580,0.00000373,0.00001047,-0.
 00000031,0.00000889,0.50217592,0.00520238,-0.01611466,0.00284621,0.000
 29236,-0.00601134,-0.00021886,-0.00005603,0.00072095,0.00000010,-0.000
 00671,-0.00005090,0.00001484,-0.00010084,0.00392269,0.00035776,-0.0000
 2979,0.00004915,-0.00000002,0.00002916,0.00004969,0.00000339,0.0000492
 4,-0.00000105,0.00002653,-0.00004820,0.00000075,-0.00002924,-0.0019653
 9,0.00441237,-0.00052995,-0.00000026,-0.00005196,-0.00000133,-0.000023
 80,-0.00001498,0.00004767,0.00002357,-0.00001764,-0.00005178,0.0006650
 4,0.00011080,0.00037867,-0.00065962,0.00014855,-0.00036284,0.00000473,
 -0.00001220,-0.00001839,-0.00000570,-0.00001531,0.00001842,0.00000845,
 -0.00000090,0.00000281,-0.00000830,-0.00000052,-0.00000281,0.00000033,
 -0.00000422,-0.00000006,-0.00337062,0.01288071,-0.16298568,0.00271790,
 -0.09605378,-0.00662331,-0.00021637,-0.00102321,0.00130414,0.00000787,
 0.00061676,0.00015593,0.00001379,-0.00039488,0.00232563,0.00034527,-0.
 00460785,0.00000490,0.00000628,0.00000678,0.00000726,-0.00000285,0.000
 00650,-0.00001134,-0.00000338,0.00003161,-0.00001526,0.00000089,0.0000
 2957,0.04644396,-0.00040071,0.01779802,0.00000962,-0.00000134,-0.00001
 810,-0.00000036,-0.00008011,0.00003795,0.00000093,0.00007583,0.0000402
 4,-0.00000350,0.00015376,-0.00008659,-0.00005525,-0.00013545,-0.000127
 16,0.00001148,-0.00001863,-0.00001267,0.00001095,0.00001851,-0.0000097
 3,-0.00000143,0.00000218,-0.00000020,-0.00000208,-0.00000222,-0.000000
 61,-0.00000729,-0.00000011,-0.00000191,0.11943070,-0.00248112,0.083769
 25\\0.00004376,0.00000301,-0.00004319,0.00001307,-0.00000033,-0.000030
 28,-0.00001404,0.00000155,0.00001919,-0.00002726,-0.00000745,-0.000004
 23,0.00004654,0.00000451,-0.00003820,0.00001540,0.00000428,0.00000537,
 0.00002158,0.00000145,0.00000644,0.00000015,0.00000024,-0.00000382,-0.
 00000466,0.00000385,-0.00000490,-0.00007348,-0.00000232,0.00007567,0.0
 0000088,-0.00000299,0.00000379,0.00000046,-0.00000039,-0.00000125,-0.0
 0000171,-0.00000032,0.00000082,0.00000011,-0.00000349,0.00000873,-0.00
 000327,-0.00000011,0.00000951,-0.00000488,-0.00000204,-0.00000184,-0.0
 0000535,0.00000159,-0.00000162,-0.00000307,-0.00000056,-0.00000030,-0.
 00000236,0.00000027,-0.00000038,0.00000040,0.00000016,-0.00000248,-0.0
 0000227,-0.00000091,0.00000298\\\@


 If your ship doesn't come in, swim out to it!
                          -- Jonathan Winters
 Job cpu time:       0 days  1 hours 50 minutes 46.1 seconds.
 Elapsed time:       0 days  0 hours  6 minutes 57.1 seconds.
 File lengths (MBytes):  RWF=    187 Int=      0 D2E=      0 Chk=      9 Scr=      1
 Normal termination of Gaussian 16 at Tue Oct  7 05:26:29 2025.
