 Entering Gaussian System, Link 0=g16
 Input=INOX0129.gjf
 Output=INOX0129.log
 Initial command:
 /usr/local/g16/l1.exe "/dados_01/scratch/Gau-2123988.inp" -scrdir="/dados_01/scratch/"
 Entering Link 1 = /usr/local/g16/l1.exe PID=   2123989.
  
 Copyright (c) 1988-2017, Gaussian, Inc.  All Rights Reserved.
  
 This is part of the Gaussian(R) 16 program.  It is based on
 the Gaussian(R) 09 system (copyright 2009, Gaussian, Inc.),
 the Gaussian(R) 03 system (copyright 2003, Gaussian, Inc.),
 the Gaussian(R) 98 system (copyright 1998, Gaussian, Inc.),
 the Gaussian(R) 94 system (copyright 1995, Gaussian, Inc.),
 the Gaussian 92(TM) system (copyright 1992, Gaussian, Inc.),
 the Gaussian 90(TM) system (copyright 1990, Gaussian, Inc.),
 the Gaussian 88(TM) system (copyright 1988, Gaussian, Inc.),
 the Gaussian 86(TM) system (copyright 1986, Carnegie Mellon
 University), and the Gaussian 82(TM) system (copyright 1983,
 Carnegie Mellon University). Gaussian is a federally registered
 trademark of Gaussian, Inc.
  
 This software contains proprietary and confidential information,
 including trade secrets, belonging to Gaussian, Inc.
  
 This software is provided under written license and may be
 used, copied, transmitted, or stored only in accord with that
 written license.
  
 The following legend is applicable only to US Government
 contracts under FAR:
  
                    RESTRICTED RIGHTS LEGEND
  
 Use, reproduction and disclosure by the US Government is
 subject to restrictions as set forth in subparagraphs (a)
 and (c) of the Commercial Computer Software - Restricted
 Rights clause in FAR 52.227-19.
  
 Gaussian, Inc.
 340 Quinnipiac St., Bldg. 40, Wallingford CT 06492
  
  
 ---------------------------------------------------------------
 Warning -- This program may not be used in any manner that
 competes with the business of Gaussian, Inc. or will provide
 assistance to any competitor of Gaussian, Inc.  The licensee
 of this program is prohibited from giving any competitor of
 Gaussian, Inc. access to this program.  By using this program,
 the user acknowledges that Gaussian, Inc. is engaged in the
 business of creating and licensing software in the field of
 computational chemistry and represents and warrants to the
 licensee that it is not a competitor of Gaussian, Inc. and that
 it will not use this program in any manner prohibited above.
 ---------------------------------------------------------------
  

 Cite this work as:
 Gaussian 16, Revision B.01,
 M. J. Frisch, G. W. Trucks, H. B. Schlegel, G. E. Scuseria, 
 M. A. Robb, J. R. Cheeseman, G. Scalmani, V. Barone, 
 G. A. Petersson, H. Nakatsuji, X. Li, M. Caricato, A. V. Marenich, 
 J. Bloino, B. G. Janesko, R. Gomperts, B. Mennucci, H. P. Hratchian, 
 J. V. Ortiz, A. F. Izmaylov, J. L. Sonnenberg, D. Williams-Young, 
 F. Ding, F. Lipparini, F. Egidi, J. Goings, B. Peng, A. Petrone, 
 T. Henderson, D. Ranasinghe, V. G. Zakrzewski, J. Gao, N. Rega, 
 G. Zheng, W. Liang, M. Hada, M. Ehara, K. Toyota, R. Fukuda, 
 J. Hasegawa, M. Ishida, T. Nakajima, Y. Honda, O. Kitao, H. Nakai, 
 T. Vreven, K. Throssell, J. A. Montgomery, Jr., J. E. Peralta, 
 F. Ogliaro, M. J. Bearpark, J. J. Heyd, E. N. Brothers, K. N. Kudin, 
 V. N. Staroverov, T. A. Keith, R. Kobayashi, J. Normand, 
 K. Raghavachari, A. P. Rendell, J. C. Burant, S. S. Iyengar, 
 J. Tomasi, M. Cossi, J. M. Millam, M. Klene, C. Adamo, R. Cammi, 
 J. W. Ochterski, R. L. Martin, K. Morokuma, O. Farkas, 
 J. B. Foresman, and D. J. Fox, Gaussian, Inc., Wallingford CT, 2016.
 
 ******************************************
 Gaussian 16:  ES64L-G16RevB.01 20-Dec-2017
                20-Sep-2025 
 ******************************************
 %nprocs=16
 Will use up to   16 processors via shared memory.
 %mem=40GB
 %chk=INOX0129.chk
 ----------------------------------------------------------------------
 # opt freq=noraman M08HX/6-311++G** scf=xqc Empiricaldispersion=pfd In
 t(Grid=ultraFine)
 ----------------------------------------------------------------------
 1/18=20,19=15,26=4,38=1/1,3;
 2/9=110,12=2,17=6,18=5,40=1/2;
 3/5=4,6=6,7=1111,11=2,25=1,30=1,71=1,74=-74,75=-5,124=11/1,2,3;
 4//1;
 5/5=2,8=3,13=1,38=5/2,8;
 6/7=2,8=2,9=2,10=2,28=1/1;
 7//1,2,3,16;
 1/18=20,19=15,26=4/3(2);
 2/9=110/2;
 99//99;
 2/9=110/2;
 3/5=4,6=6,7=1111,11=2,25=1,30=1,71=1,74=-74,75=-5,124=11/1,2,3;
 4/5=5,16=3,69=1/1;
 5/5=2,8=3,13=1,38=5/2,8;
 7//1,2,3,16;
 1/18=20,19=15,26=4/3(-5);
 2/9=110/2;
 6/7=2,8=2,9=2,10=2,19=2,28=1/1;
 99/9=1/99;
 --------
 INOX0129
 --------
 Symbolic Z-matrix:
 Charge =  0 Multiplicity = 1
 O                    -2.3817    0.5832   -0.7464 
 C                    -2.2139   -0.3422    0.3294 
 C                    -1.4804    0.9882    0.2967 
 C                    -1.2321   -1.4756    0.106 
 C                    -0.0416    0.6242    0.1518 
 C                     0.1069   -0.7745    0.0435 
 C                     1.0786    1.442     0.1104 
 C                     1.3518   -1.3646   -0.1064 
 C                     2.3387    0.8558   -0.0385 
 C                     2.4738   -0.5365   -0.1464 
 H                    -3.0232   -0.5202    1.0177 
 H                    -1.796     1.7647    0.9809 
 H                    -1.4463   -2.0006   -0.8296 
 H                    -1.2559   -2.1727    0.9489 
 H                     0.9831    2.52      0.1914 
 H                     1.4566   -2.4407   -0.1911 
 H                     3.2243    1.4848   -0.0724 
 H                     3.4624   -0.9724   -0.2628 
 

 GradGradGradGradGradGradGradGradGradGradGradGradGradGradGradGradGradGrad
 Berny optimization.
 Initialization pass.
                           ----------------------------
                           !    Initial Parameters    !
                           ! (Angstroms and Degrees)  !
 --------------------------                            --------------------------
 ! Name  Definition              Value          Derivative Info.                !
 --------------------------------------------------------------------------------
 ! R1    R(1,2)                  1.4289         estimate D2E/DX2                !
 ! R2    R(1,3)                  1.4368         estimate D2E/DX2                !
 ! R3    R(2,3)                  1.5196         estimate D2E/DX2                !
 ! R4    R(2,4)                  1.5161         estimate D2E/DX2                !
 ! R5    R(2,11)                 1.0772         estimate D2E/DX2                !
 ! R6    R(3,5)                  1.4912         estimate D2E/DX2                !
 ! R7    R(3,12)                 1.082          estimate D2E/DX2                !
 ! R8    R(4,6)                  1.5127         estimate D2E/DX2                !
 ! R9    R(4,13)                 1.094          estimate D2E/DX2                !
 ! R10   R(4,14)                 1.0941         estimate D2E/DX2                !
 ! R11   R(5,6)                  1.4107         estimate D2E/DX2                !
 ! R12   R(5,7)                  1.3876         estimate D2E/DX2                !
 ! R13   R(6,8)                  1.3858         estimate D2E/DX2                !
 ! R14   R(7,9)                  1.3977         estimate D2E/DX2                !
 ! R15   R(7,15)                 1.0852         estimate D2E/DX2                !
 ! R16   R(8,10)                 1.3951         estimate D2E/DX2                !
 ! R17   R(8,16)                 1.0845         estimate D2E/DX2                !
 ! R18   R(9,10)                 1.403          estimate D2E/DX2                !
 ! R19   R(9,17)                 1.0868         estimate D2E/DX2                !
 ! R20   R(10,18)                1.0867         estimate D2E/DX2                !
 ! A1    A(1,2,4)              116.6963         estimate D2E/DX2                !
 ! A2    A(1,2,11)             119.9893         estimate D2E/DX2                !
 ! A3    A(3,2,4)              109.8015         estimate D2E/DX2                !
 ! A4    A(3,2,11)             121.4041         estimate D2E/DX2                !
 ! A5    A(4,2,11)             117.2036         estimate D2E/DX2                !
 ! A6    A(1,3,5)              117.7688         estimate D2E/DX2                !
 ! A7    A(1,3,12)             118.5809         estimate D2E/DX2                !
 ! A8    A(2,3,5)              104.7217         estimate D2E/DX2                !
 ! A9    A(2,3,12)             118.2891         estimate D2E/DX2                !
 ! A10   A(5,3,12)             121.2028         estimate D2E/DX2                !
 ! A11   A(2,4,6)              103.4636         estimate D2E/DX2                !
 ! A12   A(2,4,13)             110.9765         estimate D2E/DX2                !
 ! A13   A(2,4,14)             110.4093         estimate D2E/DX2                !
 ! A14   A(6,4,13)             111.1238         estimate D2E/DX2                !
 ! A15   A(6,4,14)             110.2665         estimate D2E/DX2                !
 ! A16   A(13,4,14)            110.4167         estimate D2E/DX2                !
 ! A17   A(3,5,6)              110.5514         estimate D2E/DX2                !
 ! A18   A(3,5,7)              129.6413         estimate D2E/DX2                !
 ! A19   A(6,5,7)              119.8069         estimate D2E/DX2                !
 ! A20   A(4,6,5)              111.2948         estimate D2E/DX2                !
 ! A21   A(4,6,8)              127.0325         estimate D2E/DX2                !
 ! A22   A(5,6,8)              121.6718         estimate D2E/DX2                !
 ! A23   A(5,7,9)              118.9348         estimate D2E/DX2                !
 ! A24   A(5,7,15)             120.8084         estimate D2E/DX2                !
 ! A25   A(9,7,15)             120.2568         estimate D2E/DX2                !
 ! A26   A(6,8,10)             118.2177         estimate D2E/DX2                !
 ! A27   A(6,8,16)             121.183          estimate D2E/DX2                !
 ! A28   A(10,8,16)            120.5993         estimate D2E/DX2                !
 ! A29   A(7,9,10)             120.7439         estimate D2E/DX2                !
 ! A30   A(7,9,17)             119.6853         estimate D2E/DX2                !
 ! A31   A(10,9,17)            119.5707         estimate D2E/DX2                !
 ! A32   A(8,10,9)             120.6248         estimate D2E/DX2                !
 ! A33   A(8,10,18)            119.7773         estimate D2E/DX2                !
 ! A34   A(9,10,18)            119.5979         estimate D2E/DX2                !
 ! D1    D(4,2,3,5)             -4.0206         estimate D2E/DX2                !
 ! D2    D(4,2,3,12)          -142.5865         estimate D2E/DX2                !
 ! D3    D(11,2,3,5)           138.0795         estimate D2E/DX2                !
 ! D4    D(11,2,3,12)           -0.4864         estimate D2E/DX2                !
 ! D5    D(1,2,4,6)             67.5417         estimate D2E/DX2                !
 ! D6    D(1,2,4,13)           -51.7106         estimate D2E/DX2                !
 ! D7    D(1,2,4,14)          -174.4816         estimate D2E/DX2                !
 ! D8    D(3,2,4,6)              3.9853         estimate D2E/DX2                !
 ! D9    D(3,2,4,13)          -115.2671         estimate D2E/DX2                !
 ! D10   D(3,2,4,14)           121.9619         estimate D2E/DX2                !
 ! D11   D(11,2,4,6)          -139.8927         estimate D2E/DX2                !
 ! D12   D(11,2,4,13)          100.855          estimate D2E/DX2                !
 ! D13   D(11,2,4,14)          -21.9161         estimate D2E/DX2                !
 ! D14   D(1,3,5,6)            -58.5141         estimate D2E/DX2                !
 ! D15   D(1,3,5,7)            121.267          estimate D2E/DX2                !
 ! D16   D(2,3,5,6)              2.4346         estimate D2E/DX2                !
 ! D17   D(2,3,5,7)           -177.7842         estimate D2E/DX2                !
 ! D18   D(12,3,5,6)           139.4911         estimate D2E/DX2                !
 ! D19   D(12,3,5,7)           -40.7277         estimate D2E/DX2                !
 ! D20   D(2,4,6,5)             -2.4915         estimate D2E/DX2                !
 ! D21   D(2,4,6,8)            177.8445         estimate D2E/DX2                !
 ! D22   D(13,4,6,5)           116.6594         estimate D2E/DX2                !
 ! D23   D(13,4,6,8)           -63.0046         estimate D2E/DX2                !
 ! D24   D(14,4,6,5)          -120.5676         estimate D2E/DX2                !
 ! D25   D(14,4,6,8)            59.7684         estimate D2E/DX2                !
 ! D26   D(3,5,6,4)              0.0419         estimate D2E/DX2                !
 ! D27   D(3,5,6,8)            179.7267         estimate D2E/DX2                !
 ! D28   D(7,5,6,4)           -179.7639         estimate D2E/DX2                !
 ! D29   D(7,5,6,8)             -0.0791         estimate D2E/DX2                !
 ! D30   D(3,5,7,9)           -179.7832         estimate D2E/DX2                !
 ! D31   D(3,5,7,15)             0.1858         estimate D2E/DX2                !
 ! D32   D(6,5,7,9)             -0.0193         estimate D2E/DX2                !
 ! D33   D(6,5,7,15)           179.9496         estimate D2E/DX2                !
 ! D34   D(4,6,8,10)           179.7493         estimate D2E/DX2                !
 ! D35   D(4,6,8,16)            -0.2321         estimate D2E/DX2                !
 ! D36   D(5,6,8,10)             0.1172         estimate D2E/DX2                !
 ! D37   D(5,6,8,16)          -179.8643         estimate D2E/DX2                !
 ! D38   D(5,7,9,10)             0.0761         estimate D2E/DX2                !
 ! D39   D(5,7,9,17)          -179.9987         estimate D2E/DX2                !
 ! D40   D(15,7,9,10)         -179.8931         estimate D2E/DX2                !
 ! D41   D(15,7,9,17)            0.0321         estimate D2E/DX2                !
 ! D42   D(6,8,10,9)            -0.0591         estimate D2E/DX2                !
 ! D43   D(6,8,10,18)          179.9788         estimate D2E/DX2                !
 ! D44   D(16,8,10,9)          179.9224         estimate D2E/DX2                !
 ! D45   D(16,8,10,18)          -0.0397         estimate D2E/DX2                !
 ! D46   D(7,9,10,8)            -0.037          estimate D2E/DX2                !
 ! D47   D(7,9,10,18)          179.9252         estimate D2E/DX2                !
 ! D48   D(17,9,10,8)         -179.9623         estimate D2E/DX2                !
 ! D49   D(17,9,10,18)          -0.0001         estimate D2E/DX2                !
 --------------------------------------------------------------------------------
 Trust Radius=3.00D-01 FncErr=1.00D-07 GrdErr=1.00D-06 EigMax=2.50D+02 EigMin=1.00D-04
 Number of steps in this run=    108 maximum allowed number of steps=    108.
 GradGradGradGradGradGradGradGradGradGradGradGradGradGradGradGradGradGrad

                          Input orientation:                          
 ---------------------------------------------------------------------
 Center     Atomic      Atomic             Coordinates (Angstroms)
 Number     Number       Type             X           Y           Z
 ---------------------------------------------------------------------
      1          8           0       -2.381700    0.583200   -0.746400
      2          6           0       -2.213900   -0.342200    0.329400
      3          6           0       -1.480400    0.988200    0.296700
      4          6           0       -1.232100   -1.475600    0.106000
      5          6           0       -0.041600    0.624200    0.151800
      6          6           0        0.106900   -0.774500    0.043500
      7          6           0        1.078600    1.442000    0.110400
      8          6           0        1.351800   -1.364600   -0.106400
      9          6           0        2.338700    0.855800   -0.038500
     10          6           0        2.473800   -0.536500   -0.146400
     11          1           0       -3.023200   -0.520200    1.017700
     12          1           0       -1.796000    1.764700    0.980900
     13          1           0       -1.446300   -2.000600   -0.829600
     14          1           0       -1.255900   -2.172700    0.948900
     15          1           0        0.983100    2.520000    0.191400
     16          1           0        1.456600   -2.440700   -0.191100
     17          1           0        3.224300    1.484800   -0.072400
     18          1           0        3.462400   -0.972400   -0.262800
 ---------------------------------------------------------------------
                    Distance matrix (angstroms):
                    1          2          3          4          5
     1  O    0.000000
     2  C    1.428939   0.000000
     3  C    1.436810   1.519558   0.000000
     4  C    2.507354   1.516059   2.483612   0.000000
     5  C    2.506893   2.384189   1.491187   2.414239   0.000000
     6  C    2.942859   2.377969   2.385528   1.512735   1.410724
     7  C    3.666786   3.751251   2.605595   3.721793   1.387573
     8  C    4.259407   3.734895   3.703986   2.594990   2.442039
     9  C    4.780963   4.721940   3.836067   4.266957   2.399100
    10  C    5.018925   4.715789   4.261073   3.831359   2.786285
    11  H    2.177398   1.077222   2.274938   2.225315   3.308984
    12  H    2.173143   2.244576   1.081982   3.403377   2.250792
    13  H    2.749167   2.163974   3.194157   1.094008   3.134630
    14  H    3.425851   2.156913   3.235283   1.094073   3.151594
    15  H    3.994063   4.293255   2.902814   4.569379   2.155374
    16  H    4.917812   4.259952   4.541065   2.872071   3.428673
    17  H    5.717901   5.750947   4.745213   5.353064   3.384819
    18  H    6.066899   5.741797   5.346799   4.735774   3.872860
                    6          7          8          9         10
     6  C    0.000000
     7  C    2.421064   0.000000
     8  C    1.385808   2.828187   0.000000
     9  C    2.765056   1.397732   2.430794   0.000000
    10  C    2.386403   2.434541   1.395075   1.402995   0.000000
    11  H    3.288048   4.636614   4.595350   5.635504   5.618933
    12  H    3.308668   3.020800   4.569834   4.354425   4.979711
    13  H    2.162881   4.371523   2.959202   4.807399   4.239992
    14  H    2.152193   4.383951   2.926907   4.802907   4.217522
    15  H    3.412233   1.085249   3.913405   2.158719   3.417380
    16  H    2.157070   3.912690   1.084504   3.415889   2.159322
    17  H    3.851760   2.153898   3.409764   1.086774   2.157401
    18  H    3.375258   3.413372   2.152421   2.157621   1.086687
                   11         12         13         14         15
    11  H    0.000000
    12  H    2.593866   0.000000
    13  H    2.844418   4.192575   0.000000
    14  H    2.420504   3.974399   1.796923   0.000000
    15  H    5.096668   2.986166   5.232614   5.254366   0.000000
    16  H    5.021765   5.444114   3.004696   2.954502   4.997905
    17  H    6.651286   5.137236   5.876723   5.873036   2.482782
    18  H    6.626249   6.057167   5.047157   5.017100   4.306981
                   16         17         18
    16  H    0.000000
    17  H    4.306786   0.000000
    18  H    2.486821   2.476040   0.000000
 Stoichiometry    C9H8O
 Framework group  C1[X(C9H8O)]
 Deg. of freedom    48
 Full point group                 C1      NOp   1
 Largest Abelian subgroup         C1      NOp   1
 Largest concise Abelian subgroup C1      NOp   1
                         Standard orientation:                         
 ---------------------------------------------------------------------
 Center     Atomic      Atomic             Coordinates (Angstroms)
 Number     Number       Type             X           Y           Z
 ---------------------------------------------------------------------
      1          8           0       -2.321156   -0.614367    0.785924
      2          6           0       -2.175790    0.297683   -0.304443
      3          6           0       -1.427557   -1.024206   -0.261901
      4          6           0       -1.203855    1.444529   -0.108173
      5          6           0        0.008775   -0.642847   -0.138805
      6          6           0        0.143310    0.758737   -0.051581
      7          6           0        1.138193   -1.447956   -0.099150
      8          6           0        1.383368    1.364156    0.075647
      9          6           0        2.393480   -0.846287    0.026955
     10          6           0        2.514681    0.548748    0.114023
     11          1           0       -2.994832    0.457398   -0.985669
     12          1           0       -1.742546   -1.813504   -0.931584
     13          1           0       -1.412979    1.980203    0.822513
     14          1           0       -1.244910    2.129513   -0.960292
     15          1           0        1.053482   -2.527941   -0.164127
     16          1           0        1.477441    2.442393    0.144241
     17          1           0        3.286190   -1.465241    0.059232
     18          1           0        3.499761    0.996782    0.212871
 ---------------------------------------------------------------------
 Rotational constants (GHZ):           3.1607089           1.1847842           0.9115281
 Standard basis: 6-311++G(d,p) (5D, 7F)
 There are   286 symmetry adapted cartesian basis functions of A   symmetry.
 There are   276 symmetry adapted basis functions of A   symmetry.
   276 basis functions,   432 primitive gaussians,   286 cartesian basis functions
    35 alpha electrons       35 beta electrons
       nuclear repulsion energy       489.1819326534 Hartrees.
 NAtoms=   18 NActive=   18 NUniq=   18 SFac= 1.00D+00 NAtFMM=   60 NAOKFM=F Big=F
 Integral buffers will be    131072 words long.
 Raffenetti 2 integral format.
 Two-electron integral symmetry is turned on.
 R6APFD:  NTU= -4 IXU= 1 FactS= 1.050
 Nuclear repulsion after empirical dispersion term =      489.1713176769 Hartrees.
 One-electron integrals computed using PRISM.
 NBasis=   276 RedAO= T EigKep=  1.53D-06  NBF=   276
 NBsUse=   275 1.00D-06 EigRej=  4.25D-07 NBFU=   275
 ExpMin= 3.60D-02 ExpMax= 8.59D+03 ExpMxC= 1.30D+03 IAcc=3 IRadAn=         5 AccDes= 0.00D+00
 Harris functional with IExCor= 1009 and IRadAn=       5 diagonalized for initial guess.
 HarFok:  IExCor= 1009 AccDes= 0.00D+00 IRadAn=         5 IDoV= 1 UseB2=F ITyADJ=14
 ICtDFT=  3500011 ScaDFX=  1.000000  1.000000  1.000000  1.000000
 FoFCou: FMM=F IPFlag=           0 FMFlag=      100000 FMFlg1=           0
         NFxFlg=           0 DoJE=T BraDBF=F KetDBF=T FulRan=T
         wScrn=  0.000000 ICntrl=       500 IOpCl=  0 I1Cent=   200000004 NGrid=           0
         NMat0=    1 NMatS0=      1 NMatT0=    0 NMatD0=    1 NMtDS0=    0 NMtDT0=    0
 Petite list used in FoFCou.
 Requested convergence on RMS density matrix=1.00D-08 within  32 cycles.
 Requested convergence on MAX density matrix=1.00D-06.
 Requested convergence on             energy=1.00D-06.
 No special actions if energy rises.
 SCF Done:  E(RM08HX) =  -422.946823700     A.U. after   14 cycles
            NFock= 14  Conv=0.50D-08     -V/T= 2.0049
 QCSCF skips out because SCF is already converged.

 **********************************************************************

            Population analysis using the SCF Density.

 **********************************************************************

 Orbital symmetries:
       Occupied  (A) (A) (A) (A) (A) (A) (A) (A) (A) (A) (A) (A)
                 (A) (A) (A) (A) (A) (A) (A) (A) (A) (A) (A) (A)
                 (A) (A) (A) (A) (A) (A) (A) (A) (A) (A) (A)
       Virtual   (A) (A) (A) (A) (A) (A) (A) (A) (A) (A) (A) (A)
                 (A) (A) (A) (A) (A) (A) (A) (A) (A) (A) (A) (A)
                 (A) (A) (A) (A) (A) (A) (A) (A) (A) (A) (A) (A)
                 (A) (A) (A) (A) (A) (A) (A) (A) (A) (A) (A) (A)
                 (A) (A) (A) (A) (A) (A) (A) (A) (A) (A) (A) (A)
                 (A) (A) (A) (A) (A) (A) (A) (A) (A) (A) (A) (A)
                 (A) (A) (A) (A) (A) (A) (A) (A) (A) (A) (A) (A)
                 (A) (A) (A) (A) (A) (A) (A) (A) (A) (A) (A) (A)
                 (A) (A) (A) (A) (A) (A) (A) (A) (A) (A) (A) (A)
                 (A) (A) (A) (A) (A) (A) (A) (A) (A) (A) (A) (A)
                 (A) (A) (A) (A) (A) (A) (A) (A) (A) (A) (A) (A)
                 (A) (A) (A) (A) (A) (A) (A) (A) (A) (A) (A) (A)
                 (A) (A) (A) (A) (A) (A) (A) (A) (A) (A) (A) (A)
                 (A) (A) (A) (A) (A) (A) (A) (A) (A) (A) (A) (A)
                 (A) (A) (A) (A) (A) (A) (A) (A) (A) (A) (A) (A)
                 (A) (A) (A) (A) (A) (A) (A) (A) (A) (A) (A) (A)
                 (A) (A) (A) (A) (A) (A) (A) (A) (A) (A) (A) (A)
                 (A) (A) (A) (A) (A) (A) (A) (A) (A) (A) (A) (A)
                 (A) (A) (A) (A) (A) (A) (A) (A) (A) (A) (A) (A)
                 (A) (A) (A) (A) (A) (A) (A) (A) (A) (A) (A) (A)
 The electronic state is 1-A.
 Alpha  occ. eigenvalues --  -19.63789 -10.59370 -10.59041 -10.54898 -10.54796
 Alpha  occ. eigenvalues --  -10.54336 -10.54297 -10.54272 -10.54062 -10.54023
 Alpha  occ. eigenvalues --   -1.20266  -0.98526  -0.90551  -0.86998  -0.81813
 Alpha  occ. eigenvalues --   -0.77107  -0.70554  -0.67949  -0.67077  -0.60983
 Alpha  occ. eigenvalues --   -0.56992  -0.54842  -0.53631  -0.51693  -0.50831
 Alpha  occ. eigenvalues --   -0.49058  -0.47768  -0.45386  -0.43228  -0.42869
 Alpha  occ. eigenvalues --   -0.40452  -0.36776  -0.35408  -0.31409  -0.29991
 Alpha virt. eigenvalues --   -0.02697  -0.01754  -0.01512  -0.00631  -0.00195
 Alpha virt. eigenvalues --    0.00313   0.00520   0.01484   0.02670   0.03111
 Alpha virt. eigenvalues --    0.03606   0.03770   0.04388   0.06466   0.07591
 Alpha virt. eigenvalues --    0.07854   0.08059   0.08239   0.08788   0.10327
 Alpha virt. eigenvalues --    0.10832   0.10912   0.11491   0.11705   0.11776
 Alpha virt. eigenvalues --    0.11925   0.12726   0.13843   0.14142   0.14240
 Alpha virt. eigenvalues --    0.14501   0.14738   0.15129   0.15535   0.16005
 Alpha virt. eigenvalues --    0.16642   0.17870   0.18876   0.20039   0.20335
 Alpha virt. eigenvalues --    0.20595   0.21223   0.21434   0.21765   0.23025
 Alpha virt. eigenvalues --    0.23770   0.24697   0.25436   0.25979   0.26505
 Alpha virt. eigenvalues --    0.27212   0.28940   0.29195   0.30273   0.31163
 Alpha virt. eigenvalues --    0.31838   0.32438   0.33129   0.34050   0.34459
 Alpha virt. eigenvalues --    0.35136   0.36174   0.37968   0.40212   0.41102
 Alpha virt. eigenvalues --    0.42025   0.43261   0.44149   0.51386   0.51546
 Alpha virt. eigenvalues --    0.53642   0.54686   0.56723   0.57409   0.58153
 Alpha virt. eigenvalues --    0.59194   0.60375   0.60898   0.61760   0.62139
 Alpha virt. eigenvalues --    0.62716   0.64288   0.66250   0.66614   0.66879
 Alpha virt. eigenvalues --    0.67710   0.67891   0.70232   0.70370   0.72782
 Alpha virt. eigenvalues --    0.73382   0.74035   0.74786   0.76365   0.77192
 Alpha virt. eigenvalues --    0.78883   0.79908   0.82656   0.84891   0.85293
 Alpha virt. eigenvalues --    0.86946   0.88096   0.88494   0.93227   0.93563
 Alpha virt. eigenvalues --    0.95258   0.95739   0.97645   0.99970   1.02362
 Alpha virt. eigenvalues --    1.04534   1.06428   1.07573   1.10093   1.12808
 Alpha virt. eigenvalues --    1.14639   1.16600   1.19002   1.21566   1.23517
 Alpha virt. eigenvalues --    1.30817   1.31230   1.32871   1.35272   1.39594
 Alpha virt. eigenvalues --    1.42271   1.47715   1.48395   1.52668   1.53655
 Alpha virt. eigenvalues --    1.55861   1.57753   1.58136   1.59771   1.60827
 Alpha virt. eigenvalues --    1.61925   1.62725   1.62800   1.65041   1.67085
 Alpha virt. eigenvalues --    1.67742   1.69183   1.73459   1.76429   1.77011
 Alpha virt. eigenvalues --    1.77797   1.78419   1.81340   1.84893   1.87706
 Alpha virt. eigenvalues --    1.88755   1.90082   1.92406   1.95233   1.97094
 Alpha virt. eigenvalues --    1.97930   1.98861   1.99069   2.00885   2.05018
 Alpha virt. eigenvalues --    2.06918   2.07691   2.09954   2.10679   2.15313
 Alpha virt. eigenvalues --    2.15872   2.22832   2.26709   2.27875   2.33479
 Alpha virt. eigenvalues --    2.36897   2.37916   2.42779   2.43410   2.47803
 Alpha virt. eigenvalues --    2.48688   2.52631   2.57471   2.60389   2.63020
 Alpha virt. eigenvalues --    2.64394   2.65302   2.68210   2.69721   2.70988
 Alpha virt. eigenvalues --    2.71955   2.72507   2.74597   2.75535   2.76123
 Alpha virt. eigenvalues --    2.80674   2.83009   2.84495   2.90550   2.90952
 Alpha virt. eigenvalues --    2.91162   2.93702   2.95106   2.98334   3.00220
 Alpha virt. eigenvalues --    3.03751   3.14258   3.16508   3.18033   3.19830
 Alpha virt. eigenvalues --    3.26471   3.28337   3.33470   3.37292   3.41192
 Alpha virt. eigenvalues --    3.44460   3.47426   3.57724   3.61935   3.68493
 Alpha virt. eigenvalues --    3.73753   3.82532   3.85248   3.93226   4.06963
 Alpha virt. eigenvalues --    4.09942   4.18581   4.24928   4.26775   4.35996
 Alpha virt. eigenvalues --    4.69326   4.91857   5.24176   5.63520   5.69254
 Alpha virt. eigenvalues --   23.62416  23.87799  23.95578  23.97903  24.01253
 Alpha virt. eigenvalues --   24.03273  24.12324  24.15908  24.23707  49.93031
          Condensed to atoms (all electrons):
               1          2          3          4          5          6
     1  O    7.891231   0.214552   0.277003  -0.175188  -0.173312  -0.041684
     2  C    0.214552  14.177784  -8.487108  -6.126099   4.188511   3.404338
     3  C    0.277003  -8.487108  21.729941   4.727500 -11.846089   0.037091
     4  C   -0.175188  -6.126099   4.727500  16.174631  -0.092443  -8.360225
     5  C   -0.173312   4.188511 -11.846089  -0.092443  28.031478  -8.279553
     6  C   -0.041684   3.404338   0.037091  -8.360225  -8.279553  26.781665
     7  C    0.037092  -1.273804   0.476730   0.736360  -2.178682  -5.227911
     8  C    0.017977  -0.687929  -0.095213  -0.234131  -4.131334  -2.007311
     9  C    0.008549  -0.020946  -0.904740   0.860184   0.711805  -1.329029
    10  C    0.011236  -0.255990   1.303235  -0.673135  -1.235706   0.495495
    11  H   -0.026713   0.290843   0.027293  -0.073393   0.001233  -0.092948
    12  H   -0.034014   0.110217   0.265106  -0.074887  -0.012446  -0.053008
    13  H   -0.016904  -0.040377   0.059650   0.440366  -0.124353   0.085777
    14  H    0.007583   0.014221  -0.038643   0.291860  -0.114823   0.067250
    15  H   -0.003161   0.011624  -0.047417  -0.040707  -0.022815   0.091071
    16  H   -0.001168   0.024625  -0.063262  -0.013977   0.075229  -0.057027
    17  H    0.000091   0.007659  -0.029421   0.003695   0.083352  -0.017807
    18  H    0.000058   0.000425   0.007968  -0.021784  -0.025410   0.068141
               7          8          9         10         11         12
     1  O    0.037092   0.017977   0.008549   0.011236  -0.026713  -0.034014
     2  C   -1.273804  -0.687929  -0.020946  -0.255990   0.290843   0.110217
     3  C    0.476730  -0.095213  -0.904740   1.303235   0.027293   0.265106
     4  C    0.736360  -0.234131   0.860184  -0.673135  -0.073393  -0.074887
     5  C   -2.178682  -4.131334   0.711805  -1.235706   0.001233  -0.012446
     6  C   -5.227911  -2.007311  -1.329029   0.495495  -0.092948  -0.053008
     7  C   10.771039   3.088110   0.717758  -1.090184   0.038357   0.032309
     8  C    3.088110  10.598221  -0.851810   0.294076   0.012011  -0.024459
     9  C    0.717758  -0.851810   8.016240  -1.234378   0.009125   0.030682
    10  C   -1.090184   0.294076  -1.234378   8.384404  -0.000914   0.003507
    11  H    0.038357   0.012011   0.009125  -0.000914   0.512864   0.029497
    12  H    0.032309  -0.024459   0.030682   0.003507   0.029497   0.503249
    13  H   -0.044677  -0.030963  -0.005635  -0.003174  -0.014397  -0.004858
    14  H   -0.006983   0.065472  -0.001781   0.040422   0.019282   0.005524
    15  H    0.361464   0.058768  -0.078897   0.005814  -0.002223  -0.006802
    16  H    0.055869   0.371943   0.023741  -0.097927   0.000606  -0.000018
    17  H   -0.041382  -0.026793   0.404618  -0.065426   0.000208   0.001081
    18  H   -0.027691  -0.045557  -0.060248   0.424094  -0.000194  -0.000074
              13         14         15         16         17         18
     1  O   -0.016904   0.007583  -0.003161  -0.001168   0.000091   0.000058
     2  C   -0.040377   0.014221   0.011624   0.024625   0.007659   0.000425
     3  C    0.059650  -0.038643  -0.047417  -0.063262  -0.029421   0.007968
     4  C    0.440366   0.291860  -0.040707  -0.013977   0.003695  -0.021784
     5  C   -0.124353  -0.114823  -0.022815   0.075229   0.083352  -0.025410
     6  C    0.085777   0.067250   0.091071  -0.057027  -0.017807   0.068141
     7  C   -0.044677  -0.006983   0.361464   0.055869  -0.041382  -0.027691
     8  C   -0.030963   0.065472   0.058768   0.371943  -0.026793  -0.045557
     9  C   -0.005635  -0.001781  -0.078897   0.023741   0.404618  -0.060248
    10  C   -0.003174   0.040422   0.005814  -0.097927  -0.065426   0.424094
    11  H   -0.014397   0.019282  -0.002223   0.000606   0.000208  -0.000194
    12  H   -0.004858   0.005524  -0.006802  -0.000018   0.001081  -0.000074
    13  H    0.454118  -0.044701   0.000623  -0.000792  -0.000050   0.000108
    14  H   -0.044701   0.485743  -0.000264  -0.005937  -0.000193   0.001152
    15  H    0.000623  -0.000264   0.414726   0.001400  -0.006332   0.001169
    16  H   -0.000792  -0.005937   0.001400   0.411744   0.001582  -0.007588
    17  H   -0.000050  -0.000193  -0.006332   0.001582   0.408700  -0.005062
    18  H    0.000108   0.001152   0.001169  -0.007588  -0.005062   0.410277
 Mulliken charges:
               1
     1  O    0.006770
     2  C    0.447454
     3  C   -1.399625
     4  C   -1.348626
     5  C    1.145359
     6  C    0.435674
     7  C   -0.423774
     8  C   -0.371077
     9  C   -0.295238
    10  C   -0.305449
    11  H    0.269463
    12  H    0.229395
    13  H    0.290242
    14  H    0.214819
    15  H    0.261960
    16  H    0.280956
    17  H    0.281480
    18  H    0.280215
 Sum of Mulliken charges =  -0.00000
 Mulliken charges with hydrogens summed into heavy atoms:
               1
     1  O    0.006770
     2  C    0.716917
     3  C   -1.170230
     4  C   -0.843565
     5  C    1.145359
     6  C    0.435674
     7  C   -0.161813
     8  C   -0.090121
     9  C   -0.013759
    10  C   -0.025234
 Electronic spatial extent (au):  <R**2>=           1275.9623
 Charge=             -0.0000 electrons
 Dipole moment (field-independent basis, Debye):
    X=              0.8244    Y=              0.9030    Z=             -1.7664  Tot=              2.1483
 Quadrupole moment (field-independent basis, Debye-Ang):
   XX=            -57.1230   YY=            -52.1977   ZZ=            -62.9802
   XY=             -2.4285   XZ=              5.4947   YZ=              1.8677
 Traceless Quadrupole moment (field-independent basis, Debye-Ang):
   XX=              0.3106   YY=              5.2360   ZZ=             -5.5466
   XY=             -2.4285   XZ=              5.4947   YZ=              1.8677
 Octapole moment (field-independent basis, Debye-Ang**2):
  XXX=             10.9997  YYY=             -3.0169  ZZZ=              0.6493  XYY=             -0.2164
  XXY=              5.9510  XXZ=             -9.7934  XZZ=             -8.4376  YZZ=              1.7540
  YYZ=             -1.2258  XYZ=             -2.7057
 Hexadecapole moment (field-independent basis, Debye-Ang**3):
 XXXX=          -1111.6762 YYYY=           -445.5960 ZZZZ=           -116.3950 XXXY=            -14.2546
 XXXZ=             35.9858 YYYX=              5.7247 YYYZ=              4.0885 ZZZX=             -1.1280
 ZZZY=             -1.0707 XXYY=           -256.4561 XXZZ=           -229.6610 YYZZ=           -100.1665
 XXYZ=              8.7120 YYXZ=              3.8440 ZZXY=             -1.8074
 N-N= 4.891713176769D+02 E-N=-1.961720456871D+03  KE= 4.208804528402D+02
 R6APFD:  NTU= -4 IXU= 1 FactS= 1.050
 Calling FoFJK, ICntrl=      2127 FMM=F ISym2X=0 I1Cent= 0 IOpClX= 0 NMat=1 NMatS=1 NMatT=0.
 ***** Axes restored to original set *****
 -------------------------------------------------------------------
 Center     Atomic                   Forces (Hartrees/Bohr)
 Number     Number              X              Y              Z
 -------------------------------------------------------------------
      1        8           0.007464147   -0.003306114    0.007723467
      2        6           0.014838880    0.020906292   -0.001102059
      3        6          -0.010277626   -0.035655320    0.013128196
      4        6           0.004171529    0.007372485   -0.000670396
      5        6           0.005023336   -0.007160399   -0.009378768
      6        6          -0.004374171    0.004696995   -0.003406042
      7        6           0.001499891   -0.001983127    0.000240979
      8        6           0.000366315    0.008032879   -0.001046489
      9        6          -0.000652773   -0.006921766    0.000348316
     10        6          -0.000305022    0.008290470    0.000645299
     11        1          -0.013436102    0.004172475   -0.000948026
     12        1          -0.002807058    0.009553408   -0.004545550
     13        1          -0.000903344   -0.004153539   -0.000390717
     14        1          -0.002287648   -0.003835539   -0.000467886
     15        1          -0.000482843    0.002775251   -0.000155043
     16        1          -0.000443085   -0.003181565   -0.000109703
     17        1           0.001009194    0.000564295   -0.000056081
     18        1           0.001596379   -0.000167178    0.000190502
 -------------------------------------------------------------------
 Cartesian Forces:  Max     0.035655320 RMS     0.007688970

 GradGradGradGradGradGradGradGradGradGradGradGradGradGradGradGradGradGrad
 Berny optimization.
 FormGI is forming the generalized inverse of G from B-inverse, IUseBI=4.
 Internal  Forces:  Max     0.018011417 RMS     0.003615961
 Search for a local minimum.
 Step number   1 out of a maximum of  108
 All quantities printed in internal units (Hartrees-Bohrs-Radians)
 Mixed Optimization -- RFO/linear search
 Second derivative matrix not updated -- first step.
 ITU=  0
     Eigenvalues ---    0.00877   0.01362   0.01570   0.01777   0.02080
     Eigenvalues ---    0.02106   0.02111   0.02190   0.02206   0.02219
     Eigenvalues ---    0.02315   0.02894   0.04784   0.06075   0.08047
     Eigenvalues ---    0.08472   0.11404   0.13177   0.16000   0.16000
     Eigenvalues ---    0.16000   0.16000   0.17281   0.20536   0.21943
     Eigenvalues ---    0.22000   0.22618   0.24511   0.24859   0.28645
     Eigenvalues ---    0.30345   0.30663   0.32766   0.34346   0.34354
     Eigenvalues ---    0.35188   0.35198   0.35368   0.35456   0.35756
     Eigenvalues ---    0.36332   0.38597   0.39302   0.42675   0.44111
     Eigenvalues ---    0.45939   0.47189   0.47591
 RFO step:  Lambda=-1.00230162D-02 EMin= 8.77329657D-03
 Linear search not attempted -- first point.
 Iteration  1 RMS(Cart)=  0.03871183 RMS(Int)=  0.00297219
 Iteration  2 RMS(Cart)=  0.00255776 RMS(Int)=  0.00160417
 Iteration  3 RMS(Cart)=  0.00000691 RMS(Int)=  0.00160415
 Iteration  4 RMS(Cart)=  0.00000001 RMS(Int)=  0.00160415
 Variable       Old X    -DE/DX   Delta X   Delta X   Delta X     New X
                                 (Linear)    (Quad)   (Total)
    R1        2.70030  -0.00954   0.00000  -0.01700  -0.01526   2.68505
    R2        2.71518  -0.00653   0.00000  -0.01749  -0.01808   2.69710
    R3        2.87155  -0.01801   0.00000  -0.06903  -0.06925   2.80230
    R4        2.86494   0.00382   0.00000   0.01339   0.01315   2.87809
    R5        2.03565   0.00880   0.00000   0.02356   0.02356   2.05922
    R6        2.81793  -0.00018   0.00000  -0.00535  -0.00456   2.81337
    R7        2.04465   0.00480   0.00000   0.01306   0.01306   2.05771
    R8        2.85866   0.00294   0.00000   0.01648   0.01544   2.87409
    R9        2.06738   0.00250   0.00000   0.00708   0.00708   2.07446
   R10        2.06750   0.00213   0.00000   0.00603   0.00603   2.07353
   R11        2.66588  -0.01006   0.00000  -0.02105  -0.02136   2.64453
   R12        2.62213   0.00114   0.00000   0.00167   0.00177   2.62390
   R13        2.61880   0.00048   0.00000   0.00086   0.00084   2.61963
   R14        2.64133  -0.00187   0.00000  -0.00386  -0.00384   2.63749
   R15        2.05082   0.00279   0.00000   0.00766   0.00766   2.05848
   R16        2.63631   0.00247   0.00000   0.00590   0.00580   2.64211
   R17        2.04942   0.00312   0.00000   0.00857   0.00857   2.05798
   R18        2.65128  -0.00802   0.00000  -0.01659  -0.01667   2.63461
   R19        2.05371   0.00115   0.00000   0.00318   0.00318   2.05688
   R20        2.05354   0.00150   0.00000   0.00414   0.00414   2.05768
    A1        2.03674  -0.00693   0.00000  -0.03737  -0.03748   1.99926
    A2        2.09421  -0.00179   0.00000  -0.05333  -0.05350   2.04070
    A3        1.91640  -0.00245   0.00000  -0.01571  -0.01534   1.90106
    A4        2.11890  -0.00284   0.00000   0.01562   0.01278   2.13168
    A5        2.04559   0.00752   0.00000   0.05821   0.05671   2.10230
    A6        2.05545  -0.00401   0.00000  -0.05308  -0.05639   1.99906
    A7        2.06963   0.00020   0.00000  -0.03783  -0.04212   2.02750
    A8        1.82774   0.00608   0.00000   0.03972   0.03811   1.86585
    A9        2.06453  -0.00019   0.00000   0.07059   0.06437   2.12890
   A10        2.11539   0.00060   0.00000   0.03149   0.01986   2.13525
   A11        1.80578  -0.00098   0.00000   0.00095   0.00018   1.80597
   A12        1.93690   0.00045   0.00000  -0.00262  -0.00235   1.93456
   A13        1.92701   0.00069   0.00000   0.00850   0.00816   1.93517
   A14        1.93948  -0.00043   0.00000  -0.01078  -0.01100   1.92847
   A15        1.92451   0.00278   0.00000   0.03584   0.03632   1.96084
   A16        1.92714  -0.00232   0.00000  -0.02902  -0.02897   1.89817
   A17        1.92949  -0.00163   0.00000  -0.01881  -0.01777   1.91171
   A18        2.26267  -0.00212   0.00000   0.00114   0.00045   2.26312
   A19        2.09103   0.00375   0.00000   0.01769   0.01733   2.10836
   A20        1.94246  -0.00087   0.00000  -0.00185  -0.00245   1.94001
   A21        2.21714   0.00566   0.00000   0.02319   0.02342   2.24056
   A22        2.12357  -0.00479   0.00000  -0.02133  -0.02096   2.10261
   A23        2.07580   0.00011   0.00000  -0.00223  -0.00207   2.07374
   A24        2.10850  -0.00026   0.00000  -0.00011  -0.00020   2.10831
   A25        2.09888   0.00015   0.00000   0.00234   0.00225   2.10113
   A26        2.06329   0.00260   0.00000   0.01110   0.01098   2.07426
   A27        2.11504  -0.00208   0.00000  -0.01013  -0.01012   2.10492
   A28        2.10485  -0.00052   0.00000  -0.00096  -0.00095   2.10391
   A29        2.10738  -0.00146   0.00000  -0.00596  -0.00598   2.10140
   A30        2.08890   0.00086   0.00000   0.00377   0.00377   2.09267
   A31        2.08690   0.00059   0.00000   0.00219   0.00220   2.08910
   A32        2.10530  -0.00021   0.00000   0.00070   0.00055   2.10585
   A33        2.09051   0.00061   0.00000   0.00265   0.00272   2.09323
   A34        2.08738  -0.00040   0.00000  -0.00335  -0.00327   2.08410
    D1       -0.07017   0.00176   0.00000   0.05121   0.05256  -0.01761
    D2       -2.48860  -0.00570   0.00000  -0.11178  -0.11366  -2.60226
    D3        2.40994   0.00786   0.00000   0.15468   0.15559   2.56553
    D4       -0.00849   0.00039   0.00000  -0.00831  -0.01063  -0.01912
    D5        1.17883  -0.00054   0.00000  -0.05123  -0.05177   1.12705
    D6       -0.90252   0.00031   0.00000  -0.03780  -0.03782  -0.94034
    D7       -3.04528   0.00247   0.00000  -0.00495  -0.00505  -3.05033
    D8        0.06956  -0.00193   0.00000  -0.05201  -0.05227   0.01729
    D9       -2.01179  -0.00107   0.00000  -0.03858  -0.03831  -2.05010
   D10        2.12864   0.00109   0.00000  -0.00574  -0.00555   2.12309
   D11       -2.44159  -0.00356   0.00000  -0.13414  -0.13529  -2.57688
   D12        1.76025  -0.00270   0.00000  -0.12071  -0.12134   1.63891
   D13       -0.38251  -0.00054   0.00000  -0.08786  -0.08857  -0.47108
   D14       -1.02126  -0.00489   0.00000  -0.06030  -0.05736  -1.07862
   D15        2.11651  -0.00466   0.00000  -0.05557  -0.05261   2.06390
   D16        0.04249  -0.00085   0.00000  -0.03011  -0.03176   0.01074
   D17       -3.10292  -0.00062   0.00000  -0.02537  -0.02701  -3.12993
   D18        2.43458   0.00659   0.00000   0.15935   0.15831   2.59289
   D19       -0.71083   0.00682   0.00000   0.16408   0.16306  -0.54777
   D20       -0.04349   0.00131   0.00000   0.03271   0.03258  -0.01090
   D21        3.10397   0.00107   0.00000   0.02977   0.02987   3.13384
   D22        2.03609   0.00106   0.00000   0.02489   0.02461   2.06070
   D23       -1.09964   0.00082   0.00000   0.02196   0.02190  -1.07774
   D24       -2.10430  -0.00025   0.00000   0.00551   0.00510  -2.09920
   D25        1.04316  -0.00049   0.00000   0.00257   0.00239   1.04555
   D26        0.00073  -0.00004   0.00000  -0.00068  -0.00033   0.00040
   D27        3.13682   0.00022   0.00000   0.00224   0.00230   3.13913
   D28       -3.13747  -0.00023   0.00000  -0.00485  -0.00455   3.14116
   D29       -0.00138   0.00003   0.00000  -0.00193  -0.00192  -0.00330
   D30       -3.13781  -0.00061   0.00000  -0.01603  -0.01615   3.12922
   D31        0.00324  -0.00038   0.00000  -0.00942  -0.00953  -0.00629
   D32       -0.00034  -0.00038   0.00000  -0.01100  -0.01101  -0.01135
   D33        3.14071  -0.00014   0.00000  -0.00438  -0.00439   3.13633
   D34        3.13722   0.00060   0.00000   0.01651   0.01625  -3.12971
   D35       -0.00405   0.00015   0.00000   0.00161   0.00141  -0.00265
   D36        0.00204   0.00033   0.00000   0.01322   0.01324   0.01529
   D37       -3.13922  -0.00013   0.00000  -0.00168  -0.00160  -3.14083
   D38        0.00133   0.00037   0.00000   0.01256   0.01252   0.01385
   D39       -3.14157   0.00026   0.00000   0.00777   0.00772  -3.13385
   D40       -3.13973   0.00014   0.00000   0.00598   0.00593  -3.13380
   D41        0.00056   0.00002   0.00000   0.00119   0.00112   0.00168
   D42       -0.00103  -0.00034   0.00000  -0.01163  -0.01173  -0.01277
   D43        3.14122  -0.00041   0.00000  -0.01379  -0.01388   3.12734
   D44        3.14024   0.00011   0.00000   0.00318   0.00311  -3.13984
   D45       -0.00069   0.00004   0.00000   0.00101   0.00096   0.00027
   D46       -0.00065  -0.00001   0.00000  -0.00115  -0.00120  -0.00185
   D47        3.14029   0.00006   0.00000   0.00101   0.00094   3.14122
   D48       -3.14093   0.00010   0.00000   0.00364   0.00359  -3.13734
   D49       -0.00000   0.00018   0.00000   0.00580   0.00573   0.00573
         Item               Value     Threshold  Converged?
 Maximum Force            0.018011     0.000450     NO 
 RMS     Force            0.003616     0.000300     NO 
 Maximum Displacement     0.182933     0.001800     NO 
 RMS     Displacement     0.038889     0.001200     NO 
 Predicted change in Energy=-5.998463D-03
 GradGradGradGradGradGradGradGradGradGradGradGradGradGradGradGradGradGrad

                          Input orientation:                          
 ---------------------------------------------------------------------
 Center     Atomic      Atomic             Coordinates (Angstroms)
 Number     Number       Type             X           Y           Z
 ---------------------------------------------------------------------
      1          8           0       -2.305101    0.571538   -0.741893
      2          6           0       -2.218443   -0.335710    0.348176
      3          6           0       -1.466883    0.942636    0.352046
      4          6           0       -1.239421   -1.483605    0.139760
      5          6           0       -0.029127    0.600092    0.173246
      6          6           0        0.109713   -0.787075    0.051273
      7          6           0        1.080599    1.433004    0.121094
      8          6           0        1.361399   -1.355188   -0.128227
      9          6           0        2.343517    0.861638   -0.041870
     10          6           0        2.482049   -0.520032   -0.166471
     11          1           0       -3.120004   -0.479870    0.943016
     12          1           0       -1.792735    1.801373    0.936922
     13          1           0       -1.457727   -2.018531   -0.793656
     14          1           0       -1.287748   -2.195045    0.973731
     15          1           0        0.971967    2.513129    0.211154
     16          1           0        1.471858   -2.434359   -0.224106
     17          1           0        3.226203    1.497490   -0.077815
     18          1           0        3.474983   -0.948587   -0.293279
 ---------------------------------------------------------------------
                    Distance matrix (angstroms):
                    1          2          3          4          5
     1  O    0.000000
     2  C    1.420865   0.000000
     3  C    1.427244   1.482912   0.000000
     4  C    2.477216   1.523019   2.446109   0.000000
     5  C    2.453233   2.387348   1.488773   2.409922   0.000000
     6  C    2.882060   2.390020   2.359665   1.520904   1.399423
     7  C    3.598588   3.750146   2.604508   3.726856   1.388509
     8  C    4.187133   3.752542   3.675573   2.617742   2.418175
     9  C    4.709973   4.732575   3.831563   4.286094   2.396690
    10  C    4.943626   4.732174   4.242914   3.856370   2.770576
    11  H    2.146728   1.089692   2.259553   2.278003   3.363388
    12  H    2.143229   2.257204   1.088893   3.425303   2.266404
    13  H    2.725653   2.171257   3.175095   1.097757   3.135759
    14  H    3.410623   2.171322   3.203689   1.097264   3.168231
    15  H    3.926480   4.279413   2.904184   4.568284   2.159476
    16  H    4.854785   4.283709   4.513562   2.896095   3.408627
    17  H    5.647452   5.760753   4.745282   5.373646   3.386079
    18  H    5.993447   5.762134   5.330591   4.764386   3.859383
                    6          7          8          9         10
     6  C    0.000000
     7  C    2.424097   0.000000
     8  C    1.386250   2.813365   0.000000
     9  C    2.777914   1.395700   2.426176   0.000000
    10  C    2.397228   2.420972   1.398143   1.394176   0.000000
    11  H    3.364618   4.688252   4.690066   5.711367   5.711005
    12  H    3.332228   3.009538   4.587699   4.353127   4.988003
    13  H    2.165008   4.380978   2.971581   4.828045   4.261538
    14  H    2.187740   4.415744   2.989590   4.853951   4.279848
    15  H    3.414731   1.089303   3.902654   2.161618   3.409254
    16  H    2.155184   3.902402   1.089038   3.414175   2.165284
    17  H    3.866318   2.155769   3.408491   1.088456   2.152213
    18  H    3.386715   3.402463   2.158658   2.149496   1.088879
                   11         12         13         14         15
    11  H    0.000000
    12  H    2.639271   0.000000
    13  H    2.854238   4.206994   0.000000
    14  H    2.509966   4.028364   1.784294   0.000000
    15  H    5.122294   2.945660   5.239180   5.277758   0.000000
    16  H    5.125173   5.472383   3.013266   3.017865   4.991691
    17  H    6.725058   5.129500   5.900343   5.925902   2.489298
    18  H    6.726215   6.068321   5.072159   5.083559   4.301513
                   16         17         18
    16  H    0.000000
    17  H    4.307966   0.000000
    18  H    2.494958   2.468118   0.000000
 Stoichiometry    C9H8O
 Framework group  C1[X(C9H8O)]
 Deg. of freedom    48
 Full point group                 C1      NOp   1
 Largest Abelian subgroup         C1      NOp   1
 Largest concise Abelian subgroup C1      NOp   1
                         Standard orientation:                         
 ---------------------------------------------------------------------
 Center     Atomic      Atomic             Coordinates (Angstroms)
 Number     Number       Type             X           Y           Z
 ---------------------------------------------------------------------
      1          8           0       -2.241243   -0.626192    0.813183
      2          6           0       -2.196683    0.261025   -0.295744
      3          6           0       -1.418274   -1.001149   -0.290970
      4          6           0       -1.238235    1.433030   -0.130312
      5          6           0        0.015262   -0.625151   -0.149385
      6          6           0        0.126998    0.766750   -0.057116
      7          6           0        1.143345   -1.433480   -0.104796
      8          6           0        1.369751    1.364345    0.084781
      9          6           0        2.396912   -0.832723    0.020270
     10          6           0        2.508511    0.553728    0.115278
     11          1           0       -3.113311    0.374552   -0.873960
     12          1           0       -1.737852   -1.877866   -0.852151
     13          1           0       -1.448406    1.981553    0.797060
     14          1           0       -1.319088    2.126739   -0.976609
     15          1           0        1.055921   -2.517204   -0.171717
     16          1           0        1.459143    2.447270    0.157499
     17          1           0        3.293515   -1.449142    0.049688
     18          1           0        3.494506    1.005373    0.212687
 ---------------------------------------------------------------------
 Rotational constants (GHZ):           3.1818737           1.1931609           0.9203199
 Standard basis: 6-311++G(d,p) (5D, 7F)
 There are   286 symmetry adapted cartesian basis functions of A   symmetry.
 There are   276 symmetry adapted basis functions of A   symmetry.
   276 basis functions,   432 primitive gaussians,   286 cartesian basis functions
    35 alpha electrons       35 beta electrons
       nuclear repulsion energy       490.6732520615 Hartrees.
 NAtoms=   18 NActive=   18 NUniq=   18 SFac= 1.00D+00 NAtFMM=   60 NAOKFM=F Big=F
 Integral buffers will be    131072 words long.
 Raffenetti 2 integral format.
 Two-electron integral symmetry is turned on.
 R6APFD:  NTU= -4 IXU= 1 FactS= 1.050
 Nuclear repulsion after empirical dispersion term =      490.6627971690 Hartrees.
 One-electron integrals computed using PRISM.
 NBasis=   276 RedAO= T EigKep=  1.40D-06  NBF=   276
 NBsUse=   275 1.00D-06 EigRej=  4.01D-07 NBFU=   275
 Initial guess from the checkpoint file:  "INOX0129.chk"
 B after Tr=    -0.000000   -0.000000   -0.000000
         Rot=    0.999985    0.000830   -0.002932   -0.004607 Ang=   0.63 deg.
 ExpMin= 3.60D-02 ExpMax= 8.59D+03 ExpMxC= 1.30D+03 IAcc=3 IRadAn=         5 AccDes= 0.00D+00
 Harris functional with IExCor= 1009 and IRadAn=       5 diagonalized for initial guess.
 HarFok:  IExCor= 1009 AccDes= 0.00D+00 IRadAn=         5 IDoV= 1 UseB2=F ITyADJ=14
 ICtDFT=  3500011 ScaDFX=  1.000000  1.000000  1.000000  1.000000
 FoFCou: FMM=F IPFlag=           0 FMFlag=      100000 FMFlg1=           0
         NFxFlg=           0 DoJE=T BraDBF=F KetDBF=T FulRan=T
         wScrn=  0.000000 ICntrl=       500 IOpCl=  0 I1Cent=   200000004 NGrid=           0
         NMat0=    1 NMatS0=      1 NMatT0=    0 NMatD0=    1 NMtDS0=    0 NMtDT0=    0
 Petite list used in FoFCou.
 Requested convergence on RMS density matrix=1.00D-08 within  32 cycles.
 Requested convergence on MAX density matrix=1.00D-06.
 Requested convergence on             energy=1.00D-06.
 No special actions if energy rises.
 SCF Done:  E(RM08HX) =  -422.952863596     A.U. after   13 cycles
            NFock= 13  Conv=0.44D-08     -V/T= 2.0048
 QCSCF skips out because SCF is already converged.
 R6APFD:  NTU= -4 IXU= 1 FactS= 1.050
 Calling FoFJK, ICntrl=      2127 FMM=F ISym2X=0 I1Cent= 0 IOpClX= 0 NMat=1 NMatS=1 NMatT=0.
 ***** Axes restored to original set *****
 -------------------------------------------------------------------
 Center     Atomic                   Forces (Hartrees/Bohr)
 Number     Number              X              Y              Z
 -------------------------------------------------------------------
      1        8          -0.000090158   -0.001862416   -0.002283526
      2        6           0.003992209    0.003118124    0.002533530
      3        6          -0.003539220   -0.002886334    0.006757087
      4        6           0.002481869    0.001866930   -0.001402563
      5        6           0.002914643    0.000144302   -0.000965352
      6        6          -0.003384344   -0.001247193   -0.000784238
      7        6          -0.001097579    0.000796469    0.001348712
      8        6           0.001084517    0.000796336   -0.000576148
      9        6          -0.000186093   -0.000507187   -0.000504960
     10        6          -0.000394874   -0.000213507   -0.000079317
     11        1          -0.001520846    0.000819803   -0.002513342
     12        1           0.000754071    0.002082045   -0.002054388
     13        1          -0.001340711   -0.001683797    0.000825200
     14        1           0.000784575   -0.000582211   -0.000314439
     15        1          -0.000411141   -0.000089278    0.000019813
     16        1           0.000228553   -0.000233928   -0.000108636
     17        1          -0.000048221    0.000128894   -0.000012760
     18        1          -0.000227251   -0.000447052    0.000115328
 -------------------------------------------------------------------
 Cartesian Forces:  Max     0.006757087 RMS     0.001794530

 GradGradGradGradGradGradGradGradGradGradGradGradGradGradGradGradGradGrad
 Berny optimization.
 Using GEDIIS/GDIIS optimizer.
 FormGI is forming the generalized inverse of G from B-inverse, IUseBI=4.
 Internal  Forces:  Max     0.002931847 RMS     0.000803623
 Search for a local minimum.
 Step number   2 out of a maximum of  108
 All quantities printed in internal units (Hartrees-Bohrs-Radians)
 Mixed Optimization -- En-DIIS/RFO-DIIS
 Update second derivatives using D2CorX and points    1    2
 DE= -6.04D-03 DEPred=-6.00D-03 R= 1.01D+00
 TightC=F SS=  1.41D+00  RLast= 4.29D-01 DXNew= 5.0454D-01 1.2869D+00
 Trust test= 1.01D+00 RLast= 4.29D-01 DXMaxT set to 5.05D-01
 ITU=  1  0
 Use linear search instead of GDIIS.
     Eigenvalues ---    0.00867   0.01351   0.01561   0.01805   0.02080
     Eigenvalues ---    0.02104   0.02110   0.02115   0.02190   0.02214
     Eigenvalues ---    0.02220   0.02809   0.04749   0.06035   0.08047
     Eigenvalues ---    0.08698   0.12144   0.14012   0.15992   0.15999
     Eigenvalues ---    0.16000   0.16032   0.17843   0.20210   0.21305
     Eigenvalues ---    0.22003   0.22715   0.24456   0.24637   0.28135
     Eigenvalues ---    0.30072   0.30588   0.32725   0.34338   0.34350
     Eigenvalues ---    0.35188   0.35202   0.35377   0.35448   0.35747
     Eigenvalues ---    0.36441   0.38984   0.39577   0.42621   0.44331
     Eigenvalues ---    0.45960   0.47380   0.47600
 RFO step:  Lambda=-8.64361368D-04 EMin= 8.66525239D-03
 Quartic linear search produced a step of  0.24139.
 Iteration  1 RMS(Cart)=  0.03317408 RMS(Int)=  0.00099325
 Iteration  2 RMS(Cart)=  0.00083767 RMS(Int)=  0.00060138
 Iteration  3 RMS(Cart)=  0.00000049 RMS(Int)=  0.00060138
 Variable       Old X    -DE/DX   Delta X   Delta X   Delta X     New X
                                 (Linear)    (Quad)   (Total)
    R1        2.68505  -0.00007  -0.00368   0.00169  -0.00149   2.68356
    R2        2.69710   0.00150  -0.00436   0.01057   0.00624   2.70334
    R3        2.80230  -0.00293  -0.01672  -0.00173  -0.01851   2.78379
    R4        2.87809   0.00106   0.00317   0.00037   0.00352   2.88161
    R5        2.05922  -0.00022   0.00569  -0.00549   0.00019   2.05941
    R6        2.81337   0.00047  -0.00110   0.00246   0.00167   2.81504
    R7        2.05771   0.00031   0.00315  -0.00154   0.00161   2.05932
    R8        2.87409  -0.00191   0.00373  -0.00889  -0.00564   2.86846
    R9        2.07446   0.00039   0.00171  -0.00004   0.00167   2.07613
   R10        2.07353   0.00010   0.00146  -0.00085   0.00061   2.07414
   R11        2.64453   0.00031  -0.00516   0.00663   0.00121   2.64574
   R12        2.62390  -0.00130   0.00043  -0.00379  -0.00333   2.62058
   R13        2.61963   0.00047   0.00020   0.00104   0.00121   2.62084
   R14        2.63749   0.00028  -0.00093   0.00152   0.00063   2.63812
   R15        2.05848  -0.00005   0.00185  -0.00170   0.00014   2.05863
   R16        2.64211  -0.00083   0.00140  -0.00327  -0.00191   2.64020
   R17        2.05798   0.00027   0.00207  -0.00080   0.00127   2.05925
   R18        2.63461   0.00034  -0.00402   0.00434   0.00031   2.63492
   R19        2.05688   0.00004   0.00077  -0.00051   0.00025   2.05714
   R20        2.05768  -0.00004   0.00100  -0.00099   0.00001   2.05769
    A1        1.99926  -0.00177  -0.00905  -0.01049  -0.01979   1.97947
    A2        2.04070  -0.00017  -0.01292  -0.01012  -0.02340   2.01731
    A3        1.90106   0.00084  -0.00370   0.00948   0.00572   1.90678
    A4        2.13168  -0.00124   0.00308   0.00781   0.00946   2.14114
    A5        2.10230   0.00094   0.01369   0.00075   0.01339   2.11568
    A6        1.99906  -0.00234  -0.01361  -0.01126  -0.02587   1.97320
    A7        2.02750   0.00129  -0.01017   0.00261  -0.00904   2.01846
    A8        1.86585  -0.00025   0.00920  -0.00833   0.00018   1.86603
    A9        2.12890   0.00139   0.01554   0.01994   0.03360   2.16250
   A10        2.13525  -0.00016   0.00480  -0.00096  -0.00033   2.13492
   A11        1.80597  -0.00062   0.00004  -0.00491  -0.00538   1.80059
   A12        1.93456  -0.00037  -0.00057  -0.00212  -0.00243   1.93213
   A13        1.93517   0.00113   0.00197   0.00890   0.01080   1.94597
   A14        1.92847   0.00100  -0.00266   0.01627   0.01350   1.94197
   A15        1.96084  -0.00024   0.00877  -0.01112  -0.00196   1.95888
   A16        1.89817  -0.00086  -0.00699  -0.00657  -0.01358   1.88459
   A17        1.91171  -0.00027  -0.00429   0.00086  -0.00344   1.90827
   A18        2.26312  -0.00090   0.00011  -0.00356  -0.00362   2.25950
   A19        2.10836   0.00117   0.00418   0.00271   0.00675   2.11511
   A20        1.94001   0.00032  -0.00059   0.00304   0.00180   1.94181
   A21        2.24056   0.00047   0.00565  -0.00283   0.00310   2.24366
   A22        2.10261  -0.00078  -0.00506  -0.00015  -0.00500   2.09761
   A23        2.07374  -0.00071  -0.00050  -0.00375  -0.00426   2.06947
   A24        2.10831  -0.00007  -0.00005  -0.00112  -0.00124   2.10706
   A25        2.10113   0.00079   0.00054   0.00498   0.00545   2.10658
   A26        2.07426   0.00002   0.00265  -0.00194   0.00061   2.07487
   A27        2.10492   0.00020  -0.00244   0.00360   0.00119   2.10612
   A28        2.10391  -0.00023  -0.00023  -0.00166  -0.00185   2.10206
   A29        2.10140   0.00013  -0.00144   0.00211   0.00067   2.10206
   A30        2.09267  -0.00020   0.00091  -0.00222  -0.00132   2.09136
   A31        2.08910   0.00007   0.00053   0.00012   0.00065   2.08975
   A32        2.10585   0.00017   0.00013   0.00123   0.00129   2.10714
   A33        2.09323  -0.00060   0.00066  -0.00520  -0.00451   2.08872
   A34        2.08410   0.00043  -0.00079   0.00396   0.00320   2.08730
    D1       -0.01761   0.00026   0.01269  -0.00779   0.00526  -0.01235
    D2       -2.60226  -0.00120  -0.02744  -0.02346  -0.05194  -2.65420
    D3        2.56553   0.00158   0.03756   0.02309   0.06099   2.62652
    D4       -0.01912   0.00012  -0.00257   0.00742   0.00379  -0.01533
    D5        1.12705   0.00090  -0.01250  -0.01404  -0.02701   1.10004
    D6       -0.94034   0.00025  -0.00913  -0.02933  -0.03864  -0.97897
    D7       -3.05033   0.00083  -0.00122  -0.02558  -0.02706  -3.07739
    D8        0.01729  -0.00054  -0.01262  -0.02060  -0.03330  -0.01602
    D9       -2.05010  -0.00118  -0.00925  -0.03589  -0.04493  -2.09503
   D10        2.12309  -0.00061  -0.00134  -0.03214  -0.03335   2.08974
   D11       -2.57688  -0.00101  -0.03266  -0.05345  -0.08665  -2.66353
   D12        1.63891  -0.00166  -0.02929  -0.06874  -0.09827   1.54064
   D13       -0.47108  -0.00108  -0.02138  -0.06499  -0.08669  -0.55777
   D14       -1.07862   0.00015  -0.01385   0.04160   0.02875  -1.04987
   D15        2.06390  -0.00028  -0.01270   0.01260   0.00105   2.06495
   D16        0.01074   0.00016  -0.00767   0.03642   0.02826   0.03900
   D17       -3.12993  -0.00026  -0.00652   0.00741   0.00056  -3.12936
   D18        2.59289   0.00223   0.03822   0.06035   0.09766   2.69055
   D19       -0.54777   0.00181   0.03936   0.03135   0.06996  -0.47781
   D20       -0.01090   0.00067   0.00786   0.04452   0.05227   0.04136
   D21        3.13384   0.00061   0.00721   0.02629   0.03342  -3.11592
   D22        2.06070   0.00037   0.00594   0.04708   0.05284   2.11354
   D23       -1.07774   0.00031   0.00529   0.02885   0.03400  -1.04374
   D24       -2.09920  -0.00018   0.00123   0.04254   0.04364  -2.05556
   D25        1.04555  -0.00024   0.00058   0.02431   0.02479   1.07034
   D26        0.00040  -0.00052  -0.00008  -0.05150  -0.05150  -0.05110
   D27        3.13913  -0.00047   0.00056  -0.03492  -0.03444   3.10469
   D28        3.14116  -0.00014  -0.00110  -0.02551  -0.02651   3.11465
   D29       -0.00330  -0.00009  -0.00046  -0.00893  -0.00945  -0.01275
   D30        3.12922   0.00061  -0.00390   0.04793   0.04401  -3.10995
   D31       -0.00629   0.00036  -0.00230   0.02739   0.02511   0.01883
   D32       -0.01135   0.00015  -0.00266   0.01611   0.01347   0.00212
   D33        3.13633  -0.00011  -0.00106  -0.00443  -0.00543   3.13089
   D34       -3.12971   0.00008   0.00392   0.01712   0.02094  -3.10877
   D35       -0.00265   0.00007   0.00034   0.01724   0.01748   0.01484
   D36        0.01529   0.00001   0.00320  -0.00261   0.00061   0.01590
   D37       -3.14083   0.00001  -0.00039  -0.00250  -0.00284   3.13951
   D38        0.01385  -0.00013   0.00302  -0.01193  -0.00888   0.00497
   D39       -3.13385  -0.00010   0.00186  -0.01002  -0.00816   3.14117
   D40       -3.13380   0.00012   0.00143   0.00850   0.00999  -3.12381
   D41        0.00168   0.00015   0.00027   0.01041   0.01071   0.01239
   D42       -0.01277   0.00001  -0.00283   0.00673   0.00385  -0.00891
   D43        3.12734  -0.00004  -0.00335   0.00132  -0.00204   3.12530
   D44       -3.13984   0.00001   0.00075   0.00657   0.00727  -3.13257
   D45        0.00027  -0.00004   0.00023   0.00115   0.00138   0.00165
   D46       -0.00185   0.00005  -0.00029   0.00057   0.00027  -0.00157
   D47        3.14122   0.00009   0.00023   0.00596   0.00617  -3.13580
   D48       -3.13734   0.00002   0.00087  -0.00133  -0.00044  -3.13778
   D49        0.00573   0.00007   0.00138   0.00407   0.00546   0.01118
         Item               Value     Threshold  Converged?
 Maximum Force            0.002932     0.000450     NO 
 RMS     Force            0.000804     0.000300     NO 
 Maximum Displacement     0.108535     0.001800     NO 
 RMS     Displacement     0.033218     0.001200     NO 
 Predicted change in Energy=-7.222896D-04
 GradGradGradGradGradGradGradGradGradGradGradGradGradGradGradGradGradGrad

                          Input orientation:                          
 ---------------------------------------------------------------------
 Center     Atomic      Atomic             Coordinates (Angstroms)
 Number     Number       Type             X           Y           Z
 ---------------------------------------------------------------------
      1          8           0       -2.260657    0.546405   -0.764913
      2          6           0       -2.212405   -0.331170    0.350502
      3          6           0       -1.465870    0.938755    0.357959
      4          6           0       -1.235215   -1.487758    0.169750
      5          6           0       -0.024841    0.595335    0.201215
      6          6           0        0.107894   -0.790416    0.052028
      7          6           0        1.081069    1.431070    0.161413
      8          6           0        1.358620   -1.352841   -0.154933
      9          6           0        2.340943    0.862466   -0.034333
     10          6           0        2.476990   -0.516260   -0.191796
     11          1           0       -3.152419   -0.464268    0.885582
     12          1           0       -1.797600    1.835791    0.880285
     13          1           0       -1.470256   -2.056144   -0.740584
     14          1           0       -1.270339   -2.180615    1.020285
     15          1           0        0.968064    2.509274    0.268429
     16          1           0        1.471322   -2.430567   -0.270145
     17          1           0        3.222957    1.499530   -0.069396
     18          1           0        3.466844   -0.945690   -0.338247
 ---------------------------------------------------------------------
                    Distance matrix (angstroms):
                    1          2          3          4          5
     1  O    0.000000
     2  C    1.420076   0.000000
     3  C    1.430548   1.473119   0.000000
     4  C    2.462305   1.524883   2.444707   0.000000
     5  C    2.436118   2.380364   1.489655   2.409414   0.000000
     6  C    2.839810   2.384068   2.358042   1.517922   1.400065
     7  C    3.578805   3.740082   2.601519   3.726231   1.386749
     8  C    4.132599   3.748532   3.673175   2.617556   2.415822
     9  C    4.669942   4.722906   3.827732   4.284169   2.392441
    10  C    4.889071   4.724274   4.238566   3.854217   2.765729
    11  H    2.130923   1.089795   2.256393   2.288147   3.372368
    12  H    2.140938   2.269020   1.089744   3.444868   2.267717
    13  H    2.720034   2.171817   3.190021   1.098642   3.163313
    14  H    3.406509   2.180950   3.194899   1.097586   3.150880
    15  H    3.917307   4.265002   2.898031   4.565134   2.157207
    16  H    4.799461   4.285150   4.513750   2.899610   3.408338
    17  H    5.609119   5.750733   4.741540   5.371813   3.382157
    18  H    5.934026   5.753771   5.326116   4.760384   3.854561
                    6          7          8          9         10
     6  C    0.000000
     7  C    2.427763   0.000000
     8  C    1.386891   2.815540   0.000000
     9  C    2.779565   1.396033   2.426332   0.000000
    10  C    2.397337   2.421868   1.397132   1.394342   0.000000
    11  H    3.380951   4.694587   4.713990   5.725687   5.731814
    12  H    3.348713   2.994546   4.604429   4.348726   4.995359
    13  H    2.172754   4.414013   2.973241   4.852042   4.272372
    14  H    2.183965   4.394434   2.996293   4.838793   4.275709
    15  H    3.416823   1.089380   3.904831   2.165280   3.412114
    16  H    2.157041   3.905224   1.089710   3.414076   2.163811
    17  H    3.868102   2.155376   3.408679   1.088590   2.152872
    18  H    3.385110   3.404493   2.154991   2.151615   1.088885
                   11         12         13         14         15
    11  H    0.000000
    12  H    2.669426   0.000000
    13  H    2.829869   4.228655   0.000000
    14  H    2.550729   4.053285   1.776547   0.000000
    15  H    5.118712   2.911502   5.273192   5.250790   0.000000
    16  H    5.155678   5.496466   3.002397   3.040459   4.994533
    17  H    6.738984   5.120640   5.926176   5.909364   2.493642
    18  H    6.748642   6.077485   5.076410   5.080507   4.306825
                   16         17         18
    16  H    0.000000
    17  H    4.307457   0.000000
    18  H    2.488293   2.472017   0.000000
 Stoichiometry    C9H8O
 Framework group  C1[X(C9H8O)]
 Deg. of freedom    48
 Full point group                 C1      NOp   1
 Largest Abelian subgroup         C1      NOp   1
 Largest concise Abelian subgroup C1      NOp   1
                         Standard orientation:                         
 ---------------------------------------------------------------------
 Center     Atomic      Atomic             Coordinates (Angstroms)
 Number     Number       Type             X           Y           Z
 ---------------------------------------------------------------------
      1          8           0       -2.196849   -0.605529    0.847182
      2          6           0       -2.196999    0.239657   -0.293993
      3          6           0       -1.417585   -1.010325   -0.282134
      4          6           0       -1.246820    1.425817   -0.169689
      5          6           0        0.017060   -0.625495   -0.169126
      6          6           0        0.116535    0.767014   -0.063259
      7          6           0        1.145247   -1.430984   -0.131011
      8          6           0        1.356349    1.367272    0.098040
      9          6           0        2.393788   -0.824647    0.018688
     10          6           0        2.496946    0.561170    0.132951
     11          1           0       -3.152057    0.332679   -0.810581
     12          1           0       -1.737264   -1.930632   -0.770377
     13          1           0       -1.476126    2.014622    0.729055
     14          1           0       -1.319434    2.092109   -1.038871
     15          1           0        1.058332   -2.514428   -0.204100
     16          1           0        1.443161    2.450473    0.179340
     17          1           0        3.292867   -1.437514    0.051550
     18          1           0        3.478186    1.020043    0.243730
 ---------------------------------------------------------------------
 Rotational constants (GHZ):           3.1701478           1.2016758           0.9278756
 Standard basis: 6-311++G(d,p) (5D, 7F)
 There are   286 symmetry adapted cartesian basis functions of A   symmetry.
 There are   276 symmetry adapted basis functions of A   symmetry.
   276 basis functions,   432 primitive gaussians,   286 cartesian basis functions
    35 alpha electrons       35 beta electrons
       nuclear repulsion energy       491.3359924433 Hartrees.
 NAtoms=   18 NActive=   18 NUniq=   18 SFac= 1.00D+00 NAtFMM=   60 NAOKFM=F Big=F
 Integral buffers will be    131072 words long.
 Raffenetti 2 integral format.
 Two-electron integral symmetry is turned on.
 R6APFD:  NTU= -4 IXU= 1 FactS= 1.050
 Nuclear repulsion after empirical dispersion term =      491.3255768110 Hartrees.
 One-electron integrals computed using PRISM.
 NBasis=   276 RedAO= T EigKep=  1.42D-06  NBF=   276
 NBsUse=   275 1.00D-06 EigRej=  4.14D-07 NBFU=   275
 Initial guess from the checkpoint file:  "INOX0129.chk"
 B after Tr=     0.000000    0.000000    0.000000
         Rot=    0.999990    0.003648   -0.001243   -0.002052 Ang=   0.50 deg.
 ExpMin= 3.60D-02 ExpMax= 8.59D+03 ExpMxC= 1.30D+03 IAcc=3 IRadAn=         5 AccDes= 0.00D+00
 Harris functional with IExCor= 1009 and IRadAn=       5 diagonalized for initial guess.
 HarFok:  IExCor= 1009 AccDes= 0.00D+00 IRadAn=         5 IDoV= 1 UseB2=F ITyADJ=14
 ICtDFT=  3500011 ScaDFX=  1.000000  1.000000  1.000000  1.000000
 FoFCou: FMM=F IPFlag=           0 FMFlag=      100000 FMFlg1=           0
         NFxFlg=           0 DoJE=T BraDBF=F KetDBF=T FulRan=T
         wScrn=  0.000000 ICntrl=       500 IOpCl=  0 I1Cent=   200000004 NGrid=           0
         NMat0=    1 NMatS0=      1 NMatT0=    0 NMatD0=    1 NMtDS0=    0 NMtDT0=    0
 Petite list used in FoFCou.
 Requested convergence on RMS density matrix=1.00D-08 within  32 cycles.
 Requested convergence on MAX density matrix=1.00D-06.
 Requested convergence on             energy=1.00D-06.
 No special actions if energy rises.
 SCF Done:  E(RM08HX) =  -422.953640996     A.U. after   12 cycles
            NFock= 12  Conv=0.84D-08     -V/T= 2.0047
 QCSCF skips out because SCF is already converged.
 R6APFD:  NTU= -4 IXU= 1 FactS= 1.050
 Calling FoFJK, ICntrl=      2127 FMM=F ISym2X=0 I1Cent= 0 IOpClX= 0 NMat=1 NMatS=1 NMatT=0.
 ***** Axes restored to original set *****
 -------------------------------------------------------------------
 Center     Atomic                   Forces (Hartrees/Bohr)
 Number     Number              X              Y              Z
 -------------------------------------------------------------------
      1        8          -0.000204822   -0.000161032   -0.002349909
      2        6          -0.001789655   -0.002649819    0.000444363
      3        6           0.000788727    0.003030682    0.002993648
      4        6           0.000594313    0.000936629   -0.001508547
      5        6           0.000894520   -0.000219032   -0.000778415
      6        6          -0.000646494   -0.000558413    0.000823377
      7        6          -0.000326576    0.000148899   -0.000443592
      8        6          -0.000325806   -0.000095311    0.000016993
      9        6           0.000386987   -0.000022013    0.000129075
     10        6           0.000246738    0.000164426    0.000098448
     11        1           0.000141758   -0.000258272   -0.000400503
     12        1           0.000372613   -0.000277567   -0.000224953
     13        1          -0.000791731   -0.000367908    0.000680493
     14        1           0.000657204    0.000357966    0.000509629
     15        1           0.000003923   -0.000188353    0.000249183
     16        1           0.000031555    0.000177341   -0.000135154
     17        1           0.000027714   -0.000058313    0.000049168
     18        1          -0.000060967    0.000040090   -0.000153305
 -------------------------------------------------------------------
 Cartesian Forces:  Max     0.003030682 RMS     0.000908774

 GradGradGradGradGradGradGradGradGradGradGradGradGradGradGradGradGradGrad
 Berny optimization.
 Using GEDIIS/GDIIS optimizer.
 FormGI is forming the generalized inverse of G from B-inverse, IUseBI=4.
 Internal  Forces:  Max     0.001904002 RMS     0.000366049
 Search for a local minimum.
 Step number   3 out of a maximum of  108
 All quantities printed in internal units (Hartrees-Bohrs-Radians)
 Mixed Optimization -- En-DIIS/RFO-DIIS
 Swapping is turned off.
 Update second derivatives using D2CorX and points    2    3
 DE= -7.77D-04 DEPred=-7.22D-04 R= 1.08D+00
 TightC=F SS=  1.41D+00  RLast= 2.79D-01 DXNew= 8.4853D-01 8.3608D-01
 Trust test= 1.08D+00 RLast= 2.79D-01 DXMaxT set to 8.36D-01
 ITU=  1  1  0
     Eigenvalues ---    0.00695   0.01361   0.01564   0.01803   0.02078
     Eigenvalues ---    0.02102   0.02111   0.02171   0.02202   0.02213
     Eigenvalues ---    0.02324   0.02701   0.04850   0.05993   0.08038
     Eigenvalues ---    0.08722   0.12533   0.14351   0.15991   0.15999
     Eigenvalues ---    0.16001   0.16033   0.18119   0.19946   0.21931
     Eigenvalues ---    0.22008   0.22759   0.24423   0.24800   0.27962
     Eigenvalues ---    0.30076   0.30476   0.32723   0.34340   0.34363
     Eigenvalues ---    0.35188   0.35202   0.35376   0.35453   0.35771
     Eigenvalues ---    0.36437   0.39152   0.39832   0.42629   0.44332
     Eigenvalues ---    0.45983   0.47408   0.47601
 En-DIIS/RFO-DIIS/Sim-DIIS IScMMF=       -3 using points:     3    2
 RFO step:  Lambda=-2.02798760D-04.
 DidBck=F Rises=F RFO-DIIS coefs:    1.40733   -0.40733
 Iteration  1 RMS(Cart)=  0.01617857 RMS(Int)=  0.00019870
 Iteration  2 RMS(Cart)=  0.00017864 RMS(Int)=  0.00012014
 Iteration  3 RMS(Cart)=  0.00000001 RMS(Int)=  0.00012014
 Variable       Old X    -DE/DX   Delta X   Delta X   Delta X     New X
                                 (Linear)    (Quad)   (Total)
    R1        2.68356   0.00112  -0.00061   0.00295   0.00241   2.68596
    R2        2.70334   0.00190   0.00254   0.00348   0.00610   2.70944
    R3        2.78379   0.00170  -0.00754   0.01311   0.00555   2.78934
    R4        2.88161  -0.00043   0.00143  -0.00218  -0.00075   2.88086
    R5        2.05941  -0.00029   0.00008  -0.00096  -0.00088   2.05853
    R6        2.81504   0.00067   0.00068   0.00154   0.00229   2.81733
    R7        2.05932  -0.00045   0.00065  -0.00191  -0.00126   2.05806
    R8        2.86846  -0.00043  -0.00230   0.00008  -0.00233   2.86613
    R9        2.07613  -0.00020   0.00068  -0.00116  -0.00048   2.07566
   R10        2.07414   0.00015   0.00025   0.00032   0.00057   2.07470
[...]
 0981929,-0.0758201,-0.0122293,-0.0336148,0.1062262,0.0311079,-0.009607
 9,0.0400464,-0.1299738,-0.0126743,0.0509846,-0.0093384,0.0951141,-0.03
 71721,0.0025374,-0.0109147,0.0053086,-0.1539201,0.0100247,-0.0188367,-
 0.02591,-0.0552544,-0.0080131,0.024526,-0.0320103,0.0198112,-0.1363011
 ,-0.0997505,-0.012381,0.0861045,-0.0086063,0.0309928,0.0326765,0.05064
 76,0.0381664,0.0417419,-0.0287167,0.0272733,0.0084493,0.0378178,-0.048
 8385,-0.0900951,0.0051997,-0.0582943,0.0483932,0.0104153,-0.0148304,-0
 .0196574,-0.0284603,0.0018739,-0.040331,-0.0376238,-0.0996815,-0.01040
 8,-0.0029463,-0.0113263,0.0007233,-0.0234095,-0.0021485,0.0660335,0.03
 53998,0.1094751,-0.0301338,0.0668581,0.031332,0.0139219,0.0091029,-0.0
 743292,-0.0247333,0.0065272,-0.0229972,0.1339777,0.0666396,-0.0031256,
 0.0083049,0.0215011,-0.0829327,-0.0255357,0.0126231,-0.0201292,0.12898
 39,-0.0429152,-0.0758568,0.0107513,-0.0757015,0.0181809,-0.0052496,0.0
 149359,-0.0078764,0.1404582,-0.0667899,0.0524047,0.0303678,0.0531294,0
 .0465785,-0.0164016,0.0298209,-0.0190441,0.1355179\Polar=123.5743188,4
 .4573074,106.5157678,-4.9765423,3.3917193,65.6926483\Quadrupole=0.9072
 235,3.8024064,-4.7096299,1.7385114,-4.1622554,1.6203572\PG=C01 [X(C9H8
 O1)]\NImag=0\\0.16718670,0.00877092,0.17308331,0.09231778,-0.06408944,
 0.35983309,-0.05138431,0.00822031,0.02195690,0.62858720,0.02324159,-0.
 10281007,0.11951287,0.05123677,0.53828877,0.00086635,0.07474822,-0.171
 58837,-0.16557647,-0.07500457,0.34803335,-0.08813677,0.00200659,-0.079
 61196,-0.10342874,-0.11833994,0.03341872,0.52365859,-0.01806122,-0.043
 81315,-0.07232680,-0.08702901,-0.21686837,0.01147274,-0.02715520,0.652
 35608,-0.05982874,-0.03221002,-0.15792440,0.00232478,-0.03811140,-0.00
 303383,-0.02948328,0.19138920,0.31583345,0.00045970,0.00675917,-0.0023
 6831,-0.13135627,0.06383842,0.01902826,0.00637847,-0.00393343,-0.00326
 702,0.43111554,0.00508456,-0.02022368,0.00622067,0.05422774,-0.1357224
 2,-0.01178120,0.00622318,-0.03206724,0.00073064,0.02708250,0.56646987,
 -0.01881052,0.03924136,0.00060180,0.01689843,-0.01834333,-0.07722461,0
 .00495131,-0.01738699,-0.00849286,0.01420712,-0.00349029,0.57072071,-0
 .04159373,-0.00814200,-0.01603655,-0.02940098,-0.01598542,-0.00844890,
 -0.21081900,0.03894761,0.02618786,-0.00428654,-0.02625046,0.00325644,0
 .73290665,-0.00262572,0.00271672,-0.00021054,-0.02432860,-0.00184724,0
 .00256767,0.04581917,-0.10148685,-0.01524690,-0.01303754,-0.02368538,-
 0.00237315,0.07790090,0.66278946,-0.04434949,-0.00145764,0.00030154,0.
 01400292,0.00064255,-0.00335885,0.02726513,-0.01072446,-0.06693345,0.0
 0097197,-0.00043740,0.00651833,-0.03524639,0.05153129,0.17485801,-0.00
 144324,-0.00027883,-0.00051404,-0.04199262,0.00798589,0.00758458,-0.01
 728560,0.03072001,0.00667982,-0.17067832,-0.04110045,0.01320388,-0.119
 17571,-0.02728666,0.00210460,0.71198600,-0.00133461,-0.00357741,-0.000
 19410,0.01771548,0.00772403,-0.00471180,0.02457879,-0.01336737,-0.0038
 5937,-0.05732636,-0.11171894,0.00719467,0.05428020,-0.29575929,-0.0310
 7107,-0.05377490,0.63599036,-0.00019953,-0.00061277,0.00188065,0.00513
 330,-0.00206734,-0.00102432,0.00611957,-0.00340552,0.00506110,0.010364
 65,0.00286905,-0.07360663,0.01257208,-0.01739872,-0.07477852,-0.078425
 98,0.05138391,0.18404653,0.00328511,-0.00113893,0.00020352,-0.00344972
 ,0.00205702,0.00324369,-0.02019354,-0.01806232,0.00082041,-0.00042419,
 0.00138458,-0.00029637,-0.26746322,-0.07528595,0.01239690,0.05019064,-
 0.07644129,-0.01600338,0.66014011,0.00332639,0.00107314,0.00167883,0.0
 0359737,-0.00072039,-0.00001958,0.00344538,0.01183784,-0.00104704,0.00
 085252,-0.00399975,-0.00164326,-0.14461088,-0.21675427,-0.00127071,-0.
 02006607,-0.03532433,-0.00251182,0.00823111,0.74367939,-0.00160583,0.0
 0054866,-0.00038882,0.00199789,0.00100602,0.00057688,0.00232384,0.0018
 2377,0.00134618,0.00091453,-0.00171859,0.00623275,0.00661282,-0.010089
 46,-0.06183404,-0.00716656,0.00580263,0.00848128,-0.05660363,0.0634911
 6,0.14710018,0.00255872,-0.00164423,-0.00148037,-0.00286713,-0.0035005
 6,0.00261124,0.00186086,0.00080767,0.00279027,-0.02130242,0.00722791,0
 .00252074,0.02585407,0.08976438,0.00744470,-0.30696063,0.04913007,0.03
 485278,-0.07790303,-0.00747618,0.00794801,0.66305170,-0.00061971,0.001
 04960,-0.00037891,-0.00431033,-0.00311370,0.00088305,0.00005117,-0.006
 93265,-0.00218505,-0.01464327,0.01314931,0.00311580,0.03356566,-0.0101
 3976,-0.00520271,0.11985052,-0.17098727,-0.02674362,-0.00911093,-0.001
 51983,0.00082316,-0.01124667,0.73562672,0.00148908,0.00007033,0.001382
 71,-0.00007931,-0.00129559,-0.00001898,0.00127345,-0.00044773,0.004567
 47,0.00066459,0.00011326,0.00219714,-0.00000658,-0.01235028,0.00547438
 ,0.04409470,-0.01818126,-0.07153325,0.00859753,0.00132130,-0.00550185,
 -0.06587504,0.06936291,0.15105063,-0.00197492,0.00065659,-0.00042564,-
 0.00050675,-0.00053595,-0.00097743,0.00196203,-0.00398210,0.00048992,0
 .00084459,0.00049013,0.00066259,-0.06019301,-0.04385652,0.00311731,-0.
 02807742,0.03822684,0.00785702,-0.29526560,0.11173706,0.03873808,0.049
 57949,-0.02033872,-0.00770347,0.70759225,0.00216679,-0.00127329,0.0001
 1673,-0.00095218,-0.00025670,0.00128862,-0.00428107,-0.00111645,0.0006
 4923,-0.00143407,-0.00211561,-0.00061556,0.01272187,0.07335391,0.00367
 238,0.03885532,-0.05497726,-0.01187445,0.03783330,-0.16314687,-0.01394
 841,-0.07790557,-0.03590093,0.00484383,0.04630161,0.68316251,0.0032890
 3,0.00034503,-0.00013498,-0.00092171,0.00021211,0.00112694,-0.00164330
 ,-0.00116122,0.00722320,-0.00047009,-0.00018754,-0.00119337,0.00945052
 ,0.01221280,0.00677709,0.00638859,-0.00959121,-0.00873011,0.03154001,-
 0.02350289,-0.06849548,-0.01306889,-0.00257460,0.00858588,-0.06027705,
 0.05773310,0.14854899,-0.00164077,0.00110126,-0.00024655,-0.00087823,0
 .00004198,0.00002923,0.00040399,-0.00209615,-0.00141246,0.00020165,0.0
 0541206,0.00157668,-0.01910253,-0.02648093,-0.00014298,-0.06020983,0.0
 1447878,0.01094787,0.02703591,0.03338227,0.00098359,-0.25782244,-0.135
 53023,0.00682531,-0.13142728,0.05614757,0.01405167,0.72228128,-0.00203
 764,0.00115670,0.00050029,0.00106819,0.00028402,-0.00174535,0.00055928
 ,-0.00146618,-0.00107397,0.00542094,0.00048255,-0.00037238,-0.02728644
 ,-0.07178334,-0.00336075,-0.04287073,0.07508107,0.01425298,0.09139363,
 -0.01167040,-0.01267353,-0.06038535,-0.20277004,-0.00947698,-0.0198236
 2,-0.33153977,-0.02967803,-0.02572811,0.66890520,-0.00043581,0.0000503
 5,-0.00006644,0.00054692,0.00001129,0.00017792,0.00009202,0.00020251,-
 0.00104087,0.00150764,-0.00133524,0.00605730,-0.00192852,-0.00426839,-
 0.00701423,0.00393192,0.00558702,0.00727465,0.00788730,-0.00613205,0.0
 0537008,0.01462347,-0.00037115,-0.06384376,0.00594732,-0.03806972,-0.0
 6877865,-0.07041397,0.06502617,0.15187857,0.01162000,-0.00306895,-0.00
 390661,-0.27407110,-0.02467188,0.11850651,-0.00759821,0.00383551,0.006
 86879,-0.00754229,-0.00557938,0.00405949,-0.00039877,-0.00047208,0.000
 46779,-0.00186063,0.00216526,0.00038519,-0.00002335,0.00019513,0.00012
 382,-0.00022829,-0.00070459,0.00045955,-0.00018952,0.00000400,-0.00003
 854,-0.00027333,0.00006245,0.00002260,0.28064062,-0.01296243,-0.007904
 23,0.00864890,-0.02088083,-0.05124413,0.01245755,-0.01402802,-0.001132
 89,0.01377388,0.01819315,0.00742519,-0.00999810,0.00053782,-0.00201611
 ,0.00097837,0.00136531,-0.00457068,-0.00097255,-0.00045230,0.00060000,
 0.00016819,0.00128624,0.00126656,0.00022325,-0.00005594,0.00015437,-0.
 00016727,-0.00003012,-0.00035669,0.00002649,0.02749092,0.05659144,0.02
 612215,0.01281197,-0.01897528,0.11537519,0.00917804,-0.09691341,-0.014
 03561,0.00401628,0.00481122,0.00163270,0.00051422,0.00093509,-0.001107
 56,-0.00230162,0.00143975,-0.00162879,-0.00088959,0.00045053,-0.000479
 67,0.00043305,0.00011414,0.00027728,0.00013003,0.00019883,-0.00029382,
 0.00002487,-0.00015214,-0.00019038,-0.00020617,-0.00003536,-0.12671620
 ,-0.02408872,0.10793631,0.00282034,-0.01622815,-0.00882051,0.00230097,
 -0.00790978,-0.00911817,-0.08460329,0.08282791,0.04712656,-0.00129019,
 -0.00084093,-0.00075218,-0.00017973,0.02187459,0.01157729,-0.00573307,
 0.00032508,0.00112969,0.00188653,0.00062986,-0.00059195,0.00073142,0.0
 0163270,-0.00051659,-0.00041748,0.00005025,-0.00029523,-0.00008181,-0.
 00029797,0.00007041,0.00062711,0.00001802,0.00096596,0.08385415,-0.006
 63917,0.00104518,0.00034207,0.00977375,-0.00855726,-0.01163189,0.07907
 795,-0.24296262,-0.11154542,-0.00083958,-0.00108429,-0.00209755,-0.002
 32417,0.00015743,0.00120588,0.00004829,-0.00096397,-0.00072035,0.00040
 169,0.00036301,0.00009956,-0.00003495,-0.00011668,-0.00006969,0.000329
 03,-0.00009250,0.00000923,-0.00000341,0.00020888,0.00002264,0.00000213
 ,0.00061655,0.00060956,-0.08111878,0.25234290,0.00179565,-0.02768837,-
 0.01755813,-0.01114075,0.00873522,0.00325909,0.04924307,-0.10662550,-0
 .09692152,0.00112198,0.00205794,0.00226087,-0.00005929,-0.00106649,0.0
 0142924,0.00089334,0.00074122,0.00052323,-0.00009727,-0.00006534,-0.00
 021908,-0.00053201,0.00002185,-0.00004133,0.00007460,-0.00001396,-0.00
 007982,0.00016208,0.00015982,0.00001523,-0.00006930,-0.00105906,-0.000
 22669,-0.04115661,0.12370066,0.10752417,0.00077933,-0.00387443,-0.0010
 6506,0.00619266,0.01420056,0.01866806,-0.00302727,0.00258735,0.0013786
 8,-0.05734872,-0.03113489,-0.04740636,-0.00326642,-0.00112243,0.000793
 89,-0.00576392,-0.01571998,-0.02375352,0.00044139,-0.00069817,0.001020
 34,0.00126090,-0.00045320,0.00086934,-0.00030980,-0.00010055,-0.000155
 02,0.00018231,-0.00034674,0.00087692,-0.00062158,0.00026025,-0.0000802
 2,0.00068010,0.00066119,-0.00066702,0.06174017,-0.00072102,0.00401635,
 0.00144504,-0.00515465,-0.01473359,-0.01794477,0.00106154,-0.00355646,
 -0.00300822,-0.03136866,-0.12242472,-0.11703773,-0.00032458,-0.0009438
 7,-0.00041392,-0.00348605,-0.00796459,-0.00925112,0.00005198,-0.000603
 06,0.00049799,0.00126838,0.00051944,0.00011147,0.00005155,0.00033065,-
 0.00000958,-0.00035479,-0.00057166,0.00057845,0.00053456,-0.00056281,0
 .00010570,-0.00029986,-0.00081221,0.00102468,0.03498081,0.13572226,0.0
 0046421,-0.00036333,0.00180394,-0.00037797,-0.00107032,-0.00195918,0.0
 0063712,0.00178796,-0.00032492,-0.04636687,-0.11855999,-0.21535629,0.0
 0055781,0.00059994,-0.00024219,0.00036215,0.00356293,0.00502010,0.0000
 9230,0.00032622,-0.00034219,0.00040524,-0.00025925,0.00035082,-0.00011
 944,0.00031497,0.00003549,-0.00038007,-0.00031221,0.00001278,0.0002160
 4,-0.00059748,-0.00010790,0.00002822,0.00024838,0.00002575,0.04985417,
 0.12879107,0.23087113,-0.00209784,0.00708912,0.00026724,0.00262132,0.0
 0846843,-0.01996794,-0.00114456,-0.00011756,-0.00035684,-0.04627484,-0
 .00168240,0.00661552,-0.00274022,-0.00028666,-0.00000584,-0.00019194,-
 0.01896291,0.02436453,-0.00035335,-0.00035344,-0.00115852,0.00054055,-
 0.00031649,-0.00086751,-0.00012446,-0.00054849,0.00011323,0.00022426,0
 .00016762,-0.00112727,0.00005809,-0.00077198,0.00023840,0.00022392,0.0
 0006962,0.00011129,-0.00029913,0.00414069,-0.00510477,0.04987485,0.002
 28294,-0.00489000,-0.00124865,-0.00327578,-0.00976552,0.01927607,0.000
 14066,-0.00017582,0.00121002,0.00113629,-0.13509760,0.12322944,-0.0018
 9199,-0.00070054,0.00043588,-0.00266049,-0.00874884,0.00935791,0.00039
 925,-0.00025060,-0.00088778,0.00170221,0.00048561,-0.00044134,-0.00025
 582,0.00068776,0.00015281,-0.00076497,-0.00091678,-0.00060494,0.000259
 76,0.00090336,-0.00037861,0.00004232,-0.00005842,0.00001065,0.00025200
 ,0.01149699,-0.01439696,0.00282422,0.14715511,0.00031691,-0.00111522,0
 .00126744,-0.00016560,-0.00320545,0.00271945,-0.00029430,0.00038884,-0
 .00031301,0.00269902,0.12409883,-0.21619874,-0.00005187,-0.00060343,-0
 .00020758,0.00092896,0.00015148,-0.00003336,0.00012253,-0.00001920,-0.
 00017297,-0.00010796,0.00030934,0.00072914,-0.00001617,-0.00004343,-0.
 00007603,0.00023231,0.00010575,0.00016072,-0.00032005,0.00058224,0.000
 49019,0.00003746,0.00005722,0.00003635,0.00022157,0.01566794,-0.019669
 43,-0.00389270,-0.13640637,0.23155450,-0.00009636,0.00012783,0.0000537
 9,0.00022770,-0.00013929,0.00001024,0.00164571,0.00013619,-0.00088320,
 0.00023147,-0.00112696,-0.00013581,0.00805002,-0.02485133,-0.00322073,
 -0.00356120,-0.00297985,0.00093596,-0.06146000,0.02654393,0.00550162,-
 0.00148604,-0.00020765,0.00000533,0.00312946,0.02821840,0.00286373,-0.
 00482912,0.00187723,0.00159477,-0.00003033,0.00008335,0.00001724,-0.00
 023406,0.00050791,0.00031060,-0.00024930,-0.00011984,0.00005787,-0.000
 17628,-0.00009348,0.00001605,0.05825399,-0.00011852,0.00008722,-0.0002
 4286,0.00007249,-0.00023008,0.00007657,0.00093514,0.00073616,0.0007274
 4,0.00032621,-0.00059926,-0.00004045,0.00463671,-0.01420321,-0.0025584
 9,-0.00326343,0.00037318,-0.00042222,0.02722981,-0.32958009,-0.0331041
 3,-0.00041717,0.00068713,0.00025328,-0.00197024,-0.00785116,-0.0009787
 7,0.00252150,0.00144684,-0.00086579,-0.00006065,0.00005756,-0.00002273
 ,-0.00088650,-0.00014260,0.00008813,-0.00018602,-0.00005739,0.00003367
 ,-0.00018620,-0.00009673,0.00000253,-0.02899792,0.34947490,-0.00131090
 ,-0.00032690,-0.00023492,0.00021308,-0.00036584,-0.00034607,0.00013785
 ,0.00095852,-0.00346874,-0.00023798,0.00013892,0.00006443,0.00069457,0
 .00118624,0.00387465,0.00125037,-0.00051822,0.00740253,0.00466320,-0.0
 3293349,-0.04128968,-0.00038413,0.00022633,-0.00105582,0.00008342,-0.0
 0469846,0.00277953,0.00188137,-0.00062802,0.00714838,0.00000933,0.0000
 6218,0.00006383,0.00020967,-0.00019659,0.00002617,0.00006070,0.0000376
 4,0.00000929,-0.00003180,0.00004122,0.00004903,-0.00669909,0.03659346,
 0.02992908,-0.00002285,-0.00028781,-0.00001652,0.00002069,0.00024473,-
 0.00005840,0.00024965,0.00156294,0.00040660,0.00161340,-0.00044385,-0.
 00061824,-0.00464614,0.00165107,0.00165721,0.00330114,0.02877327,0.003
 04538,-0.00146305,-0.00023035,0.00003803,-0.06149863,0.02862492,0.0062
 5035,-0.00368859,-0.00306120,0.00091866,0.00752766,-0.02522406,-0.0032
 6878,0.00001883,-0.00011303,-0.00002843,-0.00047857,0.00003406,-0.0000
 0005,-0.00035336,-0.00019764,-0.00028672,-0.00012341,-0.00004846,0.000
 23309,0.00010829,0.00005835,-0.00014470,0.05877645,0.00018249,0.000108
 74,0.00021256,0.00004012,-0.00016018,-0.00002353,-0.00042566,-0.000470
 81,-0.00020247,-0.00036066,0.00044098,0.00041043,0.00213744,0.00136505
 ,-0.00096546,-0.00142645,-0.00889259,-0.00125309,-0.00004825,0.0007495
 5,0.00021627,0.02778645,-0.32718449,-0.03528134,-0.00383535,0.00020863
 ,-0.00037023,0.00528823,-0.01338643,-0.00241337,0.00004412,0.00003539,
 0.00002322,0.00022274,0.00004145,-0.00002512,0.00061977,0.00011982,-0.
 00009477,0.00042786,-0.00000296,0.00002317,0.00002119,-0.00011555,0.00
 011782,-0.03057286,0.34737262,-0.00018270,0.00006977,-0.00011740,-0.00
 002172,-0.00008598,-0.00029192,0.00000073,-0.00030263,-0.00001247,-0.0
 0073526,0.00058286,-0.00303201,0.00177675,-0.00102914,0.00770684,-0.00
 013673,-0.00471382,0.00357901,0.00026046,0.00030185,-0.00106977,0.0064
 2096,-0.03524800,-0.04265551,0.00066997,-0.00024886,0.00727911,-0.0001
 4531,0.00079535,0.00335791,0.00001295,0.00000125,0.00001972,0.00005699
 ,0.00000987,-0.00007965,-0.00048748,-0.00045080,-0.00013442,0.00068846
 ,0.00048813,-0.00032225,-0.00013525,0.00011090,-0.00118805,-0.00750175
 ,0.03922958,0.03067832,-0.00028442,-0.00013074,-0.00023317,-0.00034945
 ,0.00013093,0.00007785,0.00011336,-0.00106782,0.00017041,-0.00001287,0
 .00005344,-0.00009184,-0.00399024,0.00353073,0.00146344,-0.00005717,0.
 00105471,0.00004899,-0.01687816,-0.01876982,0.00031630,0.00170000,0.00
 104724,0.00077611,-0.24180521,-0.13238069,0.00820234,0.00579745,0.0041
 1344,0.00020639,-0.00004224,-0.00007677,-0.00006503,-0.00009357,0.0000
 2312,0.00001772,0.00000308,-0.00004245,-0.00001437,0.00003481,-0.00001
 927,0.00000661,0.00054284,0.00043973,-0.00041728,0.00014933,0.00026311
 ,0.00001807,0.25461874,0.00003038,0.00006109,-0.00001450,0.00014691,-0
 .00002274,0.00004352,0.00030187,0.00043263,-0.00005434,-0.00008751,0.0
 0009180,0.00007232,0.00311358,0.00017839,-0.00107944,0.00126094,-0.000
 81798,-0.00013907,0.01168596,0.01092910,-0.00053283,0.00151839,-0.0052
 2466,-0.00159857,-0.13233186,-0.15326442,0.00199251,-0.02666273,-0.012
 11017,0.00131260,0.00000160,0.00004320,0.00003219,0.00000993,-0.000001
 31,-0.00000640,0.00005253,0.00001773,0.00001222,0.00002175,-0.00000867
 ,-0.00000855,-0.00042732,0.00052845,0.00054000,-0.00127166,-0.00077307
 ,0.00004029,0.14216480,0.15949479,0.00035743,-0.00001061,0.00012477,-0
 .00014341,-0.00014715,-0.00010986,-0.00012344,0.00029145,0.00032689,-0
 .00004786,0.00021006,-0.00069323,0.00176678,-0.00110027,0.00678552,-0.
 00006830,-0.00013220,-0.00105928,0.00343220,0.00312416,0.00308230,0.00
 110067,-0.00153746,0.00681925,0.00829974,0.00216175,-0.03746986,-0.003
 53906,-0.00261390,0.00318959,-0.00000719,0.00000341,-0.00001026,0.0000
 1121,-0.00001178,-0.00000585,-0.00007743,-0.00011813,0.00000301,0.0000
 8770,0.00014803,-0.00001232,-0.00052460,0.00040181,-0.00382941,-0.0001
 7431,-0.00015469,0.00012795,-0.00988874,-0.00109306,0.02670401,-0.0000
 3469,0.00006226,-0.00007392,-0.00026525,-0.00036351,0.00010257,-0.0000
 3569,0.00007963,-0.00001256,-0.00032817,0.00097322,0.00015911,0.000445
 50,-0.00090641,-0.00029775,-0.00248647,-0.00418859,0.00062539,0.001897
 52,0.00026388,0.00060761,-0.01706909,0.01270960,0.00374317,0.00087221,
 -0.00163529,0.00005203,-0.28738916,0.09933787,0.03986669,-0.00008500,0
 .00013635,-0.00000318,-0.00001277,0.00003131,-0.00000801,-0.00004044,-
 0.00001997,-0.00002492,-0.00005178,-0.00002939,0.00003416,-0.00006679,
 -0.00013330,0.00002232,0.00050918,-0.00036429,-0.00055914,0.00055372,0
 .00047244,-0.00046139,0.30358719,0.00003398,0.00009377,0.00002784,-0.0
 0016776,-0.00024441,0.00004867,0.00002916,0.00005416,0.00006378,-0.000
 57809,0.00067918,0.00013478,-0.00102585,-0.00124112,0.00007571,-0.0038
 7222,-0.00149810,-0.00049122,-0.00012837,-0.00566243,-0.00152268,-0.01
 788100,0.01110565,0.00284316,0.02919331,-0.00636285,-0.00443626,0.0992
 7776,-0.10099380,-0.01875688,-0.00003791,0.00009391,0.00000829,-0.0000
 5143,0.00001647,0.00001008,0.00002194,0.00000713,-0.00002305,0.0000168
 3,-0.00001635,0.00001430,0.00142760,-0.00051537,-0.00023481,0.00050157
 ,0.00054384,0.00044937,-0.00033370,0.00044583,0.00057857,-0.10642581,0
 .10349450,-0.00029505,-0.00001139,-0.00020719,-0.00002247,0.00039887,-
 0.00002422,-0.00027093,0.00004959,-0.00070346,0.00038092,-0.00002621,0
 .00020931,0.00001003,-0.00005956,-0.00079651,0.00051749,-0.00056122,0.
 00704585,0.00022026,-0.00153119,0.00701009,0.00045306,-0.00037172,0.00
 329425,0.00387303,-0.00129263,0.00275421,0.03978069,-0.01869907,-0.043
 86382,-0.00007417,-0.00004254,-0.00003857,0.00003778,-0.00003180,0.000
 03195,-0.00005154,-0.00002571,0.00000421,0.00002682,0.00001447,-0.0000
 0114,0.00023149,-0.00005236,0.00006578,-0.00045141,0.00055100,-0.00384
 539,-0.00059381,0.00048112,-0.00397321,-0.04377218,0.02121034,0.033037
 85\\-0.00002603,0.00000291,-0.00007971,-0.00003262,-0.00008013,0.00005
 788,0.00002910,0.00008678,0.00004241,0.00002414,0.00000322,-0.00003580
 ,0.00000117,-0.00001123,-0.00000962,-0.00001334,-0.00000556,0.00001081
 ,-0.00000539,0.00000508,0.00000077,-0.00001176,-0.00000914,0.00000210,
 0.00000729,0.00000633,0.00000708,0.00000619,0.00000037,0.00000289,0.00
 001265,-0.00000413,-0.00000779,0.00001286,-0.00001555,0.00000826,-0.00
 001334,0.00000843,-0.00000125,0.00000832,0.00000482,0.00000537,0.00000
 083,-0.00000199,0.00000762,0.00000219,0.00000609,-0.00000744,-0.000001
 30,-0.00000027,0.00000193,-0.00000094,0.00000399,-0.00000548\\\@


 LET US PLACE AT THE END OF EVERY CHAPTER.....THE
 TWO LETTERS USED BY THE ROMAN JUDGES WHEN THEY DID
 NOT UNDERSTAND A PLEADING.
 N. L. -NON LIQUET- IT IS NOT CLEAR.
                                              -- VOLTAIRE
 Job cpu time:       0 days  2 hours 19 minutes 37.4 seconds.
 Elapsed time:       0 days  0 hours  8 minutes 46.5 seconds.
 File lengths (MBytes):  RWF=    130 Int=      0 D2E=      0 Chk=      7 Scr=      1
 Normal termination of Gaussian 16 at Sat Sep 20 10:47:22 2025.
