 Entering Gaussian System, Link 0=g16
 Input=ISAL0057.gjf
 Output=ISAL0057.log
 Initial command:
 /usr/local/g16/l1.exe "/dados_01/scratch/Gau-2496369.inp" -scrdir="/dados_01/scratch/"
 Entering Link 1 = /usr/local/g16/l1.exe PID=   2496370.
  
 Copyright (c) 1988-2017, Gaussian, Inc.  All Rights Reserved.
  
 This is part of the Gaussian(R) 16 program.  It is based on
 the Gaussian(R) 09 system (copyright 2009, Gaussian, Inc.),
 the Gaussian(R) 03 system (copyright 2003, Gaussian, Inc.),
 the Gaussian(R) 98 system (copyright 1998, Gaussian, Inc.),
 the Gaussian(R) 94 system (copyright 1995, Gaussian, Inc.),
 the Gaussian 92(TM) system (copyright 1992, Gaussian, Inc.),
 the Gaussian 90(TM) system (copyright 1990, Gaussian, Inc.),
 the Gaussian 88(TM) system (copyright 1988, Gaussian, Inc.),
 the Gaussian 86(TM) system (copyright 1986, Carnegie Mellon
 University), and the Gaussian 82(TM) system (copyright 1983,
 Carnegie Mellon University). Gaussian is a federally registered
 trademark of Gaussian, Inc.
  
 This software contains proprietary and confidential information,
 including trade secrets, belonging to Gaussian, Inc.
  
 This software is provided under written license and may be
 used, copied, transmitted, or stored only in accord with that
 written license.
  
 The following legend is applicable only to US Government
 contracts under FAR:
  
                    RESTRICTED RIGHTS LEGEND
  
 Use, reproduction and disclosure by the US Government is
 subject to restrictions as set forth in subparagraphs (a)
 and (c) of the Commercial Computer Software - Restricted
 Rights clause in FAR 52.227-19.
  
 Gaussian, Inc.
 340 Quinnipiac St., Bldg. 40, Wallingford CT 06492
  
  
 ---------------------------------------------------------------
 Warning -- This program may not be used in any manner that
 competes with the business of Gaussian, Inc. or will provide
 assistance to any competitor of Gaussian, Inc.  The licensee
 of this program is prohibited from giving any competitor of
 Gaussian, Inc. access to this program.  By using this program,
 the user acknowledges that Gaussian, Inc. is engaged in the
 business of creating and licensing software in the field of
 computational chemistry and represents and warrants to the
 licensee that it is not a competitor of Gaussian, Inc. and that
 it will not use this program in any manner prohibited above.
 ---------------------------------------------------------------
  

 Cite this work as:
 Gaussian 16, Revision B.01,
 M. J. Frisch, G. W. Trucks, H. B. Schlegel, G. E. Scuseria, 
 M. A. Robb, J. R. Cheeseman, G. Scalmani, V. Barone, 
 G. A. Petersson, H. Nakatsuji, X. Li, M. Caricato, A. V. Marenich, 
 J. Bloino, B. G. Janesko, R. Gomperts, B. Mennucci, H. P. Hratchian, 
 J. V. Ortiz, A. F. Izmaylov, J. L. Sonnenberg, D. Williams-Young, 
 F. Ding, F. Lipparini, F. Egidi, J. Goings, B. Peng, A. Petrone, 
 T. Henderson, D. Ranasinghe, V. G. Zakrzewski, J. Gao, N. Rega, 
 G. Zheng, W. Liang, M. Hada, M. Ehara, K. Toyota, R. Fukuda, 
 J. Hasegawa, M. Ishida, T. Nakajima, Y. Honda, O. Kitao, H. Nakai, 
 T. Vreven, K. Throssell, J. A. Montgomery, Jr., J. E. Peralta, 
 F. Ogliaro, M. J. Bearpark, J. J. Heyd, E. N. Brothers, K. N. Kudin, 
 V. N. Staroverov, T. A. Keith, R. Kobayashi, J. Normand, 
 K. Raghavachari, A. P. Rendell, J. C. Burant, S. S. Iyengar, 
 J. Tomasi, M. Cossi, J. M. Millam, M. Klene, C. Adamo, R. Cammi, 
 J. W. Ochterski, R. L. Martin, K. Morokuma, O. Farkas, 
 J. B. Foresman, and D. J. Fox, Gaussian, Inc., Wallingford CT, 2016.
 
 ******************************************
 Gaussian 16:  ES64L-G16RevB.01 20-Dec-2017
                 7-Oct-2025 
 ******************************************
 %nprocs=16
 Will use up to   16 processors via shared memory.
 %mem=40GB
 %chk=ISAL0057.chk
 ----------------------------------------------------------------------
 # opt freq=noraman M08HX/6-311++G** scf=xqc Empiricaldispersion=pfd In
 t(Grid=ultraFine)
 ----------------------------------------------------------------------
 1/18=20,19=15,26=4,38=1/1,3;
 2/9=110,12=2,17=6,18=5,40=1/2;
 3/5=4,6=6,7=1111,11=2,25=1,30=1,71=1,74=-74,75=-5,124=11/1,2,3;
 4//1;
 5/5=2,8=3,13=1,38=5/2,8;
 6/7=2,8=2,9=2,10=2,28=1/1;
 7//1,2,3,16;
 1/18=20,19=15,26=4/3(2);
 2/9=110/2;
 99//99;
 2/9=110/2;
 3/5=4,6=6,7=1111,11=2,25=1,30=1,71=1,74=-74,75=-5,124=11/1,2,3;
 4/5=5,16=3,69=1/1;
 5/5=2,8=3,13=1,38=5/2,8;
 7//1,2,3,16;
 1/18=20,19=15,26=4/3(-5);
 2/9=110/2;
 6/7=2,8=2,9=2,10=2,19=2,28=1/1;
 99/9=1/99;
 --------
 ISAL0057
 --------
 Symbolic Z-matrix:
 Charge =  0 Multiplicity = 1
 O                    -0.0004    1.3572   -0.1242 
 C                     0.        0.0177    0.3601 
 C                    -1.2599   -0.6878   -0.1179 
 C                     1.2603   -0.6871   -0.1179 
 H                    -0.0001    0.0646    1.454 
 H                    -1.3079   -1.7139    0.259 
 H                    -2.1507   -0.1484    0.2213 
 H                    -1.3061   -0.7138   -1.2122 
 H                     1.3089   -1.7132    0.259 
 H                     2.1508   -0.1471    0.2213 
 H                     1.3066   -0.7131   -1.2122 
 H                    -0.0006    1.3242   -1.0961 
 

 GradGradGradGradGradGradGradGradGradGradGradGradGradGradGradGradGradGrad
 Berny optimization.
 Initialization pass.
                           ----------------------------
                           !    Initial Parameters    !
                           ! (Angstroms and Degrees)  !
 --------------------------                            --------------------------
 ! Name  Definition              Value          Derivative Info.                !
 --------------------------------------------------------------------------------
 ! R1    R(1,2)                  1.4244         estimate D2E/DX2                !
 ! R2    R(1,12)                 0.9725         estimate D2E/DX2                !
 ! R3    R(2,3)                  1.521          estimate D2E/DX2                !
 ! R4    R(2,4)                  1.521          estimate D2E/DX2                !
 ! R5    R(2,5)                  1.0949         estimate D2E/DX2                !
 ! R6    R(3,6)                  1.0942         estimate D2E/DX2                !
 ! R7    R(3,7)                  1.0952         estimate D2E/DX2                !
 ! R8    R(3,8)                  1.0956         estimate D2E/DX2                !
 ! R9    R(4,9)                  1.0942         estimate D2E/DX2                !
 ! R10   R(4,10)                 1.0953         estimate D2E/DX2                !
 ! R11   R(4,11)                 1.0956         estimate D2E/DX2                !
 ! A1    A(2,1,12)             107.9329         estimate D2E/DX2                !
 ! A2    A(1,2,3)              109.2147         estimate D2E/DX2                !
 ! A3    A(1,2,4)              109.2166         estimate D2E/DX2                !
 ! A4    A(1,2,5)              107.4226         estimate D2E/DX2                !
 ! A5    A(3,2,4)              111.8786         estimate D2E/DX2                !
 ! A6    A(3,2,5)              109.4973         estimate D2E/DX2                !
 ! A7    A(4,2,5)              109.5052         estimate D2E/DX2                !
 ! A8    A(2,3,6)              111.2879         estimate D2E/DX2                !
 ! A9    A(2,3,7)              110.3615         estimate D2E/DX2                !
 ! A10   A(2,3,8)              111.0896         estimate D2E/DX2                !
 ! A11   A(6,3,7)              108.6322         estimate D2E/DX2                !
 ! A12   A(6,3,8)              108.6599         estimate D2E/DX2                !
 ! A13   A(7,3,8)              106.6625         estimate D2E/DX2                !
 ! A14   A(2,4,9)              111.2894         estimate D2E/DX2                !
 ! A15   A(2,4,10)             110.358          estimate D2E/DX2                !
 ! A16   A(2,4,11)             111.0941         estimate D2E/DX2                !
 ! A17   A(9,4,10)             108.6357         estimate D2E/DX2                !
 ! A18   A(9,4,11)             108.6577         estimate D2E/DX2                !
 ! A19   A(10,4,11)            106.6586         estimate D2E/DX2                !
 ! D1    D(12,1,2,3)           -61.3087         estimate D2E/DX2                !
 ! D2    D(12,1,2,4)            61.3336         estimate D2E/DX2                !
 ! D3    D(12,1,2,5)          -179.9823         estimate D2E/DX2                !
 ! D4    D(1,2,3,6)           -178.4227         estimate D2E/DX2                !
 ! D5    D(1,2,3,7)            -57.7356         estimate D2E/DX2                !
 ! D6    D(1,2,3,8)             60.3591         estimate D2E/DX2                !
 ! D7    D(4,2,3,6)             60.5421         estimate D2E/DX2                !
 ! D8    D(4,2,3,7)           -178.7708         estimate D2E/DX2                !
 ! D9    D(4,2,3,8)            -60.6761         estimate D2E/DX2                !
 ! D10   D(5,2,3,6)            -61.0505         estimate D2E/DX2                !
 ! D11   D(5,2,3,7)             59.6367         estimate D2E/DX2                !
 ! D12   D(5,2,3,8)            177.7314         estimate D2E/DX2                !
 ! D13   D(1,2,4,9)            178.4235         estimate D2E/DX2                !
 ! D14   D(1,2,4,10)            57.7335         estimate D2E/DX2                !
 ! D15   D(1,2,4,11)           -60.357          estimate D2E/DX2                !
 ! D16   D(3,2,4,9)            -60.5423         estimate D2E/DX2                !
 ! D17   D(3,2,4,10)           178.7676         estimate D2E/DX2                !
 ! D18   D(3,2,4,11)            60.6771         estimate D2E/DX2                !
 ! D19   D(5,2,4,9)             61.0456         estimate D2E/DX2                !
 ! D20   D(5,2,4,10)           -59.6444         estimate D2E/DX2                !
 ! D21   D(5,2,4,11)          -177.7349         estimate D2E/DX2                !
 --------------------------------------------------------------------------------
 Trust Radius=3.00D-01 FncErr=1.00D-07 GrdErr=1.00D-06 EigMax=2.50D+02 EigMin=1.00D-04
 Number of steps in this run=     61 maximum allowed number of steps=    100.
 GradGradGradGradGradGradGradGradGradGradGradGradGradGradGradGradGradGrad

                          Input orientation:                          
 ---------------------------------------------------------------------
 Center     Atomic      Atomic             Coordinates (Angstroms)
 Number     Number       Type             X           Y           Z
 ---------------------------------------------------------------------
      1          8           0       -0.000400    1.357200   -0.124200
      2          6           0        0.000000    0.017700    0.360100
      3          6           0       -1.259900   -0.687800   -0.117900
      4          6           0        1.260300   -0.687100   -0.117900
      5          1           0       -0.000100    0.064600    1.454000
      6          1           0       -1.307900   -1.713900    0.259000
      7          1           0       -2.150700   -0.148400    0.221300
      8          1           0       -1.306100   -0.713800   -1.212200
      9          1           0        1.308900   -1.713200    0.259000
     10          1           0        2.150800   -0.147100    0.221300
     11          1           0        1.306600   -0.713100   -1.212200
     12          1           0       -0.000600    1.324200   -1.096100
 ---------------------------------------------------------------------
                    Distance matrix (angstroms):
                    1          2          3          4          5
     1  O    0.000000
     2  C    1.424362   0.000000
     3  C    2.401750   1.521040   0.000000
     4  C    2.401784   1.521047   2.520200   0.000000
     5  H    2.039983   1.094905   2.150365   2.150472   0.000000
     6  H    3.359770   2.172386   1.094184   2.791420   2.510265
     7  H    2.647639   2.161565   1.095232   3.469896   2.487971
     8  H    2.679111   2.170971   1.095583   2.790092   3.069229
     9  H    3.359831   2.172431   2.791457   1.094211   2.510394
    10  H    2.647631   2.161565   3.469912   1.095284   2.488119
    11  H    2.679204   2.171037   2.790171   1.095588   3.069349
    12  H    0.972460   1.956390   2.567266   2.567503   2.844223
                    6          7          8          9         10
     6  H    0.000000
     7  H    1.778348   0.000000
     8  H    1.778941   1.757256   0.000000
     9  H    2.616800   3.797216   3.162508   0.000000
    10  H    3.797221   4.301500   3.785000   1.778450   0.000000
    11  H    3.162537   3.785067   2.612700   1.778942   1.757257
    12  H    3.574266   2.920107   2.423067   3.574477   2.920409
                   11         12
    11  H    0.000000
    12  H    2.423395   0.000000
 Stoichiometry    C3H8O
 Framework group  C1[X(C3H8O)]
 Deg. of freedom    30
 Full point group                 C1      NOp   1
 Largest Abelian subgroup         C1      NOp   1
 Largest concise Abelian subgroup C1      NOp   1
                         Standard orientation:                         
 ---------------------------------------------------------------------
 Center     Atomic      Atomic             Coordinates (Angstroms)
 Number     Number       Type             X           Y           Z
 ---------------------------------------------------------------------
      1          8           0        0.000166    1.390351    0.022693
      2          6           0       -0.000007    0.030674   -0.401672
      3          6           0        1.260016   -0.652698    0.107156
      4          6           0       -1.260184   -0.652428    0.107157
      5          1           0        0.000079    0.028973   -1.496576
      6          1           0        1.308189   -1.694508   -0.223827
      7          1           0        2.150722   -0.128734   -0.255664
      8          1           0        1.306226   -0.630091    1.201531
      9          1           0       -1.308611   -1.694255   -0.223825
     10          1           0       -2.150778   -0.128169   -0.255667
     11          1           0       -1.306474   -0.629837    1.201533
     12          1           0        0.000377    1.400524    0.995100
 ---------------------------------------------------------------------
 Rotational constants (GHZ):           8.6902882           8.0324550           4.8648975
 Standard basis: 6-311++G(d,p) (5D, 7F)
 There are   148 symmetry adapted cartesian basis functions of A   symmetry.
 There are   144 symmetry adapted basis functions of A   symmetry.
   144 basis functions,   216 primitive gaussians,   148 cartesian basis functions
    17 alpha electrons       17 beta electrons
       nuclear repulsion energy       135.0986821969 Hartrees.
 NAtoms=   12 NActive=   12 NUniq=   12 SFac= 1.00D+00 NAtFMM=   60 NAOKFM=F Big=F
 Integral buffers will be    131072 words long.
 Raffenetti 2 integral format.
 Two-electron integral symmetry is turned on.
 R6APFD:  NTU= -4 IXU= 1 FactS= 1.050
 Nuclear repulsion after empirical dispersion term =      135.0938438717 Hartrees.
 One-electron integrals computed using PRISM.
 NBasis=   144 RedAO= T EigKep=  4.41D-05  NBF=   144
 NBsUse=   144 1.00D-06 EigRej= -1.00D+00 NBFU=   144
 ExpMin= 3.60D-02 ExpMax= 8.59D+03 ExpMxC= 1.30D+03 IAcc=3 IRadAn=         5 AccDes= 0.00D+00
 Harris functional with IExCor= 1009 and IRadAn=       5 diagonalized for initial guess.
 HarFok:  IExCor= 1009 AccDes= 0.00D+00 IRadAn=         5 IDoV= 1 UseB2=F ITyADJ=14
 ICtDFT=  3500011 ScaDFX=  1.000000  1.000000  1.000000  1.000000
 FoFCou: FMM=F IPFlag=           0 FMFlag=      100000 FMFlg1=           0
         NFxFlg=           0 DoJE=T BraDBF=F KetDBF=T FulRan=T
         wScrn=  0.000000 ICntrl=       500 IOpCl=  0 I1Cent=   200000004 NGrid=           0
         NMat0=    1 NMatS0=      1 NMatT0=    0 NMatD0=    1 NMtDS0=    0 NMtDT0=    0
 Petite list used in FoFCou.
 Keep R1 ints in memory in canonical form, NReq=70138980.
 Requested convergence on RMS density matrix=1.00D-08 within  32 cycles.
 Requested convergence on MAX density matrix=1.00D-06.
 Requested convergence on             energy=1.00D-06.
 No special actions if energy rises.
 SCF Done:  E(RM08HX) =  -194.360447796     A.U. after   11 cycles
            NFock= 11  Conv=0.98D-08     -V/T= 2.0048
 QCSCF skips out because SCF is already converged.

 **********************************************************************

            Population analysis using the SCF Density.

 **********************************************************************

 Orbital symmetries:
       Occupied  (A) (A) (A) (A) (A) (A) (A) (A) (A) (A) (A) (A)
                 (A) (A) (A) (A) (A)
       Virtual   (A) (A) (A) (A) (A) (A) (A) (A) (A) (A) (A) (A)
                 (A) (A) (A) (A) (A) (A) (A) (A) (A) (A) (A) (A)
                 (A) (A) (A) (A) (A) (A) (A) (A) (A) (A) (A) (A)
                 (A) (A) (A) (A) (A) (A) (A) (A) (A) (A) (A) (A)
                 (A) (A) (A) (A) (A) (A) (A) (A) (A) (A) (A) (A)
                 (A) (A) (A) (A) (A) (A) (A) (A) (A) (A) (A) (A)
                 (A) (A) (A) (A) (A) (A) (A) (A) (A) (A) (A) (A)
                 (A) (A) (A) (A) (A) (A) (A) (A) (A) (A) (A) (A)
                 (A) (A) (A) (A) (A) (A) (A) (A) (A) (A) (A) (A)
                 (A) (A) (A) (A) (A) (A) (A) (A) (A) (A) (A) (A)
                 (A) (A) (A) (A) (A) (A) (A)
 The electronic state is 1-A.
 Alpha  occ. eigenvalues --  -19.60361 -10.58249 -10.51900 -10.51899  -1.14001
 Alpha  occ. eigenvalues --   -0.87759  -0.79079  -0.69280  -0.56113  -0.55127
 Alpha  occ. eigenvalues --   -0.50690  -0.48483  -0.46214  -0.43205  -0.42402
 Alpha  occ. eigenvalues --   -0.39050  -0.34887
 Alpha virt. eigenvalues --   -0.02884  -0.01100  -0.00411   0.00136   0.02024
 Alpha virt. eigenvalues --    0.02706   0.03137   0.03414   0.05052   0.07541
 Alpha virt. eigenvalues --    0.08545   0.09611   0.10151   0.10631   0.10676
 Alpha virt. eigenvalues --    0.11895   0.12677   0.13518   0.15435   0.15871
 Alpha virt. eigenvalues --    0.18755   0.18779   0.21365   0.21815   0.23107
 Alpha virt. eigenvalues --    0.24227   0.25938   0.27098   0.27829   0.28547
 Alpha virt. eigenvalues --    0.29843   0.31595   0.33059   0.37585   0.38547
 Alpha virt. eigenvalues --    0.43194   0.43809   0.51105   0.51826   0.53700
 Alpha virt. eigenvalues --    0.55316   0.59901   0.61853   0.67212   0.67904
 Alpha virt. eigenvalues --    0.68575   0.68959   0.69729   0.70505   0.71421
 Alpha virt. eigenvalues --    0.74265   0.76138   0.88841   0.95187   0.99891
 Alpha virt. eigenvalues --    1.01939   1.02757   1.12909   1.21340   1.22549
 Alpha virt. eigenvalues --    1.25103   1.32846   1.33777   1.46947   1.48834
 Alpha virt. eigenvalues --    1.49206   1.50607   1.54644   1.55943   1.58508
 Alpha virt. eigenvalues --    1.60073   1.60359   1.64192   1.69470   1.71397
 Alpha virt. eigenvalues --    1.73774   1.76726   1.78388   1.81584   1.87853
 Alpha virt. eigenvalues --    1.95239   1.96296   2.03588   2.08276   2.12841
 Alpha virt. eigenvalues --    2.14302   2.17906   2.30693   2.31044   2.36825
 Alpha virt. eigenvalues --    2.44091   2.49019   2.49144   2.51633   2.52672
 Alpha virt. eigenvalues --    2.52924   2.57414   2.58940   2.62553   2.63722
 Alpha virt. eigenvalues --    2.68229   2.69257   2.72982   2.79562   2.85789
 Alpha virt. eigenvalues --    2.91371   3.06690   3.13530   3.21166   3.28184
 Alpha virt. eigenvalues --    3.30813   3.53283   3.79422   3.82305   3.84282
 Alpha virt. eigenvalues --    3.84974   3.88557   4.05137   4.24075   4.36533
 Alpha virt. eigenvalues --    5.24138   5.50750   5.73672  23.85544  24.01593
 Alpha virt. eigenvalues --   24.02849  49.94721
          Condensed to atoms (all electrons):
               1          2          3          4          5          6
     1  O    8.034812   0.185595  -0.064737  -0.064812  -0.106187   0.022235
     2  C    0.185595   5.746203  -0.115164  -0.115084   0.570568  -0.078927
     3  C   -0.064737  -0.115164   5.742674   0.082512  -0.127800   0.442720
     4  C   -0.064812  -0.115084   0.082512   5.742681  -0.127756  -0.011815
     5  H   -0.106187   0.570568  -0.127800  -0.127756   0.559034  -0.010812
     6  H    0.022235  -0.078927   0.442720  -0.011815  -0.010812   0.549479
     7  H   -0.006092  -0.077412   0.422918   0.021414  -0.009897  -0.025961
     8  H   -0.029205   0.117658   0.298171  -0.053495   0.011702  -0.063929
     9  H    0.022233  -0.078866  -0.011831   0.442675  -0.010807  -0.007534
    10  H   -0.006091  -0.077439   0.021422   0.422926  -0.009898  -0.000064
    11  H   -0.029200   0.117601  -0.053472   0.298208   0.011692   0.006597
    12  H    0.242708   0.033386  -0.020472  -0.020470   0.021285   0.000143
               7          8          9         10         11         12
     1  O   -0.006092  -0.029205   0.022233  -0.006091  -0.029200   0.242708
     2  C   -0.077412   0.117658  -0.078866  -0.077439   0.117601   0.033386
     3  C    0.422918   0.298171  -0.011831   0.021422  -0.053472  -0.020472
     4  C    0.021414  -0.053495   0.442675   0.422926   0.298208  -0.020470
     5  H   -0.009897   0.011702  -0.010807  -0.009898   0.011692   0.021285
     6  H   -0.025961  -0.063929  -0.007534  -0.000064   0.006597   0.000143
     7  H    0.499493  -0.041464  -0.000064  -0.001533  -0.000179  -0.001400
     8  H   -0.041464   0.577694   0.006595  -0.000179  -0.002283  -0.006098
     9  H   -0.000064   0.006595   0.549484  -0.025948  -0.063936   0.000140
    10  H   -0.001533  -0.000179  -0.025948   0.499501  -0.041468  -0.001396
    11  H   -0.000179  -0.002283  -0.063936  -0.041468   0.577668  -0.006094
    12  H   -0.001400  -0.006098   0.000140  -0.001396  -0.006094   0.489610
 Mulliken charges:
               1
     1  O   -0.201261
     2  C   -0.228119
     3  C   -0.616940
     4  C   -0.616982
     5  H    0.228876
     6  H    0.177868
     7  H    0.220177
     8  H    0.184832
     9  H    0.177859
    10  H    0.220166
    11  H    0.184867
    12  H    0.268659
 Sum of Mulliken charges =  -0.00000
 Mulliken charges with hydrogens summed into heavy atoms:
               1
     1  O    0.067398
     2  C    0.000757
     3  C   -0.034064
     4  C   -0.034091
 Electronic spatial extent (au):  <R**2>=            317.2847
 Charge=             -0.0000 electrons
 Dipole moment (field-independent basis, Debye):
    X=              0.0002    Y=             -1.5931    Z=              0.9275  Tot=              1.8434
 Quadrupole moment (field-independent basis, Debye-Ang):
   XX=            -27.3648   YY=            -30.3206   ZZ=            -24.6260
   XY=              0.0001   XZ=              0.0004   YZ=              2.5465
 Traceless Quadrupole moment (field-independent basis, Debye-Ang):
   XX=              0.0723   YY=             -2.8835   ZZ=              2.8112
   XY=              0.0001   XZ=              0.0004   YZ=              2.5465
 Octapole moment (field-independent basis, Debye-Ang**2):
  XXX=              0.0015  YYY=             -1.4264  ZZZ=              2.0384  XYY=              0.0003
  XXY=              2.0889  XXZ=             -0.7756  XZZ=              0.0013  YZZ=              4.8608
  YYZ=              3.0307  XYZ=              0.0015
 Hexadecapole moment (field-independent basis, Debye-Ang**3):
 XXXX=           -204.9499 YYYY=           -167.4021 ZZZZ=            -56.5663 XXXY=             -0.0010
 XXXZ=             -0.0011 YYYX=              0.0028 YYYZ=             10.5187 ZZZX=              0.0001
 ZZZY=              3.7351 XXYY=            -63.9785 XXZZ=            -45.3501 YYZZ=            -34.1157
 XXYZ=              0.1889 YYXZ=              0.0021 ZZXY=              0.0015
 N-N= 1.350938438717D+02 E-N=-7.233617579806D+02  KE= 1.934349787359D+02
 R6APFD:  NTU= -4 IXU= 1 FactS= 1.050
 Calling FoFJK, ICntrl=      2127 FMM=F ISym2X=0 I1Cent= 0 IOpClX= 0 NMat=1 NMatS=1 NMatT=0.
 ***** Axes restored to original set *****
 -------------------------------------------------------------------
 Center     Atomic                   Forces (Hartrees/Bohr)
 Number     Number              X              Y              Z
 -------------------------------------------------------------------
      1        8          -0.000002378    0.005232907   -0.004974427
      2        6          -0.000011520    0.000822201   -0.013838132
      3        6          -0.004951466   -0.001687421    0.004018802
      4        6           0.004982050   -0.001675617    0.004037723
      5        1           0.000008988    0.004837216    0.001619750
      6        1          -0.000588021   -0.002168502   -0.000531999
      7        1          -0.000320012    0.000065398    0.001487512
      8        1           0.002513002   -0.001614741   -0.002810446
      9        1           0.000590444   -0.002148949   -0.000532514
     10        1           0.000296276    0.000042631    0.001480924
     11        1          -0.002521355   -0.001611632   -0.002807400
     12        1           0.000003994   -0.000093492    0.012850205
 -------------------------------------------------------------------
 Cartesian Forces:  Max     0.013838132 RMS     0.003985198

 GradGradGradGradGradGradGradGradGradGradGradGradGradGradGradGradGradGrad
 Berny optimization.
 FormGI is forming the generalized inverse of G from B-inverse, IUseBI=4.
 Internal  Forces:  Max     0.012841156 RMS     0.002843538
 Search for a local minimum.
 Step number   1 out of a maximum of   61
 All quantities printed in internal units (Hartrees-Bohrs-Radians)
 Mixed Optimization -- RFO/linear search
 Second derivative matrix not updated -- first step.
 ITU=  0
     Eigenvalues ---    0.00488   0.00488   0.01370   0.04389   0.04946
     Eigenvalues ---    0.05530   0.05530   0.05708   0.05708   0.07437
     Eigenvalues ---    0.16000   0.16000   0.16000   0.16000   0.16000
     Eigenvalues ---    0.16000   0.16000   0.16684   0.19746   0.30266
     Eigenvalues ---    0.30267   0.34175   0.34175   0.34209   0.34215
     Eigenvalues ---    0.34252   0.34331   0.34334   0.41810   0.52877
 RFO step:  Lambda=-2.65157760D-03 EMin= 4.87539745D-03
 Linear search not attempted -- first point.
 Iteration  1 RMS(Cart)=  0.03543255 RMS(Int)=  0.00066657
 Iteration  2 RMS(Cart)=  0.00088836 RMS(Int)=  0.00035012
 Iteration  3 RMS(Cart)=  0.00000025 RMS(Int)=  0.00035012
 Variable       Old X    -DE/DX   Delta X   Delta X   Delta X     New X
                                 (Linear)    (Quad)   (Total)
    R1        2.69165   0.00216   0.00000   0.00512   0.00512   2.69678
    R2        1.83768  -0.01284   0.00000  -0.02416  -0.02416   1.81352
    R3        2.87435   0.00460   0.00000   0.01506   0.01506   2.88941
    R4        2.87436   0.00459   0.00000   0.01503   0.01503   2.88939
    R5        2.06907   0.00183   0.00000   0.00529   0.00529   2.07436
    R6        2.06771   0.00188   0.00000   0.00542   0.00542   2.07313
    R7        2.06969   0.00075   0.00000   0.00218   0.00218   2.07187
    R8        2.07035   0.00274   0.00000   0.00796   0.00796   2.07831
    R9        2.06776   0.00186   0.00000   0.00537   0.00537   2.07313
   R10        2.06979   0.00072   0.00000   0.00209   0.00209   2.07188
   R11        2.07036   0.00274   0.00000   0.00794   0.00794   2.07831
    A1        1.88378  -0.00097   0.00000  -0.00597  -0.00597   1.87781
    A2        1.90616   0.00373   0.00000   0.04028   0.03939   1.94554
    A3        1.90619   0.00373   0.00000   0.04024   0.03935   1.94553
    A4        1.87488  -0.00508   0.00000  -0.06771  -0.06712   1.80776
    A5        1.95265  -0.00435   0.00000  -0.00073  -0.00209   1.95056
    A6        1.91109   0.00098   0.00000  -0.00727  -0.00690   1.90419
    A7        1.91123   0.00097   0.00000  -0.00741  -0.00704   1.90419
    A8        1.94234   0.00160   0.00000   0.00619   0.00613   1.94847
    A9        1.92617  -0.00021   0.00000   0.00387   0.00387   1.93004
   A10        1.93888  -0.00244   0.00000  -0.01659  -0.01661   1.92227
   A11        1.89599  -0.00042   0.00000   0.00023   0.00020   1.89619
   A12        1.89647  -0.00066   0.00000  -0.01353  -0.01361   1.88286
   A13        1.86161   0.00217   0.00000   0.02044   0.02048   1.88209
   A14        1.94237   0.00160   0.00000   0.00617   0.00611   1.94848
   A15        1.92611  -0.00020   0.00000   0.00393   0.00393   1.93004
   A16        1.93896  -0.00246   0.00000  -0.01668  -0.01669   1.92226
   A17        1.89605  -0.00043   0.00000   0.00018   0.00015   1.89620
   A18        1.89643  -0.00065   0.00000  -0.01349  -0.01356   1.88287
   A19        1.86154   0.00218   0.00000   0.02049   0.02053   1.88207
    D1       -1.07004   0.00032   0.00000  -0.02521  -0.02621  -1.09625
    D2        1.07047  -0.00031   0.00000   0.02519   0.02619   1.09666
    D3       -3.14128  -0.00001   0.00000  -0.00011  -0.00011  -3.14139
    D4       -3.11406   0.00212   0.00000   0.05262   0.05276  -3.06131
    D5       -1.00768   0.00251   0.00000   0.05961   0.05976  -0.94792
    D6        1.05347   0.00354   0.00000   0.07705   0.07714   1.13061
    D7        1.05666  -0.00228   0.00000  -0.02484  -0.02491   1.03175
    D8       -3.12014  -0.00189   0.00000  -0.01785  -0.01791  -3.13805
    D9       -1.05900  -0.00085   0.00000  -0.00041  -0.00052  -1.05952
   D10       -1.06553  -0.00129   0.00000  -0.00996  -0.00999  -1.07553
   D11        1.04086  -0.00090   0.00000  -0.00297  -0.00299   1.03786
   D12        3.10200   0.00013   0.00000   0.01447   0.01439   3.11639
   D13        3.11408  -0.00213   0.00000  -0.05267  -0.05281   3.06127
   D14        1.00764  -0.00251   0.00000  -0.05963  -0.05978   0.94786
   D15       -1.05343  -0.00355   0.00000  -0.07712  -0.07721  -1.13064
   D16       -1.05666   0.00227   0.00000   0.02481   0.02488  -1.03178
   D17        3.12008   0.00189   0.00000   0.01785   0.01791   3.13800
   D18        1.05902   0.00085   0.00000   0.00037   0.00048   1.05950
   D19        1.06545   0.00129   0.00000   0.01002   0.01005   1.07549
   D20       -1.04099   0.00091   0.00000   0.00305   0.00308  -1.03791
   D21       -3.10206  -0.00013   0.00000  -0.01443  -0.01436  -3.11641
         Item               Value     Threshold  Converged?
 Maximum Force            0.012841     0.000450     NO 
 RMS     Force            0.002844     0.000300     NO 
 Maximum Displacement     0.134953     0.001800     NO 
 RMS     Displacement     0.035333     0.001200     NO 
 Predicted change in Energy=-1.400447D-03
 GradGradGradGradGradGradGradGradGradGradGradGradGradGradGradGradGradGrad

                          Input orientation:                          
 ---------------------------------------------------------------------
 Center     Atomic      Atomic             Coordinates (Angstroms)
 Number     Number       Type             X           Y           Z
 ---------------------------------------------------------------------
      1          8           0       -0.000397    1.391158   -0.093009
      2          6           0       -0.000011    0.028829    0.331954
      3          6           0       -1.265601   -0.699351   -0.121824
      4          6           0        1.266000   -0.698610   -0.121795
      5          1           0       -0.000043    0.100576    1.427311
      6          1           0       -1.306596   -1.722659    0.271477
      7          1           0       -2.160605   -0.160118    0.210234
      8          1           0       -1.295635   -0.758084   -1.219637
      9          1           0        1.307604   -1.721884    0.271529
     10          1           0        2.160685   -0.158828    0.210238
     11          1           0        1.296072   -0.757344   -1.219606
     12          1           0       -0.000574    1.395614   -1.052672
 ---------------------------------------------------------------------
                    Distance matrix (angstroms):
                    1          2          3          4          5
     1  O    0.000000
     2  C    1.427073   0.000000
     3  C    2.443727   1.529012   0.000000
     4  C    2.443710   1.529000   2.531601   0.000000
     5  H    1.994235   1.097704   2.154377   2.154366   0.000000
     6  H    3.396302   2.185985   1.097053   2.796711   2.523335
     7  H    2.676736   2.172252   1.096388   3.484514   2.493445
     8  H    2.750669   2.169172   1.099793   2.787610   3.069558
     9  H    3.396290   2.185979   2.796727   1.097052   2.523318
    10  H    2.676693   2.172242   3.484517   1.096390   2.493451
    11  H    2.750657   2.169156   2.787590   1.099792   3.069545
    12  H    0.959673   1.945582   2.618329   2.618495   2.797756
                    6          7          8          9         10
     6  H    0.000000
     7  H    1.781745   0.000000
     8  H    1.775935   1.774899   0.000000
     9  H    2.614200   3.804122   3.151085   0.000000
    10  H    3.804123   4.321290   3.788112   1.781754   0.000000
    11  H    3.151038   3.788104   2.591707   1.775937   1.774888
    12  H    3.630797   2.946348   2.518626   3.630926   2.946569
                   11         12
    11  H    0.000000
    12  H    2.518806   0.000000
 Stoichiometry    C3H8O
 Framework group  C1[X(C3H8O)]
 Deg. of freedom    30
 Full point group                 C1      NOp   1
 Largest Abelian subgroup         C1      NOp   1
 Largest concise Abelian subgroup C1      NOp   1
                         Standard orientation:                         
 ---------------------------------------------------------------------
 Center     Atomic      Atomic             Coordinates (Angstroms)
 Number     Number       Type             X           Y           Z
 ---------------------------------------------------------------------
      1          8           0       -0.000006    1.417504    0.025689
      2          6           0       -0.000009    0.046865   -0.371659
      3          6           0        1.265797   -0.671635    0.096711
      4          6           0       -1.265804   -0.671618    0.096726
      5          1           0       -0.000017    0.096465   -1.468242
      6          1           0        1.307078   -1.702670   -0.275833
      7          1           0        2.160641   -0.138966   -0.246195
      8          1           0        1.295867   -0.708165    1.195486
      9          1           0       -1.307122   -1.702642   -0.275840
     10          1           0       -2.160649   -0.138910   -0.246126
     11          1           0       -1.295840   -0.708165    1.195499
     12          1           0        0.000187    1.441350    0.985066
 ---------------------------------------------------------------------
 Rotational constants (GHZ):           8.4275307           8.0380992           4.7462602
 Standard basis: 6-311++G(d,p) (5D, 7F)
 There are   148 symmetry adapted cartesian basis functions of A   symmetry.
 There are   144 symmetry adapted basis functions of A   symmetry.
   144 basis functions,   216 primitive gaussians,   148 cartesian basis functions
    17 alpha electrons       17 beta electrons
       nuclear repulsion energy       134.3348270329 Hartrees.
 NAtoms=   12 NActive=   12 NUniq=   12 SFac= 1.00D+00 NAtFMM=   60 NAOKFM=F Big=F
 Integral buffers will be    131072 words long.
 Raffenetti 2 integral format.
 Two-electron integral symmetry is turned on.
 R6APFD:  NTU= -4 IXU= 1 FactS= 1.050
 Nuclear repulsion after empirical dispersion term =      134.3297324607 Hartrees.
 One-electron integrals computed using PRISM.
 NBasis=   144 RedAO= T EigKep=  4.78D-05  NBF=   144
 NBsUse=   144 1.00D-06 EigRej= -1.00D+00 NBFU=   144
 Initial guess from the checkpoint file:  "ISAL0057.chk"
 B after Tr=     0.000000    0.000000    0.000000
         Rot=    0.999969   -0.007910   -0.000006   -0.000057 Ang=  -0.91 deg.
 ExpMin= 3.60D-02 ExpMax= 8.59D+03 ExpMxC= 1.30D+03 IAcc=3 IRadAn=         5 AccDes= 0.00D+00
 Harris functional with IExCor= 1009 and IRadAn=       5 diagonalized for initial guess.
 HarFok:  IExCor= 1009 AccDes= 0.00D+00 IRadAn=         5 IDoV= 1 UseB2=F ITyADJ=14
 ICtDFT=  3500011 ScaDFX=  1.000000  1.000000  1.000000  1.000000
 FoFCou: FMM=F IPFlag=           0 FMFlag=      100000 FMFlg1=           0
         NFxFlg=           0 DoJE=T BraDBF=F KetDBF=T FulRan=T
         wScrn=  0.000000 ICntrl=       500 IOpCl=  0 I1Cent=   200000004 NGrid=           0
         NMat0=    1 NMatS0=      1 NMatT0=    0 NMatD0=    1 NMtDS0=    0 NMtDT0=    0
 Petite list used in FoFCou.
 Keep R1 ints in memory in canonical form, NReq=70138980.
 Requested convergence on RMS density matrix=1.00D-08 within  32 cycles.
 Requested convergence on MAX density matrix=1.00D-06.
 Requested convergence on             energy=1.00D-06.
 No special actions if energy rises.
 SCF Done:  E(RM08HX) =  -194.361540567     A.U. after   10 cycles
            NFock= 10  Conv=0.41D-08     -V/T= 2.0050
 QCSCF skips out because SCF is already converged.
 R6APFD:  NTU= -4 IXU= 1 FactS= 1.050
 Calling FoFJK, ICntrl=      2127 FMM=F ISym2X=0 I1Cent= 0 IOpClX= 0 NMat=1 NMatS=1 NMatT=0.
 ***** Axes restored to original set *****
 -------------------------------------------------------------------
 Center     Atomic                   Forces (Hartrees/Bohr)
 Number     Number              X              Y              Z
 -------------------------------------------------------------------
      1        8          -0.000001239   -0.004047261   -0.001538656
      2        6          -0.000003272    0.000246418    0.003756348
      3        6          -0.000340003    0.002155946   -0.001077907
      4        6           0.000344148    0.002154937   -0.001081940
      5        1          -0.000000069   -0.000871163    0.001079908
      6        1           0.000872895    0.000381630    0.000024747
      7        1           0.000502432   -0.000183452    0.000115553
      8        1           0.000171389   -0.000656279   -0.000364775
      9        1          -0.000872648    0.000380520    0.000025253
     10        1          -0.000503497   -0.000184964    0.000116576
     11        1          -0.000170938   -0.000657235   -0.000365608
     12        1           0.000000802    0.001280903   -0.000689500
 -------------------------------------------------------------------
 Cartesian Forces:  Max     0.004047261 RMS     0.001206719

 GradGradGradGradGradGradGradGradGradGradGradGradGradGradGradGradGradGrad
 Berny optimization.
 Using GEDIIS/GDIIS optimizer.
 FormGI is forming the generalized inverse of G from B-inverse, IUseBI=4.
 Internal  Forces:  Max     0.002319019 RMS     0.000753191
 Search for a local minimum.
 Step number   2 out of a maximum of   61
 All quantities printed in internal units (Hartrees-Bohrs-Radians)
 Mixed Optimization -- En-DIIS/RFO-DIIS
 Update second derivatives using D2CorX and points    1    2
 DE= -1.09D-03 DEPred=-1.40D-03 R= 7.80D-01
 TightC=F SS=  1.41D+00  RLast= 1.99D-01 DXNew= 5.0454D-01 5.9557D-01
 Trust test= 7.80D-01 RLast= 1.99D-01 DXMaxT set to 5.05D-01
 ITU=  1  0
 Use linear search instead of GDIIS.
     Eigenvalues ---    0.00487   0.00488   0.01370   0.04462   0.05331
     Eigenvalues ---    0.05521   0.05551   0.05733   0.06003   0.07510
     Eigenvalues ---    0.15737   0.16000   0.16000   0.16000   0.16000
     Eigenvalues ---    0.16000   0.16850   0.17153   0.19975   0.30266
     Eigenvalues ---    0.30925   0.33803   0.34175   0.34212   0.34222
     Eigenvalues ---    0.34254   0.34332   0.34484   0.42201   0.52334
 RFO step:  Lambda=-1.23007318D-04 EMin= 4.86813379D-03
 Quartic linear search produced a step of -0.15465.
 Iteration  1 RMS(Cart)=  0.00899725 RMS(Int)=  0.00006183
 Iteration  2 RMS(Cart)=  0.00005979 RMS(Int)=  0.00003743
 Iteration  3 RMS(Cart)=  0.00000000 RMS(Int)=  0.00003743
 Variable       Old X    -DE/DX   Delta X   Delta X   Delta X     New X
                                 (Linear)    (Quad)   (Total)
    R1        2.69678  -0.00198  -0.00079  -0.00294  -0.00373   2.69304
    R2        1.81352   0.00069   0.00374  -0.00384  -0.00011   1.81341
    R3        2.88941  -0.00142  -0.00233  -0.00086  -0.00319   2.88623
    R4        2.88939  -0.00141  -0.00232  -0.00085  -0.00317   2.88622
    R5        2.07436   0.00102  -0.00082   0.00360   0.00278   2.07714
    R6        2.07313  -0.00038  -0.00084   0.00018  -0.00066   2.07247
    R7        2.07187  -0.00047  -0.00034  -0.00070  -0.00104   2.07084
    R8        2.07831   0.00039  -0.00123   0.00261   0.00138   2.07969
    R9        2.07313  -0.00038  -0.00083   0.00017  -0.00066   2.07247
   R10        2.07188  -0.00047  -0.00032  -0.00072  -0.00104   2.07083
   R11        2.07831   0.00040  -0.00123   0.00261   0.00138   2.07969
    A1        1.87781   0.00232   0.00092   0.01098   0.01190   1.88972
    A2        1.94554  -0.00058  -0.00609  -0.00055  -0.00658   1.93896
    A3        1.94553  -0.00058  -0.00608  -0.00055  -0.00658   1.93896
    A4        1.80776   0.00091   0.01038  -0.00043   0.00988   1.81764
    A5        1.95056  -0.00003   0.00032  -0.00568  -0.00521   1.94535
    A6        1.90419   0.00019   0.00107   0.00399   0.00503   1.90921
    A7        1.90419   0.00019   0.00109   0.00397   0.00503   1.90921
    A8        1.94847  -0.00135  -0.00095  -0.00771  -0.00866   1.93981
    A9        1.93004  -0.00000  -0.00060   0.00215   0.00154   1.93158
   A10        1.92227   0.00049   0.00257  -0.00039   0.00216   1.92443
   A11        1.89619   0.00059  -0.00003   0.00220   0.00217   1.89836
   A12        1.88286   0.00010   0.00210  -0.00498  -0.00287   1.87999
   A13        1.88209   0.00023  -0.00317   0.00918   0.00600   1.88809
   A14        1.94848  -0.00135  -0.00095  -0.00772  -0.00866   1.93982
   A15        1.93004  -0.00000  -0.00061   0.00216   0.00154   1.93158
   A16        1.92226   0.00049   0.00258  -0.00040   0.00217   1.92443
   A17        1.89620   0.00059  -0.00002   0.00218   0.00216   1.89836
   A18        1.88287   0.00010   0.00210  -0.00497  -0.00287   1.88000
   A19        1.88207   0.00023  -0.00318   0.00920   0.00601   1.88808
    D1       -1.09625   0.00046   0.00405   0.00412   0.00831  -1.08794
    D2        1.09666  -0.00046  -0.00405  -0.00422  -0.00840   1.08826
    D3       -3.14139  -0.00000   0.00002  -0.00006  -0.00005  -3.14144
    D4       -3.06131  -0.00076  -0.00816   0.00645  -0.00171  -3.06302
    D5       -0.94792  -0.00093  -0.00924   0.00550  -0.00375  -0.95167
    D6        1.13061  -0.00033  -0.01193   0.01799   0.00606   1.13667
    D7        1.03175   0.00048   0.00385   0.01197   0.01583   1.04757
    D8       -3.13805   0.00031   0.00277   0.01102   0.01378  -3.12426
    D9       -1.05952   0.00091   0.00008   0.02350   0.02359  -1.03593
   D10       -1.07553   0.00013   0.00155   0.00795   0.00951  -1.06602
   D11        1.03786  -0.00004   0.00046   0.00700   0.00746   1.04533
   D12        3.11639   0.00056  -0.00223   0.01949   0.01727   3.13366
   D13        3.06127   0.00076   0.00817  -0.00646   0.00172   3.06299
   D14        0.94786   0.00093   0.00924  -0.00548   0.00377   0.95164
   D15       -1.13064   0.00033   0.01194  -0.01799  -0.00605  -1.13669
   D16       -1.03178  -0.00048  -0.00385  -0.01197  -0.01582  -1.04760
   D17        3.13800  -0.00031  -0.00277  -0.01100  -0.01376   3.12423
   D18        1.05950  -0.00091  -0.00007  -0.02351  -0.02359   1.03591
   D19        1.07549  -0.00013  -0.00155  -0.00794  -0.00950   1.06599
   D20       -1.03791   0.00004  -0.00048  -0.00697  -0.00744  -1.04536
   D21       -3.11641  -0.00056   0.00222  -0.01948  -0.01727  -3.13368
         Item               Value     Threshold  Converged?
 Maximum Force            0.002319     0.000450     NO 
 RMS     Force            0.000753     0.000300     NO 
 Maximum Displacement     0.028462     0.001800     NO 
 RMS     Displacement     0.009007     0.001200     NO 
 Predicted change in Energy=-1.007443D-04
 GradGradGradGradGradGradGradGradGradGradGradGradGradGradGradGradGradGrad

                          Input orientation:                          
 ---------------------------------------------------------------------
 Center     Atomic      Atomic             Coordinates (Angstroms)
 Number     Number       Type             X           Y           Z
 ---------------------------------------------------------------------
      1          8           0       -0.000410    1.386313   -0.091022
      2          6           0       -0.000016    0.028044    0.340267
      3          6           0       -1.261972   -0.696409   -0.123799
      4          6           0        1.262369   -0.695666   -0.123779
      5          1           0       -0.000044    0.094626    1.437426
      6          1           0       -1.300781   -1.717658    0.274079
      7          1           0       -2.159063   -0.157227    0.200816
      8          1           0       -1.280574   -0.763974   -1.222089
      9          1           0        1.301790   -1.716882    0.274120
     10          1           0        2.159136   -0.155942    0.200823
     11          1           0        1.281014   -0.763236   -1.222067
     12          1           0       -0.000549    1.397311   -1.050576
 ---------------------------------------------------------------------
                    Distance matrix (angstroms):
                    1          2          3          4          5
     1  O    0.000000
     2  C    1.425098   0.000000
     3  C    2.435229   1.527325   0.000000
     4  C    2.435226   1.527322   2.524341   0.000000
     5  H    2.001151   1.099177   2.157689   2.157686   0.000000
     6  H    3.385100   2.178038   1.096705   2.787920   2.515883
     7  H    2.669732   2.171464   1.095840   3.478718   2.500799
     8  H    2.746246   2.169810   1.100523   2.770832   3.074080
     9  H    3.385096   2.178037   2.787935   1.096704   2.515873
    10  H    2.669712   2.171458   3.478715   1.095837   2.500805
    11  H    2.746248   2.169805   2.770819   1.100523   3.074076
    12  H    0.959618   1.951751   2.614147   2.614281   2.808405
                    6          7          8          9         10
     6  H    0.000000
     7  H    1.782402   0.000000
     8  H    1.774384   1.778917   0.000000
     9  H    2.602572   3.796762   3.132934   0.000000
    10  H    3.796755   4.318199   3.771735   1.782400   0.000000
    11  H    3.132897   3.771734   2.561588   1.774387   1.778910
    12  H    3.626064   2.939686   2.517743   3.626169   2.939869
                   11         12
    11  H    0.000000
    12  H    2.517891   0.000000
 Stoichiometry    C3H8O
 Framework group  C1[X(C3H8O)]
 Deg. of freedom    30
 Full point group                 C1      NOp   1
 Largest Abelian subgroup         C1      NOp   1
 Largest concise Abelian subgroup C1      NOp   1
                         Standard orientation:                         
 ---------------------------------------------------------------------
 Center     Atomic      Atomic             Coordinates (Angstroms)
 Number     Number       Type             X           Y           Z
 ---------------------------------------------------------------------
      1          8           0        0.000037    1.412839    0.027492
      2          6           0       -0.000005    0.046891   -0.378823
      3          6           0        1.262147   -0.668600    0.098424
      4          6           0       -1.262194   -0.668522    0.098436
      5          1           0       -0.000009    0.093348   -1.477018
      6          1           0        1.301221   -1.696962   -0.280665
      7          1           0        2.159092   -0.135225   -0.236038
      8          1           0        1.280782   -0.716014    1.197767
      9          1           0       -1.301351   -1.696872   -0.280673
     10          1           0       -2.159106   -0.135076   -0.235990
     11          1           0       -1.280806   -0.715951    1.197779
     12          1           0        0.000186    1.441426    0.986683
 ---------------------------------------------------------------------
 Rotational constants (GHZ):           8.4584760           8.0679596           4.7763885
 Standard basis: 6-311++G(d,p) (5D, 7F)
 There are   148 symmetry adapted cartesian basis functions of A   symmetry.
 There are   144 symmetry adapted basis functions of A   symmetry.
   144 basis functions,   216 primitive gaussians,   148 cartesian basis functions
    17 alpha electrons       17 beta electrons
       nuclear repulsion energy       134.5276422070 Hartrees.
 NAtoms=   12 NActive=   12 NUniq=   12 SFac= 1.00D+00 NAtFMM=   60 NAOKFM=F Big=F
 Integral buffers will be    131072 words long.
 Raffenetti 2 integral format.
 Two-electron integral symmetry is turned on.
 R6APFD:  NTU= -4 IXU= 1 FactS= 1.050
 Nuclear repulsion after empirical dispersion term =      134.5225732406 Hartrees.
 One-electron integrals computed using PRISM.
 NBasis=   144 RedAO= T EigKep=  4.72D-05  NBF=   144
 NBsUse=   144 1.00D-06 EigRej= -1.00D+00 NBFU=   144
 Initial guess from the checkpoint file:  "ISAL0057.chk"
 B after Tr=     0.000000   -0.000000   -0.000000
         Rot=    1.000000   -0.000440    0.000002    0.000013 Ang=  -0.05 deg.
 ExpMin= 3.60D-02 ExpMax= 8.59D+03 ExpMxC= 1.30D+03 IAcc=3 IRadAn=         5 AccDes= 0.00D+00
 Harris functional with IExCor= 1009 and IRadAn=       5 diagonalized for initial guess.
 HarFok:  IExCor= 1009 AccDes= 0.00D+00 IRadAn=         5 IDoV= 1 UseB2=F ITyADJ=14
 ICtDFT=  3500011 ScaDFX=  1.000000  1.000000  1.000000  1.000000
 FoFCou: FMM=F IPFlag=           0 FMFlag=      100000 FMFlg1=           0
         NFxFlg=           0 DoJE=T BraDBF=F KetDBF=T FulRan=T
         wScrn=  0.000000 ICntrl=       500 IOpCl=  0 I1Cent=   200000004 NGrid=           0
         NMat0=    1 NMatS0=      1 NMatT0=    0 NMatD0=    1 NMtDS0=    0 NMtDT0=    0
 Petite list used in FoFCou.
 Keep R1 ints in memory in canonical form, NReq=70138980.
 Requested convergence on RMS density matrix=1.00D-08 within  32 cycles.
 Requested convergence on MAX density matrix=1.00D-06.
 Requested convergence on             energy=1.00D-06.
 No special actions if energy rises.
 SCF Done:  E(RM08HX) =  -194.361647595     A.U. after    9 cycles
            NFock=  9  Conv=0.45D-08     -V/T= 2.0050
 QCSCF skips out because SCF is already converged.
 R6APFD:  NTU= -4 IXU= 1 FactS= 1.050
 Calling FoFJK, ICntrl=      2127 FMM=F ISym2X=0 I1Cent= 0 IOpClX= 0 NMat=1 NMatS=1 NMatT=0.
 ***** Axes restored to original set *****
 -------------------------------------------------------------------
 Center     Atomic                   Forces (Hartrees/Bohr)
 Number     Number              X              Y              Z
 -------------------------------------------------------------------
      1        8          -0.000001033   -0.000482696    0.000431739
      2        6          -0.000001087    0.000851495    0.000219715
      3        6          -0.000371587    0.000238529   -0.000265727
      4        6           0.000371677    0.000238471   -0.000268220
      5        1           0.000000057   -0.000245024   -0.000145367
      6        1           0.000058726   -0.000095555    0.000027674
      7        1           0.000184407   -0.000137786   -0.000031382
      8        1           0.000108453   -0.000072718    0.000222895
      9        1          -0.000058855   -0.000096676    0.000027945
     10        1          -0.000183283   -0.000137091   -0.000030518
     11        1          -0.000108308   -0.000073192    0.000222856
     12        1           0.000000833    0.000012243   -0.000411611
 -------------------------------------------------------------------
 Cartesian Forces:  Max     0.000851495 RMS     0.000249650

 GradGradGradGradGradGradGradGradGradGradGradGradGradGradGradGradGradGrad
 Berny optimization.
 Using GEDIIS/GDIIS optimizer.
 FormGI is forming the generalized inverse of G from B-inverse, IUseBI=4.
 Internal  Forces:  Max     0.000454613 RMS     0.000124652
 Search for a local minimum.
 Step number   3 out of a maximum of   61
 All quantities printed in internal units (Hartrees-Bohrs-Radians)
 Mixed Optimization -- En-DIIS/RFO-DIIS
 Swapping is turned off.
 Update second derivatives using D2CorX and points    1    2    3
 DE= -1.07D-04 DEPred=-1.01D-04 R= 1.06D+00
 TightC=F SS=  1.41D+00  RLast= 6.20D-02 DXNew= 8.4853D-01 1.8597D-01
 Trust test= 1.06D+00 RLast= 6.20D-02 DXMaxT set to 5.05D-01
 ITU=  1  1  0
     Eigenvalues ---    0.00472   0.00488   0.01370   0.04558   0.05131
     Eigenvalues ---    0.05518   0.05601   0.05719   0.05861   0.07476
     Eigenvalues ---    0.15592   0.16000   0.16000   0.16000   0.16000
     Eigenvalues ---    0.16005   0.16928   0.16982   0.20020   0.30266
     Eigenvalues ---    0.31100   0.33989   0.34175   0.34198   0.34212
     Eigenvalues ---    0.34259   0.34332   0.35160   0.41465   0.52376
 En-DIIS/RFO-DIIS/Sim-DIIS IScMMF=       -3 using points:     3    2
 RFO step:  Lambda=-4.57150635D-06.
 DidBck=F Rises=F RFO-DIIS coefs:    1.15787   -0.15787
 Iteration  1 RMS(Cart)=  0.00184669 RMS(Int)=  0.00000412
 Iteration  2 RMS(Cart)=  0.00000223 RMS(Int)=  0.00000339
 Iteration  3 RMS(Cart)=  0.00000000 RMS(Int)=  0.00000339
 Variable       Old X    -DE/DX   Delta X   Delta X   Delta X     New X
                                 (Linear)    (Quad)   (Total)
    R1        2.69304  -0.00045  -0.00059  -0.00060  -0.00119   2.69186
    R2        1.81341   0.00041  -0.00002   0.00071   0.00069   1.81411
    R3        2.88623   0.00006  -0.00050   0.00077   0.00026   2.88649
    R4        2.88622   0.00007  -0.00050   0.00077   0.00027   2.88649
    R5        2.07714  -0.00016   0.00044  -0.00087  -0.00043   2.07672
    R6        2.07247   0.00010  -0.00010   0.00043   0.00032   2.07280
    R7        2.07084  -0.00023  -0.00016  -0.00055  -0.00072   2.07012
    R8        2.07969  -0.00022   0.00022  -0.00084  -0.00062   2.07907
    R9        2.07247   0.00010  -0.00010   0.00043   0.00033   2.07280
   R10        2.07083  -0.00023  -0.00016  -0.00055  -0.00071   2.07012
   R11        2.07969  -0.00022   0.00022  -0.00084  -0.00062   2.07906
    A1        1.88972   0.00002   0.00188  -0.00164   0.00024   1.88995
    A2        1.93896   0.00005  -0.00104   0.00135   0.00030   1.93925
    A3        1.93896   0.00005  -0.00104   0.00135   0.00030   1.93925
    A4        1.81764   0.00007   0.00156   0.00046   0.00203   1.81967
    A5        1.94535  -0.00017  -0.00082  -0.00079  -0.00163   1.94372
    A6        1.90921   0.00001   0.00079  -0.00119  -0.00039   1.90882
    A7        1.90921   0.00001   0.00079  -0.00118  -0.00039   1.90883
    A8        1.93981  -0.00009  -0.00137   0.00039  -0.00098   1.93884
    A9        1.93158   0.00005   0.00024   0.00051   0.00075   1.93234
   A10        1.92443  -0.00006   0.00034  -0.00087  -0.00053   1.92390
   A11        1.89836   0.00002   0.00034  -0.00011   0.00023   1.89859
   A12        1.87999   0.00001  -0.00045  -0.00028  -0.00074   1.87925
   A13        1.88809   0.00007   0.00095   0.00035   0.00129   1.88938
   A14        1.93982  -0.00009  -0.00137   0.00039  -0.00098   1.93884
   A15        1.93158   0.00005   0.00024   0.00051   0.00075   1.93233
   A16        1.92443  -0.00006   0.00034  -0.00086  -0.00053   1.92390
   A17        1.89836   0.00002   0.00034  -0.00011   0.00023   1.89859
   A18        1.88000   0.00001  -0.00045  -0.00028  -0.00074   1.87926
   A19        1.88808   0.00007   0.00095   0.00035   0.00129   1.88937
    D1       -1.08794   0.00008   0.00131  -0.00051   0.00080  -1.08715
    D2        1.08826  -0.00008  -0.00133   0.00044  -0.00088   1.08738
    D3       -3.14144  -0.00000  -0.00001  -0.00003  -0.00004  -3.14148
    D4       -3.06302  -0.00007  -0.00027   0.00096   0.00069  -3.06232
    D5       -0.95167  -0.00006  -0.00059   0.00143   0.00084  -0.95083
    D6        1.13667   0.00002   0.00096   0.00162   0.00258   1.13925
    D7        1.04757  -0.00004   0.00250  -0.00121   0.00129   1.04886
    D8       -3.12426  -0.00004   0.00218  -0.00075   0.00143  -3.12284
    D9       -1.03593   0.00004   0.00372  -0.00055   0.00317  -1.03276
   D10       -1.06602   0.00005   0.00150   0.00158   0.00309  -1.06293
   D11        1.04533   0.00005   0.00118   0.00205   0.00323   1.04856
   D12        3.13366   0.00013   0.00273   0.00225   0.00497   3.13864
   D13        3.06299   0.00007   0.00027  -0.00095  -0.00068   3.06231
   D14        0.95164   0.00006   0.00060  -0.00141  -0.00082   0.95082
   D15       -1.13669  -0.00002  -0.00096  -0.00162  -0.00257  -1.13926
   D16       -1.04760   0.00004  -0.00250   0.00122  -0.00128  -1.04888
   D17        3.12423   0.00004  -0.00217   0.00076  -0.00141   3.12282
   D18        1.03591  -0.00005  -0.00372   0.00055  -0.00317   1.03274
   D19        1.06599  -0.00005  -0.00150  -0.00158  -0.00308   1.06291
   D20       -1.04536  -0.00005  -0.00118  -0.00204  -0.00322  -1.04858
   D21       -3.13368  -0.00013  -0.00273  -0.00224  -0.00497  -3.13865
         Item               Value     Threshold  Converged?
 Maximum Force            0.000455     0.000450     NO 
 RMS     Force            0.000125     0.000300     YES
 Maximum Displacement     0.006066     0.001800     NO 
 RMS     Displacement     0.001847     0.001200     NO 
 Predicted change in Energy=-2.285137D-06
 GradGradGradGradGradGradGradGradGradGradGradGradGradGradGradGradGradGrad

                          Input orientation:                          
 ---------------------------------------------------------------------
 Center     Atomic      Atomic             Coordinates (Angstroms)
 Number     Number       Type             X           Y           Z
 ---------------------------------------------------------------------
      1          8           0       -0.000420    1.386930   -0.089886
      2          6           0       -0.000020    0.029176    0.340948
      3          6           0       -1.261390   -0.695955   -0.124106
      4          6           0        1.261785   -0.695208   -0.124094
      5          1           0       -0.000047    0.093305    1.438026
      6          1           0       -1.299384   -1.717009    0.274820
      7          1           0       -2.159140   -0.157553    0.198697
      8          1           0       -1.277364   -0.765493   -1.221984
      9          1           0        1.300389   -1.716234    0.274847
     10          1           0        2.159209   -0.156262    0.198706
     11          1           0        1.277805   -0.764746   -1.221971
     12          1           0       -0.000524    1.398348   -1.049802
 ---------------------------------------------------------------------
                    Distance matrix (angstroms):
                    1          2          3          4          5
     1  O    0.000000
     2  C    1.424469   0.000000
     3  C    2.435082   1.527464   0.000000
     4  C    2.435082   1.527464   2.523175   0.000000
     5  H    2.001993   1.098950   2.157354   2.157357   0.000000
     6  H    3.384488   2.177587   1.096876   2.786179   2.513676
     7  H    2.669977   2.171843   1.095461   3.477929   2.502109
     8  H    2.746845   2.169300   1.100194   2.767233   3.073227
     9  H    3.384488   2.177588   2.786188   1.096876   2.513673
    10  H    2.669967   2.171841   3.477927   1.095460   2.502116
    11  H    2.746850   2.169301   2.767228   1.100194   3.073230
    12  H    0.959984   1.951619   2.613963   2.614065   2.809346
                    6          7          8          9         10
     6  H    0.000000
     7  H    1.782380   0.000000
     8  H    1.773779   1.779173   0.000000
     9  H    2.599773   3.795211   3.128773   0.000000
    10  H    3.795207   4.318350   3.768230   1.782381   0.000000
    11  H    3.128753   3.768232   2.555169   1.773781   1.779170
    12  H    3.625895   2.939252   2.518367   3.625974   2.939393
                   11         12
    11  H    0.000000
    12  H    2.518481   0.000000
 Stoichiometry    C3H8O
 Framework group  C1[X(C3H8O)]
 Deg. of freedom    30
 Full point group                 C1      NOp   1
 Largest Abelian subgroup         C1      NOp   1
 Largest concise Abelian subgroup C1      NOp   1
                         Standard orientation:                         
 ---------------------------------------------------------------------
 Center     Atomic      Atomic             Coordinates (Angstroms)
 Number     Number       Type             X           Y           Z
 ---------------------------------------------------------------------
      1          8           0        0.000040    1.412991    0.027670
      2          6           0       -0.000003    0.047876   -0.379238
      3          6           0        1.261564   -0.668636    0.098470
      4          6           0       -1.261611   -0.668559    0.098479
      5          1           0       -0.000003    0.092716   -1.477273
      6          1           0        1.299826   -1.696533   -0.282452
      7          1           0        2.159168   -0.135751   -0.233757
      8          1           0        1.277566   -0.718866    1.197400
      9          1           0       -1.299948   -1.696448   -0.282457
     10          1           0       -2.159182   -0.135608   -0.233729
     11          1           0       -1.277603   -0.718798    1.197409
     12          1           0        0.000150    1.441276    0.987237
 ---------------------------------------------------------------------
 Rotational constants (GHZ):           8.4559964           8.0749812           4.7784253
 Standard basis: 6-311++G(d,p) (5D, 7F)
 There are   148 symmetry adapted cartesian basis functions of A   symmetry.
 There are   144 symmetry adapted basis functions of A   symmetry.
   144 basis functions,   216 primitive gaussians,   148 cartesian basis functions
    17 alpha electrons       17 beta electrons
       nuclear repulsion energy       134.5464320873 Hartrees.
 NAtoms=   12 NActive=   12 NUniq=   12 SFac= 1.00D+00 NAtFMM=   60 NAOKFM=F Big=F
 Integral buffers will be    131072 words long.
 Raffenetti 2 integral format.
 Two-electron integral symmetry is turned on.
 R6APFD:  NTU= -4 IXU= 1 FactS= 1.050
 Nuclear repulsion after empirical dispersion term =      134.5413619403 Hartrees.
 One-electron integrals computed using PRISM.
 NBasis=   144 RedAO= T EigKep=  4.71D-05  NBF=   144
 NBsUse=   144 1.00D-06 EigRej= -1.00D+00 NBFU=   144
 Initial guess from the checkpoint file:  "ISAL0057.chk"
 B after Tr=    -0.000000    0.000000    0.000000
         Rot=    1.000000   -0.000221    0.000002   -0.000000 Ang=  -0.03 deg.
 Keep R1 ints in memory in canonical form, NReq=70138980.
 Requested convergence on RMS density matrix=1.00D-08 within  32 cycles.
 Requested convergence on MAX density matrix=1.00D-06.
 Requested convergence on             energy=1.00D-06.
 No special actions if energy rises.
 SCF Done:  E(RM08HX) =  -194.361650242     A.U. after    7 cycles
            NFock=  7  Conv=0.92D-08     -V/T= 2.0049
 QCSCF skips out because SCF is already converged.
 R6APFD:  NTU= -4 IXU= 1 FactS= 1.050
 Calling FoFJK, ICntrl=      2127 FMM=F ISym2X=0 I1Cent= 0 IOpClX= 0 NMat=1 NMatS=1 NMatT=0.
 ***** Axes restored to original set *****
 -------------------------------------------------------------------
 Center     Atomic                   Forces (Hartrees/Bohr)
 Number     Number              X              Y              Z
 -------------------------------------------------------------------
      1        8          -0.000000700   -0.000159279    0.000110597
      2        6          -0.000000104    0.000347363   -0.000008937
      3        6          -0.000077884   -0.000048447   -0.000058019
      4        6           0.000077716   -0.000048197   -0.000058186
      5        1           0.000000348   -0.000016702   -0.000024781
      6        1          -0.000000007   -0.000006946    0.000012818
      7        1           0.000002723   -0.000011957    0.000002260
      8        1           0.000003410   -0.000010216    0.000014949
      9        1          -0.000000068   -0.000006983    0.000012755
     10        1          -0.000002583   -0.000011914    0.000002411
     11        1          -0.000003510   -0.000010259    0.000015028
     12        1           0.000000658   -0.000016463   -0.000020895
 -------------------------------------------------------------------
 Cartesian Forces:  Max     0.000347363 RMS     0.000071665

 GradGradGradGradGradGradGradGradGradGradGradGradGradGradGradGradGradGrad
 Berny optimization.
 Using GEDIIS/GDIIS optimizer.
 FormGI is forming the generalized inverse of G from B-inverse, IUseBI=4.
 Internal  Forces:  Max     0.000194780 RMS     0.000037248
 Search for a local minimum.
 Step number   4 out of a maximum of   61
 All quantities printed in internal units (Hartrees-Bohrs-Radians)
 Mixed Optimization -- En-DIIS/RFO-DIIS
 Swapping is turned off.
 Update second derivatives using D2CorX and points    1    2    3    4
 DE= -2.65D-06 DEPred=-2.29D-06 R= 1.16D+00
 TightC=F SS=  1.41D+00  RLast= 1.24D-02 DXNew= 8.4853D-01 3.7143D-02
 Trust test= 1.16D+00 RLast= 1.24D-02 DXMaxT set to 5.05D-01
 ITU=  1  1  1  0
     Eigenvalues ---    0.00456   0.00488   0.01369   0.04326   0.05105
     Eigenvalues ---    0.05604   0.05626   0.05721   0.05821   0.07458
     Eigenvalues ---    0.15628   0.15924   0.16000   0.16000   0.16000
     Eigenvalues ---    0.16003   0.16869   0.16962   0.19683   0.30266
     Eigenvalues ---    0.30776   0.34096   0.34175   0.34212   0.34235
     Eigenvalues ---    0.34332   0.34522   0.34715   0.39626   0.52882
 En-DIIS/RFO-DIIS/Sim-DIIS IScMMF=       -3 using points:     4    3    2
 RFO step:  Lambda=-3.28945027D-07.
 DidBck=F Rises=F RFO-DIIS coefs:    1.27817   -0.29033    0.01216
 Iteration  1 RMS(Cart)=  0.00044745 RMS(Int)=  0.00000035
 Iteration  2 RMS(Cart)=  0.00000014 RMS(Int)=  0.00000033
 Variable       Old X    -DE/DX   Delta X   Delta X   Delta X     New X
                                 (Linear)    (Quad)   (Total)
    R1        2.69186  -0.00019  -0.00029  -0.00036  -0.00065   2.69121
    R2        1.81411   0.00002   0.00019  -0.00014   0.00006   1.81416
    R3        2.88649   0.00011   0.00011   0.00030   0.00041   2.88690
    R4        2.88649   0.00010   0.00011   0.00030   0.00041   2.88690
    R5        2.07672  -0.00003  -0.00015   0.00007  -0.00008   2.07664
    R6        2.07280   0.00001   0.00010  -0.00005   0.00005   2.07285
    R7        2.07012  -0.00001  -0.00019   0.00012  -0.00007   2.07006
    R8        2.07907  -0.00001  -0.00019   0.00013  -0.00006   2.07901
    R9        2.07280   0.00001   0.00010  -0.00005   0.00005   2.07285
   R10        2.07012  -0.00001  -0.00019   0.00012  -0.00006   2.07006
   R11        2.07906  -0.00001  -0.00019   0.00013  -0.00006   2.07901
    A1        1.88995  -0.00003  -0.00008  -0.00002  -0.00010   1.88986
    A2        1.93925   0.00003   0.00016   0.00011   0.00028   1.93953
    A3        1.93925   0.00003   0.00016   0.00011   0.00027   1.93953
    A4        1.81967  -0.00001   0.00044  -0.00028   0.00017   1.81984
    A5        1.94372  -0.00006  -0.00039  -0.00007  -0.00046   1.94326
    A6        1.90882   0.00001  -0.00017   0.00006  -0.00011   1.90871
    A7        1.90883   0.00001  -0.00017   0.00006  -0.00011   1.90871
    A8        1.93884  -0.00001  -0.00017  -0.00008  -0.00025   1.93859
    A9        1.93234   0.00001   0.00019  -0.00005   0.00014   1.93247
   A10        1.92390   0.00000  -0.00017   0.00023   0.00005   1.92396
   A11        1.89859  -0.00000   0.00004  -0.00010  -0.00007   1.89852
   A12        1.87925   0.00000  -0.00017   0.00008  -0.00009   1.87916
   A13        1.88938   0.00000   0.00029  -0.00007   0.00022   1.88960
   A14        1.93884  -0.00001  -0.00017  -0.00008  -0.00025   1.93859
   A15        1.93233   0.00001   0.00019  -0.00005   0.00014   1.93247
   A16        1.92390   0.00000  -0.00017   0.00022   0.00005   1.92396
   A17        1.89859  -0.00000   0.00004  -0.00010  -0.00007   1.89852
   A18        1.87926   0.00000  -0.00017   0.00008  -0.00009   1.87916
   A19        1.88937   0.00000   0.00029  -0.00007   0.00022   1.88960
    D1       -1.08715   0.00001   0.00012  -0.00006   0.00006  -1.08709
    D2        1.08738  -0.00002  -0.00014   0.00001  -0.00013   1.08725
    D3       -3.14148  -0.00000  -0.00001  -0.00003  -0.00004  -3.14151
    D4       -3.06232   0.00001   0.00021   0.00035   0.00056  -3.06176
    D5       -0.95083   0.00000   0.00028   0.00013   0.00041  -0.95043
    D6        1.13925   0.00001   0.00064   0.00016   0.00080   1.14005
    D7        1.04886  -0.00001   0.00017   0.00018   0.00034   1.04920
    D8       -3.12284  -0.00002   0.00023  -0.00005   0.00018  -3.12265
    D9       -1.03276  -0.00001   0.00060  -0.00002   0.00058  -1.03217
   D10       -1.06293   0.00001   0.00074   0.00011   0.00085  -1.06208
   D11        1.04856   0.00000   0.00081  -0.00011   0.00070   1.04926
   D12        3.13864   0.00001   0.00117  -0.00008   0.00110   3.13973
   D13        3.06231  -0.00001  -0.00021  -0.00035  -0.00056   3.06175
   D14        0.95082  -0.00000  -0.00027  -0.00013  -0.00040   0.95041
   D15       -1.13926  -0.00001  -0.00064  -0.00016  -0.00080  -1.14006
   D16       -1.04888   0.00001  -0.00016  -0.00017  -0.00033  -1.04921
   D17        3.12282   0.00002  -0.00023   0.00005  -0.00018   3.12264
   D18        1.03274   0.00001  -0.00059   0.00002  -0.00058   1.03217
   D19        1.06291  -0.00001  -0.00074  -0.00011  -0.00085   1.06207
   D20       -1.04858  -0.00000  -0.00080   0.00011  -0.00069  -1.04927
   D21       -3.13865  -0.00001  -0.00117   0.00008  -0.00109  -3.13974
         Item               Value     Threshold  Converged?
 Maximum Force            0.000195     0.000450     YES
 RMS     Force            0.000037     0.000300     YES
 Maximum Displacement     0.001037     0.001800     YES
 RMS     Displacement     0.000447     0.001200     YES
 Predicted change in Energy=-1.643095D-07
 Optimization completed.
    -- Stationary point found.
                           ----------------------------
                           !   Optimized Parameters   !
                           ! (Angstroms and Degrees)  !
 --------------------------                            --------------------------
 ! Name  Definition              Value          Derivative Info.                !
 --------------------------------------------------------------------------------
 ! R1    R(1,2)                  1.4245         -DE/DX =   -0.0002              !
 ! R2    R(1,12)                 0.96           -DE/DX =    0.0                 !
 ! R3    R(2,3)                  1.5275         -DE/DX =    0.0001              !
 ! R4    R(2,4)                  1.5275         -DE/DX =    0.0001              !
 ! R5    R(2,5)                  1.099          -DE/DX =    0.0                 !
 ! R6    R(3,6)                  1.0969         -DE/DX =    0.0                 !
 ! R7    R(3,7)                  1.0955         -DE/DX =    0.0                 !
 ! R8    R(3,8)                  1.1002         -DE/DX =    0.0                 !
 ! R9    R(4,9)                  1.0969         -DE/DX =    0.0                 !
 ! R10   R(4,10)                 1.0955         -DE/DX =    0.0                 !
 ! R11   R(4,11)                 1.1002         -DE/DX =    0.0                 !
 ! A1    A(2,1,12)             108.2864         -DE/DX =    0.0                 !
 ! A2    A(1,2,3)              111.1111         -DE/DX =    0.0                 !
 ! A3    A(1,2,4)              111.1111         -DE/DX =    0.0                 !
 ! A4    A(1,2,5)              104.2596         -DE/DX =    0.0                 !
 ! A5    A(3,2,4)              111.367          -DE/DX =   -0.0001              !
 ! A6    A(3,2,5)              109.3675         -DE/DX =    0.0                 !
 ! A7    A(4,2,5)              109.3677         -DE/DX =    0.0                 !
 ! A8    A(2,3,6)              111.0871         -DE/DX =    0.0                 !
 ! A9    A(2,3,7)              110.7147         -DE/DX =    0.0                 !
 ! A10   A(2,3,8)              110.2316         -DE/DX =    0.0                 !
 ! A11   A(6,3,7)              108.7811         -DE/DX =    0.0                 !
 ! A12   A(6,3,8)              107.6733         -DE/DX =    0.0                 !
 ! A13   A(7,3,8)              108.2533         -DE/DX =    0.0                 !
 ! A14   A(2,4,9)              111.0871         -DE/DX =    0.0                 !
 ! A15   A(2,4,10)             110.7145         -DE/DX =    0.0                 !
 ! A16   A(2,4,11)             110.2316         -DE/DX =    0.0                 !
 ! A17   A(9,4,10)             108.7811         -DE/DX =    0.0                 !
 ! A18   A(9,4,11)             107.6735         -DE/DX =    0.0                 !
 ! A19   A(10,4,11)            108.2532         -DE/DX =    0.0                 !
 ! D1    D(12,1,2,3)           -62.289          -DE/DX =    0.0                 !
 ! D2    D(12,1,2,4)            62.3022         -DE/DX =    0.0                 !
 ! D3    D(12,1,2,5)          -179.9933         -DE/DX =    0.0                 !
 ! D4    D(1,2,3,6)           -175.4582         -DE/DX =    0.0                 !
 ! D5    D(1,2,3,7)            -54.4787         -DE/DX =    0.0                 !
 ! D6    D(1,2,3,8)             65.2741         -DE/DX =    0.0                 !
 ! D7    D(4,2,3,6)             60.0952         -DE/DX =    0.0                 !
 ! D8    D(4,2,3,7)           -178.9253         -DE/DX =    0.0                 !
 ! D9    D(4,2,3,8)            -59.1725         -DE/DX =    0.0                 !
 ! D10   D(5,2,3,6)            -60.9016         -DE/DX =    0.0                 !
 ! D11   D(5,2,3,7)             60.0779         -DE/DX =    0.0                 !
 ! D12   D(5,2,3,8)            179.8307         -DE/DX =    0.0                 !
 ! D13   D(1,2,4,9)            175.4572         -DE/DX =    0.0                 !
 ! D14   D(1,2,4,10)            54.4778         -DE/DX =    0.0                 !
 ! D15   D(1,2,4,11)           -65.2747         -DE/DX =    0.0                 !
 ! D16   D(3,2,4,9)            -60.0962         -DE/DX =    0.0                 !
 ! D17   D(3,2,4,10)           178.9244         -DE/DX =    0.0                 !
 ! D18   D(3,2,4,11)            59.1719         -DE/DX =    0.0                 !
 ! D19   D(5,2,4,9)             60.9005         -DE/DX =    0.0                 !
 ! D20   D(5,2,4,10)           -60.0789         -DE/DX =    0.0                 !
 ! D21   D(5,2,4,11)          -179.8314         -DE/DX =    0.0                 !
 --------------------------------------------------------------------------------
 GradGradGradGradGradGradGradGradGradGradGradGradGradGradGradGradGradGrad

                          Input orientation:                          
 ---------------------------------------------------------------------
 Center     Atomic      Atomic             Coordinates (Angstroms)
 Number     Number       Type             X           Y           Z
 ---------------------------------------------------------------------
      1          8           0       -0.000420    1.386930   -0.089886
      2          6           0       -0.000020    0.029176    0.340948
      3          6           0       -1.261390   -0.695955   -0.124106
      4          6           0        1.261785   -0.695208   -0.124094
      5          1           0       -0.000047    0.093305    1.438026
      6          1           0       -1.299384   -1.717009    0.274820
      7          1           0       -2.159140   -0.157553    0.198697
      8          1           0       -1.277364   -0.765493   -1.221984
      9          1           0        1.300389   -1.716234    0.274847
     10          1           0        2.159209   -0.156262    0.198706
     11          1           0        1.277805   -0.764746   -1.221971
     12          1           0       -0.000524    1.398348   -1.049802
 ---------------------------------------------------------------------
                    Distance matrix (angstroms):
                    1          2          3          4          5
     1  O    0.000000
     2  C    1.424469   0.000000
     3  C    2.435082   1.527464   0.000000
     4  C    2.435082   1.527464   2.523175   0.000000
     5  H    2.001993   1.098950   2.157354   2.157357   0.000000
     6  H    3.384488   2.177587   1.096876   2.786179   2.513676
     7  H    2.669977   2.171843   1.095461   3.477929   2.502109
     8  H    2.746845   2.169300   1.100194   2.767233   3.073227
     9  H    3.384488   2.177588   2.786188   1.096876   2.513673
    10  H    2.669967   2.171841   3.477927   1.095460   2.502116
    11  H    2.746850   2.169301   2.767228   1.100194   3.073230
    12  H    0.959984   1.951619   2.613963   2.614065   2.809346
                    6          7          8          9         10
     6  H    0.000000
     7  H    1.782380   0.000000
     8  H    1.773779   1.779173   0.000000
     9  H    2.599773   3.795211   3.128773   0.000000
    10  H    3.795207   4.318350   3.768230   1.782381   0.000000
    11  H    3.128753   3.768232   2.555169   1.773781   1.779170
    12  H    3.625895   2.939252   2.518367   3.625974   2.939393
                   11         12
    11  H    0.000000
    12  H    2.518481   0.000000
 Stoichiometry    C3H8O
 Framework group  C1[X(C3H8O)]
 Deg. of freedom    30
 Full point group                 C1      NOp   1
 Largest Abelian subgroup         C1      NOp   1
 Largest concise Abelian subgroup C1      NOp   1
                         Standard orientation:                         
 ---------------------------------------------------------------------
 Center     Atomic      Atomic             Coordinates (Angstroms)
 Number     Number       Type             X           Y           Z
 ---------------------------------------------------------------------
      1          8           0        0.000040    1.412991    0.027670
      2          6           0       -0.000003    0.047876   -0.379238
      3          6           0        1.261564   -0.668636    0.098470
      4          6           0       -1.261611   -0.668559    0.098479
      5          1           0       -0.000003    0.092716   -1.477273
      6          1           0        1.299826   -1.696533   -0.282452
      7          1           0        2.159168   -0.135751   -0.233757
      8          1           0        1.277566   -0.718866    1.197400
      9          1           0       -1.299948   -1.696448   -0.282457
     10          1           0       -2.159182   -0.135608   -0.233729
     11          1           0       -1.277603   -0.718798    1.197409
     12          1           0        0.000150    1.441276    0.987237
 ---------------------------------------------------------------------
 Rotational constants (GHZ):           8.4559964           8.0749812           4.7784253

 **********************************************************************

            Population analysis using the SCF Density.

 **********************************************************************

 Orbital symmetries:
       Occupied  (A) (A) (A) (A) (A) (A) (A) (A) (A) (A) (A) (A)
                 (A) (A) (A) (A) (A)
       Virtual   (A) (A) (A) (A) (A) (A) (A) (A) (A) (A) (A) (A)
                 (A) (A) (A) (A) (A) (A) (A) (A) (A) (A) (A) (A)
                 (A) (A) (A) (A) (A) (A) (A) (A) (A) (A) (A) (A)
                 (A) (A) (A) (A) (A) (A) (A) (A) (A) (A) (A) (A)
                 (A) (A) (A) (A) (A) (A) (A) (A) (A) (A) (A) (A)
                 (A) (A) (A) (A) (A) (A) (A) (A) (A) (A) (A) (A)
                 (A) (A) (A) (A) (A) (A) (A) (A) (A) (A) (A) (A)
                 (A) (A) (A) (A) (A) (A) (A) (A) (A) (A) (A) (A)
                 (A) (A) (A) (A) (A) (A) (A) (A) (A) (A) (A) (A)
[...]
   D11        1.04856   0.00000   0.00000   0.00084   0.00084   1.04939
   D12        3.13864   0.00001   0.00000   0.00111   0.00111   3.13974
   D13        3.06231  -0.00001   0.00000  -0.00061  -0.00061   3.06170
   D14        0.95082  -0.00000   0.00000  -0.00042  -0.00042   0.95040
   D15       -1.13926  -0.00001   0.00000  -0.00069  -0.00069  -1.13995
   D16       -1.04888   0.00001   0.00000  -0.00023  -0.00023  -1.04911
   D17        3.12282   0.00002   0.00000  -0.00004  -0.00004   3.12278
   D18        1.03274   0.00001   0.00000  -0.00032  -0.00032   1.03243
   D19        1.06291  -0.00001   0.00000  -0.00101  -0.00101   1.06191
   D20       -1.04858  -0.00000   0.00000  -0.00082  -0.00082  -1.04939
   D21       -3.13865  -0.00001   0.00000  -0.00109  -0.00109  -3.13974
         Item               Value     Threshold  Converged?
 Maximum Force            0.000195     0.000450     YES
 RMS     Force            0.000037     0.000300     YES
 Maximum Displacement     0.001023     0.001800     YES
 RMS     Displacement     0.000448     0.001200     YES
 Predicted change in Energy=-1.958624D-07
 Optimization completed.
    -- Stationary point found.
                           ----------------------------
                           !   Optimized Parameters   !
                           ! (Angstroms and Degrees)  !
 --------------------------                            --------------------------
 ! Name  Definition              Value          Derivative Info.                !
 --------------------------------------------------------------------------------
 ! R1    R(1,2)                  1.4245         -DE/DX =   -0.0002              !
 ! R2    R(1,12)                 0.96           -DE/DX =    0.0                 !
 ! R3    R(2,3)                  1.5275         -DE/DX =    0.0001              !
 ! R4    R(2,4)                  1.5275         -DE/DX =    0.0001              !
 ! R5    R(2,5)                  1.099          -DE/DX =    0.0                 !
 ! R6    R(3,6)                  1.0969         -DE/DX =    0.0                 !
 ! R7    R(3,7)                  1.0955         -DE/DX =    0.0                 !
 ! R8    R(3,8)                  1.1002         -DE/DX =    0.0                 !
 ! R9    R(4,9)                  1.0969         -DE/DX =    0.0                 !
 ! R10   R(4,10)                 1.0955         -DE/DX =    0.0                 !
 ! R11   R(4,11)                 1.1002         -DE/DX =    0.0                 !
 ! A1    A(2,1,12)             108.2864         -DE/DX =    0.0                 !
 ! A2    A(1,2,3)              111.1111         -DE/DX =    0.0                 !
 ! A3    A(1,2,4)              111.1111         -DE/DX =    0.0                 !
 ! A4    A(1,2,5)              104.2596         -DE/DX =    0.0                 !
 ! A5    A(3,2,4)              111.367          -DE/DX =   -0.0001              !
 ! A6    A(3,2,5)              109.3675         -DE/DX =    0.0                 !
 ! A7    A(4,2,5)              109.3677         -DE/DX =    0.0                 !
 ! A8    A(2,3,6)              111.0871         -DE/DX =    0.0                 !
 ! A9    A(2,3,7)              110.7147         -DE/DX =    0.0                 !
 ! A10   A(2,3,8)              110.2316         -DE/DX =    0.0                 !
 ! A11   A(6,3,7)              108.7811         -DE/DX =    0.0                 !
 ! A12   A(6,3,8)              107.6733         -DE/DX =    0.0                 !
 ! A13   A(7,3,8)              108.2533         -DE/DX =    0.0                 !
 ! A14   A(2,4,9)              111.0871         -DE/DX =    0.0                 !
 ! A15   A(2,4,10)             110.7145         -DE/DX =    0.0                 !
 ! A16   A(2,4,11)             110.2316         -DE/DX =    0.0                 !
 ! A17   A(9,4,10)             108.7811         -DE/DX =    0.0                 !
 ! A18   A(9,4,11)             107.6735         -DE/DX =    0.0                 !
 ! A19   A(10,4,11)            108.2532         -DE/DX =    0.0                 !
 ! D1    D(12,1,2,3)           -62.289          -DE/DX =    0.0                 !
 ! D2    D(12,1,2,4)            62.3022         -DE/DX =    0.0                 !
 ! D3    D(12,1,2,5)           180.0067         -DE/DX =    0.0                 !
 ! D4    D(1,2,3,6)           -175.4582         -DE/DX =    0.0                 !
 ! D5    D(1,2,3,7)            -54.4787         -DE/DX =    0.0                 !
 ! D6    D(1,2,3,8)             65.2741         -DE/DX =    0.0                 !
 ! D7    D(4,2,3,6)             60.0952         -DE/DX =    0.0                 !
 ! D8    D(4,2,3,7)           -178.9253         -DE/DX =    0.0                 !
 ! D9    D(4,2,3,8)            -59.1725         -DE/DX =    0.0                 !
 ! D10   D(5,2,3,6)            -60.9016         -DE/DX =    0.0                 !
 ! D11   D(5,2,3,7)             60.0779         -DE/DX =    0.0                 !
 ! D12   D(5,2,3,8)            179.8307         -DE/DX =    0.0                 !
 ! D13   D(1,2,4,9)            175.4572         -DE/DX =    0.0                 !
 ! D14   D(1,2,4,10)            54.4778         -DE/DX =    0.0                 !
 ! D15   D(1,2,4,11)           -65.2747         -DE/DX =    0.0                 !
 ! D16   D(3,2,4,9)            -60.0962         -DE/DX =    0.0                 !
 ! D17   D(3,2,4,10)           178.9244         -DE/DX =    0.0                 !
 ! D18   D(3,2,4,11)            59.1719         -DE/DX =    0.0                 !
 ! D19   D(5,2,4,9)             60.9005         -DE/DX =    0.0                 !
 ! D20   D(5,2,4,10)           -60.0789         -DE/DX =    0.0                 !
 ! D21   D(5,2,4,11)          -179.8314         -DE/DX =    0.0                 !
 --------------------------------------------------------------------------------
 GradGradGradGradGradGradGradGradGradGradGradGradGradGradGradGradGradGrad


 ----------------------------------------------------------------------

 Electric dipole moment (input orientation):
 (Debye = 10**-18 statcoulomb cm , SI units = C m)
                  (au)            (Debye)         (10**-30 SI)
   Tot        0.724685D+00      0.184197D+01      0.614414D+01
   x          0.116783D-03      0.296834D-03      0.990132D-03
   y         -0.627751D+00     -0.159558D+01     -0.532229D+01
   z         -0.362074D+00     -0.920300D+00     -0.306979D+01

 Dipole polarizability, Alpha (input orientation).
 (esu units = cm**3 , SI units = C**2 m**2 J**-1)
 Alpha(0;0):
               (au)            (10**-24 esu)      (10**-40 SI)
   iso        0.431717D+02      0.639738D+01      0.711805D+01
   aniso      0.354099D+01      0.524721D+00      0.583830D+00
   xx         0.449265D+02      0.665741D+01      0.740737D+01
   yx         0.342391D-03      0.507371D-04      0.564526D-04
   yy         0.434445D+02      0.643782D+01      0.716304D+01
   zx         0.356659D-03      0.528515D-04      0.588052D-04
   zy        -0.739635D+00     -0.109603D+00     -0.121949D+00
   zz         0.411441D+02      0.609692D+01      0.678374D+01

 ----------------------------------------------------------------------

 Dipole orientation:
     8         -0.00057672         -1.45662588         -2.18547523
     6          0.00007096          0.53056955         -0.36967078
     6         -2.38384206          0.45416003          1.25603944
     6          2.38426724          0.45303124          1.25557266
     1          0.00036594          2.26588779         -1.51046688
     1         -2.45569858          2.07123224          2.55079650
     1         -4.08015071          0.47439305          0.06964715
     1         -2.41437463         -1.27735933          2.40643988
     1          2.45716114          2.07008683          2.55029313
     1          4.08034749          0.47242929          0.06884146
     1          2.41419559         -1.27849083          2.40598363
     1         -0.00106320         -3.03874669         -1.29784893

 Electric dipole moment (dipole orientation):
 (Debye = 10**-18 statcoulomb cm , SI units = C m)
                  (au)            (Debye)         (10**-30 SI)
   Tot        0.724685D+00      0.184197D+01      0.614414D+01
   x          0.000000D+00      0.000000D+00      0.000000D+00
   y          0.000000D+00      0.000000D+00      0.000000D+00
   z          0.724685D+00      0.184197D+01      0.614414D+01

 Dipole polarizability, Alpha (dipole orientation).
 (esu units = cm**3 , SI units = C**2 m**2 J**-1)
 Alpha(0;0):
               (au)            (10**-24 esu)      (10**-40 SI)
   iso        0.431717D+02      0.639738D+01      0.711805D+01
   aniso      0.354099D+01      0.524721D+00      0.583830D+00
   xx         0.449265D+02      0.665741D+01      0.740737D+01
   yx        -0.321287D-03     -0.476098D-04     -0.529731D-04
   yy         0.423585D+02      0.627689D+01      0.698398D+01
   zx         0.868946D-04      0.128764D-04      0.143270D-04
   zy         0.136602D+01      0.202423D+00      0.225226D+00
   zz         0.422300D+02      0.625785D+01      0.696279D+01

 ----------------------------------------------------------------------
 1\1\GINC-PITOMBA\Freq\RM08HX\6-311++G(d,p)\C3H8O1\VALTER\07-Oct-2025\0
 \\#N Geom=AllCheck Guess=TCheck SCRF=Check GenChk RM08HX/6-311++G(d,p)
  Freq\\ISAL0057\\0,1\O,-0.0004198049,1.3869298071,-0.0898855973\C,-0.0
 000201093,0.0291763188,0.3409481197\C,-1.2613901319,-0.6959549744,-0.1
 241063549\C,1.2617846216,-0.6952076911,-0.1240937632\H,-0.0000467751,0
 .0933054698,1.4380256523\H,-1.2993842075,-1.7170092012,0.2748198765\H,
 -2.1591401641,-0.15755277,0.1986968487\H,-1.2773638731,-0.7654925842,-
 1.2219843983\H,1.3003891658,-1.7162336183,0.274846868\H,2.1592094676,-
 0.1562622676,0.1987055955\H,1.2778054216,-0.764746431,-1.221970679\H,-
 0.0005236107,1.3983479421,-1.049802168\\Version=ES64L-G16RevB.01\State
 =1-A\HF=-194.3616502\RMSD=2.514e-09\RMSF=7.166e-05\ZeroPoint=0.1082174
 \Thermal=0.1135949\Dipole=0.0001168,-0.6277508,-0.362074\DipoleDeriv=-
 0.6604978,0.000104,-0.000028,0.0001146,-0.9712489,0.14236,-0.0000447,0
 .226202,-0.3201794,0.5245305,-0.0001022,0.0000219,-0.0001066,0.8188552
 ,-0.0734609,0.0000454,-0.1538788,0.2975411,-0.1226206,-0.0977388,-0.03
 24332,-0.0506265,-0.037368,-0.0006367,-0.0441476,-0.0403572,0.081395,-
 0.1227156,0.0976897,0.032433,0.0505785,-0.0372728,-0.0006265,0.04417,-
 0.0403328,0.0813932,0.0011927,0.0000022,0.0000113,0.0000015,-0.0005358
 ,-0.0299517,-0.0000002,0.0013213,-0.1478811,0.0599192,0.0107711,-0.020
 1664,-0.0337482,-0.1102389,0.0570637,-0.0009987,0.0785169,0.0413238,-0
 .091559,0.0437912,0.0285312,0.0912221,0.0250972,-0.0357271,0.0439182,-
 0.0378261,0.0523297,0.0429532,-0.018399,0.0480155,-0.0147258,0.0611642
 ,0.0161209,-0.0208389,-0.0173853,-0.1518162,0.0599031,-0.0106688,0.020
 1325,0.0338505,-0.1102276,0.0570792,0.0009514,0.0785214,0.0413202,-0.0
 91476,-0.0438591,-0.0285108,-0.091291,0.0250169,-0.0357444,-0.0438961,
 -0.0378518,0.0523304,0.0429347,0.0183865,-0.0480238,0.0147162,0.061184
 1,0.0160859,0.0208504,-0.0173787,-0.1518158,0.3574355,0.0000231,0.0000
 168,0.0000147,0.2755743,-0.1125625,-0.0000093,-0.0395509,0.1240591\Pol
 ar=44.926451,0.0003424,43.4445445,0.0003567,-0.7396354,41.1440523\Quad
 rupole=0.0499413,-2.1074218,2.0574805,0.0004648,0.0006962,-1.7994008\P
 G=C01 [X(C3H8O1)]\NImag=0\\0.06770174,-0.00008302,0.35880257,0.0000788
 5,-0.05630630,0.63802292,-0.06485491,0.00003874,-0.00001997,0.48854604
 ,0.00004461,-0.20900294,0.05914022,0.00000693,0.46471428,-0.00000799,0
 .01016842,-0.10883113,-0.00000041,0.01177389,0.64064162,-0.00035990,-0
 .00986106,0.00019780,-0.16554230,-0.04350334,-0.03268312,0.51887378,-0
 .03868515,-0.04877671,-0.00580862,-0.03798455,-0.09385676,-0.01535016,
 -0.03749833,0.56721027,0.01143260,0.01395681,0.00492407,-0.03909943,-0
 .02334729,-0.09930279,-0.02690673,-0.01539895,0.55102492,-0.00038787,0
 .00989004,-0.00019463,-0.16559097,0.04346023,0.03269166,-0.03313526,0.
 01173291,0.00983020,0.51882818,0.03871293,-0.04874780,-0.00580797,0.03
 794222,-0.09380689,-0.01533144,-0.01175977,0.01170938,0.00401381,0.037
 47096,0.56725400,-0.01144122,0.01394973,0.00492521,0.03911226,-0.02332
 310,-0.09930230,-0.00983288,0.00400792,0.00420631,0.02691549,-0.015382
 98,0.55102735,0.00145992,0.00000355,-0.00001312,-0.05050986,-0.0000009
 8,0.00001074,-0.00143174,-0.00330896,-0.02875609,-0.00143447,0.0033085
 9,0.02876569,0.05708869,0.00000470,-0.01033533,0.04316051,-0.00000121,
 -0.04726015,-0.02947490,-0.00064150,-0.00034128,-0.01578637,0.00064107
 ,-0.00033887,-0.01576908,-0.00000293,0.06540310,-0.00000323,0.00781598
 ,-0.01460510,0.00000722,-0.01850915,-0.30142243,-0.00088347,-0.0021331
 9,-0.00890690,0.00088486,-0.00213277,-0.00890682,-0.00000612,0.0150861
 5,0.32915663,-0.00464486,-0.00644552,-0.00118899,0.00300254,-0.0218657
 2,0.01324086,-0.04757798,-0.00656754,0.00194942,0.00067174,0.00048473,
 0.00033951,0.00082349,0.00047046,-0.00043476,0.04796473,-0.00454453,-0
 .00258912,-0.00096196,0.00426555,-0.01258813,0.00719115,-0.00831928,-0
 .27557853,0.09099030,0.00072117,0.00012938,0.00016271,-0.00006106,0.00
 005990,-0.00061413,0.00956479,0.29887199,-0.00212792,-0.00267776,0.001
 16540,0.00139183,-0.00931577,0.00311067,0.00259006,0.09167141,-0.08168
 683,0.00019977,0.00019657,-0.00006205,0.00063348,0.00009525,0.00001867
 ,-0.00202831,-0.09936300,0.08457014,0.00356436,0.00043634,0.00010410,-
 0.02265210,0.01617740,0.00925014,-0.22367055,0.10810382,0.06592563,-0.
 00384595,-0.00434471,-0.00281803,0.00065201,0.00008656,-0.00039306,0.0
 0214141,-0.00200840,-0.00126316,0.24438683,0.00130800,0.00198260,-0.00
 001012,-0.01452973,0.00715363,0.00584833,0.11056465,-0.11331818,-0.040
 58138,-0.00244944,-0.00151835,-0.00078830,0.00083060,0.00046653,0.0002
 4762,0.02347470,-0.01253137,-0.01000603,-0.11782967,0.11842579,0.00057
 686,0.00082849,-0.00052960,-0.00976819,0.00646855,0.00299822,0.0665244
 3,-0.04068508,-0.07144634,-0.00148535,-0.00124366,-0.00021459,0.000137
 77,0.00069194,0.00028142,-0.01107114,0.00553097,0.00303388,-0.07038434
 ,0.04472352,0.07322644,0.00107781,0.00249158,0.00082225,-0.00152046,-0
 .00136651,-0.03091607,-0.04622560,-0.00038867,0.00004688,0.00196886,-0
 .00010709,-0.00123335,-0.00424461,-0.00280526,-0.00135354,-0.00143858,
 0.00031164,0.00107770,0.00082846,-0.00016741,0.02592059,0.04961439,0.0
 0116095,0.00170916,-0.00013689,-0.00085501,-0.00222223,-0.01746459,0.0
 0032939,-0.04672720,-0.01494613,0.00107403,-0.00021958,0.00042302,-0.0
 0271774,-0.00091999,-0.00085341,0.00013866,0.00310504,0.03004262,-0.00
 134002,-0.00130343,-0.01583462,0.00263082,0.04697746,0.00034680,-0.000
 68225,0.00282651,0.00006966,0.00074171,-0.01368825,-0.00036319,-0.0142
 7483,-0.30208855,0.00077744,-0.00000970,0.00080093,-0.00203867,-0.0010
 2781,0.00116899,0.00009069,-0.00188025,-0.01035765,-0.00097380,0.00046
 793,-0.00818607,0.00352320,0.01770917,0.32914350,-0.00465139,0.0064443
 3,0.00118957,0.00299203,0.02187457,-0.01324544,0.00067246,-0.00048441,
 -0.00033961,-0.04758697,0.00670394,-0.00200403,0.00082379,-0.00047001,
 0.00043516,-0.00110850,-0.00027210,0.00010141,0.00036654,-0.00017325,0
 .00018945,-0.00006297,-0.00001785,0.00003069,0.04797602,0.00454328,-0.
 00258280,-0.00096131,-0.00425649,-0.01257734,0.00718346,-0.00072079,0.
 00012862,0.00016247,0.00845565,-0.27556671,0.09099148,0.00006152,0.000
 05967,-0.00061389,0.00027103,0.00065084,-0.00004578,0.00001839,0.00021
 177,-0.00026850,0.00004217,-0.00001670,-0.00014268,-0.00971474,0.29885
 755,0.00212925,-0.00267639,0.00116565,-0.00138619,-0.00931625,0.003110
 60,-0.00019989,0.00019645,-0.00006207,-0.00264504,0.09167230,-0.081689
 80,-0.00063356,0.00009490,0.00001867,-0.00010141,-0.00004587,0.0003646
 5,-0.00012817,-0.00016066,-0.00010352,0.00002841,0.00017993,-0.0000111
 4,0.00208799,-0.09936463,0.08457305,0.00356524,-0.00043548,-0.00010409
 ,-0.02265116,-0.01619522,-0.00925362,-0.00385006,0.00434327,0.00281847
 ,-0.22353935,-0.10817120,-0.06590075,0.00065256,-0.00008642,0.00039289
 ,0.00036647,-0.00001828,0.00012827,-0.00151705,-0.00081880,-0.00058764
 ,0.00030619,0.00014389,0.00000367,0.00215427,0.00201725,0.00126914,0.2
 4424539,-0.00130698,0.00198157,-0.00001006,0.01451205,0.00715273,0.005
 84273,0.00244812,-0.00151435,-0.00078661,-0.11063224,-0.11345094,-0.04
 062104,-0.00083049,0.00046599,0.00024783,0.00017333,0.00021186,-0.0001
 6058,0.00081754,0.00063749,0.00007347,-0.00000957,-0.00015788,-0.00001
 443,-0.02346561,-0.01254436,-0.01000509,0.11790641,0.11856899,-0.00057
 737,0.00082817,-0.00052968,0.00976404,0.00647421,0.00299810,0.00148603
 ,-0.00124268,-0.00021451,-0.06649944,-0.04072503,-0.07144577,-0.000138
 19,0.00069183,0.00028142,-0.00018927,-0.00026862,-0.00010354,0.0005875
 6,0.00007380,0.00068358,0.00039506,0.00001177,0.00039775,0.01106814,0.
 00553788,0.00303393,0.07035682,0.04476581,0.07322593,0.00108017,-0.002
 49180,-0.00082255,-0.00152193,0.00136704,0.03092662,0.00196945,0.00010
 843,0.00123312,-0.04622554,0.00038908,-0.00003669,-0.00424798,0.002803
 30,0.00135403,-0.00006295,-0.00004221,-0.00002851,0.00030629,0.0000098
 4,-0.00039505,-0.00049077,0.00002641,-0.00082289,-0.00143831,-0.000314
 40,-0.00109568,0.00082765,0.00016833,-0.02591111,0.04961765,-0.0011616
 1,0.00170682,-0.00013689,0.00085546,-0.00222086,-0.01744633,-0.0010727
 6,-0.00022015,0.00042371,-0.00032898,-0.04672743,-0.01494850,0.0027158
 3,-0.00091668,-0.00085260,0.00001784,-0.00001672,0.00017992,-0.0001436
 1,-0.00015797,0.00001155,-0.00002688,0.00032478,0.00033337,-0.00014152
 ,0.00310514,0.03004173,0.00134134,-0.00130267,-0.01585034,-0.00262922,
 0.04697418,-0.00034621,-0.00068255,0.00282646,-0.00007009,0.00074154,-
 0.01368777,-0.00077747,-0.00001015,0.00080094,0.00037290,-0.01427715,-
 0.30208935,0.00203916,-0.00102655,0.00116902,-0.00003059,-0.00014270,-
 0.00001116,-0.00000366,-0.00001443,0.00039775,0.00082271,0.00033383,0.
 00045567,-0.00008954,-0.00188046,-0.01035776,0.00097356,0.00046845,-0.
 00818611,-0.00353501,0.01770978,0.32914397,-0.00355030,0.00001229,-0.0
 0004921,0.00030308,0.00000098,-0.00001338,0.00027770,0.00062917,0.0018
 6555,0.00027759,-0.00062968,-0.00186599,0.00036822,0.00000125,0.000000
 04,-0.00013750,0.00040272,-0.00067461,-0.00056026,-0.00021949,0.000342
 62,0.00018726,-0.00057354,-0.00064361,-0.00013695,-0.00040285,0.000675
 16,-0.00056016,0.00021912,-0.00034226,0.00018629,0.00057413,0.00064425
 ,0.00334504,0.00000683,-0.04414803,-0.03216061,0.00000605,-0.00548536,
 0.04705944,0.00003467,0.00128489,0.00129965,-0.00003540,0.00128381,0.0
 0129814,0.00000207,-0.00634287,0.00231156,0.00028325,0.00027486,-0.000
 61684,0.00002636,-0.00004852,-0.00029663,-0.00060483,-0.00054944,-0.00
 122024,-0.00028335,0.00027431,-0.00061644,-0.00002674,-0.00004841,-0.0
 0029682,0.00060520,-0.00054844,-0.00121961,-0.00001411,0.05405319,-0.0
 0006040,0.01547765,-0.53136072,-0.00000072,-0.00152856,-0.01662454,0.0
 0084845,-0.00097212,0.00275174,-0.00084786,-0.00097198,0.00275088,-0.0
 0000108,0.00326413,0.00174643,-0.00057602,-0.00059860,-0.00004218,0.00
 009679,0.00019973,-0.00014117,0.00086616,0.00053531,-0.00046168,0.0005
 7620,-0.00059804,-0.00004227,-0.00009672,0.00019951,-0.00014109,-0.000
 86626,0.00053460,-0.00046167,0.00006146,-0.01554161,0.54202627\\0.0000
 0070,0.00015925,-0.00011057,0.00000010,-0.00034736,0.00000899,0.000077
 89,0.00004847,0.00005802,-0.00007772,0.00004822,0.00005819,-0.00000035
 ,0.00001670,0.00002476,0.,0.00000694,-0.00001282,-0.00000272,0.0000119
 5,-0.00000226,-0.00000341,0.00001021,-0.00001496,0.00000007,0.00000698
 ,-0.00001276,0.00000258,0.00001191,-0.00000242,0.00000351,0.00001026,-
 0.00001504,-0.00000066,0.00001647,0.00002086\\\@


 BLACK HOLES SUCK.
 Job cpu time:       0 days  0 hours 16 minutes  4.9 seconds.
 Elapsed time:       0 days  0 hours  1 minutes  1.0 seconds.
 File lengths (MBytes):  RWF=     26 Int=      0 D2E=      0 Chk=      3 Scr=      1
 Normal termination of Gaussian 16 at Tue Oct  7 05:28:05 2025.
