 Entering Gaussian System, Link 0=g16
 Input=ITAC0058.gjf
 Output=ITAC0058.log
 Initial command:
 /usr/local/g16/l1.exe "/dados_01/scratch/Gau-2497532.inp" -scrdir="/dados_01/scratch/"
 Entering Link 1 = /usr/local/g16/l1.exe PID=   2497533.
  
 Copyright (c) 1988-2017, Gaussian, Inc.  All Rights Reserved.
  
 This is part of the Gaussian(R) 16 program.  It is based on
 the Gaussian(R) 09 system (copyright 2009, Gaussian, Inc.),
 the Gaussian(R) 03 system (copyright 2003, Gaussian, Inc.),
 the Gaussian(R) 98 system (copyright 1998, Gaussian, Inc.),
 the Gaussian(R) 94 system (copyright 1995, Gaussian, Inc.),
 the Gaussian 92(TM) system (copyright 1992, Gaussian, Inc.),
 the Gaussian 90(TM) system (copyright 1990, Gaussian, Inc.),
 the Gaussian 88(TM) system (copyright 1988, Gaussian, Inc.),
 the Gaussian 86(TM) system (copyright 1986, Carnegie Mellon
 University), and the Gaussian 82(TM) system (copyright 1983,
 Carnegie Mellon University). Gaussian is a federally registered
 trademark of Gaussian, Inc.
  
 This software contains proprietary and confidential information,
 including trade secrets, belonging to Gaussian, Inc.
  
 This software is provided under written license and may be
 used, copied, transmitted, or stored only in accord with that
 written license.
  
 The following legend is applicable only to US Government
 contracts under FAR:
  
                    RESTRICTED RIGHTS LEGEND
  
 Use, reproduction and disclosure by the US Government is
 subject to restrictions as set forth in subparagraphs (a)
 and (c) of the Commercial Computer Software - Restricted
 Rights clause in FAR 52.227-19.
  
 Gaussian, Inc.
 340 Quinnipiac St., Bldg. 40, Wallingford CT 06492
  
  
 ---------------------------------------------------------------
 Warning -- This program may not be used in any manner that
 competes with the business of Gaussian, Inc. or will provide
 assistance to any competitor of Gaussian, Inc.  The licensee
 of this program is prohibited from giving any competitor of
 Gaussian, Inc. access to this program.  By using this program,
 the user acknowledges that Gaussian, Inc. is engaged in the
 business of creating and licensing software in the field of
 computational chemistry and represents and warrants to the
 licensee that it is not a competitor of Gaussian, Inc. and that
 it will not use this program in any manner prohibited above.
 ---------------------------------------------------------------
  

 Cite this work as:
 Gaussian 16, Revision B.01,
 M. J. Frisch, G. W. Trucks, H. B. Schlegel, G. E. Scuseria, 
 M. A. Robb, J. R. Cheeseman, G. Scalmani, V. Barone, 
 G. A. Petersson, H. Nakatsuji, X. Li, M. Caricato, A. V. Marenich, 
 J. Bloino, B. G. Janesko, R. Gomperts, B. Mennucci, H. P. Hratchian, 
 J. V. Ortiz, A. F. Izmaylov, J. L. Sonnenberg, D. Williams-Young, 
 F. Ding, F. Lipparini, F. Egidi, J. Goings, B. Peng, A. Petrone, 
 T. Henderson, D. Ranasinghe, V. G. Zakrzewski, J. Gao, N. Rega, 
 G. Zheng, W. Liang, M. Hada, M. Ehara, K. Toyota, R. Fukuda, 
 J. Hasegawa, M. Ishida, T. Nakajima, Y. Honda, O. Kitao, H. Nakai, 
 T. Vreven, K. Throssell, J. A. Montgomery, Jr., J. E. Peralta, 
 F. Ogliaro, M. J. Bearpark, J. J. Heyd, E. N. Brothers, K. N. Kudin, 
 V. N. Staroverov, T. A. Keith, R. Kobayashi, J. Normand, 
 K. Raghavachari, A. P. Rendell, J. C. Burant, S. S. Iyengar, 
 J. Tomasi, M. Cossi, J. M. Millam, M. Klene, C. Adamo, R. Cammi, 
 J. W. Ochterski, R. L. Martin, K. Morokuma, O. Farkas, 
 J. B. Foresman, and D. J. Fox, Gaussian, Inc., Wallingford CT, 2016.
 
 ******************************************
 Gaussian 16:  ES64L-G16RevB.01 20-Dec-2017
                 7-Oct-2025 
 ******************************************
 %nprocs=16
 Will use up to   16 processors via shared memory.
 %mem=40GB
 %chk=ITAC0058.chk
 ----------------------------------------------------------------------
 # opt freq=noraman M08HX/6-311++G** scf=xqc Empiricaldispersion=pfd In
 t(Grid=ultraFine)
 ----------------------------------------------------------------------
 1/18=20,19=15,26=4,38=1/1,3;
 2/9=110,12=2,17=6,18=5,40=1/2;
 3/5=4,6=6,7=1111,11=2,25=1,30=1,71=1,74=-74,75=-5,124=11/1,2,3;
 4//1;
 5/5=2,8=3,13=1,38=5/2,8;
 6/7=2,8=2,9=2,10=2,28=1/1;
 7//1,2,3,16;
 1/18=20,19=15,26=4/3(2);
 2/9=110/2;
 99//99;
 2/9=110/2;
 3/5=4,6=6,7=1111,11=2,25=1,30=1,71=1,74=-74,75=-5,124=11/1,2,3;
 4/5=5,16=3,69=1/1;
 5/5=2,8=3,13=1,38=5/2,8;
 7//1,2,3,16;
 1/18=20,19=15,26=4/3(-5);
 2/9=110/2;
 6/7=2,8=2,9=2,10=2,19=2,28=1/1;
 99/9=1/99;
 --------
 ITAC0058
 --------
 Symbolic Z-matrix:
 Charge =  0 Multiplicity = 1
 O                    -2.946     0.3774   -0.3769 
 O                     1.1568    1.6569   -0.3326 
 O                    -1.5445    0.0245    1.38 
 O                     2.7039    0.2103    0.4842 
 C                    -0.7424   -0.2395   -0.916 
 C                     0.5935   -0.615    -0.3382 
 C                    -1.7483    0.0511    0.1755 
 C                     1.6067    0.422    -0.0094 
 C                     0.9201   -1.8878   -0.0664 
 H                    -0.6617    0.6287   -1.5779 
 H                    -1.1338   -1.0706   -1.5162 
 H                     0.2221   -2.6944   -0.2684 
 H                     1.8766   -2.17      0.3607 
 H                    -3.6199    0.5811    0.3061 
 H                     1.8142    2.3541   -0.1227 
 

 GradGradGradGradGradGradGradGradGradGradGradGradGradGradGradGradGradGrad
 Berny optimization.
 Initialization pass.
                           ----------------------------
                           !    Initial Parameters    !
                           ! (Angstroms and Degrees)  !
 --------------------------                            --------------------------
 ! Name  Definition              Value          Derivative Info.                !
 --------------------------------------------------------------------------------
 ! R1    R(1,7)                  1.3587         estimate D2E/DX2                !
 ! R2    R(1,14)                 0.9809         estimate D2E/DX2                !
 ! R3    R(2,8)                  1.3535         estimate D2E/DX2                !
 ! R4    R(2,15)                 0.981          estimate D2E/DX2                !
 ! R5    R(3,7)                  1.2219         estimate D2E/DX2                !
 ! R6    R(4,8)                  1.2216         estimate D2E/DX2                !
 ! R7    R(5,6)                  1.5032         estimate D2E/DX2                !
 ! R8    R(5,7)                  1.5125         estimate D2E/DX2                !
 ! R9    R(5,10)                 1.0947         estimate D2E/DX2                !
 ! R10   R(5,11)                 1.0973         estimate D2E/DX2                !
 ! R11   R(6,8)                  1.4866         estimate D2E/DX2                !
 ! R12   R(6,9)                  1.3419         estimate D2E/DX2                !
 ! R13   R(9,12)                 1.0856         estimate D2E/DX2                !
 ! R14   R(9,13)                 1.0849         estimate D2E/DX2                !
 ! A1    A(7,1,14)             111.8636         estimate D2E/DX2                !
 ! A2    A(8,2,15)             111.9999         estimate D2E/DX2                !
 ! A3    A(6,5,7)              111.2019         estimate D2E/DX2                !
 ! A4    A(6,5,10)             111.4087         estimate D2E/DX2                !
 ! A5    A(6,5,11)             109.7575         estimate D2E/DX2                !
 ! A6    A(7,5,10)             109.4501         estimate D2E/DX2                !
 ! A7    A(7,5,11)             107.6389         estimate D2E/DX2                !
 ! A8    A(10,5,11)            107.2324         estimate D2E/DX2                !
 ! A9    A(5,6,8)              121.0958         estimate D2E/DX2                !
 ! A10   A(5,6,9)              122.0816         estimate D2E/DX2                !
 ! A11   A(8,6,9)              116.8062         estimate D2E/DX2                !
 ! A12   A(1,7,3)              123.5744         estimate D2E/DX2                !
 ! A13   A(1,7,5)              109.8154         estimate D2E/DX2                !
 ! A14   A(3,7,5)              126.6029         estimate D2E/DX2                !
 ! A15   A(2,8,4)              123.5843         estimate D2E/DX2                !
 ! A16   A(2,8,6)              110.9213         estimate D2E/DX2                !
 ! A17   A(4,8,6)              125.4944         estimate D2E/DX2                !
 ! A18   A(6,9,12)             120.7013         estimate D2E/DX2                !
 ! A19   A(6,9,13)             122.7569         estimate D2E/DX2                !
 ! A20   A(12,9,13)            116.5417         estimate D2E/DX2                !
 ! D1    D(14,1,7,3)            -0.3498         estimate D2E/DX2                !
 ! D2    D(14,1,7,5)          -179.4222         estimate D2E/DX2                !
 ! D3    D(15,2,8,4)            -0.0495         estimate D2E/DX2                !
 ! D4    D(15,2,8,6)          -179.9487         estimate D2E/DX2                !
 ! D5    D(7,5,6,8)            -88.0511         estimate D2E/DX2                !
 ! D6    D(7,5,6,9)             90.4248         estimate D2E/DX2                !
 ! D7    D(10,5,6,8)            34.3417         estimate D2E/DX2                !
 ! D8    D(10,5,6,9)          -147.1823         estimate D2E/DX2                !
 ! D9    D(11,5,6,8)           152.9575         estimate D2E/DX2                !
 ! D10   D(11,5,6,9)           -28.5666         estimate D2E/DX2                !
 ! D11   D(6,5,7,1)           -179.5611         estimate D2E/DX2                !
 ! D12   D(6,5,7,3)              1.4016         estimate D2E/DX2                !
 ! D13   D(10,5,7,1)            56.9206         estimate D2E/DX2                !
 ! D14   D(10,5,7,3)          -122.1166         estimate D2E/DX2                !
 ! D15   D(11,5,7,1)           -59.3085         estimate D2E/DX2                !
 ! D16   D(11,5,7,3)           121.6542         estimate D2E/DX2                !
 ! D17   D(5,6,8,2)             -1.5412         estimate D2E/DX2                !
 ! D18   D(5,6,8,4)            178.562          estimate D2E/DX2                !
 ! D19   D(9,6,8,2)            179.9056         estimate D2E/DX2                !
 ! D20   D(9,6,8,4)              0.0088         estimate D2E/DX2                !
 ! D21   D(5,6,9,12)             0.6202         estimate D2E/DX2                !
 ! D22   D(5,6,9,13)          -179.3088         estimate D2E/DX2                !
 ! D23   D(8,6,9,12)           179.158          estimate D2E/DX2                !
 ! D24   D(8,6,9,13)            -0.771          estimate D2E/DX2                !
 --------------------------------------------------------------------------------
 Trust Radius=3.00D-01 FncErr=1.00D-07 GrdErr=1.00D-06 EigMax=2.50D+02 EigMin=1.00D-04
 Number of steps in this run=     68 maximum allowed number of steps=    100.
 GradGradGradGradGradGradGradGradGradGradGradGradGradGradGradGradGradGrad

                          Input orientation:                          
 ---------------------------------------------------------------------
 Center     Atomic      Atomic             Coordinates (Angstroms)
 Number     Number       Type             X           Y           Z
 ---------------------------------------------------------------------
      1          8           0       -2.946000    0.377400   -0.376900
      2          8           0        1.156800    1.656900   -0.332600
      3          8           0       -1.544500    0.024500    1.380000
      4          8           0        2.703900    0.210300    0.484200
      5          6           0       -0.742400   -0.239500   -0.916000
      6          6           0        0.593500   -0.615000   -0.338200
      7          6           0       -1.748300    0.051100    0.175500
      8          6           0        1.606700    0.422000   -0.009400
      9          6           0        0.920100   -1.887800   -0.066400
     10          1           0       -0.661700    0.628700   -1.577900
     11          1           0       -1.133800   -1.070600   -1.516200
     12          1           0        0.222100   -2.694400   -0.268400
     13          1           0        1.876600   -2.170000    0.360700
     14          1           0       -3.619900    0.581100    0.306100
     15          1           0        1.814200    2.354100   -0.122700
 ---------------------------------------------------------------------
                    Distance matrix (angstroms):
                    1          2          3          4          5
     1  O    0.000000
     2  O    4.297912   0.000000
     3  O    2.274959   3.590926   0.000000
     4  O    5.717586   2.270095   4.345789   0.000000
     5  C    2.350967   2.746570   2.446360   3.746981   0.000000
     6  C    3.676196   2.340698   2.816419   2.410653   1.503157
     7  C    1.358714   3.358030   1.221909   4.465728   1.512500
     8  C    4.567726   1.353457   3.466771   1.221600   2.603416
     9  C    4.491578   3.562553   3.438491   2.808403   2.490506
    10  H    2.592987   2.432059   3.145404   3.969204   1.094712
    11  H    2.584333   3.753267   3.123442   4.513341   1.097343
    12  H    4.414135   4.451022   3.637378   3.893972   2.715912
    13  H    5.503705   3.955242   4.190314   2.522995   3.495133
    14  H    0.980879   4.937828   2.402155   6.337165   3.232169
    15  H    5.160568   0.980979   4.354998   2.399119   3.727236
                    6          7          8          9         10
     6  C    0.000000
     7  C    2.488293   0.000000
     8  C    1.486625   3.380500   0.000000
     9  C    1.341850   3.307296   2.410362   0.000000
    10  H    2.158512   2.142133   2.765602   3.334591   0.000000
    11  H    2.139818   2.120771   3.465349   2.643528   1.764740
    12  H    2.113460   3.408415   3.419963   1.085639   3.679523
    13  H    2.133737   4.255289   2.632163   1.084870   4.246629
    14  H    4.427021   1.949575   5.238530   5.181296   3.507516
    15  H    3.217469   4.252545   1.946511   4.335470   3.350327
                   11         12         13         14         15
    11  H    0.000000
    12  H    2.456053   0.000000
    13  H    3.714020   1.846113   0.000000
    14  H    3.497082   5.081330   6.146791   0.000000
    15  H    4.728754   5.295598   4.550280   5.732089   0.000000
 Stoichiometry    C5H6O4
 Framework group  C1[X(C5H6O4)]
 Deg. of freedom    39
 Full point group                 C1      NOp   1
 Largest Abelian subgroup         C1      NOp   1
 Largest concise Abelian subgroup C1      NOp   1
                         Standard orientation:                         
 ---------------------------------------------------------------------
 Center     Atomic      Atomic             Coordinates (Angstroms)
 Number     Number       Type             X           Y           Z
 ---------------------------------------------------------------------
      1          8           0        2.906335   -0.370939   -0.335614
      2          8           0       -1.205223   -1.622503   -0.308611
      3          8           0        1.490690    0.021406    1.401468
      4          8           0       -2.750203   -0.151900    0.468368
      5          6           0        0.712135    0.251036   -0.906302
      6          6           0       -0.626610    0.645213   -0.347852
      7          6           0        1.705688   -0.027300    0.199608
      8          6           0       -1.649834   -0.379284   -0.010997
      9          6           0       -0.947189    1.924629   -0.101100
     10          1           0        0.631855   -0.627900   -1.553929
     11          1           0        1.114782    1.069073   -1.516919
     12          1           0       -0.241894    2.723022   -0.310238
     13          1           0       -1.905763    2.220430    0.311914
     14          1           0        3.572358   -0.567254    0.357204
     15          1           0       -1.869259   -2.311646   -0.093065
 ---------------------------------------------------------------------
 Rotational constants (GHZ):           2.9477971           1.0508360           0.9323650
 Standard basis: 6-311++G(d,p) (5D, 7F)
 There are   249 symmetry adapted cartesian basis functions of A   symmetry.
 There are   240 symmetry adapted basis functions of A   symmetry.
   240 basis functions,   378 primitive gaussians,   249 cartesian basis functions
    34 alpha electrons       34 beta electrons
       nuclear repulsion energy       441.4316869345 Hartrees.
 NAtoms=   15 NActive=   15 NUniq=   15 SFac= 1.00D+00 NAtFMM=   60 NAOKFM=F Big=F
 Integral buffers will be    131072 words long.
 Raffenetti 2 integral format.
 Two-electron integral symmetry is turned on.
 R6APFD:  NTU= -4 IXU= 1 FactS= 1.050
 Nuclear repulsion after empirical dispersion term =      441.4208266490 Hartrees.
 One-electron integrals computed using PRISM.
 NBasis=   240 RedAO= T EigKep=  9.22D-06  NBF=   240
 NBsUse=   240 1.00D-06 EigRej= -1.00D+00 NBFU=   240
 ExpMin= 3.60D-02 ExpMax= 8.59D+03 ExpMxC= 1.30D+03 IAcc=3 IRadAn=         5 AccDes= 0.00D+00
 Harris functional with IExCor= 1009 and IRadAn=       5 diagonalized for initial guess.
 HarFok:  IExCor= 1009 AccDes= 0.00D+00 IRadAn=         5 IDoV= 1 UseB2=F ITyADJ=14
 ICtDFT=  3500011 ScaDFX=  1.000000  1.000000  1.000000  1.000000
 FoFCou: FMM=F IPFlag=           0 FMFlag=      100000 FMFlg1=           0
         NFxFlg=           0 DoJE=T BraDBF=F KetDBF=T FulRan=T
         wScrn=  0.000000 ICntrl=       500 IOpCl=  0 I1Cent=   200000004 NGrid=           0
         NMat0=    1 NMatS0=      1 NMatT0=    0 NMatD0=    1 NMtDS0=    0 NMtDT0=    0
 Petite list used in FoFCou.
 Requested convergence on RMS density matrix=1.00D-08 within  32 cycles.
 Requested convergence on MAX density matrix=1.00D-06.
 Requested convergence on             energy=1.00D-06.
 No special actions if energy rises.
 SCF Done:  E(RM08HX) =  -495.030966227     A.U. after   14 cycles
            NFock= 14  Conv=0.63D-08     -V/T= 2.0042
 QCSCF skips out because SCF is already converged.

 **********************************************************************

            Population analysis using the SCF Density.

 **********************************************************************

 Orbital symmetries:
       Occupied  (A) (A) (A) (A) (A) (A) (A) (A) (A) (A) (A) (A)
                 (A) (A) (A) (A) (A) (A) (A) (A) (A) (A) (A) (A)
                 (A) (A) (A) (A) (A) (A) (A) (A) (A) (A)
       Virtual   (A) (A) (A) (A) (A) (A) (A) (A) (A) (A) (A) (A)
                 (A) (A) (A) (A) (A) (A) (A) (A) (A) (A) (A) (A)
                 (A) (A) (A) (A) (A) (A) (A) (A) (A) (A) (A) (A)
                 (A) (A) (A) (A) (A) (A) (A) (A) (A) (A) (A) (A)
                 (A) (A) (A) (A) (A) (A) (A) (A) (A) (A) (A) (A)
                 (A) (A) (A) (A) (A) (A) (A) (A) (A) (A) (A) (A)
                 (A) (A) (A) (A) (A) (A) (A) (A) (A) (A) (A) (A)
                 (A) (A) (A) (A) (A) (A) (A) (A) (A) (A) (A) (A)
                 (A) (A) (A) (A) (A) (A) (A) (A) (A) (A) (A) (A)
                 (A) (A) (A) (A) (A) (A) (A) (A) (A) (A) (A) (A)
                 (A) (A) (A) (A) (A) (A) (A) (A) (A) (A) (A) (A)
                 (A) (A) (A) (A) (A) (A) (A) (A) (A) (A) (A) (A)
                 (A) (A) (A) (A) (A) (A) (A) (A) (A) (A) (A) (A)
                 (A) (A) (A) (A) (A) (A) (A) (A) (A) (A) (A) (A)
                 (A) (A) (A) (A) (A) (A) (A) (A) (A) (A) (A) (A)
                 (A) (A) (A) (A) (A) (A) (A) (A) (A) (A) (A) (A)
                 (A) (A) (A) (A) (A) (A) (A) (A) (A) (A) (A) (A)
                 (A) (A)
 The electronic state is 1-A.
 Alpha  occ. eigenvalues --  -19.67146 -19.67111 -19.61743 -19.60846 -10.68948
 Alpha  occ. eigenvalues --  -10.68371 -10.57328 -10.56913 -10.55738  -1.24159
 Alpha  occ. eigenvalues --   -1.23946  -1.14594  -1.14170  -0.94994  -0.85157
 Alpha  occ. eigenvalues --   -0.78072  -0.72448  -0.65761  -0.59955  -0.59723
 Alpha  occ. eigenvalues --   -0.58967  -0.57379  -0.55468  -0.53918  -0.51268
 Alpha  occ. eigenvalues --   -0.50320  -0.48960  -0.47054  -0.44978  -0.41171
 Alpha  occ. eigenvalues --   -0.40737  -0.37509  -0.36909  -0.34836
 Alpha virt. eigenvalues --   -0.04047  -0.03481  -0.02301  -0.01538  -0.00017
 Alpha virt. eigenvalues --    0.00686   0.01856   0.02877   0.03388   0.03489
 Alpha virt. eigenvalues --    0.04273   0.05792   0.05891   0.07058   0.07758
 Alpha virt. eigenvalues --    0.08301   0.09221   0.09912   0.10487   0.11501
 Alpha virt. eigenvalues --    0.11996   0.12348   0.13197   0.13789   0.14301
 Alpha virt. eigenvalues --    0.14935   0.16688   0.17223   0.17639   0.18702
 Alpha virt. eigenvalues --    0.19717   0.20054   0.21722   0.22306   0.23176
 Alpha virt. eigenvalues --    0.24108   0.24855   0.25301   0.26546   0.27642
 Alpha virt. eigenvalues --    0.28513   0.28692   0.28939   0.30278   0.31040
 Alpha virt. eigenvalues --    0.31824   0.32543   0.34273   0.35231   0.36043
 Alpha virt. eigenvalues --    0.36921   0.38522   0.38797   0.39074   0.40217
 Alpha virt. eigenvalues --    0.41765   0.44425   0.49195   0.51307   0.52716
 Alpha virt. eigenvalues --    0.54126   0.55434   0.56335   0.58271   0.60317
 Alpha virt. eigenvalues --    0.60584   0.62362   0.63784   0.67702   0.68179
 Alpha virt. eigenvalues --    0.70241   0.70561   0.72076   0.73744   0.74984
 Alpha virt. eigenvalues --    0.77003   0.78316   0.79124   0.86517   0.88358
 Alpha virt. eigenvalues --    0.91310   0.92996   0.93201   0.97066   1.00746
 Alpha virt. eigenvalues --    1.06592   1.08506   1.09338   1.11608   1.13251
 Alpha virt. eigenvalues --    1.15155   1.18112   1.18968   1.20712   1.21652
 Alpha virt. eigenvalues --    1.22814   1.23457   1.24459   1.25870   1.28604
 Alpha virt. eigenvalues --    1.32316   1.34620   1.35826   1.45372   1.47774
 Alpha virt. eigenvalues --    1.48745   1.49263   1.50974   1.51749   1.53194
 Alpha virt. eigenvalues --    1.54889   1.57194   1.58706   1.60689   1.63871
 Alpha virt. eigenvalues --    1.66389   1.66754   1.70915   1.71418   1.73959
 Alpha virt. eigenvalues --    1.79217   1.82037   1.84273   1.87390   1.89626
 Alpha virt. eigenvalues --    1.91604   1.96522   1.99958   2.00917   2.02988
 Alpha virt. eigenvalues --    2.06829   2.09325   2.12546   2.15425   2.18922
 Alpha virt. eigenvalues --    2.25848   2.29819   2.37528   2.41692   2.43324
 Alpha virt. eigenvalues --    2.54174   2.55332   2.57597   2.57766   2.62481
 Alpha virt. eigenvalues --    2.64715   2.71046   2.72572   2.75069   2.77112
 Alpha virt. eigenvalues --    2.83640   2.87323   2.91860   2.94386   2.95467
 Alpha virt. eigenvalues --    2.97082   2.98567   3.02628   3.03923   3.08478
 Alpha virt. eigenvalues --    3.10720   3.12557   3.19409   3.22423   3.23936
 Alpha virt. eigenvalues --    3.25524   3.26474   3.35938   3.42500   3.42856
 Alpha virt. eigenvalues --    3.44148   3.61121   3.63886   3.69236   3.70654
 Alpha virt. eigenvalues --    3.77353   3.77556   3.83985   3.87691   3.91265
 Alpha virt. eigenvalues --    4.11755   4.14157   4.20435   4.35318   4.38849
 Alpha virt. eigenvalues --    5.07269   5.07819   5.14699   5.15992   5.28945
 Alpha virt. eigenvalues --    5.32081   5.45193   5.49782   5.67212   5.71733
 Alpha virt. eigenvalues --    5.93570   5.94297  23.75702  23.81581  23.86344
 Alpha virt. eigenvalues --   23.96008  24.25245  49.87117  49.88341  49.98807
 Alpha virt. eigenvalues --   50.03647
          Condensed to atoms (all electrons):
               1          2          3          4          5          6
     1  O    8.025709   0.002147  -0.125223  -0.000125  -0.374386   0.001359
     2  O    0.002147   8.097218   0.008136  -0.120358  -0.101485  -0.322267
     3  O   -0.125223   0.008136   7.899060  -0.002260  -0.193487   0.125131
     4  O   -0.000125  -0.120358  -0.002260   8.043166  -0.009348  -0.106550
     5  C   -0.374386  -0.101485  -0.193487  -0.009348  10.257432  -1.129572
     6  C    0.001359  -0.322267   0.125131  -0.106550  -1.129572   9.569546
     7  C    0.388003  -0.014847   0.544587  -0.012957  -0.759593  -0.032595
     8  C    0.004958   0.321468   0.018595   0.367950  -0.688870  -1.629846
     9  C   -0.033184   0.097004  -0.050155   0.131098  -1.067647  -1.246835
    10  H   -0.002378  -0.017579   0.000124   0.000298   0.535837  -0.072582
    11  H    0.005791   0.003653   0.004151   0.004486   0.484326  -0.125493
    12  H   -0.003138   0.001397   0.000195  -0.000836  -0.043647  -0.071259
    13  H    0.000644  -0.002162   0.001160  -0.002111   0.056070  -0.037612
    14  H    0.279556  -0.000028  -0.007921  -0.000066  -0.007858  -0.013863
    15  H    0.000177   0.247117   0.001107  -0.021309   0.005842  -0.100276
               7          8          9         10         11         12
     1  O    0.388003   0.004958  -0.033184  -0.002378   0.005791  -0.003138
     2  O   -0.014847   0.321468   0.097004  -0.017579   0.003653   0.001397
     3  O    0.544587   0.018595  -0.050155   0.000124   0.004151   0.000195
     4  O   -0.012957   0.367950   0.131098   0.000298   0.004486  -0.000836
     5  C   -0.759593  -0.688870  -1.067647   0.535837   0.484326  -0.043647
     6  C   -0.032595  -1.629846  -1.246835  -0.072582  -0.125493  -0.071259
     7  C    5.947131   0.122560  -0.030519  -0.068364  -0.051624  -0.015931
     8  C    0.122560   7.843440  -0.123659  -0.030309  -0.049400   0.093205
     9  C   -0.030519  -0.123659   8.343628  -0.035277   0.044141   0.392724
    10  H   -0.068364  -0.030309  -0.035277   0.401735  -0.024206   0.001128
    11  H   -0.051624  -0.049400   0.044141  -0.024206   0.424074  -0.017214
    12  H   -0.015931   0.093205   0.392724   0.001128  -0.017214   0.462192
    13  H    0.009842  -0.043496   0.359559  -0.000541   0.003612  -0.007281
    14  H    0.014729  -0.003177  -0.004602   0.002433   0.002066  -0.000924
    15  H    0.002144   0.124555  -0.027536  -0.002551  -0.002087   0.001578
              13         14         15
     1  O    0.000644   0.279556   0.000177
     2  O   -0.002162  -0.000028   0.247117
     3  O    0.001160  -0.007921   0.001107
     4  O   -0.002111  -0.000066  -0.021309
     5  C    0.056070  -0.007858   0.005842
     6  C   -0.037612  -0.013863  -0.100276
     7  C    0.009842   0.014729   0.002144
     8  C   -0.043496  -0.003177   0.124555
     9  C    0.359559  -0.004602  -0.027536
    10  H   -0.000541   0.002433  -0.002551
    11  H    0.003612   0.002066  -0.002087
    12  H   -0.007281  -0.000924   0.001578
    13  H    0.378786   0.000174  -0.001062
    14  H    0.000174   0.421537  -0.000031
    15  H   -0.001062  -0.000031   0.434707
 Mulliken charges:
               1
     1  O   -0.169911
     2  O   -0.199414
     3  O   -0.223202
     4  O   -0.271079
     5  C   -0.963613
     6  C    1.192715
     7  C   -0.042565
     8  C   -0.327974
     9  C   -0.748739
    10  H    0.312232
    11  H    0.293724
    12  H    0.207811
    13  H    0.284417
    14  H    0.317974
    15  H    0.337624
 Sum of Mulliken charges =  -0.00000
 Mulliken charges with hydrogens summed into heavy atoms:
               1
     1  O    0.148063
     2  O    0.138210
     3  O   -0.223202
     4  O   -0.271079
     5  C   -0.357657
     6  C    1.192715
     7  C   -0.042565
     8  C   -0.327974
     9  C   -0.256511
 Electronic spatial extent (au):  <R**2>=           1262.2239
 Charge=             -0.0000 electrons
 Dipole moment (field-independent basis, Debye):
    X=              2.1231    Y=             -0.3158    Z=             -2.2171  Tot=              3.0859
 Quadrupole moment (field-independent basis, Debye-Ang):
   XX=            -52.6986   YY=            -43.0472   ZZ=            -57.1035
   XY=              2.0903   XZ=              2.4350   YZ=             -1.3736
 Traceless Quadrupole moment (field-independent basis, Debye-Ang):
   XX=             -1.7488   YY=              7.9025   ZZ=             -6.1537
   XY=              2.0903   XZ=              2.4350   YZ=             -1.3736
 Octapole moment (field-independent basis, Debye-Ang**2):
  XXX=             64.8125  YYY=            -13.9783  ZZZ=             -4.3675  XYY=            -13.2392
  XXY=            -17.0181  XXZ=              6.3378  XZZ=             -2.5255  YZZ=             -3.9845
  YYZ=              2.5012  XYZ=             -4.8170
 Hexadecapole moment (field-independent basis, Debye-Ang**3):
 XXXX=           -958.6491 YYYY=           -285.2511 ZZZZ=           -196.1569 XXXY=            -13.4808
 XXXZ=             76.4255 YYYX=             36.3624 YYYZ=              0.1215 ZZZX=            -10.6714
 ZZZY=              2.5495 XXYY=           -186.0547 XXZZ=           -217.9657 YYZZ=            -92.7825
 XXYZ=             -4.3948 YYXZ=             -3.4755 ZZXY=              3.7559
 N-N= 4.414208266490D+02 E-N=-2.043887290071D+03  KE= 4.929528468781D+02
 R6APFD:  NTU= -4 IXU= 1 FactS= 1.050
 Calling FoFJK, ICntrl=      2127 FMM=F ISym2X=0 I1Cent= 0 IOpClX= 0 NMat=1 NMatS=1 NMatT=0.
 ***** Axes restored to original set *****
 -------------------------------------------------------------------
 Center     Atomic                   Forces (Hartrees/Bohr)
 Number     Number              X              Y              Z
 -------------------------------------------------------------------
      1        8          -0.002189937   -0.000204513    0.011124774
      2        8           0.008880253    0.007621012    0.002732419
      3        8          -0.006970159   -0.000266025   -0.041576045
      4        8          -0.030573872    0.008331481   -0.014671339
      5        6           0.004717994   -0.003644091    0.002477216
      6        6           0.005944899   -0.020270005    0.003386425
      7        6          -0.007792693    0.010330630    0.035037286
      8        6           0.028416596    0.006160322    0.013761531
      9        6          -0.004914962    0.009104382   -0.004222317
     10        1          -0.002720996    0.001360170    0.000431454
     11        1          -0.001007659    0.000592507   -0.000380099
     12        1          -0.002558288   -0.001258651   -0.001253839
     13        1           0.002563152    0.003911308    0.001425275
     14        1           0.016178853   -0.004686477   -0.007275685
     15        1          -0.007973181   -0.017082051   -0.000997055
 -------------------------------------------------------------------
 Cartesian Forces:  Max     0.041576045 RMS     0.012526718

 GradGradGradGradGradGradGradGradGradGradGradGradGradGradGradGradGradGrad
 Berny optimization.
 FormGI is forming the generalized inverse of G from B-inverse, IUseBI=4.
 Internal  Forces:  Max     0.042141227 RMS     0.008937120
 Search for a local minimum.
 Step number   1 out of a maximum of   68
 All quantities printed in internal units (Hartrees-Bohrs-Radians)
 Mixed Optimization -- RFO/linear search
 Second derivative matrix not updated -- first step.
 ITU=  0
     Eigenvalues ---    0.00601   0.00724   0.00943   0.00988   0.01376
     Eigenvalues ---    0.01384   0.02238   0.02307   0.02858   0.02858
     Eigenvalues ---    0.05063   0.06510   0.09774   0.13154   0.16000
     Eigenvalues ---    0.16000   0.16000   0.16000   0.21968   0.24994
     Eigenvalues ---    0.24994   0.24998   0.25000   0.25000   0.25000
     Eigenvalues ---    0.31101   0.32048   0.33822   0.33978   0.34274
     Eigenvalues ---    0.35322   0.35412   0.51195   0.51214   0.53208
     Eigenvalues ---    0.54292   0.56792   0.94542   0.94678
 RFO step:  Lambda=-9.00701625D-03 EMin= 6.00600119D-03
 Linear search not attempted -- first point.
 Iteration  1 RMS(Cart)=  0.08071328 RMS(Int)=  0.00220250
 Iteration  2 RMS(Cart)=  0.00282255 RMS(Int)=  0.00015262
 Iteration  3 RMS(Cart)=  0.00000421 RMS(Int)=  0.00015258
 Iteration  4 RMS(Cart)=  0.00000000 RMS(Int)=  0.00015258
 Variable       Old X    -DE/DX   Delta X   Delta X   Delta X     New X
                                 (Linear)    (Quad)   (Total)
    R1        2.56760  -0.01507   0.00000  -0.02785  -0.02785   2.53975
    R2        1.85359  -0.01716   0.00000  -0.03292  -0.03292   1.82067
    R3        2.55766  -0.00935   0.00000  -0.01694  -0.01694   2.54072
    R4        1.85378  -0.01770   0.00000  -0.03397  -0.03397   1.81981
    R5        2.30907  -0.04214   0.00000  -0.04415  -0.04415   2.26492
    R6        2.30849  -0.03483   0.00000  -0.03644  -0.03644   2.27205
    R7        2.84056   0.00074   0.00000   0.00225   0.00225   2.84281
    R8        2.85821  -0.00043   0.00000  -0.00136  -0.00136   2.85685
    R9        2.06871   0.00062   0.00000   0.00176   0.00176   2.07046
   R10        2.07368   0.00012   0.00000   0.00034   0.00034   2.07402
   R11        2.80931   0.00284   0.00000   0.00818   0.00818   2.81749
   R12        2.53573  -0.01317   0.00000  -0.02282  -0.02282   2.51291
   R13        2.05156   0.00281   0.00000   0.00777   0.00777   2.05933
   R14        2.05011   0.00180   0.00000   0.00497   0.00497   2.05507
    A1        1.95239  -0.01206   0.00000  -0.07137  -0.07137   1.88102
    A2        1.95477  -0.01213   0.00000  -0.07179  -0.07179   1.88297
    A3        1.94084   0.00049   0.00000   0.00208   0.00191   1.94275
    A4        1.94445   0.00195   0.00000   0.00847   0.00825   1.95270
    A5        1.91563   0.00071   0.00000   0.01789   0.01768   1.93331
    A6        1.91026  -0.00401   0.00000  -0.03977  -0.03977   1.87049
    A7        1.87865   0.00100   0.00000   0.01362   0.01347   1.89213
    A8        1.87156  -0.00020   0.00000  -0.00225  -0.00231   1.86925
    A9        2.11352  -0.00775   0.00000  -0.03004  -0.03010   2.08342
   A10        2.13073   0.00435   0.00000   0.01666   0.01659   2.14731
   A11        2.03865   0.00338   0.00000   0.01290   0.01282   2.05148
   A12        2.15678  -0.00158   0.00000  -0.00581  -0.00636   2.15042
   A13        1.91664   0.00403   0.00000   0.01586   0.01532   1.93196
   A14        2.20964  -0.00243   0.00000  -0.00913  -0.00967   2.19996
   A15        2.15695  -0.00383   0.00000  -0.01478  -0.01480   2.14216
   A16        1.93594   0.00212   0.00000   0.00819   0.00818   1.94412
   A17        2.19029   0.00171   0.00000   0.00660   0.00659   2.19688
   A18        2.10664   0.00129   0.00000   0.00760   0.00759   2.11422
   A19        2.14251  -0.00524   0.00000  -0.03102  -0.03103   2.11148
   A20        2.03404   0.00396   0.00000   0.02341   0.02339   2.05743
    D1       -0.00611   0.00056   0.00000   0.02934   0.02940   0.02329
    D2       -3.13151  -0.00052   0.00000  -0.02832  -0.02838   3.12330
    D3       -0.00086  -0.00040   0.00000  -0.01107  -0.01111  -0.01198
    D4       -3.14070  -0.00062   0.00000  -0.02058  -0.02054   3.12195
    D5       -1.53678   0.00329   0.00000   0.11191   0.11193  -1.42485
    D6        1.57821   0.00281   0.00000   0.08963   0.08978   1.66799
    D7        0.59938  -0.00014   0.00000   0.06821   0.06807   0.66745
    D8       -2.56882  -0.00062   0.00000   0.04593   0.04592  -2.52290
    D9        2.66961   0.00128   0.00000   0.08219   0.08212   2.75173
   D10       -0.49858   0.00081   0.00000   0.05991   0.05997  -0.43861
   D11       -3.13393   0.00001   0.00000   0.01679   0.01682  -3.11711
   D12        0.02446  -0.00113   0.00000  -0.04310  -0.04301  -0.01855
   D13        0.99345   0.00000   0.00000   0.03242   0.03228   1.02573
   D14       -2.13134  -0.00113   0.00000  -0.02747  -0.02756  -2.15889
   D15       -1.03513   0.00181   0.00000   0.04861   0.04865  -0.98648
   D16        2.12327   0.00068   0.00000  -0.01127  -0.01119   2.11208
   D17       -0.02690   0.00038   0.00000   0.02059   0.02071  -0.00619
   D18        3.11649   0.00016   0.00000   0.01088   0.01096   3.12745
   D19        3.13995   0.00081   0.00000   0.04164   0.04155  -3.10169
   D20        0.00015   0.00059   0.00000   0.03193   0.03180   0.03195
   D21        0.01082   0.00058   0.00000   0.01812   0.01831   0.02914
   D22       -3.12953   0.00093   0.00000   0.02751   0.02771  -3.10182
   D23        3.12690  -0.00004   0.00000  -0.00389  -0.00408   3.12281
   D24       -0.01346   0.00031   0.00000   0.00551   0.00531  -0.00814
         Item               Value     Threshold  Converged?
 Maximum Force            0.042141     0.000450     NO 
 RMS     Force            0.008937     0.000300     NO 
 Maximum Displacement     0.210818     0.001800     NO 
 RMS     Displacement     0.081249     0.001200     NO 
 Predicted change in Energy=-4.837928D-03
 GradGradGradGradGradGradGradGradGradGradGradGradGradGradGradGradGradGrad

                          Input orientation:                          
 ---------------------------------------------------------------------
 Center     Atomic      Atomic             Coordinates (Angstroms)
 Number     Number       Type             X           Y           Z
 ---------------------------------------------------------------------
      1          8           0       -2.918011    0.417770   -0.375831
      2          8           0        1.067562    1.638522   -0.280704
      3          8           0       -1.497873    0.126548    1.328782
      4          8           0        2.654965    0.256129    0.474740
      5          6           0       -0.743971   -0.282190   -0.933762
      6          6           0        0.593933   -0.655554   -0.356114
      7          6           0       -1.718851    0.116249    0.150830
      8          6           0        1.564387    0.420198   -0.004093
      9          6           0        0.943345   -1.910433   -0.088743
     10          1           0       -0.668002    0.562980   -1.626834
     11          1           0       -1.173744   -1.121933   -1.494726
     12          1           0        0.271750   -2.740765   -0.305683
     13          1           0        1.905742   -2.139394    0.362943
     14          1           0       -3.508340    0.648435    0.349813
     15          1           0        1.724408    2.292238   -0.018817
 ---------------------------------------------------------------------
                    Distance matrix (angstroms):
                    1          2          3          4          5
     1  O    0.000000
     2  O    4.169421   0.000000
     3  O    2.237701   3.384962   0.000000
     4  O    5.639828   2.236416   4.241726   0.000000
     5  C    2.351102   2.719792   2.419615   3.718391   0.000000
     6  C    3.672352   2.343672   2.797537   2.401944   1.504349
     7  C    1.343976   3.204315   1.198544   4.388023   1.511781
     8  C    4.497786   1.344493   3.352643   1.202315   2.585759
     9  C    4.518076   3.556313   3.481122   2.818004   2.492442
    10  H    2.578495   2.445616   3.100777   3.943714   1.095642
    11  H    2.581681   3.757315   3.104185   4.520715   1.097522
    12  H    4.489526   4.451079   3.744934   3.907703   2.733270
    13  H    5.509398   3.922943   4.201420   2.512442   3.485919
    14  H    0.963459   4.724056   2.296241   6.177041   3.186748
    15  H    5.019277   0.963004   4.109663   2.292439   3.682078
                    6          7          8          9         10
     6  C    0.000000
     7  C    2.490310   0.000000
     8  C    1.490954   3.300914   0.000000
     9  C    1.329773   3.354417   2.413442   0.000000
    10  H    2.166110   2.112803   2.763554   3.328653   0.000000
    11  H    2.153748   2.130279   3.478149   2.660937   1.764131
    12  H    2.110557   3.511898   3.428346   1.089749   3.680123
    13  H    2.107051   4.274411   2.608209   1.087498   4.229207
    14  H    4.362037   1.877522   5.090176   5.153410   3.461496
    15  H    3.175094   4.076731   1.878924   4.275207   3.361499
                   11         12         13         14         15
    11  H    0.000000
    12  H    2.474651   0.000000
    13  H    3.737566   1.865110   0.000000
    14  H    3.462205   5.119125   6.089700   0.000000
    15  H    4.715311   5.246297   4.451740   5.497238   0.000000
 Stoichiometry    C5H6O4
 Framework group  C1[X(C5H6O4)]
 Deg. of freedom    39
 Full point group                 C1      NOp   1
 Largest Abelian subgroup         C1      NOp   1
 Largest concise Abelian subgroup C1      NOp   1
                         Standard orientation:                         
 ---------------------------------------------------------------------
 Center     Atomic      Atomic             Coordinates (Angstroms)
 Number     Number       Type             X           Y           Z
 ---------------------------------------------------------------------
      1          8           0        2.884659   -0.292255   -0.328503
      2          8           0       -1.076297   -1.592646   -0.390872
      3          8           0        1.427744   -0.139561    1.363062
      4          8           0       -2.705167   -0.292851    0.420838
      5          6           0        0.707451    0.400728   -0.882780
      6          6           0       -0.648188    0.710128   -0.308688
      7          6           0        1.670113   -0.048568    0.192811
      8          6           0       -1.602843   -0.404585   -0.046023
      9          6           0       -1.027950    1.938081    0.032204
     10          1           0        0.661484   -0.398953   -1.630328
     11          1           0        1.130284    1.283194   -1.379793
     12          1           0       -0.369529    2.793445   -0.117415
     13          1           0       -2.002964    2.118772    0.478692
     14          1           0        3.466106   -0.558214    0.392218
     15          1           0       -1.724401   -2.274436   -0.184716
 ---------------------------------------------------------------------
 Rotational constants (GHZ):           2.9554743           1.0915017           0.9559618
 Standard basis: 6-311++G(d,p) (5D, 7F)
 There are   249 symmetry adapted cartesian basis functions of A   symmetry.
 There are   240 symmetry adapted basis functions of A   symmetry.
   240 basis functions,   378 primitive gaussians,   249 cartesian basis functions
    34 alpha electrons       34 beta electrons
       nuclear repulsion energy       445.8941281674 Hartrees.
 NAtoms=   15 NActive=   15 NUniq=   15 SFac= 1.00D+00 NAtFMM=   60 NAOKFM=F Big=F
 Integral buffers will be    131072 words long.
 Raffenetti 2 integral format.
 Two-electron integral symmetry is turned on.
 R6APFD:  NTU= -4 IXU= 1 FactS= 1.050
 Nuclear repulsion after empirical dispersion term =      445.8834269212 Hartrees.
 One-electron integrals computed using PRISM.
 NBasis=   240 RedAO= T EigKep=  9.04D-06  NBF=   240
 NBsUse=   240 1.00D-06 EigRej= -1.00D+00 NBFU=   240
 Initial guess from the checkpoint file:  "ITAC0058.chk"
 B after Tr=     0.000000    0.000000   -0.000000
         Rot=    0.998962   -0.043615    0.003800   -0.012581 Ang=  -5.22 deg.
 ExpMin= 3.60D-02 ExpMax= 8.59D+03 ExpMxC= 1.30D+03 IAcc=3 IRadAn=         5 AccDes= 0.00D+00
 Harris functional with IExCor= 1009 and IRadAn=       5 diagonalized for initial guess.
 HarFok:  IExCor= 1009 AccDes= 0.00D+00 IRadAn=         5 IDoV= 1 UseB2=F ITyADJ=14
 ICtDFT=  3500011 ScaDFX=  1.000000  1.000000  1.000000  1.000000
 FoFCou: FMM=F IPFlag=           0 FMFlag=      100000 FMFlg1=           0
         NFxFlg=           0 DoJE=T BraDBF=F KetDBF=T FulRan=T
         wScrn=  0.000000 ICntrl=       500 IOpCl=  0 I1Cent=   200000004 NGrid=           0
         NMat0=    1 NMatS0=      1 NMatT0=    0 NMatD0=    1 NMtDS0=    0 NMtDT0=    0
 Petite list used in FoFCou.
 Requested convergence on RMS density matrix=1.00D-08 within  32 cycles.
 Requested convergence on MAX density matrix=1.00D-06.
 Requested convergence on             energy=1.00D-06.
 No special actions if energy rises.
 SCF Done:  E(RM08HX) =  -495.035884250     A.U. after   13 cycles
            NFock= 13  Conv=0.88D-08     -V/T= 2.0035
 QCSCF skips out because SCF is already converged.
 R6APFD:  NTU= -4 IXU= 1 FactS= 1.050
 Calling FoFJK, ICntrl=      2127 FMM=F ISym2X=0 I1Cent= 0 IOpClX= 0 NMat=1 NMatS=1 NMatT=0.
 ***** Axes restored to original set *****
 -------------------------------------------------------------------
 Center     Atomic                   Forces (Hartrees/Bohr)
 Number     Number              X              Y              Z
 -------------------------------------------------------------------
      1        8          -0.000378033    0.001875933   -0.000970212
      2        8          -0.001817946    0.001984589   -0.001312610
      3        8           0.001259251    0.002375007   -0.000730984
      4        8          -0.002146542   -0.000394165   -0.001769735
      5        6           0.004107301    0.000703557   -0.001327348
      6        6          -0.000826304   -0.004666548   -0.000657707
      7        6          -0.001674176   -0.004350121    0.003104622
      8        6           0.002616092    0.000747314    0.004455773
      9        6          -0.000922610   -0.001865442   -0.001098623
     10        1           0.000196172   -0.000024014   -0.001578604
     11        1          -0.000703564    0.000377520    0.000881021
     12        1           0.000186807    0.000608045   -0.000117606
     13        1           0.000728554    0.001234167    0.000017731
     14        1          -0.001042480    0.000473823    0.000518857
     15        1           0.000417478    0.000920334    0.000585425
 -------------------------------------------------------------------
 Cartesian Forces:  Max     0.004666548 RMS     0.001793605

 GradGradGradGradGradGradGradGradGradGradGradGradGradGradGradGradGradGrad
 Berny optimization.
 Using GEDIIS/GDIIS optimizer.
 FormGI is forming the generalized inverse of G from B-inverse, IUseBI=4.
 Internal  Forces:  Max     0.004189836 RMS     0.001339424
 Search for a local minimum.
 Step number   2 out of a maximum of   68
 All quantities printed in internal units (Hartrees-Bohrs-Radians)
 Mixed Optimization -- RFO/linear search
 Update second derivatives using D2CorX and points    1    2
 DE= -4.92D-03 DEPred=-4.84D-03 R= 1.02D+00
 TightC=F SS=  1.41D+00  RLast= 2.72D-01 DXNew= 5.0454D-01 8.1620D-01
 Trust test= 1.02D+00 RLast= 2.72D-01 DXMaxT set to 5.05D-01
 ITU=  1  0
 Use linear search instead of GDIIS.
     Eigenvalues ---    0.00600   0.00659   0.00938   0.01085   0.01377
     Eigenvalues ---    0.01399   0.02238   0.02304   0.02858   0.02866
     Eigenvalues ---    0.05044   0.06456   0.09799   0.13168   0.15633
     Eigenvalues ---    0.16000   0.16000   0.16660   0.21998   0.23907
     Eigenvalues ---    0.24978   0.24986   0.24999   0.25000   0.25200
     Eigenvalues ---    0.31146   0.32072   0.33698   0.33979   0.34264
     Eigenvalues ---    0.35364   0.35403   0.51204   0.51755   0.53572
     Eigenvalues ---    0.55806   0.57422   0.92558   0.95189
 RFO step:  Lambda=-2.66287484D-03 EMin= 6.00337756D-03
 Quartic linear search produced a step of  0.06846.
 Iteration  1 RMS(Cart)=  0.16604551 RMS(Int)=  0.00814462
 Iteration  2 RMS(Cart)=  0.01145595 RMS(Int)=  0.00132109
 Iteration  3 RMS(Cart)=  0.00007310 RMS(Int)=  0.00132011
 Iteration  4 RMS(Cart)=  0.00000009 RMS(Int)=  0.00132011
 Variable       Old X    -DE/DX   Delta X   Delta X   Delta X     New X
                                 (Linear)    (Quad)   (Total)
    R1        2.53975   0.00197  -0.00191  -0.00135  -0.00326   2.53649
    R2        1.82067   0.00115  -0.00225  -0.00382  -0.00608   1.81460
    R3        2.54072   0.00330  -0.00116   0.00318   0.00202   2.54274
    R4        1.81981   0.00107  -0.00233  -0.00418  -0.00650   1.81331
    R5        2.26492  -0.00046  -0.00302  -0.00884  -0.01186   2.25306
    R6        2.27205  -0.00260  -0.00249  -0.00974  -0.01224   2.25981
    R7        2.84281  -0.00118   0.00015  -0.00341  -0.00326   2.83955
    R8        2.85685   0.00267  -0.00009   0.00868   0.00859   2.86544
    R9        2.07046   0.00099   0.00012   0.00334   0.00346   2.07393
   R10        2.07402  -0.00046   0.00002  -0.00136  -0.00133   2.07268
   R11        2.81749   0.00220   0.00056   0.00831   0.00887   2.82636
   R12        2.51291  -0.00022  -0.00156  -0.00468  -0.00625   2.50666
   R13        2.05933  -0.00055   0.00053  -0.00019   0.00034   2.05967
   R14        2.05507   0.00039   0.00034   0.00208   0.00242   2.05749
    A1        1.88102   0.00092  -0.00489  -0.00695  -0.01183   1.86918
    A2        1.88297   0.00044  -0.00491  -0.01010  -0.01501   1.86796
    A3        1.94275  -0.00142   0.00013  -0.00642  -0.00635   1.93640
    A4        1.95270   0.00032   0.00056   0.00035   0.00079   1.95349
    A5        1.93331   0.00083   0.00121   0.01136   0.01254   1.94585
    A6        1.87049   0.00009  -0.00272  -0.01099  -0.01375   1.85675
    A7        1.89213   0.00057   0.00092   0.00767   0.00859   1.90071
    A8        1.86925  -0.00036  -0.00016  -0.00225  -0.00240   1.86685
    A9        2.08342  -0.00419  -0.00206  -0.02318  -0.02531   2.05811
   A10        2.14731   0.00270   0.00114   0.01403   0.01507   2.16238
   A11        2.05148   0.00147   0.00088   0.00822   0.00900   2.06048
   A12        2.15042   0.00030  -0.00044   0.00274  -0.00354   2.14689
   A13        1.93196   0.00077   0.00105   0.00854   0.00382   1.93578
   A14        2.19996  -0.00098  -0.00066  -0.00352  -0.00991   2.19005
   A15        2.14216   0.00087  -0.00101   0.00092  -0.00013   2.14202
   A16        1.94412  -0.00011   0.00056   0.00109   0.00161   1.94574
   A17        2.19688  -0.00076   0.00045  -0.00189  -0.00148   2.19540
   A18        2.11422   0.00052   0.00052   0.00473   0.00524   2.11947
   A19        2.11148  -0.00166  -0.00212  -0.01631  -0.01844   2.09305
   A20        2.05743   0.00115   0.00160   0.01164   0.01324   2.07067
    D1        0.02329  -0.00106   0.00201  -0.09167  -0.08979  -0.06650
    D2        3.12330   0.00127  -0.00194   0.10093   0.09912  -3.06077
    D3       -0.01198  -0.00048  -0.00076  -0.02431  -0.02507  -0.03705
    D4        3.12195  -0.00021  -0.00141  -0.00798  -0.00938   3.11257
    D5       -1.42485   0.00191   0.00766   0.17550   0.18312  -1.24173
    D6        1.66799   0.00160   0.00615   0.15262   0.15883   1.82682
    D7        0.66745   0.00126   0.00466   0.15732   0.16191   0.82936
    D8       -2.52290   0.00096   0.00314   0.13444   0.13763  -2.38527
    D9        2.75173   0.00157   0.00562   0.16238   0.16795   2.91968
   D10       -0.43861   0.00127   0.00411   0.13950   0.14366  -0.29495
   D11       -3.11711  -0.00146   0.00115  -0.09931  -0.09781   3.06826
   D12       -0.01855   0.00099  -0.00294   0.10019   0.09698   0.07843
   D13        1.02573  -0.00104   0.00221  -0.08853  -0.08607   0.93967
   D14       -2.15889   0.00141  -0.00189   0.11098   0.10872  -2.05017
   D15       -0.98648  -0.00095   0.00333  -0.08408  -0.08042  -1.06690
   D16        2.11208   0.00150  -0.00077   0.11542   0.11436   2.22644
   D17       -0.00619   0.00010   0.00142   0.01408   0.01562   0.00943
   D18        3.12745   0.00039   0.00075   0.03104   0.03191  -3.12383
   D19       -3.10169   0.00035   0.00284   0.03549   0.03822  -3.06347
   D20        0.03195   0.00063   0.00218   0.05245   0.05450   0.08646
   D21        0.02914   0.00033   0.00125   0.01632   0.01776   0.04689
   D22       -3.10182   0.00007   0.00190   0.00869   0.01078  -3.09104
   D23        3.12281  -0.00012  -0.00028  -0.00700  -0.00746   3.11535
   D24       -0.00814  -0.00038   0.00036  -0.01462  -0.01444  -0.02258
         Item               Value     Threshold  Converged?
 Maximum Force            0.004190     0.000450     NO 
 RMS     Force            0.001339     0.000300     NO 
 Maximum Displacement     0.503763     0.001800     NO 
 RMS     Displacement     0.167498     0.001200     NO 
 Predicted change in Energy=-1.694666D-03
 GradGradGradGradGradGradGradGradGradGradGradGradGradGradGradGradGradGrad

                          Input orientation:                          
 ---------------------------------------------------------------------
 Center     Atomic      Atomic             Coordinates (Angstroms)
 Number     Number       Type             X           Y           Z
 ---------------------------------------------------------------------
      1          8           0       -2.856451    0.526558   -0.375247
      2          8           0        0.888203    1.598770   -0.162304
      3          8           0       -1.369588    0.347106    1.275127
      4          8           0        2.586029    0.301812    0.482508
      5          6           0       -0.758178   -0.385323   -0.940535
      6          6           0        0.593928   -0.722483   -0.378384
      7          6           0       -1.679894    0.140389    0.142660
      8          6           0        1.481599    0.407568    0.036327
      9          6           0        1.014259   -1.960527   -0.154592
     10          1           0       -0.699921    0.399663   -1.705292
     11          1           0       -1.226013   -1.257857   -1.412572
     12          1           0        0.401499   -2.824231   -0.412436
     13          1           0        1.989492   -2.129314    0.299134
     14          1           0       -3.365869    0.915015    0.340059
     15          1           0        1.498203    2.271655    0.147347
 ---------------------------------------------------------------------
                    Distance matrix (angstroms):
                    1          2          3          4          5
     1  O    0.000000
     2  O    3.900950   0.000000
     3  O    2.228609   2.954740   0.000000
     4  O    5.514240   2.231703   4.034501   0.000000
     5  C    2.356656   2.693109   2.412350   3.698774   0.000000
     6  C    3.669500   2.349787   2.780920   2.399746   1.502625
     7  C    1.342252   2.969006   1.192268   4.282482   1.516326
     8  C    4.359155   1.345561   3.109268   1.195838   2.568956
     9  C    4.606156   3.561537   3.612754   2.827461   2.498101
    10  H    2.536876   2.518096   3.055178   3.948863   1.097475
    11  H    2.630305   3.767412   3.133728   4.533825   1.096816
    12  H    4.673693   4.456723   4.005246   3.917300   2.751729
    13  H    5.567010   3.914635   4.285864   2.509951   3.482524
    14  H    0.960244   4.337858   2.276403   5.985098   3.182900
    15  H    4.720327   0.959562   3.633180   2.275078   3.651613
                    6          7          8          9         10
     6  C    0.000000
     7  C    2.487228   0.000000
     8  C    1.495647   3.174544   0.000000
     9  C    1.326467   3.429383   2.421308   0.000000
    10  H    2.166551   2.107723   2.791475   3.303572   0.000000
    11  H    2.160638   2.140057   3.493439   2.663660   1.763472
    12  H    2.110814   3.664601   3.436936   1.089928   3.643913
    13  H    2.094231   4.317456   2.600537   1.088777   4.200761
    14  H    4.344831   1.865884   4.883411   5.262979   3.399459
    15  H    3.171588   3.826568   1.867464   4.270449   3.430507
                   11         12         13         14         15
    11  H    0.000000
    12  H    2.470344   0.000000
    13  H    3.745511   1.873756   0.000000
    14  H    3.517395   5.361089   6.160317   0.000000
    15  H    4.723575   5.242535   4.430906   5.053396   0.000000
 Stoichiometry    C5H6O4
 Framework group  C1[X(C5H6O4)]
 Deg. of freedom    39
 Full point group                 C1      NOp   1
 Largest Abelian subgroup         C1      NOp   1
 Largest concise Abelian subgroup C1      NOp   1
                         Standard orientation:                         
 ---------------------------------------------------------------------
 Center     Atomic      Atomic             Coordinates (Angstroms)
 Number     Number       Type             X           Y           Z
 ---------------------------------------------------------------------
      1          8           0        2.845945   -0.140512   -0.305835
      2          8           0       -0.789412   -1.540234   -0.511676
      3          8           0        1.294766   -0.434496    1.267097
      4          8           0       -2.619702   -0.552365    0.297431
      5          6           0        0.692779    0.692339   -0.779190
      6          6           0       -0.702541    0.791034   -0.230353
      7          6           0        1.622306    0.029753    0.218911
      8          6           0       -1.495986   -0.470417   -0.103289
      9          6           0       -1.242017    1.915571    0.221196
     10          1           0        0.732358    0.082809   -1.690978
     11          1           0        1.093957    1.680082   -1.036917
     12          1           0       -0.702928    2.861880    0.178465
     13          1           0       -2.243193    1.904167    0.648925
     14          1           0        3.364788   -0.626525    0.339658
     15          1           0       -1.345005   -2.311244   -0.378937
 ---------------------------------------------------------------------
 Rotational constants (GHZ):           2.9187129           1.1699611           0.9873417
 Standard basis: 6-311++G(d,p) (5D, 7F)
 There are   249 symmetry adapted cartesian basis functions of A   symmetry.
 There are   240 symmetry adapted basis functions of A   symmetry.
   240 basis functions,   378 primitive gaussians,   249 cartesian basis functions
    34 alpha electrons       34 beta electrons
       nuclear repulsion energy       450.3778656118 Hartrees.
 NAtoms=   15 NActive=   15 NUniq=   15 SFac= 1.00D+00 NAtFMM=   60 NAOKFM=F Big=F
 Integral buffers will be    131072 words long.
 Raffenetti 2 integral format.
 Two-electron integral symmetry is turned on.
 R6APFD:  NTU= -4 IXU= 1 FactS= 1.050
 Nuclear repulsion after empirical dispersion term =      450.3667028756 Hartrees.
 One-electron integrals computed using PRISM.
 NBasis=   240 RedAO= T EigKep=  9.32D-06  NBF=   240
 NBsUse=   240 1.00D-06 EigRej= -1.00D+00 NBFU=   240
 Initial guess from the checkpoint file:  "ITAC0058.chk"
 B after Tr=    -0.000000   -0.000000   -0.000000
         Rot=    0.996632   -0.074823    0.010901   -0.031746 Ang=  -9.41 deg.
 ExpMin= 3.60D-02 ExpMax= 8.59D+03 ExpMxC= 1.30D+03 IAcc=3 IRadAn=         5 AccDes= 0.00D+00
 Harris functional with IExCor= 1009 and IRadAn=       5 diagonalized for initial guess.
 HarFok:  IExCor= 1009 AccDes= 0.00D+00 IRadAn=         5 IDoV= 1 UseB2=F ITyADJ=14
 ICtDFT=  3500011 ScaDFX=  1.000000  1.000000  1.000000  1.000000
 FoFCou: FMM=F IPFlag=           0 FMFlag=      100000 FMFlg1=           0
         NFxFlg=           0 DoJE=T BraDBF=F KetDBF=T FulRan=T
         wScrn=  0.000000 ICntrl=       500 IOpCl=  0 I1Cent=   200000004 NGrid=           0
         NMat0=    1 NMatS0=      1 NMatT0=    0 NMatD0=    1 NMtDS0=    0 NMtDT0=    0
 Petite list used in FoFCou.
 Requested convergence on RMS density matrix=1.00D-08 within  32 cycles.
 Requested convergence on MAX density matrix=1.00D-06.
 Requested convergence on             energy=1.00D-06.
 No special actions if energy rises.
 SCF Done:  E(RM08HX) =  -495.035824619     A.U. after   13 cycles
            NFock= 13  Conv=0.82D-08     -V/T= 2.0034
 QCSCF skips out because SCF is already converged.
 R6APFD:  NTU= -4 IXU= 1 FactS= 1.050
 Calling FoFJK, ICntrl=      2127 FMM=F ISym2X=0 I1Cent= 0 IOpClX= 0 NMat=1 NMatS=1 NMatT=0.
 ***** Axes restored to original set *****
 -------------------------------------------------------------------
 Center     Atomic                   Forces (Hartrees/Bohr)
 Number     Number              X              Y              Z
 -------------------------------------------------------------------
      1        8          -0.003196608   -0.006292280   -0.002615303
      2        8          -0.001757477   -0.001546827   -0.002588428
      3        8           0.000282873   -0.006263724    0.012968148
      4        8           0.007333671   -0.001955904    0.003496976
      5        6          -0.001415262   -0.005836920   -0.000299741
      6        6          -0.003941300    0.001101448    0.000469303
      7        6           0.007691899    0.017124664   -0.012060573
      8        6          -0.006083124    0.000360261   -0.002013458
      9        6           0.001967923   -0.003120250   -0.000700081
     10        1          -0.000088320   -0.000096424   -0.000143961
     11        1           0.000677389   -0.000602440   -0.000040535
     12        1           0.000630991    0.000789160    0.000300437
     13        1          -0.000106365   -0.000292721   -0.000414347
     14        1          -0.003696906    0.002117894    0.002416704
     15        1           0.001700616    0.004514064    0.001224859
 -------------------------------------------------------------------
 Cartesian Forces:  Max     0.017124664 RMS     0.004722178

 GradGradGradGradGradGradGradGradGradGradGradGradGradGradGradGradGradGrad
 Berny optimization.
 Using GEDIIS/GDIIS optimizer.
 FormGI is forming the generalized inverse of G from B-inverse, IUseBI=4.
 Internal  Forces:  Max     0.011305250 RMS     0.002786530
 Search for a local minimum.
 Step number   3 out of a maximum of   68
 All quantities printed in internal units (Hartrees-Bohrs-Radians)
 Mixed Optimization -- RFO/linear search
 Update second derivatives using D2CorX and points    1    3    2
 DE=  5.96D-05 DEPred=-1.69D-03 R=-3.52D-02
 Trust test=-3.52D-02 RLast= 4.88D-01 DXMaxT set to 2.52D-01
 ITU= -1  1  0
 Use linear search instead of GDIIS.
     Eigenvalues ---    0.00502   0.00601   0.00954   0.01372   0.01420
     Eigenvalues ---    0.02237   0.02297   0.02856   0.02863   0.04534
     Eigenvalues ---    0.05042   0.06451   0.09766   0.13154   0.15561
     Eigenvalues ---    0.16000   0.16003   0.16734   0.21819   0.23190
     Eigenvalues ---    0.24823   0.24963   0.24998   0.25030   0.25132
     Eigenvalues ---    0.30891   0.32035   0.33561   0.33983   0.34261
     Eigenvalues ---    0.35346   0.35407   0.51204   0.51896   0.53716
     Eigenvalues ---    0.55065   0.57362   0.94210   0.97276
 RFO step:  Lambda=-1.97885890D-03 EMin= 5.01782525D-03
 Quartic linear search produced a step of -0.47961.
 Iteration  1 RMS(Cart)=  0.05450347 RMS(Int)=  0.00202315
 Iteration  2 RMS(Cart)=  0.00259459 RMS(Int)=  0.00053964
 Iteration  3 RMS(Cart)=  0.00000440 RMS(Int)=  0.00053964
 Iteration  4 RMS(Cart)=  0.00000000 RMS(Int)=  0.00053964
 Variable       Old X    -DE/DX   Delta X   Delta X   Delta X     New X
                                 (Linear)    (Quad)   (Total)
    R1        2.53649   0.00492   0.00156   0.00609   0.00766   2.54414
    R2        1.81460   0.00462   0.00291   0.00409   0.00700   1.82160
    R3        2.54274   0.00285  -0.00097   0.00749   0.00652   2.54926
    R4        1.81331   0.00464   0.00312   0.00387   0.00699   1.82030
    R5        2.25306   0.01131   0.00569   0.00182   0.00751   2.26057
    R6        2.25981   0.00825   0.00587  -0.00147   0.00440   2.26421
    R7        2.83955  -0.00028   0.00156  -0.00404  -0.00247   2.83707
    R8        2.86544   0.00217  -0.00412   0.01206   0.00794   2.87338
    R9        2.07393   0.00003  -0.00166   0.00316   0.00150   2.07542
   R10        2.07268   0.00021   0.00064  -0.00109  -0.00045   2.07223
   R11        2.82636   0.00178  -0.00425   0.00986   0.00560   2.83197
   R12        2.50666   0.00310   0.00300   0.00045   0.00345   2.51011
   R13        2.05967  -0.00105  -0.00016  -0.00244  -0.00261   2.05706
   R14        2.05749  -0.00022  -0.00116   0.00122   0.00007   2.05756
    A1        1.86918   0.00296   0.00567   0.00922   0.01490   1.88408
    A2        1.86796   0.00324   0.00720   0.00694   0.01414   1.88211
    A3        1.93640   0.00007   0.00305  -0.00636  -0.00329   1.93311
    A4        1.95349   0.00004  -0.00038  -0.00102  -0.00135   1.95214
    A5        1.94585  -0.00067  -0.00601   0.00721   0.00121   1.94706
    A6        1.85675  -0.00009   0.00659  -0.00734  -0.00074   1.85601
    A7        1.90071   0.00062  -0.00412   0.00920   0.00508   1.90580
    A8        1.86685   0.00007   0.00115  -0.00188  -0.00073   1.86612
    A9        2.05811   0.00041   0.01214  -0.01894  -0.00677   2.05134
   A10        2.16238   0.00065  -0.00723   0.01351   0.00633   2.16871
   A11        2.06048  -0.00103  -0.00432   0.00493   0.00065   2.06113
   A12        2.14689   0.00064   0.00170   0.00585   0.00519   2.15208
   A13        1.93578  -0.00039  -0.00183   0.00697   0.00279   1.93857
   A14        2.19005   0.00085   0.00475  -0.00039   0.00203   2.19208
   A15        2.14202   0.00127   0.00006   0.00476   0.00469   2.14671
   A16        1.94574   0.00018  -0.00077   0.00042  -0.00049   1.94525
   A17        2.19540  -0.00145   0.00071  -0.00547  -0.00489   2.19051
   A18        2.11947  -0.00012  -0.00251   0.00356   0.00104   2.12050
   A19        2.09305   0.00039   0.00884  -0.01188  -0.00304   2.09000
   A20        2.07067  -0.00027  -0.00635   0.00836   0.00200   2.07267
    D1       -0.06650   0.00386   0.04307   0.04754   0.09090   0.02440
    D2       -3.06077  -0.00393  -0.04754  -0.03933  -0.08716   3.13526
    D3       -0.03705  -0.00050   0.01203  -0.03829  -0.02633  -0.06338
    D4        3.11257   0.00016   0.00450  -0.00009   0.00447   3.11704
    D5       -1.24173  -0.00004  -0.08783   0.19651   0.10871  -1.13302
    D6        1.82682   0.00046  -0.07618   0.18858   0.11237   1.93920
    D7        0.82936  -0.00008  -0.07766   0.18233   0.10471   0.93407
    D8       -2.38527   0.00042  -0.06601   0.17440   0.10837  -2.27690
    D9        2.91968  -0.00043  -0.08055   0.18421   0.10368   3.02336
   D10       -0.29495   0.00007  -0.06890   0.17627   0.10735  -0.18760
   D11        3.06826   0.00394   0.04691   0.03758   0.08436  -3.13056
   D12        0.07843  -0.00406  -0.04651  -0.05257  -0.09898  -0.02056
   D13        0.93967   0.00390   0.04128   0.04720   0.08839   1.02806
   D14       -2.05017  -0.00409  -0.05214  -0.04295  -0.09495  -2.14512
   D15       -1.06690   0.00357   0.03857   0.04871   0.08716  -0.97975
   D16        2.22644  -0.00442  -0.05485  -0.04144  -0.09618   2.13026
   D17        0.00943  -0.00115  -0.00749  -0.03115  -0.03866  -0.02923
   D18       -3.12383  -0.00047  -0.01530   0.00841  -0.00699  -3.13081
   D19       -3.06347  -0.00168  -0.01833  -0.02413  -0.04237  -3.10583
   D20        0.08646  -0.00101  -0.02614   0.01543  -0.01069   0.07577
   D21        0.04689  -0.00030  -0.00852   0.00836  -0.00025   0.04664
   D22       -3.09104  -0.00058  -0.00517  -0.00457  -0.00983  -3.10087
   D23        3.11535   0.00025   0.00358  -0.00052   0.00315   3.11850
   D24       -0.02258  -0.00002   0.00693  -0.01345  -0.00643  -0.02901
         Item               Value     Threshold  Converged?
 Maximum Force            0.011305     0.000450     NO 
 RMS     Force            0.002787     0.000300     NO 
 Maximum Displacement     0.177624     0.001800     NO 
 RMS     Displacement     0.054398     0.001200     NO 
 Predicted change in Energy=-1.816136D-03
 GradGradGradGradGradGradGradGradGradGradGradGradGradGradGradGradGradGrad

                          Input orientation:                          
 ---------------------------------------------------------------------
 Center     Atomic      Atomic             Coordinates (Angstroms)
 Number     Number       Type             X           Y           Z
 ---------------------------------------------------------------------
      1          8           0       -2.859430    0.528231   -0.367693
      2          8           0        0.867464    1.590670   -0.150138
      3          8           0       -1.330951    0.424506    1.264838
      4          8           0        2.563064    0.293800    0.527368
      5          6           0       -0.758868   -0.397979   -0.938967
      6          6           0        0.591761   -0.736720   -0.377715
      7          6           0       -1.641625    0.234383    0.125397
      8          6           0        1.460725    0.399251    0.069842
      9          6           0        1.031803   -1.974920   -0.183853
     10          1           0       -0.690292    0.331613   -1.757003
     11          1           0       -1.261056   -1.284874   -1.343577
     12          1           0        0.436729   -2.840977   -0.468056
     13          1           0        2.011071   -2.136363    0.263898
     14          1           0       -3.380972    0.919386    0.342370
     15          1           0        1.457878    2.278793    0.175089
 ---------------------------------------------------------------------
                    Distance matrix (angstroms):
                    1          2          3          4          5
     1  O    0.000000
     2  O    3.881475   0.000000
     3  O    2.238786   2.862714   0.000000
     4  O    5.500866   2.239631   3.965388   0.000000
     5  C    2.365708   2.687366   2.420850   3.696476   0.000000
     6  C    3.675720   2.354686   2.782669   2.401496   1.501315
     7  C    1.346303   2.865478   1.196240   4.224278   1.520530
     8  C    4.344170   1.349011   3.036793   1.198166   2.565125
     9  C    4.630470   3.569535   3.665864   2.828018   2.502687
    10  H    2.583408   2.567848   3.090404   3.975439   1.098267
    11  H    2.606625   3.771425   3.119405   4.540544   1.096578
    12  H    4.714478   4.463867   4.097681   3.916503   2.760335
    13  H    5.587553   3.920464   4.327706   2.505954   3.484455
    14  H    0.963949   4.329249   2.301834   5.979728   3.201984
    15  H    4.690227   0.963262   3.521861   2.299072   3.649684
                    6          7          8          9         10
     6  C    0.000000
     7  C    2.486800   0.000000
     8  C    1.498611   3.107224   0.000000
     9  C    1.328292   3.481935   2.425907   0.000000
    10  H    2.165047   2.111378   2.822909   3.280322   0.000000
    11  H    2.160160   2.147291   3.498874   2.660513   1.763440
    12  H    2.111894   3.758934   3.440492   1.088549   3.605120
    13  H    2.094066   4.356812   2.601899   1.088811   4.179989
    14  H    4.363922   1.881923   4.877175   5.303442   3.463033
    15  H    3.185760   3.713354   1.882489   4.290041   3.484125
                   11         12         13         14         15
    11  H    0.000000
    12  H    2.463833   0.000000
    13  H    3.743772   1.873710   0.000000
    14  H    3.492165   5.419590   6.198216   0.000000
    15  H    4.732723   5.260079   4.450563   5.028960   0.000000
 Stoichiometry    C5H6O4
 Framework group  C1[X(C5H6O4)]
 Deg. of freedom    39
 Full point group                 C1      NOp   1
 Largest Abelian subgroup         C1      NOp   1
 Largest concise Abelian subgroup C1      NOp   1
                         Standard orientation:                         
 ---------------------------------------------------------------------
 Center     Atomic      Atomic             Coordinates (Angstroms)
 Number     Number       Type             X           Y           Z
 ---------------------------------------------------------------------
      1          8           0        2.854855   -0.064193   -0.272578
      2          8           0       -0.732374   -1.517141   -0.566809
      3          8           0        1.260833   -0.522413    1.231181
      4          8           0       -2.590297   -0.605979    0.289844
      5          6           0        0.686812    0.758244   -0.741363
      6          6           0       -0.714857    0.809670   -0.205987
      7          6           0        1.592866   -0.025773    0.194796
      8          6           0       -1.465811   -0.483293   -0.105228
      9          6           0       -1.300488    1.910494    0.251816
     10          1           0        0.734396    0.250861   -1.714240
     11          1           0        1.100347    1.763625   -0.885176
     12          1           0       -0.797158    2.875333    0.225703
     13          1           0       -2.308794    1.856575    0.659151
     14          1           0        3.388933   -0.564422    0.354901
     15          1           0       -1.252986   -2.320211   -0.457647
 ---------------------------------------------------------------------
 Rotational constants (GHZ):           2.9044817           1.1866226           0.9907658
 Standard basis: 6-311++G(d,p) (5D, 7F)
 There are   249 symmetry adapted cartesian basis functions of A   symmetry.
 There are   240 symmetry adapted basis functions of A   symmetry.
   240 basis functions,   378 primitive gaussians,   249 cartesian basis functions
    34 alpha electrons       34 beta electrons
       nuclear repulsion energy       450.7165028381 Hartrees.
 NAtoms=   15 NActive=   15 NUniq=   15 SFac= 1.00D+00 NAtFMM=   60 NAOKFM=F Big=F
 Integral buffers will be    131072 words long.
 Raffenetti 2 integral format.
 Two-electron integral symmetry is turned on.
 R6APFD:  NTU= -4 IXU= 1 FactS= 1.050
 Nuclear repulsion after empirical dispersion term =      450.7051098985 Hartrees.
 One-electron integrals computed using PRISM.
 NBasis=   240 RedAO= T EigKep=  9.00D-06  NBF=   240
 NBsUse=   240 1.00D-06 EigRej= -1.00D+00 NBFU=   240
 Lowest energy guess from the checkpoint file:  "ITAC0058.chk"
 B after Tr=     0.000000   -0.000000    0.000000
         Rot=    0.994537   -0.095564    0.014163   -0.039523 Ang= -11.98 deg.
 B after Tr=     0.000000    0.000000    0.000000
         Rot=    0.999752   -0.020587    0.003233   -0.007844 Ang=  -2.55 deg.
 Requested convergence on RMS density matrix=1.00D-08 within  32 cycles.
 Requested convergence on MAX density matrix=1.00D-06.
 Requested convergence on             energy=1.00D-06.
 No special actions if energy rises.
 SCF Done:  E(RM08HX) =  -495.037090342     A.U. after   14 cycles
            NFock= 14  Conv=0.37D-08     -V/T= 2.0036
 QCSCF skips out because SCF is already converged.
 R6APFD:  NTU= -4 IXU= 1 FactS= 1.050
 Calling FoFJK, ICntrl=      2127 FMM=F ISym2X=0 I1Cent= 0 IOpClX= 0 NMat=1 NMatS=1 NMatT=0.
 ***** Axes restored to original set *****
 -------------------------------------------------------------------
 Center     Atomic                   Forces (Hartrees/Bohr)
 Number     Number              X              Y              Z
 -------------------------------------------------------------------
      1        8           0.001486160    0.001040876   -0.001296291
      2        8           0.001745524   -0.001195638   -0.000739723
      3        8           0.000072708    0.000750650    0.002416189
      4        8           0.002132631   -0.000427529    0.003335443
      5        6          -0.000583054    0.003387324   -0.000295263
      6        6          -0.003171488    0.001263820    0.002709842
      7        6          -0.002581227   -0.005976964   -0.000623104
      8        6          -0.000905407    0.001300607   -0.004821762
      9        6           0.001754776    0.000035353   -0.001328296
     10        1           0.000864918   -0.000573186   -0.000975355
     11        1          -0.000501808    0.000003533    0.001189734
     12        1           0.000056690    0.000136847    0.000235313
     13        1          -0.000263657   -0.000395926   -0.000230438
     14        1          -0.000190095    0.000148940    0.000384350
     15        1           0.000083328    0.000501293    0.000039362
 -------------------------------------------------------------------
 Cartesian Forces:  Max     0.005976964 RMS     0.001770481

 GradGradGradGradGradGradGradGradGradGradGradGradGradGradGradGradGradGrad
 Berny optimization.
 Using GEDIIS/GDIIS optimizer.
 FormGI is forming the generalized inverse of G from B-inverse, IUseBI=4.
 Internal  Forces:  Max     0.003550845 RMS     0.001391795
 Search for a local minimum.
 Step number   4 out of a maximum of   68
 All quantities printed in internal units (Hartrees-Bohrs-Radians)
 Mixed Optimization -- RFO/linear search
 Update second derivatives using D2CorX and points    3    2    4
 DE= -1.21D-03 DEPred=-1.82D-03 R= 6.64D-01
 TightC=F SS=  1.41D+00  RLast= 6.62D-01 DXNew= 4.2426D-01 1.9864D+00
 Trust test= 6.64D-01 RLast= 6.62D-01 DXMaxT set to 4.24D-01
 ITU=  1 -1  1  0
 Use linear search instead of GDIIS.
     Eigenvalues ---    0.00426   0.00662   0.01283   0.01383   0.01845
     Eigenvalues ---    0.02237   0.02294   0.02857   0.02861   0.04309
     Eigenvalues ---    0.05633   0.06487   0.09746   0.13914   0.15623
     Eigenvalues ---    0.16000   0.16003   0.16431   0.22246   0.23755
     Eigenvalues ---    0.24960   0.24981   0.24999   0.25026   0.25369
     Eigenvalues ---    0.30653   0.32046   0.33491   0.33986   0.34268
     Eigenvalues ---    0.35321   0.35406   0.51204   0.51505   0.53444
     Eigenvalues ---    0.54604   0.56855   0.92957   0.94690
 RFO step:  Lambda=-1.12328595D-03 EMin= 4.25608977D-03
 Quartic linear search produced a step of -0.23739.
 Iteration  1 RMS(Cart)=  0.05814411 RMS(Int)=  0.00197562
 Iteration  2 RMS(Cart)=  0.00239688 RMS(Int)=  0.00006321
 Iteration  3 RMS(Cart)=  0.00000366 RMS(Int)=  0.00006315
 Iteration  4 RMS(Cart)=  0.00000000 RMS(Int)=  0.00006315
 Variable       Old X    -DE/DX   Delta X   Delta X   Delta X     New X
                                 (Linear)    (Quad)   (Total)
    R1        2.54414  -0.00058  -0.00104   0.00259   0.00155   2.54569
    R2        1.82160   0.00044  -0.00022   0.00270   0.00248   1.82408
    R3        2.54926  -0.00130  -0.00203   0.00256   0.00053   2.54979
    R4        1.82030   0.00042  -0.00012   0.00254   0.00242   1.82272
    R5        2.26057   0.00244   0.00103   0.00252   0.00356   2.26412
    R6        2.26421   0.00327   0.00186   0.00127   0.00314   2.26734
    R7        2.83707   0.00072   0.00136  -0.00081   0.00055   2.83763
    R8        2.87338  -0.00036  -0.00392   0.00619   0.00226   2.87565
    R9        2.07542   0.00040  -0.00118   0.00259   0.00141   2.07684
   R10        2.07223  -0.00021   0.00042  -0.00102  -0.00060   2.07163
   R11        2.83197   0.00125  -0.00344   0.00823   0.00480   2.83676
   R12        2.51011   0.00053   0.00066   0.00074   0.00140   2.51151
   R13        2.05706  -0.00020   0.00054  -0.00173  -0.00119   2.05587
   R14        2.05756  -0.00027  -0.00059   0.00023  -0.00036   2.05720
    A1        1.88408  -0.00014  -0.00073   0.00401   0.00328   1.88736
    A2        1.88211   0.00052   0.00021   0.00541   0.00561   1.88772
    A3        1.93311   0.00254   0.00229   0.00440   0.00665   1.93976
    A4        1.95214  -0.00182   0.00013  -0.00291  -0.00286   1.94928
    A5        1.94706   0.00006  -0.00326   0.00035  -0.00292   1.94414
    A6        1.85601   0.00192   0.00344   0.01277   0.01620   1.87221
    A7        1.90580  -0.00317  -0.00324  -0.01362  -0.01684   1.88896
    A8        1.86612   0.00041   0.00074  -0.00097  -0.00018   1.86595
    A9        2.05134   0.00355   0.00761  -0.00109   0.00628   2.05762
   A10        2.16871  -0.00137  -0.00508   0.00515  -0.00017   2.16854
   A11        2.06113  -0.00212  -0.00229  -0.00187  -0.00441   2.05673
   A12        2.15208   0.00010  -0.00039   0.00110   0.00071   2.15279
   A13        1.93857  -0.00166  -0.00157  -0.00266  -0.00423   1.93435
   A14        2.19208   0.00159   0.00187   0.00158   0.00346   2.19554
   A15        2.14671  -0.00056  -0.00108   0.00100   0.00000   2.14671
   A16        1.94525   0.00111  -0.00027   0.00315   0.00296   1.94821
   A17        2.19051  -0.00054   0.00151  -0.00471  -0.00312   2.18739
   A18        2.12050  -0.00025  -0.00149   0.00111  -0.00037   2.12013
   A19        2.09000   0.00058   0.00510  -0.00493   0.00017   2.09018
   A20        2.07267  -0.00033  -0.00362   0.00379   0.00018   2.07284
    D1        0.02440  -0.00057  -0.00026   0.00186   0.00161   0.02600
    D2        3.13526   0.00052  -0.00284   0.00272  -0.00012   3.13514
    D3       -0.06338   0.00017   0.01220  -0.02099  -0.00876  -0.07214
    D4        3.11704  -0.00012   0.00117  -0.00581  -0.00467   3.11237
    D5       -1.13302  -0.00333  -0.06928   0.06426  -0.00505  -1.13807
[...]
 ! D17   D(5,6,8,2)            -10.4116         -DE/DX =    0.0                 !
 ! D18   D(5,6,8,4)            170.8087         -DE/DX =    0.0                 !
 ! D19   D(9,6,8,2)            170.1823         -DE/DX =    0.0                 !
 ! D20   D(9,6,8,4)             -8.5974         -DE/DX =    0.0                 !
 ! D21   D(5,6,9,12)             0.3471         -DE/DX =    0.0                 !
 ! D22   D(5,6,9,13)          -179.4018         -DE/DX =    0.0                 !
 ! D23   D(8,6,9,12)           179.7096         -DE/DX =    0.0                 !
 ! D24   D(8,6,9,13)            -0.0392         -DE/DX =    0.0                 !
 --------------------------------------------------------------------------------
 GradGradGradGradGradGradGradGradGradGradGradGradGradGradGradGradGradGrad


 ----------------------------------------------------------------------

 Electric dipole moment (input orientation):
 (Debye = 10**-18 statcoulomb cm , SI units = C m)
                  (au)            (Debye)         (10**-30 SI)
   Tot        0.114686D+01      0.291503D+01      0.972350D+01
   x         -0.770739D+00     -0.195902D+01     -0.653460D+01
   y         -0.328339D-01     -0.834555D-01     -0.278378D+00
   z         -0.848631D+00     -0.215701D+01     -0.719500D+01

 Dipole polarizability, Alpha (input orientation).
 (esu units = cm**3 , SI units = C**2 m**2 J**-1)
 Alpha(0;0):
               (au)            (10**-24 esu)      (10**-40 SI)
   iso        0.702749D+02      0.104137D+02      0.115868D+02
   aniso      0.262978D+02      0.389693D+01      0.433592D+01
   xx         0.752363D+02      0.111489D+02      0.124048D+02
   yx        -0.764689D+01     -0.113315D+01     -0.126080D+01
   yy         0.768086D+02      0.113819D+02      0.126640D+02
   zx         0.793992D+01      0.117657D+01      0.130912D+01
   zy         0.304713D+01      0.451539D+00      0.502404D+00
   zz         0.587797D+02      0.871025D+01      0.969146D+01

 ----------------------------------------------------------------------

 Dipole orientation:
     8         -3.49273072         -1.24862318          4.08540643
     8          1.54096753         -2.98502447         -0.87446217
     8         -3.56679078         -0.66239705         -0.10614248
     8          2.52140320         -0.48265991         -4.14682126
     6          0.07231615          0.73650085          2.28058280
     6          1.27644489          1.39845514         -0.20116488
     6         -2.50558874         -0.45351938          1.88344650
     6          1.84273108         -0.71790994         -1.99684289
     6          1.85244916          3.73397468         -0.92163166
     1          1.22598023         -0.60790982          3.36077625
     1         -0.16878485          2.42219491          3.46354012
     1          1.48094940          5.35299115          0.29120717
     1          2.70802020          4.06122932         -2.76300431
     1         -5.12771317         -1.97592157          3.73934138
     1          1.86634325         -4.27644295         -2.11680544

 Electric dipole moment (dipole orientation):
 (Debye = 10**-18 statcoulomb cm , SI units = C m)
                  (au)            (Debye)         (10**-30 SI)
   Tot        0.114686D+01      0.291503D+01      0.972350D+01
   x          0.000000D+00      0.000000D+00      0.000000D+00
   y          0.000000D+00      0.000000D+00      0.000000D+00
   z          0.114686D+01      0.291503D+01      0.972350D+01

 Dipole polarizability, Alpha (dipole orientation).
 (esu units = cm**3 , SI units = C**2 m**2 J**-1)
 Alpha(0;0):
               (au)            (10**-24 esu)      (10**-40 SI)
   iso        0.702749D+02      0.104137D+02      0.115868D+02
   aniso      0.262978D+02      0.389693D+01      0.433592D+01
   xx         0.600727D+02      0.890186D+01      0.990465D+01
   yx         0.814945D+01      0.120762D+01      0.134366D+01
   yy         0.767933D+02      0.113796D+02      0.126615D+02
   zx        -0.875850D+01     -0.129788D+01     -0.144408D+01
   zy        -0.270710D+01     -0.401151D+00     -0.446341D+00
   zz         0.739585D+02      0.109595D+02      0.121941D+02

 ----------------------------------------------------------------------
 1\1\GINC-PITOMBA\Freq\RM08HX\6-311++G(d,p)\C5H6O4\VALTER\07-Oct-2025\0
 \\#N Geom=AllCheck Guess=TCheck SCRF=Check GenChk RM08HX/6-311++G(d,p)
  Freq\\ITAC0058\\0,1\O,-2.8287144797,0.6189755838,-0.3765216867\O,0.89
 72977472,1.5830939025,-0.2508230921\O,-1.363665405,0.3728395616,1.2999
 815836\O,2.4598400543,0.3033625948,0.7197732948\C,-0.7783971754,-0.424
 5298733,-0.9075671188\C,0.5798586771,-0.7441034968,-0.3539842887\C,-1.
 6541997336,0.2260063837,0.1466887355\C,1.4279518462,0.3991919941,0.115
 6982066\C,1.0754334966,-1.9718804515,-0.2413320165\H,-0.7183846856,0.2
 634508437,-1.7611826486\H,-1.283695335,-1.3326515452,-1.2594966821\H,0
 .5080257072,-2.8444241573,-0.5595988439\H,2.0674232617,-2.1220841713,0
 .1803858514\H,-3.3505168185,1.0184740628,0.329415754\H,1.4590428426,2.
 2830787685,0.1003629515\\Version=ES64L-G16RevB.01\State=1-A\HF=-495.03
 79581\RMSD=4.254e-09\RMSF=8.320e-06\ZeroPoint=0.1119601\Thermal=0.1207
 579\Dipole=-0.7707388,-0.0328339,-0.8486313\DipoleDeriv=-1.3548292,0.3
 247501,-0.375798,0.3709401,-0.5231513,0.1421321,-0.1900193,0.0543402,-
 0.4840817,-0.5587544,0.1756551,-0.0806319,0.3471283,-1.2988434,0.26729
 36,-0.0752687,0.1727574,-0.427662,-0.7456516,0.1462907,-0.0303547,0.08
 85747,-0.4190908,-0.1676149,-0.2253688,-0.0782481,-1.1504486,-1.102967
 4,-0.0466507,-0.3951835,-0.1080557,-0.6693276,-0.0379757,-0.4152204,-0
 .0031342,-0.5910408,0.0007755,0.0489711,0.0196648,0.1038917,-0.0125585
 ,-0.0919215,0.106489,-0.1086128,-0.0776773,0.1577451,-0.1869997,0.0392
 908,-0.139669,-0.3454705,-0.0420254,0.0832125,-0.0721016,-0.1123723,1.
 662097,-0.4725871,0.3357937,-0.5226142,0.5548424,0.1230179,0.3148863,0
 .1359854,1.4436818,1.3227307,0.0538963,0.5459395,-0.1566531,1.7977311,
 -0.1588546,0.5244349,-0.0315503,0.6817791,-0.1044995,-0.000375,0.09205
 52,0.0667895,0.0427964,0.0284401,0.0660387,-0.0153981,-0.174401,0.0273
 504,0.0565207,0.030362,0.0358902,0.0473266,0.0641975,-0.005069,0.04582
 27,0.0406291,-0.0021072,-0.0161555,-0.0021968,-0.0598942,-0.013304,-0.
 062669,-0.0114171,-0.0123454,0.0801338,0.0373151,-0.0841125,-0.0544491
 ,-0.0441313,0.0178657,-0.024933,-0.0476366,-0.0393975,0.1132892,0.0308
 996,0.0239716,-0.0473229,-0.0026331,0.0862728,-0.0130371,-0.0536029,0.
 0109705,0.139046,0.3764268,-0.0151637,-0.0219638,0.0011542,0.3434287,-
 0.0258028,0.0010722,-0.0331031,0.211407,0.253469,-0.0080115,-0.0552053
 ,0.0192819,0.3914825,-0.0002472,-0.0725308,-0.025985,0.3077177\Polar=7
 5.2363023,-7.6468912,76.8085957,7.939919,3.0471338,58.779658\Quadrupol
 e=-1.5211229,6.1388678,-4.617745,0.0348121,-2.4363496,1.5456954\PG=C01
  [X(C5H6O4)]\NImag=0\\0.47595641,-0.20936889,0.16541095,-0.07004955,0.
 13843406,0.48950621,-0.00058887,-0.00001566,-0.00073764,0.37062650,-0.
 00166492,0.00191523,0.00038003,0.11188964,0.60291751,0.00090282,-0.000
 51196,0.00112539,0.20176465,0.06179521,0.16912648,-0.02950682,0.006399
 49,-0.08249623,-0.00338352,-0.00152431,0.00240141,0.15222910,0.0092557
 8,0.02988208,0.01739184,-0.00315039,0.00243909,0.00225055,-0.00315737,
 0.06078298,-0.07267852,0.01285174,-0.04946746,-0.00035271,0.00163128,0
 .00208700,0.19929079,0.10611721,0.84640244,-0.00154751,0.00065209,0.00
 043756,-0.03893359,0.05801306,-0.04388648,-0.00073912,0.00001612,0.001
 88405,0.65205761,-0.00099043,0.00092664,0.00056873,0.06845148,-0.01202
 657,0.04189253,0.00004403,0.00159553,0.00144315,-0.07322950,0.11497503
 ,-0.00049352,0.00029003,0.00082095,-0.04301416,0.03574784,0.00188067,-
 0.00008196,0.00011709,0.00221190,0.36348276,-0.04536149,0.24837937,-0.
 03114671,0.02520979,0.02424002,-0.00238027,-0.00083778,-0.00119326,0.0
 1562361,0.00370098,-0.00325807,-0.00084189,-0.00136163,-0.00114074,0.5
 2304513,0.01697159,0.00158337,-0.00999082,-0.00280313,-0.00461142,-0.0
 0167765,0.00748088,0.01837401,-0.01709818,-0.00571476,-0.00511780,-0.0
 0372174,0.02820357,0.56114637,-0.00528473,0.00197195,0.00994939,-0.001
 41587,-0.00011120,-0.00123722,0.01538036,-0.02689008,-0.05100883,-0.00
 092026,-0.00052902,0.00115888,0.04086417,-0.01463548,0.52692544,0.0004
 1124,0.00070860,0.00119723,0.01124938,0.01330683,-0.00088355,-0.000127
 10,-0.00188224,-0.00587527,-0.01437747,-0.01742777,-0.02071980,-0.2012
 5720,0.02159976,-0.05322702,0.53859931,0.00270800,-0.00024160,-0.00242
 217,-0.01498305,-0.04790533,-0.00803197,0.00045497,-0.00002199,0.00234
 868,-0.00804351,0.01359296,-0.00425275,0.02387804,-0.09379462,0.010119
 39,-0.15277412,0.80403383,0.00547182,-0.00393822,-0.00457038,0.0007371
 8,0.00883395,0.01237475,0.00079166,-0.00144430,-0.00253924,-0.02136310
 ,-0.00987471,0.00825070,-0.05604834,0.01034326,-0.09794822,0.14820651,
 -0.01441330,0.22229331,-0.24288562,0.07070228,-0.03136784,0.00018790,0
 .00087175,0.00001846,-0.14192975,-0.00327254,-0.12863832,0.00314812,0.
 00073172,0.00133939,-0.12554161,0.02481476,0.04945914,-0.02869789,0.01
 773797,0.01868180,0.56427317,0.06426009,-0.09611900,-0.00246651,0.0002
 4254,-0.00435000,-0.00029618,-0.00562414,-0.10097232,-0.09900295,-0.00
 093687,-0.00230754,-0.00075089,0.02288872,-0.10890772,-0.02984141,0.01
 238911,-0.00815079,-0.00044419,-0.11736568,0.31855114,-0.05361189,0.00
 750353,-0.13736078,0.00338187,-0.00268599,-0.00477445,-0.14225580,-0.0
 9387385,-0.73386566,-0.00263140,-0.00265716,-0.00326469,0.04087107,-0.
 02648012,-0.12282908,0.00224648,0.00370630,0.01805103,0.11045701,0.130
 84386,0.99316921,0.00288379,-0.00095524,0.00077355,-0.12599753,0.04827
 606,-0.03700076,0.00285002,0.00087482,0.00006783,-0.58742632,0.0325320
 7,-0.29685284,-0.01578749,-0.01965426,-0.00990520,-0.12863901,-0.03633
 246,-0.02084930,-0.00788029,-0.00089088,-0.00248375,0.82900678,0.00226
 503,-0.00259385,-0.00164668,0.02733155,-0.25273806,0.01998076,-0.00083
 995,-0.00590365,-0.00359268,0.02651000,-0.11928171,0.01588534,0.000599
 48,0.01161517,-0.00172664,-0.05973602,-0.15130802,-0.03189355,0.000443
 88,0.00695485,0.00748149,-0.00543278,0.59972655,-0.00031614,0.00017261
 ,-0.00148148,-0.03810761,0.03553195,-0.08839669,-0.00069826,-0.0005143
 4,-0.00343042,-0.29586017,0.01965114,-0.25183797,-0.00788574,-0.007959
 33,-0.00309542,-0.02016821,-0.01964613,-0.09488974,-0.00066469,0.00064
 318,0.00530458,0.35549165,-0.00991564,0.41684555,-0.00209709,0.0010472
 5,0.00162826,-0.00199449,-0.00781893,-0.00113673,0.00059187,0.00045252
 ,0.00200988,-0.00507610,-0.00254214,-0.00267274,-0.01143357,0.03194241
 ,-0.00474823,-0.16876776,0.15674192,-0.03698740,-0.00080810,-0.0004595
 6,-0.00656562,0.01760892,-0.01106694,0.00415840,0.59984316,-0.00040037
 ,0.00011654,-0.00025604,-0.00316920,-0.00252280,-0.00141276,-0.0006822
 1,0.00042950,-0.00076317,0.00624306,-0.00290442,0.00361391,0.00735590,
 -0.00475684,0.00202442,0.16231590,-0.49859563,0.03174440,-0.00140612,0
 .00088416,0.00212933,-0.00054418,-0.03526844,-0.00522404,-0.08364332,0
 .83715739,-0.00071866,0.00047555,0.00132785,-0.00141000,-0.00385562,0.
 00001811,0.00122623,0.00004589,0.00195039,-0.00232766,-0.00210964,-0.0
 0100426,-0.00841273,0.01329114,0.00549420,-0.03657995,0.02950021,-0.06
 694038,-0.00101563,-0.00090460,-0.00565925,0.00635796,-0.00702055,0.00
 704174,0.20140280,0.02386312,0.20990206,-0.00145801,0.00214457,-0.0008
 5794,-0.00044371,-0.00156539,-0.00007108,-0.00057043,0.00368907,0.0020
 4773,0.00034555,-0.00052257,0.00034759,-0.04803489,-0.00997481,0.01285
 412,0.00280177,0.02077230,-0.02408643,0.00051458,-0.01742148,0.0139304
 0,-0.00005600,0.00201999,-0.00041823,-0.00384892,-0.00063571,-0.001186
 19,0.05264623,0.00029487,-0.00101011,0.00034119,-0.00108551,-0.0011932
 3,-0.00076088,0.00053199,-0.00373073,-0.00307767,0.00029642,0.00000846
 ,0.00019069,-0.01100040,-0.14529629,0.13104909,0.00256763,-0.00536165,
 0.00414885,0.00073371,0.01157021,-0.01173593,-0.00024997,0.00007224,-0
 .00039426,0.00095168,0.00080978,0.00065613,0.00878199,0.15906087,-0.00
 115461,-0.00080411,0.00192407,0.00055179,-0.00065108,0.00028932,0.0024
 4653,-0.00452614,-0.00180381,0.00050611,-0.00066127,0.00036658,0.01457
 230,0.13065063,-0.20289988,-0.00088209,0.00578694,-0.00642898,0.000878
 48,0.01768295,-0.02254520,-0.00092199,0.00262627,-0.00050189,-0.000634
 53,-0.00097520,-0.00051187,-0.01436575,-0.14108810,0.22217074,-0.00251
 859,-0.00075857,-0.00004412,0.00036591,-0.00048395,0.00001791,-0.00219
 897,-0.00148711,0.00370965,-0.00199560,-0.00157719,-0.00122431,-0.1008
 2291,-0.09674578,-0.03736894,-0.01404474,-0.02543405,-0.00892725,0.012
 97878,0.01756142,0.00225015,-0.00271337,0.00386140,-0.00121490,0.00145
 044,-0.00134480,0.00079227,-0.00157455,-0.00163620,-0.00081803,0.11070
 155,0.00141266,0.00093051,0.00024245,-0.00071293,-0.00011078,-0.000395
 70,0.00199601,0.00048334,-0.00043889,0.00006028,0.00086550,0.00010751,
 -0.10062628,-0.23099988,-0.07228430,0.00395947,0.00752578,0.00336006,-
 0.00910755,-0.01206060,-0.00324729,0.00266230,-0.00145348,0.00102658,0
 .00108707,0.00092845,0.00054792,-0.00784387,-0.01520952,-0.00729912,0.
 10709950,0.24852261,0.00012147,0.00184632,0.00057617,0.00056870,0.0001
 9997,0.00035347,0.00395240,0.00156008,-0.00347181,-0.00033013,-0.00059
 031,-0.00028095,-0.03929857,-0.07285291,-0.06880039,-0.00518913,-0.009
 21852,-0.00413839,-0.01343974,-0.02226410,-0.00876395,-0.00138849,0.00
 158221,0.00022323,0.00091123,-0.00058216,0.00006017,0.01100773,0.02069
 289,0.00937053,0.04293164,0.07858828,0.07486710,0.00001024,0.00000608,
 0.00007630,0.00064324,0.00072784,0.00075149,0.00008039,-0.00010807,-0.
 00006894,0.00069076,-0.00112314,0.00091940,-0.00008873,0.00042189,0.00
 343944,0.00959748,0.01206433,0.00168186,-0.00042767,0.00034795,-0.0000
 8638,-0.00069197,0.00227304,-0.00599368,-0.13382536,-0.12255385,-0.051
 37521,0.00040475,-0.00024940,0.00001253,-0.00017421,-0.00007380,-0.000
 27080,0.13021943,-0.00013045,0.00004886,0.00006403,-0.00096520,-0.0019
 0304,-0.00045030,0.00003206,0.00017433,0.00031172,-0.00048578,0.000683
 01,0.00004169,-0.00177082,0.00106590,0.00010962,-0.01768908,-0.0175478
 9,-0.01013247,0.00019959,-0.00004367,-0.00048475,0.00451100,-0.0021205
 9,0.00075117,-0.11695441,-0.23507428,-0.06681475,0.00009607,0.00014505
 ,0.00001298,0.00127359,-0.00012861,0.00055992,0.12763573,0.24911904,0.
 00025035,-0.00019090,-0.00036431,0.00032509,-0.00034997,-0.00080376,-0
 .00017145,0.00016363,-0.00036816,0.00137545,-0.00014729,-0.00088612,0.
 00317886,0.00114230,-0.00668577,-0.00168624,0.00403433,0.00790890,0.00
 069166,-0.00049873,0.00123521,-0.00572606,-0.00053357,0.01054104,-0.05
 024678,-0.06945797,-0.06661583,-0.00094249,0.00057341,0.00003500,-0.00
 014281,-0.00007741,0.00019960,0.05662358,0.07391777,0.05485710,0.00017
 205,-0.00011235,0.00002961,0.00013694,-0.00000229,-0.00018797,0.000061
 25,0.00003365,0.00041622,0.00028836,-0.00152321,0.00007979,0.00251233,
 0.00161114,-0.00422289,-0.00693690,-0.00040416,-0.00564837,0.00065253,
 -0.00024156,-0.00042411,-0.00210199,-0.00040962,0.00260761,-0.29156433
 ,0.03831968,-0.10662650,-0.00109096,0.00046782,-0.00004045,0.00032365,
 -0.00009383,0.00022167,-0.00625370,0.00413788,-0.00403156,0.30364190,0
 .00049772,-0.00028272,-0.00043074,-0.00088405,0.00146903,-0.00068841,-
 0.00012690,-0.00014932,-0.00044143,-0.00189182,0.00010297,-0.00090907,
 0.00018147,-0.00418448,-0.00149565,0.02810669,0.00072944,0.01164968,0.
 00036295,0.00020216,0.00152180,0.00314276,-0.00160309,0.00247204,0.031
 35325,-0.06028226,0.01268557,0.00066530,-0.00007215,0.00021848,0.00000
 332,0.00008281,0.00003706,-0.01974100,0.00594674,-0.00848622,-0.041811
 06,0.05817179,-0.00062568,0.00040517,0.00037482,-0.00019930,0.00071642
 ,0.00024164,0.00008319,-0.00011868,-0.00012917,-0.00029278,-0.00080124
 ,0.00004183,-0.00362695,-0.00139353,0.01074544,-0.00298739,0.00029433,
 0.00494161,-0.00131998,0.00070379,-0.00110150,0.00260218,0.00001139,-0
 .00716682,-0.10749108,0.01487727,-0.08537815,0.00195194,-0.00053797,0.
 00022405,0.00019120,-0.00002101,-0.00005281,-0.00585811,0.00188237,0.0
 0137465,0.11791633,-0.01611196,0.07570741,-0.16780386,0.10416250,0.156
 93088,0.00052501,-0.00047801,-0.00015953,0.00693317,-0.00549564,0.0007
 4674,0.00031601,-0.00018616,0.00009874,-0.00371600,0.00185293,-0.00491
 443,-0.00031596,0.00093266,0.00124762,-0.03395932,0.02569477,0.0361902
 4,-0.00054389,0.00081071,0.00001099,-0.00038093,0.00001164,-0.00023388
 ,0.00035495,-0.00036767,-0.00037883,0.00019691,0.00026945,0.00013646,-
 0.00005120,0.00000133,0.00008747,0.00003761,0.00010096,-0.00014018,0.1
 9853739,0.11423275,-0.10017842,-0.14041067,0.00003724,-0.00054870,0.00
 008430,-0.00570397,-0.00344666,-0.00029393,0.00000698,-0.00014897,0.00
 008548,0.00279515,0.00320007,0.00183427,0.00036715,0.00028173,-0.00075
 127,0.01597901,-0.00540755,-0.01184713,0.00018023,0.00045921,-0.000116
 08,-0.00004445,0.00003348,0.00007439,-0.00002212,0.00014673,-0.0006471
 1,-0.00050952,0.00037119,0.00052856,0.00002314,-0.00004751,-0.00006776
 ,-0.00003577,-0.00001230,0.00004068,-0.12721571,0.10516412,0.19849933,
 -0.15860306,-0.31205729,-0.00000881,0.00013087,-0.00007742,0.00013606,
 0.00000105,-0.00573602,-0.00009593,0.00001493,-0.00009683,-0.00276612,
 0.00051242,0.00069307,-0.00041844,0.00011092,0.00052415,-0.00531062,0.
 00643244,0.02152418,0.00013955,-0.00013644,0.00010937,-0.00002999,0.00
 002977,-0.00002840,-0.00031381,0.00004711,0.00008631,-0.00015662,-0.00
 005234,-0.00026089,-0.00001429,0.00000295,0.00003989,0.00002800,0.0000
 1264,-0.00006983,-0.18969511,0.15149460,0.29530299,0.00011934,0.000178
 05,0.00023989,-0.21001291,-0.21870959,-0.12133739,0.00008628,0.0005304
 2,0.00069897,-0.00590880,-0.00127557,-0.00006759,-0.00012980,-0.000006
 20,0.00001034,0.00050486,0.00268114,-0.00290827,0.00037517,-0.00044445
 ,-0.00126827,0.01948835,0.01137022,0.00905897,0.00030225,0.00013359,0.
 00010716,0.00000965,-0.00003697,0.00022856,0.00002571,-0.00008849,0.00
 006555,-0.00013346,0.00010849,0.00041495,0.00012126,0.00004040,-0.0002
 0339,-0.00012989,-0.00009010,0.00000680,0.19528200,0.00065655,-0.00038
 846,0.00020131,-0.18018333,-0.28083091,-0.11177754,0.00071942,0.000063
 82,0.00000513,-0.00149577,0.00903690,-0.00108364,0.00078380,0.00068417
 ,0.00040504,0.00418808,-0.00323621,0.00281180,-0.00142573,0.00015666,-
 0.00017409,-0.02811949,-0.04655712,-0.01647885,-0.00104634,-0.00095461
 ,-0.00043476,-0.00018334,0.00006035,-0.00032614,0.00017792,0.00025269,
 -0.00008732,0.00034925,-0.00031734,-0.00002162,0.00006369,-0.00011860,
 0.00005295,-0.00009375,0.00013359,0.00000215,0.20560904,0.32201506,-0.
 00031249,0.00009730,-0.00030315,-0.12208319,-0.13731368,-0.09220729,-0
 .00000493,-0.00027996,-0.00083116,0.00002199,-0.00083836,-0.00574006,-
 0.00009588,-0.00012999,-0.00046163,-0.00303313,0.00208373,0.00311087,0
 .00023087,0.00016332,0.00088036,0.00969568,0.00889828,0.01073491,0.000
 40251,0.00038910,0.00034361,0.00010242,-0.00010453,0.00022504,0.000004
 14,-0.00005674,0.00011893,0.00016282,0.00022806,-0.00046746,-0.0001173
 7,-0.00003378,0.00024682,0.00007283,-0.00000832,0.00004672,0.11495372,
 0.12690558,0.08430348\\0.00001359,-0.00000561,0.00000310,-0.00000646,0
 .00001142,-0.00000828,0.00000510,0.00000049,0.00001559,-0.00000486,0.0
 0000162,-0.00000219,-0.00000025,-0.00000707,0.00000468,0.00000937,0.00
 001262,0.00000706,-0.00001779,0.00000335,-0.00002813,0.00000516,-0.000
 02139,0.00001085,-0.00000958,0.00000110,-0.00000352,0.00000227,0.00000
 042,-0.00000504,0.00000170,0.00000176,-0.00000195,0.00000388,-0.000000
 92,0.00000433,0.00000097,-0.00000460,0.00000195,-0.00000430,0.00000402
 ,-0.00000107,0.00000119,0.00000281,0.00000261\\\@


0EVERYBODY IS IGNORANT, ONLY ON DIFFERENT SUBJECTS.
0          WILL ROGERS
 Job cpu time:       0 days  0 hours 50 minutes 33.9 seconds.
 Elapsed time:       0 days  0 hours  3 minutes 10.7 seconds.
 File lengths (MBytes):  RWF=     91 Int=      0 D2E=      0 Chk=      6 Scr=      1
 Normal termination of Gaussian 16 at Tue Oct  7 05:35:45 2025.
