 Entering Gaussian System, Link 0=g16
 Input=ITAN0059.gjf
 Output=ITAN0059.log
 Initial command:
 /usr/local/g16/l1.exe "/dados_01/scratch/Gau-2500312.inp" -scrdir="/dados_01/scratch/"
 Entering Link 1 = /usr/local/g16/l1.exe PID=   2500313.
  
 Copyright (c) 1988-2017, Gaussian, Inc.  All Rights Reserved.
  
 This is part of the Gaussian(R) 16 program.  It is based on
 the Gaussian(R) 09 system (copyright 2009, Gaussian, Inc.),
 the Gaussian(R) 03 system (copyright 2003, Gaussian, Inc.),
 the Gaussian(R) 98 system (copyright 1998, Gaussian, Inc.),
 the Gaussian(R) 94 system (copyright 1995, Gaussian, Inc.),
 the Gaussian 92(TM) system (copyright 1992, Gaussian, Inc.),
 the Gaussian 90(TM) system (copyright 1990, Gaussian, Inc.),
 the Gaussian 88(TM) system (copyright 1988, Gaussian, Inc.),
 the Gaussian 86(TM) system (copyright 1986, Carnegie Mellon
 University), and the Gaussian 82(TM) system (copyright 1983,
 Carnegie Mellon University). Gaussian is a federally registered
 trademark of Gaussian, Inc.
  
 This software contains proprietary and confidential information,
 including trade secrets, belonging to Gaussian, Inc.
  
 This software is provided under written license and may be
 used, copied, transmitted, or stored only in accord with that
 written license.
  
 The following legend is applicable only to US Government
 contracts under FAR:
  
                    RESTRICTED RIGHTS LEGEND
  
 Use, reproduction and disclosure by the US Government is
 subject to restrictions as set forth in subparagraphs (a)
 and (c) of the Commercial Computer Software - Restricted
 Rights clause in FAR 52.227-19.
  
 Gaussian, Inc.
 340 Quinnipiac St., Bldg. 40, Wallingford CT 06492
  
  
 ---------------------------------------------------------------
 Warning -- This program may not be used in any manner that
 competes with the business of Gaussian, Inc. or will provide
 assistance to any competitor of Gaussian, Inc.  The licensee
 of this program is prohibited from giving any competitor of
 Gaussian, Inc. access to this program.  By using this program,
 the user acknowledges that Gaussian, Inc. is engaged in the
 business of creating and licensing software in the field of
 computational chemistry and represents and warrants to the
 licensee that it is not a competitor of Gaussian, Inc. and that
 it will not use this program in any manner prohibited above.
 ---------------------------------------------------------------
  

 Cite this work as:
 Gaussian 16, Revision B.01,
 M. J. Frisch, G. W. Trucks, H. B. Schlegel, G. E. Scuseria, 
 M. A. Robb, J. R. Cheeseman, G. Scalmani, V. Barone, 
 G. A. Petersson, H. Nakatsuji, X. Li, M. Caricato, A. V. Marenich, 
 J. Bloino, B. G. Janesko, R. Gomperts, B. Mennucci, H. P. Hratchian, 
 J. V. Ortiz, A. F. Izmaylov, J. L. Sonnenberg, D. Williams-Young, 
 F. Ding, F. Lipparini, F. Egidi, J. Goings, B. Peng, A. Petrone, 
 T. Henderson, D. Ranasinghe, V. G. Zakrzewski, J. Gao, N. Rega, 
 G. Zheng, W. Liang, M. Hada, M. Ehara, K. Toyota, R. Fukuda, 
 J. Hasegawa, M. Ishida, T. Nakajima, Y. Honda, O. Kitao, H. Nakai, 
 T. Vreven, K. Throssell, J. A. Montgomery, Jr., J. E. Peralta, 
 F. Ogliaro, M. J. Bearpark, J. J. Heyd, E. N. Brothers, K. N. Kudin, 
 V. N. Staroverov, T. A. Keith, R. Kobayashi, J. Normand, 
 K. Raghavachari, A. P. Rendell, J. C. Burant, S. S. Iyengar, 
 J. Tomasi, M. Cossi, J. M. Millam, M. Klene, C. Adamo, R. Cammi, 
 J. W. Ochterski, R. L. Martin, K. Morokuma, O. Farkas, 
 J. B. Foresman, and D. J. Fox, Gaussian, Inc., Wallingford CT, 2016.
 
 ******************************************
 Gaussian 16:  ES64L-G16RevB.01 20-Dec-2017
                 7-Oct-2025 
 ******************************************
 %nprocs=16
 Will use up to   16 processors via shared memory.
 %mem=40GB
 %chk=ITAN0059.chk
 ----------------------------------------------------------------------
 # opt freq=noraman M08HX/6-311++G** scf=xqc Empiricaldispersion=pfd In
 t(Grid=ultraFine)
 ----------------------------------------------------------------------
 1/18=20,19=15,26=4,38=1/1,3;
 2/9=110,12=2,17=6,18=5,40=1/2;
 3/5=4,6=6,7=1111,11=2,25=1,30=1,71=1,74=-74,75=-5,124=11/1,2,3;
 4//1;
 5/5=2,8=3,13=1,38=5/2,8;
 6/7=2,8=2,9=2,10=2,28=1/1;
 7//1,2,3,16;
 1/18=20,19=15,26=4/3(2);
 2/9=110/2;
 99//99;
 2/9=110/2;
 3/5=4,6=6,7=1111,11=2,25=1,30=1,71=1,74=-74,75=-5,124=11/1,2,3;
 4/5=5,16=3,69=1/1;
 5/5=2,8=3,13=1,38=5/2,8;
 7//1,2,3,16;
 1/18=20,19=15,26=4/3(-5);
 2/9=110/2;
 6/7=2,8=2,9=2,10=2,19=2,28=1/1;
 99/9=1/99;
 --------
 ITAN0059
 --------
 Symbolic Z-matrix:
 Charge =  0 Multiplicity = 1
 O                    -0.5895   -1.0798   -0.0006 
 O                    -2.6051   -0.0026    0.0003 
 O                     1.6603   -1.5434    0.0002 
 C                    -0.5643    1.2818   -0.0003 
 C                     0.7962    0.7059    0. 
 C                    -1.3827    0.0292    0.0001 
 C                     0.7297   -0.759     0.0001 
 C                     1.9553    1.3678    0.0001 
 H                    -0.7652    1.8559    0.9071 
 H                    -0.7651    1.8553   -0.908 
 H                     1.9719    2.4528    0.0001 
 H                     2.9099    0.8527    0.0003 
 

 GradGradGradGradGradGradGradGradGradGradGradGradGradGradGradGradGradGrad
 Berny optimization.
 Initialization pass.
                           ----------------------------
                           !    Initial Parameters    !
                           ! (Angstroms and Degrees)  !
 --------------------------                            --------------------------
 ! Name  Definition              Value          Derivative Info.                !
 --------------------------------------------------------------------------------
 ! R1    R(1,6)                  1.3635         estimate D2E/DX2                !
 ! R2    R(1,7)                  1.3576         estimate D2E/DX2                !
 ! R3    R(2,6)                  1.2228         estimate D2E/DX2                !
 ! R4    R(3,7)                  1.2171         estimate D2E/DX2                !
 ! R5    R(4,5)                  1.4774         estimate D2E/DX2                !
 ! R6    R(4,6)                  1.4963         estimate D2E/DX2                !
 ! R7    R(4,9)                  1.0924         estimate D2E/DX2                !
 ! R8    R(4,10)                 1.0923         estimate D2E/DX2                !
 ! R9    R(5,7)                  1.4664         estimate D2E/DX2                !
 ! R10   R(5,8)                  1.3348         estimate D2E/DX2                !
 ! R11   R(8,11)                 1.0851         estimate D2E/DX2                !
 ! R12   R(8,12)                 1.0847         estimate D2E/DX2                !
 ! A1    A(6,1,7)              111.906          estimate D2E/DX2                !
 ! A2    A(5,4,6)              100.2161         estimate D2E/DX2                !
 ! A3    A(5,4,9)              111.9659         estimate D2E/DX2                !
 ! A4    A(5,4,10)             111.9701         estimate D2E/DX2                !
 ! A5    A(6,4,9)              109.825          estimate D2E/DX2                !
 ! A6    A(6,4,10)             109.8287         estimate D2E/DX2                !
 ! A7    A(9,4,10)             112.3664         estimate D2E/DX2                !
 ! A8    A(4,5,7)              110.3438         estimate D2E/DX2                !
 ! A9    A(4,5,8)              127.3287         estimate D2E/DX2                !
 ! A10   A(7,5,8)              122.3276         estimate D2E/DX2                !
 ! A11   A(1,6,2)              124.0836         estimate D2E/DX2                !
 ! A12   A(1,6,4)              111.2671         estimate D2E/DX2                !
 ! A13   A(2,6,4)              124.6492         estimate D2E/DX2                !
 ! A14   A(1,7,3)              126.2048         estimate D2E/DX2                !
 ! A15   A(1,7,5)              106.2669         estimate D2E/DX2                !
 ! A16   A(3,7,5)              127.5282         estimate D2E/DX2                !
 ! A17   A(5,8,11)             120.6049         estimate D2E/DX2                !
 ! A18   A(5,8,12)             121.9204         estimate D2E/DX2                !
 ! A19   A(11,8,12)            117.4747         estimate D2E/DX2                !
 ! D1    D(7,1,6,2)           -179.9649         estimate D2E/DX2                !
 ! D2    D(7,1,6,4)              0.0716         estimate D2E/DX2                !
 ! D3    D(6,1,7,3)            179.9722         estimate D2E/DX2                !
 ! D4    D(6,1,7,5)             -0.0563         estimate D2E/DX2                !
 ! D5    D(6,4,5,7)              0.0178         estimate D2E/DX2                !
 ! D6    D(6,4,5,8)           -179.9858         estimate D2E/DX2                !
 ! D7    D(9,4,5,7)            116.3947         estimate D2E/DX2                !
 ! D8    D(9,4,5,8)            -63.6089         estimate D2E/DX2                !
 ! D9    D(10,4,5,7)          -116.365          estimate D2E/DX2                !
 ! D10   D(10,4,5,8)            63.6313         estimate D2E/DX2                !
 ! D11   D(5,4,6,1)             -0.0521         estimate D2E/DX2                !
 ! D12   D(5,4,6,2)            179.9846         estimate D2E/DX2                !
 ! D13   D(9,4,6,1)           -118.0213         estimate D2E/DX2                !
 ! D14   D(9,4,6,2)             62.0154         estimate D2E/DX2                !
 ! D15   D(10,4,6,1)           117.9233         estimate D2E/DX2                !
 ! D16   D(10,4,6,2)           -62.0399         estimate D2E/DX2                !
 ! D17   D(4,5,7,1)              0.021          estimate D2E/DX2                !
 ! D18   D(4,5,7,3)            179.992          estimate D2E/DX2                !
 ! D19   D(8,5,7,1)           -179.9756         estimate D2E/DX2                !
 ! D20   D(8,5,7,3)             -0.0046         estimate D2E/DX2                !
 ! D21   D(4,5,8,11)             0.0088         estimate D2E/DX2                !
 ! D22   D(4,5,8,12)          -179.9984         estimate D2E/DX2                !
 ! D23   D(7,5,8,11)          -179.9952         estimate D2E/DX2                !
 ! D24   D(7,5,8,12)            -0.0024         estimate D2E/DX2                !
 --------------------------------------------------------------------------------
 Trust Radius=3.00D-01 FncErr=1.00D-07 GrdErr=1.00D-06 EigMax=2.50D+02 EigMin=1.00D-04
 Number of steps in this run=     65 maximum allowed number of steps=    100.
 GradGradGradGradGradGradGradGradGradGradGradGradGradGradGradGradGradGrad

                          Input orientation:                          
 ---------------------------------------------------------------------
 Center     Atomic      Atomic             Coordinates (Angstroms)
 Number     Number       Type             X           Y           Z
 ---------------------------------------------------------------------
      1          8           0       -0.589500   -1.079800   -0.000600
      2          8           0       -2.605100   -0.002600    0.000300
      3          8           0        1.660300   -1.543400    0.000200
      4          6           0       -0.564300    1.281800   -0.000300
      5          6           0        0.796200    0.705900    0.000000
      6          6           0       -1.382700    0.029200    0.000100
      7          6           0        0.729700   -0.759000    0.000100
      8          6           0        1.955300    1.367800    0.000100
      9          1           0       -0.765200    1.855900    0.907100
     10          1           0       -0.765100    1.855300   -0.908000
     11          1           0        1.971900    2.452800    0.000100
     12          1           0        2.909900    0.852700    0.000300
 ---------------------------------------------------------------------
                    Distance matrix (angstroms):
                    1          2          3          4          5
     1  O    0.000000
     2  O    2.285389   0.000000
     3  O    2.297069   4.535163   0.000000
     4  C    2.361734   2.411337   3.595914   0.000000
     5  C    2.260285   3.474308   2.409568   1.477370   0.000000
     6  C    1.363469   1.222814   3.425335   1.496257   2.281563
     7  C    1.357646   3.419508   1.217087   2.416465   1.466409
     8  C    3.530829   4.761853   2.926108   2.521067   1.334775
     9  H    3.077844   2.767949   4.273261   1.092395   2.140864
    10  H    3.077178   2.768104   4.273003   1.092310   2.140851
    11  H    4.363489   5.194027   4.008330   2.793484   2.105690
    12  H    3.997544   5.580929   2.702368   3.500599   2.118792
                    6          7          8          9         10
     6  C    0.000000
     7  C    2.254660   0.000000
     8  C    3.596400   2.454664   0.000000
     9  H    2.130913   3.145644   2.908954   0.000000
    10  H    2.130896   3.145415   2.909103   1.815100   0.000000
    11  H    4.138500   3.443649   1.085127   2.944598   2.944965
    12  H    4.370877   2.711245   1.084707   3.916000   3.916100
                   11         12
    11  H    0.000000
    12  H    1.854768   0.000000
 Stoichiometry    C5H4O3
 Framework group  C1[X(C5H4O3)]
 Deg. of freedom    30
 Full point group                 C1      NOp   1
 Largest Abelian subgroup         C1      NOp   1
 Largest concise Abelian subgroup C1      NOp   1
                         Standard orientation:                         
 ---------------------------------------------------------------------
 Center     Atomic      Atomic             Coordinates (Angstroms)
 Number     Number       Type             X           Y           Z
 ---------------------------------------------------------------------
      1          8           0        0.604860   -1.104541    0.000578
      2          8           0        2.610163   -0.008290   -0.000322
      3          8           0       -1.640446   -1.589438   -0.000222
      4          6           0        0.557284    1.256715    0.000278
      5          6           0       -0.797698    0.667949   -0.000022
      6          6           0        1.387517    0.011925   -0.000122
      7          6           0       -0.717320   -0.796255   -0.000122
      8          6           0       -1.963017    1.318836   -0.000122
      9          1           0        0.752735    1.832692   -0.907122
     10          1           0        0.752641    1.832091    0.907978
     11          1           0       -1.989898    2.403630   -0.000122
     12          1           0       -2.912694    0.794714   -0.000322
 ---------------------------------------------------------------------
 Rotational constants (GHZ):           3.9783082           1.9426974           1.3165842
 Standard basis: 6-311++G(d,p) (5D, 7F)
 There are   212 symmetry adapted cartesian basis functions of A   symmetry.
 There are   204 symmetry adapted basis functions of A   symmetry.
   204 basis functions,   324 primitive gaussians,   212 cartesian basis functions
    29 alpha electrons       29 beta electrons
       nuclear repulsion energy       353.3679525255 Hartrees.
 NAtoms=   12 NActive=   12 NUniq=   12 SFac= 1.00D+00 NAtFMM=   60 NAOKFM=F Big=F
 Integral buffers will be    131072 words long.
 Raffenetti 2 integral format.
 Two-electron integral symmetry is turned on.
 R6APFD:  NTU= -4 IXU= 1 FactS= 1.050
 Nuclear repulsion after empirical dispersion term =      353.3609418058 Hartrees.
 One-electron integrals computed using PRISM.
 NBasis=   204 RedAO= T EigKep=  8.63D-06  NBF=   204
 NBsUse=   204 1.00D-06 EigRej= -1.00D+00 NBFU=   204
 ExpMin= 3.60D-02 ExpMax= 8.59D+03 ExpMxC= 1.30D+03 IAcc=3 IRadAn=         5 AccDes= 0.00D+00
 Harris functional with IExCor= 1009 and IRadAn=       5 diagonalized for initial guess.
 HarFok:  IExCor= 1009 AccDes= 0.00D+00 IRadAn=         5 IDoV= 1 UseB2=F ITyADJ=14
 ICtDFT=  3500011 ScaDFX=  1.000000  1.000000  1.000000  1.000000
 FoFCou: FMM=F IPFlag=           0 FMFlag=      100000 FMFlg1=           0
         NFxFlg=           0 DoJE=T BraDBF=F KetDBF=T FulRan=T
         wScrn=  0.000000 ICntrl=       500 IOpCl=  0 I1Cent=   200000004 NGrid=           0
         NMat0=    1 NMatS0=      1 NMatT0=    0 NMatD0=    1 NMtDS0=    0 NMtDT0=    0
 Petite list used in FoFCou.
 Keep R1 ints in memory in canonical form, NReq=235320225.
 Requested convergence on RMS density matrix=1.00D-08 within  32 cycles.
 Requested convergence on MAX density matrix=1.00D-06.
 Requested convergence on             energy=1.00D-06.
 No special actions if energy rises.
 SCF Done:  E(RM08HX) =  -418.572228350     A.U. after   14 cycles
            NFock= 14  Conv=0.63D-08     -V/T= 2.0038
 QCSCF skips out because SCF is already converged.

 **********************************************************************

            Population analysis using the SCF Density.

 **********************************************************************

 Orbital symmetries:
       Occupied  (A) (A) (A) (A) (A) (A) (A) (A) (A) (A) (A) (A)
                 (A) (A) (A) (A) (A) (A) (A) (A) (A) (A) (A) (A)
                 (A) (A) (A) (A) (A)
       Virtual   (A) (A) (A) (A) (A) (A) (A) (A) (A) (A) (A) (A)
                 (A) (A) (A) (A) (A) (A) (A) (A) (A) (A) (A) (A)
                 (A) (A) (A) (A) (A) (A) (A) (A) (A) (A) (A) (A)
                 (A) (A) (A) (A) (A) (A) (A) (A) (A) (A) (A) (A)
                 (A) (A) (A) (A) (A) (A) (A) (A) (A) (A) (A) (A)
                 (A) (A) (A) (A) (A) (A) (A) (A) (A) (A) (A) (A)
                 (A) (A) (A) (A) (A) (A) (A) (A) (A) (A) (A) (A)
                 (A) (A) (A) (A) (A) (A) (A) (A) (A) (A) (A) (A)
                 (A) (A) (A) (A) (A) (A) (A) (A) (A) (A) (A) (A)
                 (A) (A) (A) (A) (A) (A) (A) (A) (A) (A) (A) (A)
                 (A) (A) (A) (A) (A) (A) (A) (A) (A) (A) (A) (A)
                 (A) (A) (A) (A) (A) (A) (A) (A) (A) (A) (A) (A)
                 (A) (A) (A) (A) (A) (A) (A) (A) (A) (A) (A) (A)
                 (A) (A) (A) (A) (A) (A) (A) (A) (A) (A) (A) (A)
                 (A) (A) (A) (A) (A) (A) (A)
 The electronic state is 1-A.
 Alpha  occ. eigenvalues --  -19.71466 -19.63619 -19.63552 -10.70872 -10.70487
 Alpha  occ. eigenvalues --  -10.58891 -10.58679 -10.58002  -1.30662  -1.20277
 Alpha  occ. eigenvalues --   -1.16902  -0.98082  -0.87199  -0.81233  -0.74375
 Alpha  occ. eigenvalues --   -0.66079  -0.62485  -0.60390  -0.57438  -0.56021
 Alpha  occ. eigenvalues --   -0.54302  -0.52966  -0.50600  -0.49534  -0.48740
 Alpha  occ. eigenvalues --   -0.41668  -0.39748  -0.38036  -0.36944
 Alpha virt. eigenvalues --   -0.06692  -0.03928  -0.02092  -0.01346  -0.00633
 Alpha virt. eigenvalues --    0.00254   0.01998   0.02849   0.03108   0.03941
 Alpha virt. eigenvalues --    0.04500   0.06044   0.07035   0.08280   0.08426
 Alpha virt. eigenvalues --    0.09224   0.10158   0.10293   0.10809   0.11851
 Alpha virt. eigenvalues --    0.12206   0.13088   0.13769   0.14480   0.14977
 Alpha virt. eigenvalues --    0.17280   0.18897   0.19044   0.21355   0.21370
 Alpha virt. eigenvalues --    0.22620   0.24409   0.24686   0.26631   0.27628
 Alpha virt. eigenvalues --    0.28367   0.28581   0.30124   0.30191   0.30705
 Alpha virt. eigenvalues --    0.32334   0.33076   0.33478   0.34552   0.35823
 Alpha virt. eigenvalues --    0.36509   0.40708   0.42768   0.45494   0.47307
 Alpha virt. eigenvalues --    0.49469   0.51592   0.51825   0.56490   0.56907
 Alpha virt. eigenvalues --    0.57280   0.59643   0.61161   0.64205   0.66018
 Alpha virt. eigenvalues --    0.67151   0.69152   0.71114   0.73378   0.74667
 Alpha virt. eigenvalues --    0.76019   0.77260   0.83736   0.84765   0.87138
 Alpha virt. eigenvalues --    0.87817   0.93803   0.95665   0.99495   0.99768
 Alpha virt. eigenvalues --    1.04449   1.08150   1.09287   1.10479   1.18061
 Alpha virt. eigenvalues --    1.18781   1.19467   1.20506   1.22101   1.24009
 Alpha virt. eigenvalues --    1.24806   1.29736   1.31789   1.37204   1.41417
 Alpha virt. eigenvalues --    1.41748   1.44918   1.47688   1.50269   1.53168
 Alpha virt. eigenvalues --    1.55138   1.55980   1.59856   1.61125   1.65446
 Alpha virt. eigenvalues --    1.69005   1.75772   1.76548   1.79272   1.82507
 Alpha virt. eigenvalues --    1.83113   1.83767   1.88442   1.91798   1.97554
 Alpha virt. eigenvalues --    2.01700   2.06260   2.11454   2.11469   2.16761
 Alpha virt. eigenvalues --    2.18844   2.25008   2.25475   2.40212   2.50954
 Alpha virt. eigenvalues --    2.54316   2.55046   2.58260   2.58471   2.66530
 Alpha virt. eigenvalues --    2.69888   2.73788   2.74108   2.80281   2.82896
 Alpha virt. eigenvalues --    2.89836   2.90635   2.92943   2.95160   2.96145
 Alpha virt. eigenvalues --    3.01177   3.02067   3.05576   3.14878   3.15505
 Alpha virt. eigenvalues --    3.24100   3.26061   3.33352   3.40054   3.41866
 Alpha virt. eigenvalues --    3.46278   3.58141   3.59375   3.65878   3.72527
 Alpha virt. eigenvalues --    3.75459   3.79379   3.81647   4.05975   4.15361
 Alpha virt. eigenvalues --    4.21199   4.36134   4.39781   5.03240   5.10206
 Alpha virt. eigenvalues --    5.14205   5.23654   5.27851   5.48044   5.67688
 Alpha virt. eigenvalues --    5.82355   6.01894  23.75099  23.84192  23.89262
 Alpha virt. eigenvalues --   23.96431  24.26208  49.85316  49.99801  50.05222
          Condensed to atoms (all electrons):
               1          2          3          4          5          6
     1  O    8.300417  -0.066272  -0.054534   0.378694  -0.486023  -0.144085
     2  O   -0.066272   7.949060   0.000896  -0.132232   0.035508   0.467588
     3  O   -0.054534   0.000896   7.958800  -0.076466   0.029109   0.045834
     4  C    0.378694  -0.132232  -0.076466  11.044562  -2.713173  -1.563315
     5  C   -0.486023   0.035508   0.029109  -2.713173   9.701131   1.104738
     6  C   -0.144085   0.467588   0.045834  -1.563315   1.104738   6.390501
     7  C    0.280369  -0.017103   0.407799   0.731102  -0.735852  -0.289233
     8  C   -0.178882   0.020065  -0.034414  -1.357438  -2.387847  -0.167160
     9  H   -0.008847  -0.007031   0.001319   0.393958  -0.052223  -0.026434
    10  H   -0.008910  -0.007005   0.001338   0.393040  -0.051518  -0.026250
    11  H    0.005987   0.000244   0.000827   0.027745   0.013117  -0.006822
    12  H    0.005275  -0.000081   0.001633   0.057707  -0.085461  -0.010806
               7          8          9         10         11         12
     1  O    0.280369  -0.178882  -0.008847  -0.008910   0.005987   0.005275
     2  O   -0.017103   0.020065  -0.007031  -0.007005   0.000244  -0.000081
     3  O    0.407799  -0.034414   0.001319   0.001338   0.000827   0.001633
     4  C    0.731102  -1.357438   0.393958   0.393040   0.027745   0.057707
     5  C   -0.735852  -2.387847  -0.052223  -0.051518   0.013117  -0.085461
     6  C   -0.289233  -0.167160  -0.026434  -0.026250  -0.006822  -0.010806
     7  C    7.347745  -1.298198  -0.036679  -0.036425   0.035510   0.019442
     8  C   -1.298198  11.460530   0.055756   0.055462   0.271837   0.360993
     9  H   -0.036679   0.055756   0.411445  -0.032041  -0.002589  -0.000596
    10  H   -0.036425   0.055462  -0.032041   0.411425  -0.002523  -0.000614
    11  H    0.035510   0.271837  -0.002589  -0.002523   0.437041   0.009438
    12  H    0.019442   0.360993  -0.000596  -0.000614   0.009438   0.372849
 Mulliken charges:
               1
     1  O   -0.023190
     2  O   -0.243634
     3  O   -0.282142
     4  C   -1.184184
     5  C    1.628492
     6  C    0.225445
     7  C   -0.408477
     8  C   -0.800704
     9  H    0.303961
    10  H    0.304021
    11  H    0.210188
    12  H    0.270223
 Sum of Mulliken charges =  -0.00000
 Mulliken charges with hydrogens summed into heavy atoms:
               1
     1  O   -0.023190
     2  O   -0.243634
     3  O   -0.282142
     4  C   -0.576202
     5  C    1.628492
     6  C    0.225445
     7  C   -0.408477
     8  C   -0.320293
 Electronic spatial extent (au):  <R**2>=            847.8830
 Charge=             -0.0000 electrons
 Dipole moment (field-independent basis, Debye):
    X=             -1.9622    Y=              4.6924    Z=              0.0003  Tot=              5.0862
 Quadrupole moment (field-independent basis, Debye-Ang):
   XX=            -55.4863   YY=            -46.1670   ZZ=            -43.9742
   XY=             -3.9563   XZ=              0.0013   YZ=              0.0011
 Traceless Quadrupole moment (field-independent basis, Debye-Ang):
   XX=             -6.9438   YY=              2.3755   ZZ=              4.5683
   XY=             -3.9563   XZ=              0.0013   YZ=              0.0011
 Octapole moment (field-independent basis, Debye-Ang**2):
  XXX=            -30.6841  YYY=             12.4009  ZZZ=              0.0031  XYY=              4.9593
  XXY=             10.9722  XXZ=              0.0053  XZZ=              5.3665  YZZ=             -2.5256
  YYZ=              0.0001  XYZ=              0.0034
 Hexadecapole moment (field-independent basis, Debye-Ang**3):
 XXXX=           -725.7866 YYYY=           -355.7948 ZZZZ=            -49.6304 XXXY=            -19.9921
 XXXZ=              0.0123 YYYX=            -13.3606 YYYZ=             -0.0030 ZZZX=             -0.0055
 ZZZY=              0.0037 XXYY=           -176.3125 XXZZ=           -120.2313 YYZZ=            -65.7880
 XXYZ=             -0.0036 YYXZ=             -0.0037 ZZXY=              6.6708
 N-N= 3.533609418058D+02 E-N=-1.686186527792D+03  KE= 4.169860929932D+02
 R6APFD:  NTU= -4 IXU= 1 FactS= 1.050
 Calling FoFJK, ICntrl=      2127 FMM=F ISym2X=0 I1Cent= 0 IOpClX= 0 NMat=1 NMatS=1 NMatT=0.
 ***** Axes restored to original set *****
 -------------------------------------------------------------------
 Center     Atomic                   Forces (Hartrees/Bohr)
 Number     Number              X              Y              Z
 -------------------------------------------------------------------
      1        8          -0.012726029   -0.020066093    0.000055607
      2        8           0.058320562   -0.011271171    0.000014009
      3        8          -0.044923728    0.022559505    0.000011907
      4        6           0.008431101   -0.007093899    0.000097044
      5        6           0.035085702    0.025627498    0.000016165
      6        6          -0.077368413    0.008297421   -0.000081096
      7        6           0.046978460   -0.020651049   -0.000061881
      8        6          -0.005599262   -0.003959355    0.000010528
      9        1          -0.004548990    0.003858877   -0.001557585
     10        1          -0.004562698    0.003875960    0.001501945
     11        1           0.000160049    0.002587101   -0.000008111
     12        1           0.000753247   -0.003764795    0.000001469
 -------------------------------------------------------------------
 Cartesian Forces:  Max     0.077368413 RMS     0.022023952

 GradGradGradGradGradGradGradGradGradGradGradGradGradGradGradGradGradGrad
 Berny optimization.
 FormGI is forming the generalized inverse of G from B-inverse, IUseBI=4.
 Internal  Forces:  Max     0.058008292 RMS     0.012459855
 Search for a local minimum.
 Step number   1 out of a maximum of   65
 All quantities printed in internal units (Hartrees-Bohrs-Radians)
 Mixed Optimization -- RFO/linear search
 Second derivative matrix not updated -- first step.
 ITU=  0
     Eigenvalues ---    0.01029   0.01154   0.01538   0.01554   0.01884
     Eigenvalues ---    0.02952   0.02952   0.05975   0.07591   0.08141
     Eigenvalues ---    0.09225   0.16000   0.16000   0.23843   0.25000
     Eigenvalues ---    0.25000   0.25000   0.25000   0.31772   0.33820
     Eigenvalues ---    0.34537   0.34547   0.35352   0.35382   0.35432
     Eigenvalues ---    0.49837   0.51591   0.58392   0.94147   0.96686
 RFO step:  Lambda=-1.58745480D-02 EMin= 1.02913463D-02
 Linear search not attempted -- first point.
 Iteration  1 RMS(Cart)=  0.04485891 RMS(Int)=  0.00102144
 Iteration  2 RMS(Cart)=  0.00127921 RMS(Int)=  0.00028165
 Iteration  3 RMS(Cart)=  0.00000123 RMS(Int)=  0.00028165
 Iteration  4 RMS(Cart)=  0.00000000 RMS(Int)=  0.00028165
 Variable       Old X    -DE/DX   Delta X   Delta X   Delta X     New X
                                 (Linear)    (Quad)   (Total)
    R1        2.57658   0.00238   0.00000   0.00451   0.00426   2.58085
    R2        2.56558   0.01397   0.00000   0.02713   0.02702   2.59260
    R3        2.31078  -0.05801   0.00000  -0.06059  -0.06059   2.25019
    R4        2.29996  -0.04889   0.00000  -0.04975  -0.04975   2.25021
    R5        2.79182   0.01749   0.00000   0.04642   0.04664   2.83846
    R6        2.82752   0.01782   0.00000   0.04916   0.04909   2.87661
    R7        2.06433   0.00157   0.00000   0.00435   0.00435   2.06867
    R8        2.06417   0.00163   0.00000   0.00450   0.00450   2.06867
    R9        2.77111   0.01407   0.00000   0.03882   0.03899   2.81010
   R10        2.52236  -0.00662   0.00000  -0.01103  -0.01103   2.51133
   R11        2.05059   0.00259   0.00000   0.00701   0.00701   2.05760
   R12        2.04980   0.00245   0.00000   0.00662   0.00662   2.05641
    A1        1.95313  -0.00181   0.00000  -0.00562  -0.00594   1.94719
    A2        1.74910   0.00991   0.00000   0.04154   0.04140   1.79050
    A3        1.95417   0.00044   0.00000   0.02186   0.02188   1.97606
    A4        1.95425   0.00044   0.00000   0.02180   0.02184   1.97609
    A5        1.91681  -0.00359   0.00000  -0.01684  -0.01786   1.89895
    A6        1.91687  -0.00360   0.00000  -0.01700  -0.01801   1.89887
    A7        1.96116  -0.00259   0.00000  -0.04363  -0.04424   1.91692
    A8        1.92586  -0.01596   0.00000  -0.06278  -0.06230   1.86357
    A9        2.22230   0.01382   0.00000   0.05333   0.05309   2.27540
   A10        2.13502   0.00215   0.00000   0.00945   0.00921   2.14422
   A11        2.16567  -0.01297   0.00000  -0.04592  -0.04583   2.11984
   A12        1.94198  -0.00361   0.00000  -0.01929  -0.01948   1.92250
   A13        2.17554   0.01658   0.00000   0.06521   0.06531   2.24085
   A14        2.20269  -0.01919   0.00000  -0.07368  -0.07376   2.12892
   A15        1.85471   0.01148   0.00000   0.04614   0.04631   1.90102
   A16        2.22579   0.00772   0.00000   0.02754   0.02745   2.25324
   A17        2.10495   0.00218   0.00000   0.01239   0.01239   2.11735
   A18        2.12791  -0.00412   0.00000  -0.02341  -0.02341   2.10451
   A19        2.05032   0.00194   0.00000   0.01101   0.01101   2.06133
    D1       -3.14098   0.00000   0.00000   0.00018   0.00014  -3.14084
    D2        0.00125  -0.00004   0.00000  -0.00094  -0.00090   0.00035
    D3        3.14111  -0.00001   0.00000  -0.00020  -0.00015   3.14096
    D4       -0.00098   0.00002   0.00000   0.00080   0.00080  -0.00018
    D5        0.00031  -0.00000   0.00000  -0.00007  -0.00007   0.00024
    D6       -3.14135  -0.00000   0.00000  -0.00005  -0.00004  -3.14139
    D7        2.03147   0.00139   0.00000   0.01174   0.01209   2.04357
    D8       -1.11018   0.00139   0.00000   0.01176   0.01213  -1.09806
    D9       -2.03095  -0.00138   0.00000  -0.01168  -0.01205  -2.04300
   D10        1.11058  -0.00138   0.00000  -0.01166  -0.01202   1.09856
   D11       -0.00091   0.00002   0.00000   0.00056   0.00055  -0.00036
   D12        3.14132  -0.00001   0.00000  -0.00051  -0.00053   3.14079
   D13       -2.05986  -0.00406   0.00000  -0.03850  -0.03809  -2.09795
   D14        1.08237  -0.00409   0.00000  -0.03958  -0.03917   1.04320
   D15        2.05815   0.00408   0.00000   0.03950   0.03909   2.09724
   D16       -1.08280   0.00406   0.00000   0.03843   0.03800  -1.04480
   D17        0.00037  -0.00001   0.00000  -0.00043  -0.00042  -0.00006
   D18        3.14145   0.00001   0.00000   0.00055   0.00058  -3.14115
   D19       -3.14117  -0.00001   0.00000  -0.00046  -0.00045   3.14156
   D20       -0.00008   0.00001   0.00000   0.00053   0.00055   0.00047
   D21        0.00015  -0.00001   0.00000  -0.00017  -0.00017  -0.00002
   D22       -3.14156  -0.00000   0.00000  -0.00003  -0.00004   3.14158
   D23       -3.14151  -0.00001   0.00000  -0.00014  -0.00014   3.14154
   D24       -0.00004  -0.00000   0.00000  -0.00001  -0.00000  -0.00005
         Item               Value     Threshold  Converged?
 Maximum Force            0.058008     0.000450     NO 
 RMS     Force            0.012460     0.000300     NO 
 Maximum Displacement     0.154464     0.001800     NO 
 RMS     Displacement     0.044523     0.001200     NO 
 Predicted change in Energy=-8.310784D-03
 GradGradGradGradGradGradGradGradGradGradGradGradGradGradGradGradGradGrad

                          Input orientation:                          
 ---------------------------------------------------------------------
 Center     Atomic      Atomic             Coordinates (Angstroms)
 Number     Number       Type             X           Y           Z
 ---------------------------------------------------------------------
      1          8           0       -0.600631   -1.084237   -0.000360
      2          8           0       -2.595791   -0.084339    0.000462
      3          8           0        1.593045   -1.551473    0.000361
      4          6           0       -0.568212    1.285098   -0.000317
      5          6           0        0.834510    0.747959   -0.000078
      6          6           0       -1.409305    0.016332   -0.000181
      7          6           0        0.726155   -0.735130   -0.000169
      8          6           0        2.000446    1.385664    0.000139
      9          1           0       -0.807614    1.867199    0.895341
     10          1           0       -0.807490    1.866817   -0.896250
     11          1           0        2.050572    2.473346    0.000149
     12          1           0        2.935715    0.829365    0.000302
 ---------------------------------------------------------------------
                    Distance matrix (angstroms):
                    1          2          3          4          5
     1  O    0.000000
     2  O    2.231695   0.000000
     3  O    2.242882   4.438336   0.000000
     4  C    2.369557   2.446719   3.566113   0.000000
     5  C    2.327353   3.529828   2.421314   1.502048   0.000000
     6  C    1.365726   1.190749   3.387051   1.522236   2.360081
     7  C    1.371946   3.385093   1.190762   2.399314   1.487042
     8  C    3.586923   4.825589   2.965257   2.570627   1.328938
     9  H    3.091294   2.794080   4.272173   1.094695   2.179690
    10  H    3.090976   2.794480   4.272141   1.094691   2.179709
    11  H    4.436809   5.303814   4.050740   2.875755   2.110869
    12  H    4.020898   5.606462   2.733341   3.533440   2.102781
                    6          7          8          9         10
     6  C    0.000000
     7  C    2.263820   0.000000
     8  C    3.674435   2.474184   0.000000
     9  H    2.142358   3.150635   2.986380   0.000000
    10  H    2.142292   3.150422   2.986558   1.791591   0.000000
    11  H    4.243544   3.471080   1.088836   3.055816   3.056130
    12  H    4.420432   2.707361   1.088208   3.986315   3.986439
                   11         12
    11  H    0.000000
    12  H    1.867124   0.000000
 Stoichiometry    C5H4O3
 Framework group  C1[X(C5H4O3)]
 Deg. of freedom    30
 Full point group                 C1      NOp   1
 Largest Abelian subgroup         C1      NOp   1
 Largest concise Abelian subgroup C1      NOp   1
                         Standard orientation:                         
 ---------------------------------------------------------------------
 Center     Atomic      Atomic             Coordinates (Angstroms)
 Number     Number       Type             X           Y           Z
 ---------------------------------------------------------------------
      1          8           0        0.672590   -1.068048    0.000353
      2          8           0        2.598207    0.059986   -0.000468
      3          8           0       -1.485898   -1.677516   -0.000368
      4          6           0        0.485541    1.294115    0.000310
      5          6           0       -0.879117    0.666535    0.000072
      6          6           0        1.407680    0.082973    0.000174
      7          6           0       -0.674159   -0.806314    0.000162
      8          6           0       -2.084203    1.226754   -0.000145
      9          1           0        0.686425    1.890605   -0.895348
     10          1           0        0.686327    1.890216    0.896243
     11          1           0       -2.205239    2.308841   -0.000156
     12          1           0       -2.981154    0.610576   -0.000309
 ---------------------------------------------------------------------
 Rotational constants (GHZ):           3.9265621           1.9404710           1.3095630
 Standard basis: 6-311++G(d,p) (5D, 7F)
 There are   212 symmetry adapted cartesian basis functions of A   symmetry.
 There are   204 symmetry adapted basis functions of A   symmetry.
   204 basis functions,   324 primitive gaussians,   212 cartesian basis functions
    29 alpha electrons       29 beta electrons
       nuclear repulsion energy       352.8058268497 Hartrees.
 NAtoms=   12 NActive=   12 NUniq=   12 SFac= 1.00D+00 NAtFMM=   60 NAOKFM=F Big=F
 Integral buffers will be    131072 words long.
 Raffenetti 2 integral format.
 Two-electron integral symmetry is turned on.
 R6APFD:  NTU= -4 IXU= 1 FactS= 1.050
 Nuclear repulsion after empirical dispersion term =      352.7991054877 Hartrees.
 One-electron integrals computed using PRISM.
 NBasis=   204 RedAO= T EigKep=  8.22D-06  NBF=   204
 NBsUse=   204 1.00D-06 EigRej= -1.00D+00 NBFU=   204
 Initial guess from the checkpoint file:  "ITAN0059.chk"
 B after Tr=    -0.000000   -0.000000   -0.000000
         Rot=    0.999655   -0.000018   -0.000004   -0.026281 Ang=  -3.01 deg.
 ExpMin= 3.60D-02 ExpMax= 8.59D+03 ExpMxC= 1.30D+03 IAcc=3 IRadAn=         5 AccDes= 0.00D+00
 Harris functional with IExCor= 1009 and IRadAn=       5 diagonalized for initial guess.
 HarFok:  IExCor= 1009 AccDes= 0.00D+00 IRadAn=         5 IDoV= 1 UseB2=F ITyADJ=14
 ICtDFT=  3500011 ScaDFX=  1.000000  1.000000  1.000000  1.000000
 FoFCou: FMM=F IPFlag=           0 FMFlag=      100000 FMFlg1=           0
         NFxFlg=           0 DoJE=T BraDBF=F KetDBF=T FulRan=T
         wScrn=  0.000000 ICntrl=       500 IOpCl=  0 I1Cent=   200000004 NGrid=           0
         NMat0=    1 NMatS0=      1 NMatT0=    0 NMatD0=    1 NMtDS0=    0 NMtDT0=    0
 Petite list used in FoFCou.
 Keep R1 ints in memory in canonical form, NReq=235320225.
 Requested convergence on RMS density matrix=1.00D-08 within  32 cycles.
 Requested convergence on MAX density matrix=1.00D-06.
 Requested convergence on             energy=1.00D-06.
 No special actions if energy rises.
 SCF Done:  E(RM08HX) =  -418.580806419     A.U. after   13 cycles
            NFock= 13  Conv=0.45D-08     -V/T= 2.0037
 QCSCF skips out because SCF is already converged.
 R6APFD:  NTU= -4 IXU= 1 FactS= 1.050
 Calling FoFJK, ICntrl=      2127 FMM=F ISym2X=0 I1Cent= 0 IOpClX= 0 NMat=1 NMatS=1 NMatT=0.
 ***** Axes restored to original set *****
 -------------------------------------------------------------------
 Center     Atomic                   Forces (Hartrees/Bohr)
 Number     Number              X              Y              Z
 -------------------------------------------------------------------
      1        8           0.001037265   -0.002144425   -0.000024294
      2        8           0.009712852    0.002462051   -0.000031959
      3        8          -0.004173907    0.004279524   -0.000030181
      4        6           0.003890051   -0.004879171   -0.000004771
      5        6          -0.001195940    0.007010998   -0.000027245
      6        6          -0.018139390    0.002461839    0.000063385
      7        6           0.014468155   -0.010206742    0.000062167
      8        6          -0.002437104   -0.001078701   -0.000000827
      9        1          -0.001351126    0.001991939   -0.000917042
     10        1          -0.001341287    0.002002218    0.000908573
     11        1           0.000055964   -0.000480852    0.000002975
     12        1          -0.000525534   -0.001418678   -0.000000780
 -------------------------------------------------------------------
 Cartesian Forces:  Max     0.018139390 RMS     0.005007891

 GradGradGradGradGradGradGradGradGradGradGradGradGradGradGradGradGradGrad
 Berny optimization.
 Using GEDIIS/GDIIS optimizer.
 FormGI is forming the generalized inverse of G from B-inverse, IUseBI=4.
 Internal  Forces:  Max     0.009886954 RMS     0.002495715
 Search for a local minimum.
 Step number   2 out of a maximum of   65
 All quantities printed in internal units (Hartrees-Bohrs-Radians)
 Mixed Optimization -- RFO/linear search
 Update second derivatives using D2CorX and points    1    2
 DE= -8.58D-03 DEPred=-8.31D-03 R= 1.03D+00
 TightC=F SS=  1.41D+00  RLast= 2.19D-01 DXNew= 5.0454D-01 6.5585D-01
 Trust test= 1.03D+00 RLast= 2.19D-01 DXMaxT set to 5.05D-01
 ITU=  1  0
 Use linear search instead of GDIIS.
     Eigenvalues ---    0.01021   0.01121   0.01503   0.01572   0.01901
     Eigenvalues ---    0.02952   0.02952   0.05629   0.07202   0.08525
     Eigenvalues ---    0.09647   0.15848   0.16000   0.23404   0.24422
     Eigenvalues ---    0.25000   0.25000   0.28410   0.32269   0.34363
     Eigenvalues ---    0.34542   0.34670   0.35001   0.35426   0.35480
     Eigenvalues ---    0.48970   0.51727   0.58126   0.87080   0.96132
 RFO step:  Lambda=-8.88430753D-04 EMin= 1.02149406D-02
 Quartic linear search produced a step of  0.07437.
 Iteration  1 RMS(Cart)=  0.01208165 RMS(Int)=  0.00009819
 Iteration  2 RMS(Cart)=  0.00009748 RMS(Int)=  0.00004257
 Iteration  3 RMS(Cart)=  0.00000000 RMS(Int)=  0.00004257
 Variable       Old X    -DE/DX   Delta X   Delta X   Delta X     New X
                                 (Linear)    (Quad)   (Total)
    R1        2.58085   0.00738   0.00032   0.01584   0.01614   2.59699
    R2        2.59260   0.00504   0.00201   0.01069   0.01268   2.60528
    R3        2.25019  -0.00989  -0.00451  -0.01000  -0.01450   2.23569
    R4        2.25021  -0.00597  -0.00370  -0.00558  -0.00928   2.24093
    R5        2.83846   0.00037   0.00347  -0.00182   0.00167   2.84013
    R6        2.87661   0.00028   0.00365  -0.00132   0.00234   2.87894
    R7        2.06867   0.00060   0.00032   0.00177   0.00209   2.07076
    R8        2.06867   0.00061   0.00033   0.00179   0.00213   2.07079
    R9        2.81010   0.00356   0.00290   0.00962   0.01253   2.82264
   R10        2.51133  -0.00398  -0.00082  -0.00706  -0.00788   2.50345
   R11        2.05760  -0.00047   0.00052  -0.00161  -0.00109   2.05651
   R12        2.05641   0.00027   0.00049   0.00066   0.00115   2.05756
    A1        1.94719   0.00224  -0.00044   0.01372   0.01326   1.96045
    A2        1.79050   0.00150   0.00308   0.00468   0.00770   1.79820
    A3        1.97606   0.00050   0.00163   0.00874   0.01035   1.98640
    A4        1.97609   0.00048   0.00162   0.00856   0.01016   1.98625
    A5        1.89895  -0.00038  -0.00133   0.00127  -0.00023   1.89872
    A6        1.89887  -0.00037  -0.00134   0.00135  -0.00016   1.89870
    A7        1.91692  -0.00160  -0.00329  -0.02280  -0.02614   1.89078
    A8        1.86357   0.00293  -0.00463   0.01050   0.00592   1.86949
    A9        2.27540   0.00165   0.00395   0.00752   0.01144   2.28683
   A10        2.14422  -0.00459   0.00068  -0.01802  -0.01736   2.12686
   A11        2.11984   0.00306  -0.00341   0.01473   0.01132   2.13116
   A12        1.92250  -0.00245  -0.00145  -0.01083  -0.01227   1.91023
   A13        2.24085  -0.00060   0.00486  -0.00391   0.00095   2.24180
   A14        2.12892   0.00240  -0.00549   0.01163   0.00613   2.13506
   A15        1.90102  -0.00422   0.00344  -0.01807  -0.01461   1.88641
   A16        2.25324   0.00182   0.00204   0.00644   0.00848   2.26172
   A17        2.11735   0.00112   0.00092   0.00709   0.00802   2.12536
   A18        2.10451  -0.00209  -0.00174  -0.01320  -0.01495   2.08956
   A19        2.06133   0.00097   0.00082   0.00611   0.00693   2.06826
    D1       -3.14084  -0.00001   0.00001  -0.00085  -0.00085   3.14150
    D2        0.00035   0.00001  -0.00007   0.00089   0.00083   0.00117
    D3        3.14096   0.00001  -0.00001   0.00085   0.00084  -3.14139
    D4       -0.00018  -0.00001   0.00006  -0.00089  -0.00084  -0.00102
    D5        0.00024  -0.00000  -0.00001  -0.00002  -0.00003   0.00021
    D6       -3.14139  -0.00000  -0.00000  -0.00005  -0.00005  -3.14144
    D7        2.04357   0.00068   0.00090   0.00838   0.00935   2.05292
    D8       -1.09806   0.00068   0.00090   0.00835   0.00933  -1.08873
    D9       -2.04300  -0.00069  -0.00090  -0.00843  -0.00940  -2.05240
   D10        1.09856  -0.00069  -0.00089  -0.00846  -0.00942   1.08914
   D11       -0.00036  -0.00000   0.00004  -0.00050  -0.00046  -0.00081
   D12        3.14079   0.00002  -0.00004   0.00140   0.00136  -3.14103
   D13       -2.09795  -0.00119  -0.00283  -0.01359  -0.01638  -2.11433
   D14        1.04320  -0.00117  -0.00291  -0.01169  -0.01457   1.02863
   D15        2.09724   0.00117   0.00291   0.01241   0.01528   2.11252
   D16       -1.04480   0.00119   0.00283   0.01431   0.01710  -1.02770
   D17       -0.00006   0.00001  -0.00003   0.00054   0.00050   0.00045
   D18       -3.14115  -0.00002   0.00004  -0.00137  -0.00133   3.14070
   D19        3.14156   0.00001  -0.00003   0.00056   0.00052  -3.14110
   D20        0.00047  -0.00002   0.00004  -0.00135  -0.00131  -0.00084
   D21       -0.00002   0.00000  -0.00001   0.00012   0.00011   0.00009
   D22        3.14158   0.00000  -0.00000   0.00004   0.00004  -3.14157
   D23        3.14154   0.00000  -0.00001   0.00009   0.00008  -3.14157
   D24       -0.00005   0.00000  -0.00000   0.00001   0.00001  -0.00004
         Item               Value     Threshold  Converged?
 Maximum Force            0.009887     0.000450     NO 
 RMS     Force            0.002496     0.000300     NO 
 Maximum Displacement     0.041367     0.001800     NO 
 RMS     Displacement     0.012105     0.001200     NO 
 Predicted change in Energy=-4.921727D-04
 GradGradGradGradGradGradGradGradGradGradGradGradGradGradGradGradGradGrad

                          Input orientation:                          
 ---------------------------------------------------------------------
 Center     Atomic      Atomic             Coordinates (Angstroms)
 Number     Number       Type             X           Y           Z
 ---------------------------------------------------------------------
      1          8           0       -0.591968   -1.082997   -0.000300
      2          8           0       -2.595862   -0.082517   -0.000222
      3          8           0        1.608161   -1.546677   -0.000197
      4          6           0       -0.572448    1.284144   -0.000134
      5          6           0        0.834081    0.754536    0.000121
      6          6           0       -1.416906    0.016131    0.000306
      7          6           0        0.742389   -0.736322    0.000375
      8          6           0        2.000058    1.383426    0.000088
      9          1           0       -0.822800    1.875214    0.887977
     10          1           0       -0.822605    1.874454   -0.888822
     11          1           0        2.065229    2.469733   -0.000074
     12          1           0        2.924071    0.807474    0.000283
 ---------------------------------------------------------------------
                    Distance matrix (angstroms):
                    1          2          3          4          5
     1  O    0.000000
     2  O    2.239765   0.000000
     3  O    2.248459   4.451693   0.000000
     4  C    2.367221   2.441714   3.573318   0.000000
     5  C    2.325971   3.530604   2.427917   1.502933   0.000000
     6  C    1.374265   1.183076   3.404909   1.523472   2.369005
     7  C    1.378656   3.401673   1.185849   2.410617   1.493675
     8  C    3.577966   4.824051   2.956195   2.574421   1.324767
     9  H    3.097310   2.786639   4.290427   1.095801   2.188484
    10  H    3.096640   2.786357   4.289804   1.095815   2.188388
    11  H    4.436506   5.314109   4.042333   2.891879   2.111310
    12  H    3.992044   5.591220   2.696970   3.528861   2.090661
                    6          7          8          9         10
     6  C    0.000000
     7  C    2.286644   0.000000
     8  C    3.680372   2.464764   0.000000
     9  H    2.144087   3.171399   2.999789   0.000000
    10  H    2.144086   3.171124   2.999783   1.776799   0.000000
    11  H    4.259745   3.468241   1.088260   3.079416   3.079581
    12  H    4.412517   2.672648   1.088816   3.995887   3.995815
                   11         12
    11  H    0.000000
    12  H    1.871019   0.000000
 Stoichiometry    C5H4O3
 Framework group  C1[X(C5H4O3)]
 Deg. of freedom    30
 Full point group                 C1      NOp   1
 Largest Abelian subgroup         C1      NOp   1
 Largest concise Abelian subgroup C1      NOp   1
                         Standard orientation:                         
 ---------------------------------------------------------------------
 Center     Atomic      Atomic             Coordinates (Angstroms)
 Number     Number       Type             X           Y           Z
 ---------------------------------------------------------------------
      1          8           0        0.658905   -1.073360    0.000268
      2          8           0        2.601785    0.040987    0.000190
      3          8           0       -1.510832   -1.663114    0.000165
      4          6           0        0.502944    1.288718    0.000102
      5          6           0       -0.870711    0.678899   -0.000153
      6          6           0        1.419103    0.071500   -0.000338
      7          6           0       -0.693219   -0.804192   -0.000407
      8          6           0       -2.071007    1.239521   -0.000120
      9          1           0        0.718802    1.893238   -0.888009
     10          1           0        0.718652    1.892468    0.888790
     11          1           0       -2.198700    2.320263    0.000042
     12          1           0       -2.960278    0.611254   -0.000315
 ---------------------------------------------------------------------
 Rotational constants (GHZ):           3.9331591           1.9317171           1.3061191
 Standard basis: 6-311++G(d,p) (5D, 7F)
 There are   212 symmetry adapted cartesian basis functions of A   symmetry.
 There are   204 symmetry adapted basis functions of A   symmetry.
   204 basis functions,   324 primitive gaussians,   212 cartesian basis functions
    29 alpha electrons       29 beta electrons
       nuclear repulsion energy       352.5046645122 Hartrees.
 NAtoms=   12 NActive=   12 NUniq=   12 SFac= 1.00D+00 NAtFMM=   60 NAOKFM=F Big=F
 Integral buffers will be    131072 words long.
 Raffenetti 2 integral format.
 Two-electron integral symmetry is turned on.
 R6APFD:  NTU= -4 IXU= 1 FactS= 1.050
 Nuclear repulsion after empirical dispersion term =      352.4979040182 Hartrees.
 One-electron integrals computed using PRISM.
 NBasis=   204 RedAO= T EigKep=  8.04D-06  NBF=   204
 NBsUse=   204 1.00D-06 EigRej= -1.00D+00 NBFU=   204
 Initial guess from the checkpoint file:  "ITAN0059.chk"
 B after Tr=     0.000000    0.000000    0.000000
         Rot=    0.999989    0.000037    0.000017    0.004662 Ang=   0.53 deg.
 ExpMin= 3.60D-02 ExpMax= 8.59D+03 ExpMxC= 1.30D+03 IAcc=3 IRadAn=         5 AccDes= 0.00D+00
 Harris functional with IExCor= 1009 and IRadAn=       5 diagonalized for initial guess.
 HarFok:  IExCor= 1009 AccDes= 0.00D+00 IRadAn=         5 IDoV= 1 UseB2=F ITyADJ=14
 ICtDFT=  3500011 ScaDFX=  1.000000  1.000000  1.000000  1.000000
 FoFCou: FMM=F IPFlag=           0 FMFlag=      100000 FMFlg1=           0
         NFxFlg=           0 DoJE=T BraDBF=F KetDBF=T FulRan=T
         wScrn=  0.000000 ICntrl=       500 IOpCl=  0 I1Cent=   200000004 NGrid=           0
         NMat0=    1 NMatS0=      1 NMatT0=    0 NMatD0=    1 NMtDS0=    0 NMtDT0=    0
 Petite list used in FoFCou.
 Keep R1 ints in memory in canonical form, NReq=235320225.
 Requested convergence on RMS density matrix=1.00D-08 within  32 cycles.
 Requested convergence on MAX density matrix=1.00D-06.
 Requested convergence on             energy=1.00D-06.
 No special actions if energy rises.
 SCF Done:  E(RM08HX) =  -418.581321042     A.U. after   11 cycles
            NFock= 11  Conv=0.87D-08     -V/T= 2.0036
 QCSCF skips out because SCF is already converged.
 R6APFD:  NTU= -4 IXU= 1 FactS= 1.050
 Calling FoFJK, ICntrl=      2127 FMM=F ISym2X=0 I1Cent= 0 IOpClX= 0 NMat=1 NMatS=1 NMatT=0.
 ***** Axes restored to original set *****
 -------------------------------------------------------------------
 Center     Atomic                   Forces (Hartrees/Bohr)
 Number     Number              X              Y              Z
 -------------------------------------------------------------------
      1        8          -0.000508706   -0.002983894    0.000102924
      2        8          -0.001418557   -0.000429843    0.000064208
      3        8          -0.000046662    0.000147403    0.000063608
      4        6           0.002507866   -0.002584341    0.000058542
      5        6          -0.004378799    0.001900902    0.000056718
      6        6           0.001344052    0.002565801   -0.000181209
      7        6           0.001173975   -0.000113753   -0.000168407
      8        6           0.001338690    0.000838694    0.000006305
      9        1          -0.000064697    0.000603206   -0.000203559
     10        1          -0.000085167    0.000581431    0.000207119
     11        1           0.000256490   -0.000241684   -0.000007653
     12        1          -0.000118484   -0.000283922    0.000001403
 -------------------------------------------------------------------
 Cartesian Forces:  Max     0.004378799 RMS     0.001296562

 GradGradGradGradGradGradGradGradGradGradGradGradGradGradGradGradGradGrad
 Berny optimization.
 Using GEDIIS/GDIIS optimizer.
 FormGI is forming the generalized inverse of G from B-inverse, IUseBI=4.
 Internal  Forces:  Max     0.002753812 RMS     0.000664715
 Search for a local minimum.
 Step number   3 out of a maximum of   65
 All quantities printed in internal units (Hartrees-Bohrs-Radians)
 Mixed Optimization -- En-DIIS/RFO-DIIS
 Update second derivatives using D2CorX and points    1    2    3
 DE= -5.15D-04 DEPred=-4.92D-04 R= 1.05D+00
 TightC=F SS=  1.41D+00  RLast= 6.97D-02 DXNew= 8.4853D-01 2.0909D-01
 Trust test= 1.05D+00 RLast= 6.97D-02 DXMaxT set to 5.05D-01
 ITU=  1  1  0
 Use linear search instead of GDIIS.
     Eigenvalues ---    0.01022   0.01123   0.01501   0.01572   0.01900
     Eigenvalues ---    0.02952   0.02952   0.05518   0.06627   0.08665
     Eigenvalues ---    0.09755   0.15318   0.16018   0.22673   0.24115
     Eigenvalues ---    0.25000   0.25372   0.29666   0.32395   0.33604
     Eigenvalues ---    0.34542   0.34607   0.35368   0.35426   0.35882
     Eigenvalues ---    0.46903   0.51724   0.59896   0.92543   0.96222
 RFO step:  Lambda=-8.05635347D-05 EMin= 1.02174133D-02
 Quartic linear search produced a step of  0.06159.
 Iteration  1 RMS(Cart)=  0.00422418 RMS(Int)=  0.00001540
 Iteration  2 RMS(Cart)=  0.00001775 RMS(Int)=  0.00000377
 Iteration  3 RMS(Cart)=  0.00000000 RMS(Int)=  0.00000377
 Variable       Old X    -DE/DX   Delta X   Delta X   Delta X     New X
                                 (Linear)    (Quad)   (Total)
    R1        2.59699   0.00174   0.00099   0.00404   0.00503   2.60202
    R2        2.60528   0.00088   0.00078   0.00247   0.00325   2.60853
    R3        2.23569   0.00145  -0.00089   0.00100   0.00011   2.23580
    R4        2.24093  -0.00013  -0.00057  -0.00062  -0.00119   2.23974
    R5        2.84013  -0.00275   0.00010  -0.00858  -0.00847   2.83166
    R6        2.87894  -0.00011   0.00014  -0.00026  -0.00012   2.87882
    R7        2.07076   0.00017   0.00013   0.00059   0.00072   2.07148
    R8        2.07079   0.00016   0.00013   0.00056   0.00069   2.07148
    R9        2.82264   0.00087   0.00077   0.00292   0.00369   2.82633
   R10        2.50345   0.00145  -0.00049   0.00244   0.00195   2.50540
   R11        2.05651  -0.00022  -0.00007  -0.00063  -0.00069   2.05582
   R12        2.05756   0.00005   0.00007   0.00020   0.00027   2.05784
    A1        1.96045  -0.00165   0.00082  -0.00544  -0.00462   1.95583
    A2        1.79820   0.00031   0.00047   0.00130   0.00176   1.79996
    A3        1.98640  -0.00005   0.00064   0.00053   0.00116   1.98756
    A4        1.98625  -0.00002   0.00063   0.00079   0.00141   1.98766
    A5        1.89872   0.00011  -0.00001   0.00252   0.00249   1.90121
    A6        1.89870   0.00009  -0.00001   0.00227   0.00225   1.90095
    A7        1.89078  -0.00037  -0.00161  -0.00659  -0.00820   1.88258
    A8        1.86949   0.00054   0.00036   0.00065   0.00101   1.87050
    A9        2.28683   0.00083   0.00070   0.00466   0.00537   2.29220
   A10        2.12686  -0.00137  -0.00107  -0.00531  -0.00638   2.12049
   A11        2.13116  -0.00064   0.00070  -0.00282  -0.00213   2.12904
   A12        1.91023   0.00057  -0.00076   0.00199   0.00124   1.91146
   A13        2.24180   0.00007   0.00006   0.00083   0.00088   2.24268
   A14        2.13506  -0.00003   0.00038  -0.00076  -0.00038   2.13468
   A15        1.88641   0.00024  -0.00090   0.00151   0.00061   1.88702
   A16        2.26172  -0.00021   0.00052  -0.00075  -0.00023   2.26149
   A17        2.12536   0.00057   0.00049   0.00396   0.00445   2.12982
   A18        2.08956  -0.00059  -0.00092  -0.00428  -0.00520   2.08436
   A19        2.06826   0.00002   0.00043   0.00032   0.00074   2.06901
    D1        3.14150   0.00002  -0.00005   0.00176   0.00171  -3.13998
    D2        0.00117  -0.00004   0.00005  -0.00319  -0.00314  -0.00197
    D3       -3.14139  -0.00002   0.00005  -0.00161  -0.00157   3.14023
    D4       -0.00102   0.00004  -0.00005   0.00309   0.00303   0.00202
    D5        0.00021   0.00000  -0.00000  -0.00009  -0.00009   0.00012
    D6       -3.14144   0.00000  -0.00000   0.00005   0.00005  -3.14139
    D7        2.05292   0.00030   0.00058   0.00399   0.00457   2.05749
    D8       -1.08873   0.00030   0.00057   0.00413   0.00471  -1.08402
    D9       -2.05240  -0.00028  -0.00058  -0.00400  -0.00458  -2.05698
   D10        1.08914  -0.00028  -0.00058  -0.00385  -0.00444   1.08470
   D11       -0.00081   0.00002  -0.00003   0.00189   0.00187   0.00106
   D12       -3.14103  -0.00004   0.00008  -0.00346  -0.00338   3.13877
   D13       -2.11433  -0.00014  -0.00101  -0.00061  -0.00162  -2.11594
   D14        1.02863  -0.00020  -0.00090  -0.00596  -0.00686   1.02177
   D15        2.11252   0.00020   0.00094   0.00458   0.00553   2.11805
   D16       -1.02770   0.00014   0.00105  -0.00077   0.00028  -1.02742
   D17        0.00045  -0.00002   0.00003  -0.00172  -0.00170  -0.00125
   D18        3.14070   0.00005  -0.00008   0.00344   0.00335  -3.13913
   D19       -3.14110  -0.00002   0.00003  -0.00185  -0.00182   3.14027
   D20       -0.00084   0.00005  -0.00008   0.00331   0.00323   0.00239
   D21        0.00009  -0.00001   0.00001  -0.00032  -0.00031  -0.00023
   D22       -3.14157  -0.00000   0.00000  -0.00013  -0.00012   3.14150
   D23       -3.14157  -0.00001   0.00000  -0.00016  -0.00016   3.14146
   D24       -0.00004  -0.00000   0.00000   0.00004   0.00004  -0.00000
         Item               Value     Threshold  Converged?
 Maximum Force            0.002754     0.000450     NO 
 RMS     Force            0.000665     0.000300     NO 
 Maximum Displacement     0.014584     0.001800     NO 
 RMS     Displacement     0.004227     0.001200     NO 
 Predicted change in Energy=-4.198241D-05
 GradGradGradGradGradGradGradGradGradGradGradGradGradGradGradGradGradGrad

                          Input orientation:                          
 ---------------------------------------------------------------------
 Center     Atomic      Atomic             Coordinates (Angstroms)
 Number     Number       Type             X           Y           Z
 ---------------------------------------------------------------------
      1          8           0       -0.591207   -1.086952    0.000124
      2          8           0       -2.595698   -0.085162    0.001265
      3          8           0        1.611551   -1.541776    0.001067
      4          6           0       -0.572893    1.283295   -0.000543
      5          6           0        0.830574    0.758293   -0.000425
      6          6           0       -1.416815    0.015001   -0.001086
      7          6           0        0.743493   -0.734800   -0.001057
      8          6           0        1.999476    1.383924    0.000193
      9          1           0       -0.824464    1.877490    0.885606
     10          1           0       -0.824298    1.877810   -0.886523
     11          1           0        2.072947    2.469333    0.000535
     12          1           0        2.918735    0.800145    0.000244
 ---------------------------------------------------------------------
                    Distance matrix (angstroms):
                    1          2          3          4          5
     1  O    0.000000
     2  O    2.240886   0.000000
     3  O    2.249223   4.452266   0.000000
     4  C    2.370317   2.442215   3.571110   0.000000
     5  C    2.329461   3.528564   2.429042   1.498448   0.000000
     6  C    1.376927   1.183134   3.405078   1.523408   2.367116
     7  C    1.380375   3.401799   1.185217   2.409477   1.495630
     8  C    3.580065   4.824297   2.951307   2.574337   1.325800
     9  H    3.102644   2.787711   4.290450   1.096182   2.185590
    10  H    3.103270   2.789137   4.291241   1.096181   2.185656
    11  H    4.443520   5.321813   4.037559   2.899510   2.114509
    12  H    3.985075   5.585046   2.682038   3.524897   2.088580
                    6          7          8          9         10
     6  C    0.000000
     7  C    2.286729   0.000000
     8  C    3.680352   2.463023   0.000000
     9  H    2.146152   3.173125   3.000367   0.000000
    10  H    2.145957   3.172972   3.000648   1.772129   0.000000
    11  H    4.266402   3.468993   1.087892   3.086847   3.087200
    12  H    4.406069   2.662280   1.088961   3.994506   3.994749
                   11         12
    11  H    0.000000
    12  H    1.871241   0.000000
 Stoichiometry    C5H4O3
 Framework group  C1[X(C5H4O3)]
 Deg. of freedom    30
 Full point group                 C1      NOp   1
 Largest Abelian subgroup         C1      NOp   1
 Largest concise Abelian subgroup C1      NOp   1
                         Standard orientation:                         
 ---------------------------------------------------------------------
 Center     Atomic      Atomic             Coordinates (Angstroms)
 Number     Number       Type             X           Y           Z
 ---------------------------------------------------------------------
      1          8           0        0.659892   -1.076678    0.000176
      2          8           0        2.601966    0.041320   -0.001144
      3          8           0       -1.512286   -1.660324   -0.000717
      4          6           0        0.502147    1.288385    0.000308
      5          6           0       -0.867998    0.681713    0.000275
      6          6           0        1.419232    0.071944    0.001157
      7          6           0       -0.693216   -0.803669    0.001245
      8          6           0       -2.071687    1.237482   -0.000511
      9          1           0        0.718352    1.896154   -0.885969
     10          1           0        0.718102    1.896861    0.886160
     11          1           0       -2.208896    2.316687   -0.001100
     12          1           0       -2.955004    0.600626   -0.000453
 ---------------------------------------------------------------------
 Rotational constants (GHZ):           3.9354785           1.9311243           1.3060477
 Standard basis: 6-311++G(d,p) (5D, 7F)
 There are   212 symmetry adapted cartesian basis functions of A   symmetry.
 There are   204 symmetry adapted basis functions of A   symmetry.
   204 basis functions,   324 primitive gaussians,   212 cartesian basis functions
    29 alpha electrons       29 beta electrons
       nuclear repulsion energy       352.4511781846 Hartrees.
 NAtoms=   12 NActive=   12 NUniq=   12 SFac= 1.00D+00 NAtFMM=   60 NAOKFM=F Big=F
 Integral buffers will be    131072 words long.
 Raffenetti 2 integral format.
 Two-electron integral symmetry is turned on.
 R6APFD:  NTU= -4 IXU= 1 FactS= 1.050
 Nuclear repulsion after empirical dispersion term =      352.4444065006 Hartrees.
 One-electron integrals computed using PRISM.
 NBasis=   204 RedAO= T EigKep=  7.97D-06  NBF=   204
 NBsUse=   204 1.00D-06 EigRej= -1.00D+00 NBFU=   204
 Initial guess from the checkpoint file:  "ITAN0059.chk"
 B after Tr=    -0.000000   -0.000000    0.000000
         Rot=    1.000000   -0.000000   -0.000021   -0.000056 Ang=  -0.01 deg.
 Keep R1 ints in memory in canonical form, NReq=235320225.
 Requested convergence on RMS density matrix=1.00D-08 within  32 cycles.
 Requested convergence on MAX density matrix=1.00D-06.
 Requested convergence on             energy=1.00D-06.
 No special actions if energy rises.
 SCF Done:  E(RM08HX) =  -418.581369923     A.U. after   11 cycles
            NFock= 11  Conv=0.61D-08     -V/T= 2.0036
 QCSCF skips out because SCF is already converged.
 R6APFD:  NTU= -4 IXU= 1 FactS= 1.050
 Calling FoFJK, ICntrl=      2127 FMM=F ISym2X=0 I1Cent= 0 IOpClX= 0 NMat=1 NMatS=1 NMatT=0.
 ***** Axes restored to original set *****
 -------------------------------------------------------------------
 Center     Atomic                   Forces (Hartrees/Bohr)
 Number     Number              X              Y              Z
 -------------------------------------------------------------------
      1        8           0.000055508   -0.000354880   -0.000271215
      2        8          -0.001032275   -0.000124655   -0.000193549
      3        8           0.000621474   -0.000361026   -0.000179734
      4        6           0.000550047   -0.000956760   -0.000174596
      5        6          -0.001250295    0.000413476   -0.000160095
      6        6           0.001121158    0.000938792    0.000519214
      7        6          -0.000361243    0.000504516    0.000458880
      8        6           0.000423834   -0.000088800   -0.000013434
      9        1          -0.000110299    0.000021611    0.000009669
     10        1          -0.000053921    0.000085302   -0.000011691
     11        1           0.000057892   -0.000047614    0.000022118
     12        1          -0.000021881   -0.000029962   -0.000005567
 -------------------------------------------------------------------
 Cartesian Forces:  Max     0.001250295 RMS     0.000474344

 GradGradGradGradGradGradGradGradGradGradGradGradGradGradGradGradGradGrad
 Berny optimization.
 Using GEDIIS/GDIIS optimizer.
 FormGI is forming the generalized inverse of G from B-inverse, IUseBI=4.
 Internal  Forces:  Max     0.001038063 RMS     0.000249983
 Search for a local minimum.
 Step number   4 out of a maximum of   65
 All quantities printed in internal units (Hartrees-Bohrs-Radians)
 Mixed Optimization -- En-DIIS/RFO-DIIS
 Swapping is turned off.
 Update second derivatives using D2CorX and points    1    2    3    4
 DE= -4.89D-05 DEPred=-4.20D-05 R= 1.16D+00
 TightC=F SS=  1.41D+00  RLast= 2.43D-02 DXNew= 8.4853D-01 7.2944D-02
 Trust test= 1.16D+00 RLast= 2.43D-02 DXMaxT set to 5.05D-01
 ITU=  1  1  1  0
     Eigenvalues ---    0.01025   0.01162   0.01531   0.01594   0.01905
     Eigenvalues ---    0.02952   0.02952   0.05484   0.06374   0.08608
     Eigenvalues ---    0.09799   0.14714   0.16009   0.20187   0.24117
     Eigenvalues ---    0.25008   0.25043   0.30005   0.31860   0.33610
     Eigenvalues ---    0.34503   0.34543   0.35391   0.35436   0.35899
     Eigenvalues ---    0.47401   0.51606   0.59478   0.91204   0.96584
 En-DIIS/RFO-DIIS/Sim-DIIS IScMMF=       -3 using points:     4    3
 RFO step:  Lambda=-2.23946206D-05.
 DidBck=F Rises=F RFO-DIIS coefs:    0.87576    0.12424
 Iteration  1 RMS(Cart)=  0.00354009 RMS(Int)=  0.00001965
 Iteration  2 RMS(Cart)=  0.00001573 RMS(Int)=  0.00001186
 Iteration  3 RMS(Cart)=  0.00000000 RMS(Int)=  0.00001186
 Variable       Old X    -DE/DX   Delta X   Delta X   Delta X     New X
                                 (Linear)    (Quad)   (Total)
    R1        2.60202   0.00033  -0.00062   0.00287   0.00224   2.60426
    R2        2.60853   0.00004  -0.00040   0.00160   0.00120   2.60973
    R3        2.23580   0.00104  -0.00001   0.00089   0.00088   2.23668
    R4        2.23974   0.00070   0.00015   0.00013   0.00027   2.24001
    R5        2.83166  -0.00067   0.00105  -0.00514  -0.00409   2.82757
    R6        2.87882  -0.00049   0.00001  -0.00164  -0.00163   2.87720
    R7        2.07148   0.00004  -0.00009   0.00045   0.00036   2.07185
    R8        2.07148   0.00007  -0.00009   0.00052   0.00044   2.07192
    R9        2.82633  -0.00015  -0.00046   0.00114   0.00068   2.82701
   R10        2.50540   0.00033  -0.00024   0.00116   0.00091   2.50631
   R11        2.05582  -0.00004   0.00009  -0.00038  -0.00029   2.05553
   R12        2.05784  -0.00000  -0.00003   0.00012   0.00009   2.05792
    A1        1.95583  -0.00026   0.00057  -0.00226  -0.00168   1.95416
    A2        1.79996   0.00014  -0.00022   0.00142   0.00121   1.80117
    A3        1.98756   0.00005  -0.00014   0.00162   0.00148   1.98904
    A4        1.98766  -0.00002  -0.00017   0.00090   0.00072   1.98838
    A5        1.90121  -0.00010  -0.00031  -0.00007  -0.00039   1.90083
    A6        1.90095  -0.00004  -0.00028   0.00069   0.00041   1.90136
    A7        1.88258  -0.00003   0.00102  -0.00427  -0.00325   1.87933
    A8        1.87050   0.00014  -0.00013   0.00062   0.00050   1.87100
    A9        2.29220   0.00047  -0.00067   0.00458   0.00391   2.29611
   A10        2.12049  -0.00060   0.00079  -0.00520  -0.00441   2.11608
   A11        2.12904  -0.00006   0.00026  -0.00093  -0.00071   2.12833
   A12        1.91146   0.00002  -0.00015   0.00027   0.00009   1.91155
   A13        2.24268   0.00004  -0.00011   0.00071   0.00056   2.24324
   A14        2.13468   0.00020   0.00005   0.00068   0.00070   2.13537
   A15        1.88702  -0.00004  -0.00008  -0.00004  -0.00014   1.88688
   A16        2.26149  -0.00016   0.00003  -0.00060  -0.00060   2.26088
   A17        2.12982   0.00010  -0.00055   0.00249   0.00193   2.13175
   A18        2.08436  -0.00009   0.00065  -0.00279  -0.00215   2.08222
   A19        2.06901  -0.00002  -0.00009   0.00031   0.00021   2.06922
    D1       -3.13998  -0.00005  -0.00021  -0.00568  -0.00589   3.13732
    D2       -0.00197   0.00011   0.00039   0.00849   0.00888   0.00691
    D3        3.14023   0.00006   0.00019   0.00476   0.00497  -3.13799
    D4        0.00202  -0.00011  -0.00038  -0.00815  -0.00853  -0.00651
    D5        0.00012  -0.00000   0.00001   0.00033   0.00034   0.00046
    D6       -3.14139   0.00000  -0.00001  -0.00005  -0.00006  -3.14144
    D7        2.05749  -0.00001  -0.00057   0.00193   0.00137   2.05885
    D8       -1.08402  -0.00001  -0.00059   0.00155   0.00097  -1.08305
    D9       -2.05698  -0.00003   0.00057  -0.00184  -0.00127  -2.05825
   D10        1.08470  -0.00003   0.00055  -0.00222  -0.00167   1.08303
   D11        0.00106  -0.00007  -0.00023  -0.00512  -0.00536  -0.00430
   D12        3.13877   0.00011   0.00042   0.01024   0.01066  -3.13375
   D13       -2.11594  -0.00015   0.00020  -0.00774  -0.00754  -2.12348
   D14        1.02177   0.00003   0.00085   0.00762   0.00848   1.03025
   D15        2.11805  -0.00003  -0.00069  -0.00297  -0.00366   2.11439
   D16       -1.02742   0.00015  -0.00003   0.01239   0.01236  -1.01507
   D17       -0.00125   0.00006   0.00021   0.00451   0.00472   0.00347
   D18       -3.13913  -0.00013  -0.00042  -0.00966  -0.01007   3.13399
   D19        3.14027   0.00006   0.00023   0.00484   0.00507  -3.13785
   D20        0.00239  -0.00013  -0.00040  -0.00933  -0.00972  -0.00734
   D21       -0.00023   0.00002   0.00004   0.00090   0.00093   0.00071
   D22        3.14150   0.00000   0.00002   0.00040   0.00041  -3.14128
   D23        3.14146   0.00002   0.00002   0.00047   0.00049  -3.14123
   D24       -0.00000   0.00001  -0.00000  -0.00003  -0.00003  -0.00003
         Item               Value     Threshold  Converged?
 Maximum Force            0.001038     0.000450     NO 
 RMS     Force            0.000250     0.000300     YES
 Maximum Displacement     0.009303     0.001800     NO 
 RMS     Displacement     0.003540     0.001200     NO 
 Predicted change in Energy=-1.120905D-05
 GradGradGradGradGradGradGradGradGradGradGradGradGradGradGradGradGradGrad

                          Input orientation:                          
 ---------------------------------------------------------------------
 Center     Atomic      Atomic             Coordinates (Angstroms)
 Number     Number       Type             X           Y           Z
 ---------------------------------------------------------------------
      1          8           0       -0.590331   -1.087773   -0.000721
      2          8           0       -2.595985   -0.086028   -0.003535
      3          8           0        1.614501   -1.538061   -0.002854
      4          6           0       -0.573505    1.282784    0.000704
      5          6           0        0.828658    0.760473    0.001184
      6          6           0       -1.416730    0.015064    0.003184
      7          6           0        0.744362   -0.733136    0.003168
      8          6           0        1.999566    1.383372   -0.000121
      9          1           0       -0.826668    1.879628    0.884855
     10          1           0       -0.826462    1.876712   -0.885514
     11          1           0        2.077870    2.468289   -0.001237
     12          1           0        2.916123    0.795277    0.000289
 ---------------------------------------------------------------------
                    Distance matrix (angstroms):
                    1          2          3          4          5
     1  O    0.000000
     2  O    2.241908   0.000000
     3  O    2.250344   4.453830   0.000000
     4  C    2.370617   2.442149   3.569951   0.000000
     5  C    2.330139   3.527715   2.429162   1.496285   0.000000
     6  C    1.378115   1.183599   3.405966   1.522547   2.365884
     7  C    1.381009   3.402457   1.185362   2.408467   1.495988
     8  C    3.579682   4.824753   2.946703   2.575036   1.326284
     9  H    3.105732   2.789897   4.292777   1.096374   2.184831
    10  H    3.102707   2.785938   4.289297   1.096412   2.184409
    11  H    4.445770   5.326299   4.033058   2.904344   2.115932
    12  H    3.980088   5.582119   2.671834   3.523516   2.087755
                    6          7          8          9         10
     6  C    0.000000
     7  C    2.286946   0.000000
     8  C    3.680130   2.460723   0.000000
     9  H    2.145255   3.173649   3.002840   0.000000
    10  H    2.145678   3.173098   3.002288   1.770371   0.000000
    11  H    4.269727   3.468052   1.087739   3.093222   3.093065
    12  H    4.402540   2.655674   1.089006   3.995843   3.995133
                   11         12
    11  H    0.000000
    12  H    1.871267   0.000000
 Stoichiometry    C5H4O3
 Framework group  C1[X(C5H4O3)]
 Deg. of freedom    30
 Full point group                 C1      NOp   1
 Largest Abelian subgroup         C1      NOp   1
 Largest concise Abelian subgroup C1      NOp   1
                         Standard orientation:                         
 ---------------------------------------------------------------------
 Center     Atomic      Atomic             Coordinates (Angstroms)
 Number     Number       Type             X           Y           Z
 ---------------------------------------------------------------------
      1          8           0        0.659324   -1.078064   -0.000177
      2          8           0        2.602635    0.039830    0.002814
      3          8           0       -1.515230   -1.657163    0.002122
      4          6           0        0.503198    1.287407   -0.000286
      5          6           0       -0.865842    0.683588   -0.000791
      6          6           0        1.419475    0.071441   -0.003627
      7          6           0       -0.693906   -0.802484   -0.003618
      8          6           0       -2.071336    1.236589    0.001080
      9          1           0        0.720649    1.898578   -0.884153
     10          1           0        0.721005    1.894695    0.886213
     11          1           0       -2.213271    2.315027    0.002811
     12          1           0       -2.951744    0.595640    0.000516
 ---------------------------------------------------------------------
 Rotational constants (GHZ):           3.9411438           1.9299450           1.3061130
 Standard basis: 6-311++G(d,p) (5D, 7F)
 There are   212 symmetry adapted cartesian basis functions of A   symmetry.
 There are   204 symmetry adapted basis functions of A   symmetry.
   204 basis functions,   324 primitive gaussians,   212 cartesian basis functions
    29 alpha electrons       29 beta electrons
       nuclear repulsion energy       352.4453931786 Hartrees.
 NAtoms=   12 NActive=   12 NUniq=   12 SFac= 1.00D+00 NAtFMM=   60 NAOKFM=F Big=F
 Integral buffers will be    131072 words long.
 Raffenetti 2 integral format.
 Two-electron integral symmetry is turned on.
 R6APFD:  NTU= -4 IXU= 1 FactS= 1.050
 Nuclear repulsion after empirical dispersion term =      352.4386140784 Hartrees.
 One-electron integrals computed using PRISM.
 NBasis=   204 RedAO= T EigKep=  7.92D-06  NBF=   204
 NBsUse=   204 1.00D-06 EigRej= -1.00D+00 NBFU=   204
 Initial guess from the checkpoint file:  "ITAN0059.chk"
 B after Tr=     0.000000    0.000000   -0.000000
         Rot=    1.000000   -0.000057   -0.000004    0.000332 Ang=  -0.04 deg.
 Keep R1 ints in memory in canonical form, NReq=235320225.
 Requested convergence on RMS density matrix=1.00D-08 within  32 cycles.
 Requested convergence on MAX density matrix=1.00D-06.
 Requested convergence on             energy=1.00D-06.
 No special actions if energy rises.
 SCF Done:  E(RM08HX) =  -418.581363625     A.U. after   11 cycles
            NFock= 11  Conv=0.82D-08     -V/T= 2.0037
 QCSCF skips out because SCF is already converged.
 R6APFD:  NTU= -4 IXU= 1 FactS= 1.050
 Calling FoFJK, ICntrl=      2127 FMM=F ISym2X=0 I1Cent= 0 IOpClX= 0 NMat=1 NMatS=1 NMatT=0.
 ***** Axes restored to original set *****
 -------------------------------------------------------------------
 Center     Atomic                   Forces (Hartrees/Bohr)
 Number     Number              X              Y              Z
 -------------------------------------------------------------------
      1        8           0.000194859    0.000440380    0.000842053
      2        8          -0.000054743    0.000031849    0.000603959
      3        8           0.000253741   -0.000231372    0.000535923
      4        6          -0.000392819    0.000177118    0.000531471
      5        6           0.000419029   -0.000195174    0.000477760
      6        6           0.000324290   -0.000177209   -0.001625322
      7        6          -0.000639705    0.000306857   -0.001374536
      8        6          -0.000085615   -0.000231322    0.000042136
      9        1           0.000087239   -0.000008702    0.000066317
     10        1          -0.000092207   -0.000205054   -0.000050658
     11        1          -0.000017575    0.000041506   -0.000064930
     12        1           0.000003505    0.000051122    0.000015828
[...]
   D21       -0.00000   0.00000   0.00000   0.00000   0.00000   0.00000
   D22       -3.14158  -0.00000   0.00000  -0.00001  -0.00001  -3.14159
   D23        3.14157   0.00000   0.00000   0.00002   0.00002   3.14159
   D24       -0.00001   0.00000   0.00000   0.00001   0.00001  -0.00000
         Item               Value     Threshold  Converged?
 Maximum Force            0.000079     0.000450     YES
 RMS     Force            0.000016     0.000300     YES
 Maximum Displacement     0.000696     0.001800     YES
 RMS     Displacement     0.000228     0.001200     YES
 Predicted change in Energy=-3.294396D-08
 Optimization completed.
    -- Stationary point found.
                           ----------------------------
                           !   Optimized Parameters   !
                           ! (Angstroms and Degrees)  !
 --------------------------                            --------------------------
 ! Name  Definition              Value          Derivative Info.                !
 --------------------------------------------------------------------------------
 ! R1    R(1,6)                  1.3776         -DE/DX =    0.0                 !
 ! R2    R(1,7)                  1.3805         -DE/DX =   -0.0001              !
 ! R3    R(2,6)                  1.1837         -DE/DX =   -0.0001              !
 ! R4    R(3,7)                  1.1856         -DE/DX =    0.0                 !
 ! R5    R(4,5)                  1.4969         -DE/DX =    0.0                 !
 ! R6    R(4,6)                  1.5223         -DE/DX =    0.0                 !
 ! R7    R(4,9)                  1.0963         -DE/DX =    0.0                 !
 ! R8    R(4,10)                 1.0963         -DE/DX =    0.0                 !
 ! R9    R(5,7)                  1.4956         -DE/DX =    0.0                 !
 ! R10   R(5,8)                  1.3262         -DE/DX =    0.0                 !
 ! R11   R(8,11)                 1.0878         -DE/DX =    0.0                 !
 ! R12   R(8,12)                 1.089          -DE/DX =    0.0                 !
 ! A1    A(6,1,7)              111.988          -DE/DX =    0.0                 !
 ! A2    A(5,4,6)              103.1748         -DE/DX =    0.0                 !
 ! A3    A(5,4,9)              113.9367         -DE/DX =    0.0                 !
 ! A4    A(5,4,10)             113.9334         -DE/DX =    0.0                 !
 ! A5    A(6,4,9)              108.8955         -DE/DX =    0.0                 !
 ! A6    A(6,4,10)             108.8947         -DE/DX =    0.0                 !
 ! A7    A(9,4,10)             107.7703         -DE/DX =    0.0                 !
 ! A8    A(4,5,7)              107.1859         -DE/DX =    0.0                 !
 ! A9    A(4,5,8)              131.5384         -DE/DX =    0.0                 !
 ! A10   A(7,5,8)              121.2756         -DE/DX =    0.0                 !
 ! A11   A(1,6,2)              121.9536         -DE/DX =    0.0                 !
 ! A12   A(1,6,4)              109.5329         -DE/DX =    0.0                 !
 ! A13   A(2,6,4)              128.5135         -DE/DX =    0.0                 !
 ! A14   A(1,7,3)              122.3483         -DE/DX =    0.0                 !
 ! A15   A(1,7,5)              108.1183         -DE/DX =    0.0                 !
 ! A16   A(3,7,5)              129.5333         -DE/DX =    0.0                 !
 ! A17   A(5,8,11)             122.104          -DE/DX =    0.0                 !
 ! A18   A(5,8,12)             119.3498         -DE/DX =    0.0                 !
 ! A19   A(11,8,12)            118.5461         -DE/DX =    0.0                 !
 ! D1    D(7,1,6,2)            179.9972         -DE/DX =    0.0                 !
 ! D2    D(7,1,6,4)              0.0069         -DE/DX =    0.0                 !
 ! D3    D(6,1,7,3)            179.9876         -DE/DX =    0.0                 !
 ! D4    D(6,1,7,5)              0.0028         -DE/DX =    0.0                 !
 ! D5    D(6,4,5,7)              0.0144         -DE/DX =    0.0                 !
 ! D6    D(6,4,5,8)            180.0132         -DE/DX =    0.0                 !
 ! D7    D(9,4,5,7)            117.9064         -DE/DX =    0.0                 !
 ! D8    D(9,4,5,8)            -62.0948         -DE/DX =    0.0                 !
 ! D9    D(10,4,5,7)          -117.8749         -DE/DX =    0.0                 !
 ! D10   D(10,4,5,8)            62.1239         -DE/DX =    0.0                 !
 ! D11   D(5,4,6,1)             -0.0133         -DE/DX =    0.0                 !
 ! D12   D(5,4,6,2)           -180.0028         -DE/DX =    0.0                 !
 ! D13   D(9,4,6,1)           -121.3826         -DE/DX =    0.0                 !
 ! D14   D(9,4,6,2)             58.6279         -DE/DX =    0.0                 !
 ! D15   D(10,4,6,1)           121.3518         -DE/DX =    0.0                 !
 ! D16   D(10,4,6,2)           -58.6377         -DE/DX =    0.0                 !
 ! D17   D(4,5,7,1)             -0.0113         -DE/DX =    0.0                 !
 ! D18   D(4,5,7,3)           -179.9947         -DE/DX =    0.0                 !
 ! D19   D(8,5,7,1)           -180.0103         -DE/DX =    0.0                 !
 ! D20   D(8,5,7,3)              0.0063         -DE/DX =    0.0                 !
 ! D21   D(4,5,8,11)            -0.0002         -DE/DX =    0.0                 !
 ! D22   D(4,5,8,12)          -179.9995         -DE/DX =    0.0                 !
 ! D23   D(7,5,8,11)           179.9985         -DE/DX =    0.0                 !
 ! D24   D(7,5,8,12)            -0.0008         -DE/DX =    0.0                 !
 --------------------------------------------------------------------------------
 GradGradGradGradGradGradGradGradGradGradGradGradGradGradGradGradGradGrad


 ----------------------------------------------------------------------

 Electric dipole moment (input orientation):
 (Debye = 10**-18 statcoulomb cm , SI units = C m)
                  (au)            (Debye)         (10**-30 SI)
   Tot        0.204163D+01      0.518931D+01      0.173097D+02
   x          0.739029D+00      0.187842D+01      0.626575D+01
   y          0.190318D+01      0.483740D+01      0.161358D+02
   z         -0.225763D-03     -0.573833D-03     -0.191410D-02

 Dipole polarizability, Alpha (input orientation).
 (esu units = cm**3 , SI units = C**2 m**2 J**-1)
 Alpha(0;0):
               (au)            (10**-24 esu)      (10**-40 SI)
   iso        0.628599D+02      0.931488D+01      0.103642D+02
   aniso      0.406520D+02      0.602400D+01      0.670260D+01
   xx         0.849638D+02      0.125903D+02      0.140086D+02
   yx         0.292251D+01      0.433071D+00      0.481856D+00
   yy         0.650701D+02      0.964239D+01      0.107286D+02
   zx         0.299742D-02      0.444172D-03      0.494208D-03
   zy        -0.908968D-03     -0.134695D-03     -0.149869D-03
   zz         0.385459D+02      0.571191D+01      0.635536D+01

 ----------------------------------------------------------------------

 Dipole orientation:
     8         -0.27603310          0.10747727         -2.31873361
     8         -4.20791442          1.63420700         -1.92665348
     8          3.63147783         -1.41021486         -1.60593755
     6         -1.75996192          0.68367584          1.86770050
     6          0.87656119         -0.34051769          1.90614597
     6         -2.33567242          0.90708098         -0.94195001
     6          1.68927124         -0.65572584         -0.78229691
     6          2.40161108         -0.93325038          3.80438636
     1         -3.16064752         -0.56760155          2.74216408
     1         -1.94846679          2.55254627          2.74185222
     1          1.83691350         -0.71420064          5.76880158
     1          4.28190898         -1.66359033          3.39729621

 Electric dipole moment (dipole orientation):
 (Debye = 10**-18 statcoulomb cm , SI units = C m)
                  (au)            (Debye)         (10**-30 SI)
   Tot        0.204163D+01      0.518931D+01      0.173097D+02
   x          0.000000D+00      0.000000D+00      0.000000D+00
   y          0.000000D+00      0.000000D+00      0.000000D+00
   z          0.204163D+01      0.518931D+01      0.173097D+02

 Dipole polarizability, Alpha (dipole orientation).
 (esu units = cm**3 , SI units = C**2 m**2 J**-1)
 Alpha(0;0):
               (au)            (10**-24 esu)      (10**-40 SI)
   iso        0.628599D+02      0.931488D+01      0.103642D+02
   aniso      0.406520D+02      0.602400D+01      0.670260D+01
   xx         0.749000D+02      0.110990D+02      0.123493D+02
   yx        -0.141208D+02     -0.209249D+01     -0.232821D+01
   yy         0.440308D+02      0.652469D+01      0.725970D+01
   zx         0.826664D+01      0.122499D+01      0.136298D+01
   zy        -0.321398D+01     -0.476263D+00     -0.529914D+00
   zz         0.696490D+02      0.103209D+02      0.114836D+02

 ----------------------------------------------------------------------
 1\1\GINC-PITOMBA\Freq\RM08HX\6-311++G(d,p)\C5H4O3\VALTER\07-Oct-2025\0
 \\#N Geom=AllCheck Guess=TCheck SCRF=Check GenChk RM08HX/6-311++G(d,p)
  Freq\\ITAN0059\\0,1\O,-0.5902786916,-1.0870707639,-0.00000745\O,-2.59
 58249044,-0.0857186172,0.0000036349\O,1.6140877696,-1.5384184678,0.000
 126817\C,-0.5736178121,1.2829868129,-0.0002378462\C,0.8290056026,0.760
 155086,-0.000043459\C,-1.4164360436,0.0152998845,0.0000007788\C,0.7440
 311089,-0.7330057353,-0.0000722756\C,1.9997335218,1.3831273575,0.00011
 02323\H,-0.8267384678,1.8777914788,0.8852587776\H,-0.8265985868,1.8773
 500014,-0.8860787519\H,2.077235696,2.4681785372,0.0001084379\H,2.91680
 08074,0.7959244259,0.0002311043\\Version=ES64L-G16RevB.01\State=1-A\HF
 =-418.5813766\RMSD=3.893e-09\RMSF=2.775e-05\ZeroPoint=0.0842712\Therma
 l=0.0908191\Dipole=0.7390288,1.9031806,-0.0002258\DipoleDeriv=-1.99830
 36,0.3177171,-0.0000419,0.3695362,-0.8826939,0.0000239,0.0000899,0.000
 0008,-0.211499,-1.5368902,-0.0374235,0.0000595,-0.1166368,-0.5384507,0
 .0000281,0.0000126,0.0000142,-0.3619623,-0.9632876,0.4472761,-0.000005
 2,0.3736987,-1.0310667,0.0000049,-0.0001087,0.0001042,-0.3522136,-0.11
 06158,-0.1122383,0.0000026,-0.0292422,-0.2514747,0.0000746,-0.0000079,
 0.0001044,0.1322861,0.0567526,-0.201557,0.000051,-0.3636733,-0.4093221
 ,-0.000025,0.0000453,-0.000073,-0.1078852,2.2953728,-0.1010303,-0.0000
 977,-0.5006741,1.3156019,-0.0000989,-0.0000869,-0.0000925,0.3333224,2.
 1465606,-0.3970465,0.0000363,0.2274188,1.5184567,0.000015,0.000058,-0.
 0000229,0.3927233,-0.0299259,0.0747699,0.000023,-0.0170199,0.0974624,0
 .0000004,0.0000105,-0.0000059,-0.2181867,0.0061748,-0.012359,0.0103515
 ,0.0083065,0.078473,-0.0243743,0.0298951,-0.0513934,0.043889,0.0061371
 ,-0.012388,-0.0103606,0.0082907,0.0785309,0.0243447,-0.0298911,0.05135
 48,0.0438528,0.0827587,0.0275833,-0.0000055,-0.0103945,-0.0262829,-0.0
 00002,-0.0000026,0.0000148,0.1489761,0.0452664,0.0066961,-0.000013,0.0
 503898,0.0507661,0.0000086,-0.0000142,-0.0000055,0.156697\Polar=84.963
 8441,2.9225075,65.0700681,0.0029974,-0.000909,38.5459043\Quadrupole=-4
 .4416972,1.4839568,2.9577404,2.3120101,0.0002407,0.000291\PG=C01 [X(C5
 H4O3)]\NImag=0\\0.45364218,-0.01189762,0.40835316,-0.00000299,-0.00001
 990,0.04171381,-0.10515405,0.04708386,0.00000286,0.96736854,0.06663609
 ,0.01752676,-0.00000298,0.07059511,0.10345125,-0.00000012,-0.00000139,
 0.01681794,-0.00001359,-0.00000550,0.03150392,-0.10894101,0.05531561,-
 0.00000707,-0.01378172,0.00772131,0.00000018,0.56482635,0.03340870,0.0
 2557784,-0.00000069,0.00307871,0.00026912,-0.00000041,-0.43012982,0.50
 170054,-0.00000790,0.00000253,0.01570505,-0.00000121,0.00000073,-0.001
 12125,0.00010016,-0.00009652,0.03208920,0.00079934,0.01482052,-0.00000
 066,-0.03507079,-0.03721529,0.00000812,-0.00000319,-0.00251886,0.00000
 007,0.48466336,0.00143126,-0.03462505,0.00000781,-0.01519221,0.0063491
 1,0.00000386,0.00168364,-0.00700218,0.00000133,-0.06560351,0.54302463,
 -0.00000139,-0.00000111,0.02216226,0.00000311,0.00000172,0.02073533,-0
 .00000050,-0.00000148,0.00167302,0.00000273,0.00002778,0.54707235,-0.0
 3669610,-0.03114982,0.00000143,-0.00350407,0.00086323,0.00000012,0.004
 57328,0.03684562,-0.00000432,-0.20622968,0.04095804,-0.00002106,0.8623
 6344,-0.01844747,-0.02055645,-0.00000217,-0.00816666,-0.00808619,0.000
 00210,0.02849587,-0.05623254,0.00000337,0.05716253,-0.10545125,0.00000
 546,0.15527514,0.58447942,0.00000104,0.00000530,0.02015780,0.00000103,
 0.00000334,0.00191291,-0.00000444,0.00001112,0.02064553,-0.00002201,0.
 00000736,-0.07125402,0.00009584,0.00001572,0.14251767,-0.07714617,-0.0
 0597297,0.00000091,-0.83660956,-0.09119028,0.00000470,0.01484132,-0.00
 799984,0.00000177,-0.10457655,-0.03200705,0.00000732,-0.03211214,-0.02
 348831,0.00000580,1.12144487,0.02062286,-0.22268360,0.00000730,-0.1111
 3281,-0.11405414,0.00000113,-0.03135770,0.00253252,-0.00000276,-0.0523
 6135,-0.15529612,0.00001096,-0.02125939,0.01289902,-0.00000746,0.12011
 637,0.48064188,0.00000307,0.00001010,-0.05834712,0.00001103,0.00000412
 ,-0.07572216,-0.00000071,0.00000145,0.00487705,0.00000661,0.00000415,-
 0.09223188,-0.00000220,-0.00000616,-0.00241536,-0.00001983,-0.00001961
 ,0.22641528,-0.13719655,-0.06020154,0.00000485,0.03078819,-0.01367253,
 0.00000033,-0.46012397,0.35709905,-0.00008769,-0.00182439,0.02398390,0
 .00000438,-0.08533231,-0.02344116,-0.00000066,-0.09086131,0.07678131,0
 .00000032,0.76218963,-0.08381216,-0.15956324,0.00001078,0.01233149,-0.
 01147965,0.00000117,0.36962363,-0.46718953,0.00009169,0.01569257,-0.02
 221684,0.00000225,0.01506336,-0.18699089,-0.00000798,0.02053644,0.0341
 8047,-0.00000543,-0.32834807,0.83148515,0.00000694,0.00000334,-0.05591
 243,-0.00000116,-0.00000008,0.00506486,-0.00008799,0.00008543,-0.07258
 969,-0.00000108,0.00000327,0.00417338,-0.00000151,0.00000441,-0.081951
 49,0.00000133,0.00000012,-0.00622695,0.00008357,-0.00009204,0.20029486
 ,0.00824380,0.00032287,-0.00000032,-0.00128808,-0.00348515,0.00000067,
 -0.00545386,0.00776609,-0.00000151,-0.02385273,-0.01393918,-0.00000496
 ,-0.47114133,-0.18740665,-0.00006004,-0.00517041,0.01064107,-0.0000019
 3,0.00050382,-0.02275715,0.00000173,0.80827057,-0.00769280,-0.00591175
 ,0.00000165,0.00081529,0.00339117,-0.00000046,-0.00330411,0.00146053,-
 0.00000052,0.01112350,0.01525693,0.00000078,-0.19168748,-0.21444746,-0
 .00003093,0.00644206,-0.00918271,0.00000124,-0.02802317,-0.01811109,-0
 .00000422,0.09716194,0.70992730,0.00000064,-0.00000011,0.00070983,-0.0
 0000049,-0.00000051,0.00000039,-0.00000021,0.00000039,0.00023459,-0.00
 000467,-0.00000269,0.00460656,-0.00006015,-0.00002881,-0.05240069,-0.0
 0000032,0.00000184,0.00050548,-0.00000090,-0.00000128,0.00383271,0.000
 09546,0.00001350,0.12010578,0.00135407,-0.00311772,0.00245534,-0.00125
 069,0.00012179,0.00315239,0.00038620,0.00171261,-0.00052941,-0.0575357
 3,0.03084065,0.04888393,-0.00690209,0.01684970,0.02472271,0.00543959,-
 0.00656414,-0.02002466,-0.00538608,-0.00082961,0.00016224,0.00101193,0
 .00097435,-0.00098108,0.06166938,-0.00060422,-0.00382035,0.00310556,0.
 00045160,0.00156092,0.00338744,0.00051915,-0.00054129,0.00007684,0.030
 27872,-0.11962381,-0.12138308,0.00324608,-0.00460317,-0.00426863,0.006
 90798,-0.01501004,-0.02496965,-0.00006124,-0.00063489,-0.00031854,-0.0
 0140779,0.00037174,0.00021619,-0.03575481,0.13196589,-0.00062999,0.001
 48193,-0.00103196,-0.00004490,0.00003859,0.00053129,-0.00002926,0.0002
 2514,-0.00004935,0.04786484,-0.12075757,-0.22031199,0.00103728,0.00260
 369,0.00379078,-0.00051307,0.00109911,0.00138442,-0.00027816,0.0008095
 7,-0.00071519,-0.00032906,-0.00032667,0.00072084,-0.05235410,0.1295926
 8,0.23610246,0.00135397,-0.00311531,-0.00245483,-0.00125065,0.00011976
 ,-0.00315294,0.00038600,0.00171149,0.00052906,-0.05751094,0.03079828,-
 0.04887313,-0.00690457,0.01683647,-0.02473402,0.00543431,-0.00655593,0
 .02002862,-0.00538208,-0.00082968,-0.00016199,0.00101016,0.00097592,0.
 00098118,0.00141233,-0.00361587,0.00500660,0.06165052,-0.00060351,-0.0
 0381862,-0.00310722,0.00045206,0.00155845,-0.00338803,0.00051874,-0.00
 054120,-0.00007681,0.03023850,-0.11950244,0.12133709,0.00324650,-0.004
 60179,0.00427351,0.00690156,-0.01499913,0.02497994,-0.00006054,-0.0006
 3486,0.00031840,-0.00140782,0.00037158,-0.00021628,-0.00361651,0.01046
 391,-0.01473209,-0.03570900,0.13183298,0.00063074,-0.00148015,-0.00103
 140,0.00004345,-0.00003918,0.00053281,0.00002921,-0.00022437,-0.000049
 19,-0.04785349,0.12070554,-0.22044217,-0.00104239,-0.00259620,0.003786
 32,0.00051209,-0.00109107,0.00137598,0.00027587,-0.00080902,-0.0007156
 2,0.00033046,0.00032736,0.00072123,-0.00500141,0.01471504,-0.02029297,
 0.05234515,-0.12954229,0.23624339,-0.00174650,-0.00152309,0.00000070,-
 0.00000021,0.00038520,-0.00000008,0.00144706,-0.00043765,0.00000071,0.
 00158473,0.00096937,0.00000071,0.00276054,-0.03035322,-0.00000174,0.00
 068792,-0.00132410,0.00000023,-0.00480043,0.00169767,-0.00000303,-0.05
 715506,-0.01419645,-0.00000133,-0.00023765,-0.00000168,0.00021344,-0.0
 0023710,-0.00000208,-0.00021327,0.05190098,-0.00091176,-0.00028007,0.0
 0000002,-0.00015928,0.00018129,0.,-0.00019311,0.00028389,0.,0.00050341
 ,0.00080530,0.00000005,0.00304742,-0.00883909,0.00000021,0.00044545,-0
 .00080684,0.00000008,-0.00112768,0.00086578,0.,-0.01912999,-0.34236966
 ,-0.00000026,-0.00045423,-0.00000733,-0.00009176,-0.00045396,-0.000007
 32,0.00009160,0.02282959,0.35875802,-0.00000048,-0.00000079,-0.0023430
 9,0.00000011,0.00000025,0.00019118,0.00000078,-0.00000016,-0.00213626,
 0.00000113,0.00000077,-0.00701682,-0.00000053,-0.00000489,0.00923585,0
 .00000030,-0.00000064,-0.00035573,-0.00000290,0.00000112,0.01479130,-0
 .00000135,0.00000144,-0.04017368,0.00136078,-0.00040436,-0.00012636,-0
 .00136145,0.00040410,-0.00012675,0.00000347,0.00000058,0.02380557,0.00
 148701,-0.00056478,-0.00000022,-0.00024692,-0.00087926,0.00000021,0.00
 184356,-0.00053609,0.00000028,-0.00044343,-0.00392319,-0.00000115,-0.0
 2087496,0.01668378,-0.00000352,-0.00137188,0.00239380,-0.00000055,-0.0
 0257451,0.00163151,0.00000096,-0.25497880,0.12741095,-0.00002811,0.000
 03874,0.00004207,0.00005637,0.00003805,0.00004209,-0.00005641,0.005795
 73,-0.00439585,0.00000016,0.27128741,0.00187063,-0.00019864,-0.0000001
 4,-0.00015716,-0.00066808,0.00000010,0.00110679,-0.00031771,0.00000013
 ,-0.00212074,-0.00171828,-0.00000041,-0.01444868,0.01243039,-0.0000015
 5,-0.00069140,0.00177869,-0.00000024,-0.00292834,0.00028959,-0.0000000
 7,0.13364175,-0.14075658,0.00001802,-0.00016208,-0.00012158,0.00005735
 ,-0.00016218,-0.00012156,-0.00005725,0.02195644,-0.00858398,0.00000259
 ,-0.13790503,0.13798775,0.00000047,0.00000025,0.00139931,-0.00000026,-
 0.00000050,-0.00044721,-0.00000015,0.00000011,0.00072131,-0.00000158,-
 0.00000160,0.01083397,-0.00000252,0.00000349,0.00597470,-0.00000100,0.
 00000108,0.00074100,0.00000098,-0.00000083,-0.01004574,-0.00002916,0.0
 0001683,-0.03886303,-0.00184673,0.00025051,-0.00000197,0.00184774,-0.0
 0025032,-0.00000163,0.00000021,-0.00000050,0.00425478,0.00003198,-0.00
 001851,0.02543453\\-0.00006410,-0.00004464,0.00000305,-0.00005131,-0.0
 0001190,-0.00000954,0.00000255,-0.00000063,0.00001515,0.00002936,0.000
 00498,-0.00000898,-0.00004121,-0.00004304,0.00001381,0.00003480,0.0000
 2482,0.00002704,0.00008903,0.00003124,-0.00003886,0.00000571,0.0000253
 3,0.00000089,-0.00000317,0.00000066,-0.00000113,0.00000053,0.00000454,
 0.00000008,-0.00000574,-0.00000026,-0.00000223,0.00000356,0.00000889,0
 .00000072\\\@


 WHEN A MATHEMATICIAN ENGAGED IN INVESTIGATING
 PHYSICAL ACTIONS AND RESULTS HAS ARRIVED AT HIS
 CONCLUSIONS, MAY THEY NOT BE EXPRESSED IN COMMON
 LANGUAGE AS FULLY, CLEARLY, AND DEFINITELY AS IN
 MATHEMATICAL FORMULAE?
           - LETTER FROM M. FARADAY TO J.C. MAXWELL, 1857.
 Job cpu time:       0 days  0 hours 30 minutes 42.8 seconds.
 Elapsed time:       0 days  0 hours  1 minutes 56.4 seconds.
 File lengths (MBytes):  RWF=     55 Int=      0 D2E=      0 Chk=      5 Scr=      1
 Normal termination of Gaussian 16 at Tue Oct  7 05:40:12 2025.
