 Entering Gaussian System, Link 0=g16
 Input=LAAC0060.gjf
 Output=LAAC0060.log
 Initial command:
 /usr/local/g16/l1.exe "/dados_01/scratch/Gau-2502193.inp" -scrdir="/dados_01/scratch/"
 Entering Link 1 = /usr/local/g16/l1.exe PID=   2502194.
  
 Copyright (c) 1988-2017, Gaussian, Inc.  All Rights Reserved.
  
 This is part of the Gaussian(R) 16 program.  It is based on
 the Gaussian(R) 09 system (copyright 2009, Gaussian, Inc.),
 the Gaussian(R) 03 system (copyright 2003, Gaussian, Inc.),
 the Gaussian(R) 98 system (copyright 1998, Gaussian, Inc.),
 the Gaussian(R) 94 system (copyright 1995, Gaussian, Inc.),
 the Gaussian 92(TM) system (copyright 1992, Gaussian, Inc.),
 the Gaussian 90(TM) system (copyright 1990, Gaussian, Inc.),
 the Gaussian 88(TM) system (copyright 1988, Gaussian, Inc.),
 the Gaussian 86(TM) system (copyright 1986, Carnegie Mellon
 University), and the Gaussian 82(TM) system (copyright 1983,
 Carnegie Mellon University). Gaussian is a federally registered
 trademark of Gaussian, Inc.
  
 This software contains proprietary and confidential information,
 including trade secrets, belonging to Gaussian, Inc.
  
 This software is provided under written license and may be
 used, copied, transmitted, or stored only in accord with that
 written license.
  
 The following legend is applicable only to US Government
 contracts under FAR:
  
                    RESTRICTED RIGHTS LEGEND
  
 Use, reproduction and disclosure by the US Government is
 subject to restrictions as set forth in subparagraphs (a)
 and (c) of the Commercial Computer Software - Restricted
 Rights clause in FAR 52.227-19.
  
 Gaussian, Inc.
 340 Quinnipiac St., Bldg. 40, Wallingford CT 06492
  
  
 ---------------------------------------------------------------
 Warning -- This program may not be used in any manner that
 competes with the business of Gaussian, Inc. or will provide
 assistance to any competitor of Gaussian, Inc.  The licensee
 of this program is prohibited from giving any competitor of
 Gaussian, Inc. access to this program.  By using this program,
 the user acknowledges that Gaussian, Inc. is engaged in the
 business of creating and licensing software in the field of
 computational chemistry and represents and warrants to the
 licensee that it is not a competitor of Gaussian, Inc. and that
 it will not use this program in any manner prohibited above.
 ---------------------------------------------------------------
  

 Cite this work as:
 Gaussian 16, Revision B.01,
 M. J. Frisch, G. W. Trucks, H. B. Schlegel, G. E. Scuseria, 
 M. A. Robb, J. R. Cheeseman, G. Scalmani, V. Barone, 
 G. A. Petersson, H. Nakatsuji, X. Li, M. Caricato, A. V. Marenich, 
 J. Bloino, B. G. Janesko, R. Gomperts, B. Mennucci, H. P. Hratchian, 
 J. V. Ortiz, A. F. Izmaylov, J. L. Sonnenberg, D. Williams-Young, 
 F. Ding, F. Lipparini, F. Egidi, J. Goings, B. Peng, A. Petrone, 
 T. Henderson, D. Ranasinghe, V. G. Zakrzewski, J. Gao, N. Rega, 
 G. Zheng, W. Liang, M. Hada, M. Ehara, K. Toyota, R. Fukuda, 
 J. Hasegawa, M. Ishida, T. Nakajima, Y. Honda, O. Kitao, H. Nakai, 
 T. Vreven, K. Throssell, J. A. Montgomery, Jr., J. E. Peralta, 
 F. Ogliaro, M. J. Bearpark, J. J. Heyd, E. N. Brothers, K. N. Kudin, 
 V. N. Staroverov, T. A. Keith, R. Kobayashi, J. Normand, 
 K. Raghavachari, A. P. Rendell, J. C. Burant, S. S. Iyengar, 
 J. Tomasi, M. Cossi, J. M. Millam, M. Klene, C. Adamo, R. Cammi, 
 J. W. Ochterski, R. L. Martin, K. Morokuma, O. Farkas, 
 J. B. Foresman, and D. J. Fox, Gaussian, Inc., Wallingford CT, 2016.
 
 ******************************************
 Gaussian 16:  ES64L-G16RevB.01 20-Dec-2017
                 7-Oct-2025 
 ******************************************
 %nprocs=16
 Will use up to   16 processors via shared memory.
 %mem=40GB
 %chk=LAAC0060.chk
 ----------------------------------------------------------------------
 # opt freq=noraman M08HX/6-311++G** scf=xqc Empiricaldispersion=pfd In
 t(Grid=ultraFine)
 ----------------------------------------------------------------------
 1/18=20,19=15,26=4,38=1/1,3;
 2/9=110,12=2,17=6,18=5,40=1/2;
 3/5=4,6=6,7=1111,11=2,25=1,30=1,71=1,74=-74,75=-5,124=11/1,2,3;
 4//1;
 5/5=2,8=3,13=1,38=5/2,8;
 6/7=2,8=2,9=2,10=2,28=1/1;
 7//1,2,3,16;
 1/18=20,19=15,26=4/3(2);
 2/9=110/2;
 99//99;
 2/9=110/2;
 3/5=4,6=6,7=1111,11=2,25=1,30=1,71=1,74=-74,75=-5,124=11/1,2,3;
 4/5=5,16=3,69=1/1;
 5/5=2,8=3,13=1,38=5/2,8;
 7//1,2,3,16;
 1/18=20,19=15,26=4/3(-5);
 2/9=110/2;
 6/7=2,8=2,9=2,10=2,19=2,28=1/1;
 99/9=1/99;
 --------
 LAAC0060
 --------
 Symbolic Z-matrix:
 Charge =  0 Multiplicity = 1
 O                    -7.0213    0.6218    0.028 
 O                    -5.9285   -1.3708    0.0651 
 C                     1.6986   -0.3981   -0.0603 
 C                     0.4623    0.5029   -0.0216 
 C                     2.9876    0.4275   -0.0211 
 C                    -0.8577   -0.2736   -0.0357 
 C                     4.2232   -0.4748   -0.0217 
 C                    -2.0943    0.6286   -0.022 
 C                     5.5433    0.2988    0.0482 
 C                    -3.3834   -0.1996   -0.0486 
 C                     6.8157   -0.5481   -0.0339 
 C                    -4.6367    0.6695   -0.0016 
 C                     8.0955    0.2632    0.0932 
 C                    -5.9042   -0.1474    0.0321 
 H                     1.6789   -1.0103   -0.9699 
 H                     1.6747   -1.0856    0.7938 
 H                     0.4974    1.1286    0.8789 
 H                     0.486     1.1842   -0.8813 
 H                     2.996     1.0554    0.878 
 H                     3.0228    1.1002   -0.8865 
 H                    -0.8876   -0.9432    0.8329 
 H                    -0.8866   -0.9112   -0.928 
 H                     4.1726   -1.1663    0.8284 
 H                     4.2189   -1.0899   -0.9301 
 H                    -2.071     1.2997   -0.8889 
 H                    -2.0782    1.2574    0.8762 
 H                     5.5634    1.0347   -0.7658 
 H                     5.5611    0.8734    0.9831 
 H                    -3.3863   -0.8906    0.8041 
 H                    -3.4023   -0.821    -0.9529 
 H                     6.7964   -1.3046    0.7594 
 H                     6.8287   -1.0886   -0.9877 
 H                    -4.6185    1.298     0.8957 
 H                    -4.6699    1.3151   -0.8861 
 H                     8.1657    1.0084   -0.7054 
 H                     8.1327    0.7853    1.0546 
 H                     8.9696   -0.392     0.0268 
 H                    -7.8388    0.0803    0.0528 
 

 GradGradGradGradGradGradGradGradGradGradGradGradGradGradGradGradGradGrad
 Berny optimization.
 Initialization pass.
                           ----------------------------
                           !    Initial Parameters    !
                           ! (Angstroms and Degrees)  !
 --------------------------                            --------------------------
 ! Name  Definition              Value          Derivative Info.                !
 --------------------------------------------------------------------------------
 ! R1    R(1,14)                 1.3563         estimate D2E/DX2                !
 ! R2    R(1,38)                 0.9809         estimate D2E/DX2                !
 ! R3    R(2,14)                 1.2241         estimate D2E/DX2                !
 ! R4    R(3,4)                  1.5303         estimate D2E/DX2                !
 ! R5    R(3,5)                  1.5312         estimate D2E/DX2                !
 ! R6    R(3,15)                 1.0966         estimate D2E/DX2                !
 ! R7    R(3,16)                 1.0967         estimate D2E/DX2                !
 ! R8    R(4,6)                  1.5315         estimate D2E/DX2                !
 ! R9    R(4,17)                 1.0971         estimate D2E/DX2                !
 ! R10   R(4,18)                 1.0972         estimate D2E/DX2                !
 ! R11   R(5,7)                  1.53           estimate D2E/DX2                !
 ! R12   R(5,19)                 1.0967         estimate D2E/DX2                !
 ! R13   R(5,20)                 1.0967         estimate D2E/DX2                !
 ! R14   R(6,8)                  1.5308         estimate D2E/DX2                !
 ! R15   R(6,21)                 1.0971         estimate D2E/DX2                !
 ! R16   R(6,22)                 1.0971         estimate D2E/DX2                !
 ! R17   R(7,9)                  1.5317         estimate D2E/DX2                !
 ! R18   R(7,23)                 1.097          estimate D2E/DX2                !
 ! R19   R(7,24)                 1.0971         estimate D2E/DX2                !
 ! R20   R(8,10)                 1.5324         estimate D2E/DX2                !
 ! R21   R(8,25)                 1.0966         estimate D2E/DX2                !
 ! R22   R(8,26)                 1.0965         estimate D2E/DX2                !
 ! R23   R(9,11)                 1.5307         estimate D2E/DX2                !
 ! R24   R(9,27)                 1.0975         estimate D2E/DX2                !
 ! R25   R(9,28)                 1.0975         estimate D2E/DX2                !
 ! R26   R(10,12)                1.5259         estimate D2E/DX2                !
 ! R27   R(10,29)                1.0975         estimate D2E/DX2                !
 ! R28   R(10,30)                1.0974         estimate D2E/DX2                !
 ! R29   R(11,13)                1.5206         estimate D2E/DX2                !
 ! R30   R(11,31)                1.0964         estimate D2E/DX2                !
 ! R31   R(11,32)                1.0964         estimate D2E/DX2                !
 ! R32   R(12,14)                1.5083         estimate D2E/DX2                !
 ! R33   R(12,33)                1.0957         estimate D2E/DX2                !
 ! R34   R(12,34)                1.0956         estimate D2E/DX2                !
 ! R35   R(13,35)                1.0945         estimate D2E/DX2                !
 ! R36   R(13,36)                1.0947         estimate D2E/DX2                !
 ! R37   R(13,37)                1.0944         estimate D2E/DX2                !
 ! A1    A(14,1,38)            111.9178         estimate D2E/DX2                !
 ! A2    A(4,3,5)              111.2222         estimate D2E/DX2                !
 ! A3    A(4,3,15)             109.5824         estimate D2E/DX2                !
 ! A4    A(4,3,16)             109.3781         estimate D2E/DX2                !
 ! A5    A(5,3,15)             109.7161         estimate D2E/DX2                !
 ! A6    A(5,3,16)             109.6583         estimate D2E/DX2                !
 ! A7    A(15,3,16)            107.1952         estimate D2E/DX2                !
 ! A8    A(3,4,6)              113.4259         estimate D2E/DX2                !
 ! A9    A(3,4,17)             109.3116         estimate D2E/DX2                !
 ! A10   A(3,4,18)             109.168          estimate D2E/DX2                !
 ! A11   A(6,4,17)             108.9227         estimate D2E/DX2                !
 ! A12   A(6,4,18)             109.0404         estimate D2E/DX2                !
 ! A13   A(17,4,18)            106.7565         estimate D2E/DX2                !
 ! A14   A(3,5,7)              111.2138         estimate D2E/DX2                !
 ! A15   A(3,5,19)             109.6417         estimate D2E/DX2                !
 ! A16   A(3,5,20)             109.7276         estimate D2E/DX2                !
 ! A17   A(7,5,19)             109.3775         estimate D2E/DX2                !
 ! A18   A(7,5,20)             109.6042         estimate D2E/DX2                !
 ! A19   A(19,5,20)            107.1876         estimate D2E/DX2                !
 ! A20   A(4,6,8)              113.4125         estimate D2E/DX2                !
 ! A21   A(4,6,21)             109.0041         estimate D2E/DX2                !
 ! A22   A(4,6,22)             108.9571         estimate D2E/DX2                !
 ! A23   A(8,6,21)             109.305          estimate D2E/DX2                !
 ! A24   A(8,6,22)             109.1795         estimate D2E/DX2                !
 ! A25   A(21,6,22)            106.7681         estimate D2E/DX2                !
 ! A26   A(5,7,9)              113.4631         estimate D2E/DX2                !
 ! A27   A(5,7,23)             109.5236         estimate D2E/DX2                !
 ! A28   A(5,7,24)             109.1362         estimate D2E/DX2                !
 ! A29   A(9,7,23)             108.8302         estimate D2E/DX2                !
 ! A30   A(9,7,24)             108.926          estimate D2E/DX2                !
 ! A31   A(23,7,24)            106.7417         estimate D2E/DX2                !
 ! A32   A(6,8,10)             111.1532         estimate D2E/DX2                !
 ! A33   A(6,8,25)             109.6612         estimate D2E/DX2                !
 ! A34   A(6,8,26)             109.4774         estimate D2E/DX2                !
 ! A35   A(10,8,25)            109.5668         estimate D2E/DX2                !
 ! A36   A(10,8,26)            109.6625         estimate D2E/DX2                !
 ! A37   A(25,8,26)            107.236          estimate D2E/DX2                !
 ! A38   A(7,9,11)             115.7565         estimate D2E/DX2                !
 ! A39   A(7,9,27)             108.6988         estimate D2E/DX2                !
 ! A40   A(7,9,28)             108.4987         estimate D2E/DX2                !
 ! A41   A(11,9,27)            108.4199         estimate D2E/DX2                !
 ! A42   A(11,9,28)            108.7766         estimate D2E/DX2                !
 ! A43   A(27,9,28)            106.2866         estimate D2E/DX2                !
 ! A44   A(8,10,12)            112.4934         estimate D2E/DX2                !
 ! A45   A(8,10,29)            109.2078         estimate D2E/DX2                !
 ! A46   A(8,10,30)            109.5616         estimate D2E/DX2                !
 ! A47   A(12,10,29)           109.4205         estimate D2E/DX2                !
 ! A48   A(12,10,30)           109.4972         estimate D2E/DX2                !
 ! A49   A(29,10,30)           106.4792         estimate D2E/DX2                !
 ! A50   A(9,11,13)            113.5746         estimate D2E/DX2                !
 ! A51   A(9,11,31)            109.1675         estimate D2E/DX2                !
 ! A52   A(9,11,32)            109.225          estimate D2E/DX2                !
 ! A53   A(13,11,31)           108.8132         estimate D2E/DX2                !
 ! A54   A(13,11,32)           109.0118         estimate D2E/DX2                !
 ! A55   A(31,11,32)           106.8294         estimate D2E/DX2                !
 ! A56   A(10,12,14)           112.4845         estimate D2E/DX2                !
 ! A57   A(10,12,33)           109.7734         estimate D2E/DX2                !
 ! A58   A(10,12,34)           109.6131         estimate D2E/DX2                !
 ! A59   A(14,12,33)           107.8384         estimate D2E/DX2                !
 ! A60   A(14,12,34)           108.1636         estimate D2E/DX2                !
 ! A61   A(33,12,34)           108.8842         estimate D2E/DX2                !
 ! A62   A(11,13,35)           110.8697         estimate D2E/DX2                !
 ! A63   A(11,13,36)           110.8845         estimate D2E/DX2                !
 ! A64   A(11,13,37)           110.348          estimate D2E/DX2                !
 ! A65   A(35,13,36)           108.2943         estimate D2E/DX2                !
 ! A66   A(35,13,37)           108.1862         estimate D2E/DX2                !
 ! A67   A(36,13,37)           108.1608         estimate D2E/DX2                !
 ! A68   A(1,14,2)             123.4039         estimate D2E/DX2                !
 ! A69   A(1,14,12)            112.638          estimate D2E/DX2                !
 ! A70   A(2,14,12)            123.9575         estimate D2E/DX2                !
 ! D1    D(38,1,14,2)           -0.1049         estimate D2E/DX2                !
 ! D2    D(38,1,14,12)        -179.828          estimate D2E/DX2                !
 ! D3    D(5,3,4,6)           -179.0658         estimate D2E/DX2                !
 ! D4    D(5,3,4,17)           -57.3085         estimate D2E/DX2                !
 ! D5    D(5,3,4,18)            59.1299         estimate D2E/DX2                !
 ! D6    D(15,3,4,6)            59.4502         estimate D2E/DX2                !
 ! D7    D(15,3,4,17)         -178.7925         estimate D2E/DX2                !
 ! D8    D(15,3,4,18)          -62.3541         estimate D2E/DX2                !
 ! D9    D(16,3,4,6)           -57.7913         estimate D2E/DX2                !
 ! D10   D(16,3,4,17)           63.966          estimate D2E/DX2                !
 ! D11   D(16,3,4,18)         -179.5956         estimate D2E/DX2                !
 ! D12   D(4,3,5,7)            178.4685         estimate D2E/DX2                !
 ! D13   D(4,3,5,19)            57.3753         estimate D2E/DX2                !
 ! D14   D(4,3,5,20)           -60.096          estimate D2E/DX2                !
 ! D15   D(15,3,5,7)           -60.1256         estimate D2E/DX2                !
 ! D16   D(15,3,5,19)          178.7813         estimate D2E/DX2                !
 ! D17   D(15,3,5,20)           61.31           estimate D2E/DX2                !
 ! D18   D(16,3,5,7)            57.358          estimate D2E/DX2                !
 ! D19   D(16,3,5,19)          -63.7351         estimate D2E/DX2                !
 ! D20   D(16,3,5,20)          178.7936         estimate D2E/DX2                !
 ! D21   D(3,4,6,8)           -178.9792         estimate D2E/DX2                !
 ! D22   D(3,4,6,21)            59.005          estimate D2E/DX2                !
 ! D23   D(3,4,6,22)           -57.1582         estimate D2E/DX2                !
 ! D24   D(17,4,6,8)            59.0466         estimate D2E/DX2                !
 ! D25   D(17,4,6,21)          -62.9693         estimate D2E/DX2                !
 ! D26   D(17,4,6,22)         -179.1325         estimate D2E/DX2                !
 ! D27   D(18,4,6,8)           -57.1037         estimate D2E/DX2                !
 ! D28   D(18,4,6,21)         -179.1195         estimate D2E/DX2                !
 ! D29   D(18,4,6,22)           64.7173         estimate D2E/DX2                !
 ! D30   D(3,5,7,9)           -178.7209         estimate D2E/DX2                !
 ! D31   D(3,5,7,23)           -56.9027         estimate D2E/DX2                !
 ! D32   D(3,5,7,24)            59.6194         estimate D2E/DX2                !
 ! D33   D(19,5,7,9)           -57.4731         estimate D2E/DX2                !
 ! D34   D(19,5,7,23)           64.3451         estimate D2E/DX2                !
 ! D35   D(19,5,7,24)         -179.1328         estimate D2E/DX2                !
 ! D36   D(20,5,7,9)            59.7715         estimate D2E/DX2                !
 ! D37   D(20,5,7,23)         -178.4103         estimate D2E/DX2                !
 ! D38   D(20,5,7,24)          -61.8882         estimate D2E/DX2                !
 ! D39   D(4,6,8,10)           179.532          estimate D2E/DX2                !
 ! D40   D(4,6,8,25)            58.2278         estimate D2E/DX2                !
 ! D41   D(4,6,8,26)           -59.1668         estimate D2E/DX2                !
 ! D42   D(21,6,8,10)          -58.6199         estimate D2E/DX2                !
 ! D43   D(21,6,8,25)         -179.9241         estimate D2E/DX2                !
 ! D44   D(21,6,8,26)           62.6814         estimate D2E/DX2                !
 ! D45   D(22,6,8,10)           57.8352         estimate D2E/DX2                !
 ! D46   D(22,6,8,25)          -63.469          estimate D2E/DX2                !
 ! D47   D(22,6,8,26)          179.1365         estimate D2E/DX2                !
 ! D48   D(5,7,9,11)          -176.4769         estimate D2E/DX2                !
 ! D49   D(5,7,9,27)           -54.2222         estimate D2E/DX2                !
 ! D50   D(5,7,9,28)            60.9563         estimate D2E/DX2                !
 ! D51   D(23,7,9,11)           61.3191         estimate D2E/DX2                !
 ! D52   D(23,7,9,27)         -176.4262         estimate D2E/DX2                !
 ! D53   D(23,7,9,28)          -61.2477         estimate D2E/DX2                !
 ! D54   D(24,7,9,11)          -54.6999         estimate D2E/DX2                !
 ! D55   D(24,7,9,27)           67.5548         estimate D2E/DX2                !
 ! D56   D(24,7,9,28)         -177.2667         estimate D2E/DX2                !
 ! D57   D(6,8,10,12)          178.6119         estimate D2E/DX2                !
 ! D58   D(6,8,10,29)           56.92           estimate D2E/DX2                !
 ! D59   D(6,8,10,30)          -59.3487         estimate D2E/DX2                !
 ! D60   D(25,8,10,12)         -60.0287         estimate D2E/DX2                !
 ! D61   D(25,8,10,29)         178.2795         estimate D2E/DX2                !
 ! D62   D(25,8,10,30)          62.0108         estimate D2E/DX2                !
 ! D63   D(26,8,10,12)          57.4191         estimate D2E/DX2                !
 ! D64   D(26,8,10,29)         -64.2728         estimate D2E/DX2                !
 ! D65   D(26,8,10,30)         179.4585         estimate D2E/DX2                !
 ! D66   D(7,9,11,13)         -177.8064         estimate D2E/DX2                !
 ! D67   D(7,9,11,31)          -56.1935         estimate D2E/DX2                !
 ! D68   D(7,9,11,32)           60.2834         estimate D2E/DX2                !
 ! D69   D(27,9,11,13)          59.7909         estimate D2E/DX2                !
 ! D70   D(27,9,11,31)        -178.5962         estimate D2E/DX2                !
 ! D71   D(27,9,11,32)         -62.1193         estimate D2E/DX2                !
 ! D72   D(28,9,11,13)         -55.3868         estimate D2E/DX2                !
 ! D73   D(28,9,11,31)          66.2261         estimate D2E/DX2                !
 ! D74   D(28,9,11,32)        -177.297          estimate D2E/DX2                !
 ! D75   D(8,10,12,14)        -177.5363         estimate D2E/DX2                !
 ! D76   D(8,10,12,33)         -57.4632         estimate D2E/DX2                !
 ! D77   D(8,10,12,34)          62.0895         estimate D2E/DX2                !
 ! D78   D(29,10,12,14)        -55.9655         estimate D2E/DX2                !
 ! D79   D(29,10,12,33)         64.1076         estimate D2E/DX2                !
 ! D80   D(29,10,12,34)       -176.3397         estimate D2E/DX2                !
 ! D81   D(30,10,12,14)         60.3878         estimate D2E/DX2                !
 ! D82   D(30,10,12,33)       -179.5392         estimate D2E/DX2                !
 ! D83   D(30,10,12,34)        -59.9864         estimate D2E/DX2                !
 ! D84   D(9,11,13,35)         -60.1143         estimate D2E/DX2                !
 ! D85   D(9,11,13,36)          60.2191         estimate D2E/DX2                !
 ! D86   D(9,11,13,37)        -179.9587         estimate D2E/DX2                !
 ! D87   D(31,11,13,35)        178.0754         estimate D2E/DX2                !
 ! D88   D(31,11,13,36)        -61.5912         estimate D2E/DX2                !
 ! D89   D(31,11,13,37)         58.231          estimate D2E/DX2                !
 ! D90   D(32,11,13,35)         61.9143         estimate D2E/DX2                !
 ! D91   D(32,11,13,36)       -177.7523         estimate D2E/DX2                !
 ! D92   D(32,11,13,37)        -57.9301         estimate D2E/DX2                !
 ! D93   D(10,12,14,1)        -177.8976         estimate D2E/DX2                !
 ! D94   D(10,12,14,2)           2.3811         estimate D2E/DX2                !
 ! D95   D(33,12,14,1)          60.9163         estimate D2E/DX2                !
 ! D96   D(33,12,14,2)        -118.805          estimate D2E/DX2                !
 ! D97   D(34,12,14,1)         -56.6911         estimate D2E/DX2                !
 ! D98   D(34,12,14,2)         123.5876         estimate D2E/DX2                !
 --------------------------------------------------------------------------------
 Trust Radius=3.00D-01 FncErr=1.00D-07 GrdErr=1.00D-06 EigMax=2.50D+02 EigMin=1.00D-04
 Number of steps in this run=    215 maximum allowed number of steps=    228.
 GradGradGradGradGradGradGradGradGradGradGradGradGradGradGradGradGradGrad

                          Input orientation:                          
 ---------------------------------------------------------------------
 Center     Atomic      Atomic             Coordinates (Angstroms)
 Number     Number       Type             X           Y           Z
 ---------------------------------------------------------------------
      1          8           0       -7.021300    0.621800    0.028000
      2          8           0       -5.928500   -1.370800    0.065100
      3          6           0        1.698600   -0.398100   -0.060300
      4          6           0        0.462300    0.502900   -0.021600
      5          6           0        2.987600    0.427500   -0.021100
      6          6           0       -0.857700   -0.273600   -0.035700
      7          6           0        4.223200   -0.474800   -0.021700
      8          6           0       -2.094300    0.628600   -0.022000
      9          6           0        5.543300    0.298800    0.048200
     10          6           0       -3.383400   -0.199600   -0.048600
     11          6           0        6.815700   -0.548100   -0.033900
     12          6           0       -4.636700    0.669500   -0.001600
     13          6           0        8.095500    0.263200    0.093200
     14          6           0       -5.904200   -0.147400    0.032100
     15          1           0        1.678900   -1.010300   -0.969900
     16          1           0        1.674700   -1.085600    0.793800
     17          1           0        0.497400    1.128600    0.878900
     18          1           0        0.486000    1.184200   -0.881300
     19          1           0        2.996000    1.055400    0.878000
     20          1           0        3.022800    1.100200   -0.886500
     21          1           0       -0.887600   -0.943200    0.832900
     22          1           0       -0.886600   -0.911200   -0.928000
     23          1           0        4.172600   -1.166300    0.828400
     24          1           0        4.218900   -1.089900   -0.930100
     25          1           0       -2.071000    1.299700   -0.888900
     26          1           0       -2.078200    1.257400    0.876200
     27          1           0        5.563400    1.034700   -0.765800
     28          1           0        5.561100    0.873400    0.983100
     29          1           0       -3.386300   -0.890600    0.804100
     30          1           0       -3.402300   -0.821000   -0.952900
     31          1           0        6.796400   -1.304600    0.759400
     32          1           0        6.828700   -1.088600   -0.987700
     33          1           0       -4.618500    1.298000    0.895700
     34          1           0       -4.669900    1.315100   -0.886100
     35          1           0        8.165700    1.008400   -0.705400
     36          1           0        8.132700    0.785300    1.054600
     37          1           0        8.969600   -0.392000    0.026800
     38          1           0       -7.838800    0.080300    0.052800
 ---------------------------------------------------------------------
                    Distance matrix (angstroms):
                    1          2          3          4          5
     1  O    0.000000
     2  O    2.272893   0.000000
     3  C    8.779786   7.689898   0.000000
     4  C    7.484709   6.660375   1.530273   0.000000
     5  C   10.010906   9.096051   1.531233   2.526425   0.000000
     6  C    6.228625   5.189125   2.559448   1.531519   3.908719
     7  C   11.297955  10.191534   2.526060   3.885906   1.529985
     8  C    4.927258   4.325075   3.929589   2.559688   5.085877
     9  C   12.568767  11.592672   3.908857   5.085577   2.559877
    10  C    3.730266   2.803956   5.085889   3.909430   6.401848
    11  C   13.886507  12.771111   5.119366   6.439755   3.950482
    12  C    2.385261   2.415786   6.424892   5.101760   7.628165
    13  C   15.121193  14.118899   6.432823   7.637825   5.111820
    14  C    1.356318   1.224086   7.607493   6.399851   8.910525
    15  H    8.908032   7.685943   1.096608   2.160825   2.163374
    16  H    8.895059   7.643363   1.096683   2.158269   2.162693
    17  H    7.583649   6.942727   2.157728   1.097102   2.739094
    18  H    7.583052   6.969183   2.155948   1.097185   2.751462
    19  H   10.062644   9.284070   2.162479   2.744845   1.096681
    20  H   10.096986   9.334728   2.163565   2.767847   1.096668
    21  H    6.381173   5.116936   2.789869   2.154903   4.198251
    22  H    6.395199   5.159286   2.774785   2.154245   4.198096
    23  H   11.364037  10.131963   2.738721   4.156327   2.160110
    24  H   11.410082  10.199954   2.754460   4.180243   2.155199
    25  H    5.079933   4.787692   4.216514   2.793691   5.206078
    26  H    5.055459   4.731821   4.228703   2.798116   5.211162
    27  H   12.616469  11.770327   4.181785   5.182458   2.749185
    28  H   12.621106  11.742660   4.198131   5.210034   2.798240
    29  H    4.012843   2.690631   5.181308   4.175565   6.560865
    30  H    4.017586   2.778541   5.195648   4.189888   6.577068
    31  H   13.970497  12.743999   5.242253   6.633087   4.256326
    32  H   13.992127  12.803678   5.258782   6.633044   4.241099
    33  H    2.642650   3.086825   6.610329   5.223806   7.710451
    34  H    2.616357   3.114950   6.646412   5.267495   7.757149
    35  H   15.209612  14.314354   6.649645   7.750193   5.255324
    36  H   15.189613  14.259917   6.636345   7.750677   5.268511
    37  H   16.023005  14.930268   7.271524   8.554376   6.038062
    38  H    0.980889   2.398977   9.550061   8.312183  10.832218
                    6          7          8          9         10
     6  C    0.000000
     7  C    5.084901   0.000000
     8  C    1.530795   6.413135   0.000000
     9  C    6.427090   1.531668   7.645040   0.000000
    10  C    2.526817   7.611624   1.532450   8.941127   0.000000
    11  C    7.678308   2.593565   8.987373   1.530680  10.205063
    12  C    3.895053   8.933513   2.542811  10.186869   1.525878
    13  C    8.970204   3.943673  10.197000   2.552845  11.489101
    14  C    5.048533  10.132834   3.888501  11.456204   2.522632
    15  H    2.801749   2.767545   4.221557   4.205218   5.208926
    16  H    2.785761   2.744626   4.220115   4.175949   5.203750
    17  H    2.153823   4.154944   2.789002   5.180708   4.205351
    18  H    2.155400   4.178260   2.775795   5.217680   4.192916
    19  H    4.177570   2.158006   5.186840   2.783837   6.567371
    20  H    4.203507   2.160894   5.210996   2.805143   6.590217
    21  H    1.097144   5.202885   2.158132   6.596574   2.749364
    22  H    1.097073   5.207867   2.156469   6.615186   2.741118
    23  H    5.181457   1.096997   6.574107   2.152684   7.667905
    24  H    5.219020   1.097067   6.605633   2.153972   7.704845
    25  H    2.162249   6.596805   1.096555   7.736764   2.162498
    26  H    2.159894   6.596543   1.096545   7.726044   2.163712
    27  H    6.593574   2.151374   7.704448   1.097519   9.059973
    28  H    6.599588   2.148777   7.724979   1.097506   9.067514
    29  H    2.734917   7.665463   2.158628   9.040122   1.097537
    30  H    2.759691   7.689944   2.163049   9.070828   1.097385
    31  H    7.764045   2.814257   9.131944   2.155680  10.271427
    32  H    7.787893   2.845793   9.137904   2.156437  10.293649
    33  H    4.181034   9.064221   2.768006  10.245918   2.158699
    34  H    4.216636   9.112527   2.802083  10.306078   2.156572
    35  H    9.138587   4.267392  10.289747   2.819295  11.630665
    36  H    9.117967   4.246229  10.284705   2.820375  11.610669
    37  H    9.828212   4.747370  11.110981   3.495310  12.354728
    38  H    6.990625  12.074996   5.771092  13.383884   4.465335
                   11         12         13         14         15
    11  C    0.000000
    12  C   11.516990   0.000000
    13  C    1.520608  12.739034   0.000000
    14  C   12.726381   1.508316  14.005853   0.000000
    15  H    5.241797   6.606522   6.627574   7.697532   0.000000
    16  H    5.234871   6.599000   6.598240   7.674642   1.765312
    17  H    6.600412   5.229248   7.687481   6.582228   3.064131
    18  H    6.616952   5.223107   7.726732   6.591063   2.499338
    19  H    4.241802   7.692901   5.219999   9.020856   3.068648
    20  H    4.222548   7.722467   5.233800   9.060445   2.503444
    21  H    7.761976   4.165686   9.093879   5.142067   3.137119
    22  H    7.762518   4.173737   9.115930   5.165413   2.567755
    23  H    2.848106   9.036749   4.239473  10.159436   3.078434
    24  H    2.800016   9.076302   4.231554  10.212311   2.541559
    25  H    9.116953   2.786982  10.266283   4.199495   4.405044
    26  H    9.120832   2.768047  10.252107   4.162240   4.760919
    27  H    2.146902  10.235205   2.782916  11.555945   4.394658
    28  H    2.151505  10.247260   2.754533  11.549872   4.736456
    29  H   10.242087   2.155589  11.561504   2.736449   5.368208
    30  H   10.262873   2.156457  11.596086   2.771906   5.084753
    31  H    1.096353  11.627208   2.142307  12.773931   5.409796
    32  H    1.096378  11.641250   2.144875  12.808302   5.150426
    33  H   11.619517   1.095669  12.781260   2.118493   6.961750
    34  H   11.666909   1.095555  12.846048   2.122615   6.761787
    35  H    2.167050  12.826209   1.094538  14.136544   6.798800
    36  H    2.167320  12.813530   1.094652  14.104964   6.998165
    37  H    2.160402  13.647673   1.094416  14.875812   7.384444
    38  H   14.668223   3.256311  15.935401   1.948064   9.634414
                   16         17         18         19         20
    16  H    0.000000
    17  H    2.509175   0.000000
    18  H    3.061202   1.761115   0.000000
    19  H    2.517301   2.499672   3.067870   0.000000
    20  H    3.068958   3.081410   2.538196   1.765272   0.000000
    21  H    2.566552   2.492528   3.057955   4.367927   4.735298
    22  H    3.091160   3.056326   2.505377   4.712084   4.396687
    23  H    2.499443   4.333153   4.694565   2.514518   3.065933
    24  H    3.073240   4.695081   4.371322   3.060559   2.495815
    25  H    4.748832   3.122670   2.559619   5.371788   5.097706
    26  H    4.425008   2.578820   3.109548   5.078219   5.399261
    27  H    4.695744   5.327120   5.080913   3.048614   2.544309
    28  H    4.356331   5.071197   5.415646   2.573695   3.160666
    29  H    5.064766   4.377886   4.705324   6.672790   6.920836
    30  H    5.375584   4.729069   4.375481   6.914573   6.706514
    31  H    5.126495   6.753676   6.979052   4.475121   4.767820
    32  H    5.453207   6.963155   6.738456   4.771495   4.391578
    33  H    6.730253   5.118731   5.406163   7.618384   7.848874
    34  H    6.988517   5.463607   5.157564   7.870547   7.695701
    35  H    6.983231   7.831174   7.683726   5.406955   5.146906
    36  H    6.728599   7.645033   7.898028   5.146827   5.475227
    37  H    7.367831   8.649652   8.676435   6.205111   6.198807
    38  H    9.613277   8.442370   8.449463  10.909843  10.949741
                   21         22         23         24         25
    21  H    0.000000
    22  H    1.761191   0.000000
    23  H    5.065118   5.361485   0.000000
    24  H    5.404261   5.108627   1.760768   0.000000
    25  H    3.065229   2.508468   6.929128   6.728650   0.000000
    26  H    2.502408   3.062331   6.704410   6.958880   1.765621
    27  H    6.934215   6.739090   3.052900   2.519643   7.639990
    28  H    6.701368   6.957725   2.472295   3.052275   7.869883
    29  H    2.499420   3.041232   7.563965   7.802963   3.064911
    30  H    3.086702   2.517440   7.789183   7.625976   2.504760
    31  H    7.692845   7.875949   2.628348   3.089339   9.387761
    32  H    7.929503   7.717570   3.218559   2.610436   9.215118
    33  H    4.352762   4.704628   9.130210   9.334626   3.110395
    34  H    4.728707   4.389935   9.342733   9.208514   2.598947
    35  H    9.388149   9.256271   4.798615   4.475554  10.242488
    36  H    9.187093   9.389174   4.420667   4.772132  10.399870
    37  H    9.905454   9.915941   4.924765   4.896108  11.206927
    38  H    7.069320   7.090707  12.100797  12.154159   5.970029
                   26         27         28         29         30
    26  H    0.000000
    27  H    7.819195   0.000000
    28  H    7.649692   1.756324   0.000000
    29  H    2.515994   9.288084   9.121387   0.000000
    30  H    3.068973   9.157642   9.325322   1.758451   0.000000
    31  H    9.237749   3.052679   2.513900  10.191211  10.352745
    32  H    9.397378   2.481658   3.056191  10.372848  10.234558
    33  H    2.540699  10.319932  10.188826   2.513300   3.063760
    34  H    3.134635  10.237848  10.409725   3.060967   2.484793
    35  H   10.368266   2.603134   3.106960  11.803961  11.714375
    36  H   10.223365   3.158696   2.574102  11.642970  11.818057
    37  H   11.202495   3.777021   3.759471  12.390362  12.418042
    38  H    5.937008  13.461053  13.455549   4.618642   4.637489
                   31         32         33         34         35
    31  H    0.000000
    32  H    1.760698   0.000000
    33  H   11.708631  11.844047   0.000000
    34  H   11.876301  11.747591   1.782623   0.000000
    35  H    3.061142   2.502933  12.887326  12.840535   0.000000
    36  H    2.498104   3.063153  12.762492  12.959690   1.774391
    37  H    2.468267   2.469396  13.720333  13.776195   1.772990
    38  H   14.717551  14.750747   3.544518   3.528199  16.049307
                   36         37         38
    36  H    0.000000
    37  H    1.772797   0.000000
    38  H   16.018409  16.815054   0.000000
 Stoichiometry    C12H24O2
 Framework group  C1[X(C12H24O2)]
 Deg. of freedom   108
 Full point group                 C1      NOp   1
 Largest Abelian subgroup         C1      NOp   1
 Largest concise Abelian subgroup C1      NOp   1
                         Standard orientation:                         
 ---------------------------------------------------------------------
 Center     Atomic      Atomic             Coordinates (Angstroms)
 Number     Number       Type             X           Y           Z
 ---------------------------------------------------------------------
      1          8           0       -7.138325   -0.602564   -0.026025
      2          8           0       -6.043133    1.388460   -0.075216
      3          6           0        1.582757    0.407468    0.058901
      4          6           0        0.345395   -0.492281    0.025413
      5          6           0        2.870783   -0.419898    0.025313
      6          6           0       -0.973681    0.285865    0.034198
      7          6           0        4.107460    0.480914    0.020693
      8          6           0       -2.211354   -0.614927    0.025717
      9          6           0        5.426658   -0.294682   -0.043909
     10          6           0       -3.499472    0.214960    0.046689
     11          6           0        6.700041    0.551197    0.033329
     12          6           0       -4.753794   -0.652922    0.004696
     13          6           0        7.978914   -0.262408   -0.088250
     14          6           0       -6.020305    0.165262   -0.034553
     15          1           0        1.563481    1.025371    0.964645
     16          1           0        1.559967    1.089638   -0.799493
     17          1           0        0.380051   -1.123646   -0.871142
     18          1           0        0.367990   -1.168216    0.889368
     19          1           0        2.878736   -1.053422   -0.869837
     20          1           0        2.904887   -1.087210    0.894917
     21          1           0       -1.002488    0.950052   -0.838585
     22          1           0       -1.002121    0.929071    0.922481
     23          1           0        4.057973    1.167140   -0.833735
     24          1           0        4.103588    1.101691    0.925225
     25          1           0       -2.189148   -1.280617    0.896808
     26          1           0       -2.195702   -1.249355   -0.868525
     27          1           0        5.445604   -1.025497    0.774687
     28          1           0        5.444087   -0.875142   -0.975189
     29          1           0       -3.501259    0.900613   -0.810319
     30          1           0       -3.517935    0.842029    0.947076
     31          1           0        6.681913    1.302740   -0.764696
     32          1           0        6.713365    1.097639    0.983733
     33          1           0       -4.736042   -1.287046   -0.888647
     34          1           0       -4.788064   -1.292934    0.893207
     35          1           0        8.047954   -1.002679    0.715022
     36          1           0        8.015815   -0.790558   -1.046351
     37          1           0        8.853774    0.392152   -0.025650
     38          1           0       -7.955169   -0.060256   -0.054495
 ---------------------------------------------------------------------
 Rotational constants (GHZ):           4.7074218           0.1034907           0.1019872
 Standard basis: 6-311++G(d,p) (5D, 7F)
 There are   490 symmetry adapted cartesian basis functions of A   symmetry.
 There are   476 symmetry adapted basis functions of A   symmetry.
   476 basis functions,   720 primitive gaussians,   490 cartesian basis functions
    56 alpha electrons       56 beta electrons
       nuclear repulsion energy       829.1372229731 Hartrees.
 NAtoms=   38 NActive=   38 NUniq=   38 SFac= 1.00D+00 NAtFMM=   60 NAOKFM=F Big=F
 Integral buffers will be    131072 words long.
 Raffenetti 2 integral format.
 Two-electron integral symmetry is turned on.
 R6APFD:  NTU= -4 IXU= 1 FactS= 1.050
 Nuclear repulsion after empirical dispersion term =      829.1106760372 Hartrees.
 One-electron integrals computed using PRISM.
 NBasis=   476 RedAO= T EigKep=  1.17D-06  NBF=   476
 NBsUse=   476 1.00D-06 EigRej= -1.00D+00 NBFU=   476
 ExpMin= 3.60D-02 ExpMax= 8.59D+03 ExpMxC= 1.30D+03 IAcc=3 IRadAn=         5 AccDes= 0.00D+00
 Harris functional with IExCor= 1009 and IRadAn=       5 diagonalized for initial guess.
 HarFok:  IExCor= 1009 AccDes= 0.00D+00 IRadAn=         5 IDoV= 1 UseB2=F ITyADJ=14
 ICtDFT=  3500011 ScaDFX=  1.000000  1.000000  1.000000  1.000000
 FoFCou: FMM=F IPFlag=           0 FMFlag=      100000 FMFlg1=           0
         NFxFlg=           0 DoJE=T BraDBF=F KetDBF=T FulRan=T
         wScrn=  0.000000 ICntrl=       500 IOpCl=  0 I1Cent=   200000004 NGrid=           0
         NMat0=    1 NMatS0=      1 NMatT0=    0 NMatD0=    1 NMtDS0=    0 NMtDT0=    0
 Petite list used in FoFCou.
 Requested convergence on RMS density matrix=1.00D-08 within  32 cycles.
 Requested convergence on MAX density matrix=1.00D-06.
 Requested convergence on             energy=1.00D-06.
 No special actions if energy rises.
 SCF Done:  E(RM08HX) =  -622.244480414     A.U. after   13 cycles
            NFock= 13  Conv=0.97D-08     -V/T= 2.0053
 QCSCF skips out because SCF is already converged.

 **********************************************************************

            Population analysis using the SCF Density.

 **********************************************************************

 Orbital symmetries:
       Occupied  (A) (A) (A) (A) (A) (A) (A) (A) (A) (A) (A) (A)
                 (A) (A) (A) (A) (A) (A) (A) (A) (A) (A) (A) (A)
                 (A) (A) (A) (A) (A) (A) (A) (A) (A) (A) (A) (A)
                 (A) (A) (A) (A) (A) (A) (A) (A) (A) (A) (A) (A)
                 (A) (A) (A) (A) (A) (A) (A) (A)
       Virtual   (A) (A) (A) (A) (A) (A) (A) (A) (A) (A) (A) (A)
                 (A) (A) (A) (A) (A) (A) (A) (A) (A) (A) (A) (A)
                 (A) (A) (A) (A) (A) (A) (A) (A) (A) (A) (A) (A)
                 (A) (A) (A) (A) (A) (A) (A) (A) (A) (A) (A) (A)
                 (A) (A) (A) (A) (A) (A) (A) (A) (A) (A) (A) (A)
                 (A) (A) (A) (A) (A) (A) (A) (A) (A) (A) (A) (A)
                 (A) (A) (A) (A) (A) (A) (A) (A) (A) (A) (A) (A)
                 (A) (A) (A) (A) (A) (A) (A) (A) (A) (A) (A) (A)
                 (A) (A) (A) (A) (A) (A) (A) (A) (A) (A) (A) (A)
                 (A) (A) (A) (A) (A) (A) (A) (A) (A) (A) (A) (A)
                 (A) (A) (A) (A) (A) (A) (A) (A) (A) (A) (A) (A)
                 (A) (A) (A) (A) (A) (A) (A) (A) (A) (A) (A) (A)
                 (A) (A) (A) (A) (A) (A) (A) (A) (A) (A) (A) (A)
                 (A) (A) (A) (A) (A) (A) (A) (A) (A) (A) (A) (A)
                 (A) (A) (A) (A) (A) (A) (A) (A) (A) (A) (A) (A)
                 (A) (A) (A) (A) (A) (A) (A) (A) (A) (A) (A) (A)
                 (A) (A) (A) (A) (A) (A) (A) (A) (A) (A) (A) (A)
                 (A) (A) (A) (A) (A) (A) (A) (A) (A) (A) (A) (A)
                 (A) (A) (A) (A) (A) (A) (A) (A) (A) (A) (A) (A)
                 (A) (A) (A) (A) (A) (A) (A) (A) (A) (A) (A) (A)
                 (A) (A) (A) (A) (A) (A) (A) (A) (A) (A) (A) (A)
                 (A) (A) (A) (A) (A) (A) (A) (A) (A) (A) (A) (A)
                 (A) (A) (A) (A) (A) (A) (A) (A) (A) (A) (A) (A)
                 (A) (A) (A) (A) (A) (A) (A) (A) (A) (A) (A) (A)
                 (A) (A) (A) (A) (A) (A) (A) (A) (A) (A) (A) (A)
                 (A) (A) (A) (A) (A) (A) (A) (A) (A) (A) (A) (A)
                 (A) (A) (A) (A) (A) (A) (A) (A) (A) (A) (A) (A)
                 (A) (A) (A) (A) (A) (A) (A) (A) (A) (A) (A) (A)
                 (A) (A) (A) (A) (A) (A) (A) (A) (A) (A) (A) (A)
                 (A) (A) (A) (A) (A) (A) (A) (A) (A) (A) (A) (A)
                 (A) (A) (A) (A) (A) (A) (A) (A) (A) (A) (A) (A)
                 (A) (A) (A) (A) (A) (A) (A) (A) (A) (A) (A) (A)
                 (A) (A) (A) (A) (A) (A) (A) (A) (A) (A) (A) (A)
                 (A) (A) (A) (A) (A) (A) (A) (A) (A) (A) (A) (A)
                 (A) (A) (A) (A) (A) (A) (A) (A) (A) (A) (A) (A)
 The electronic state is 1-A.
 Alpha  occ. eigenvalues --  -19.66473 -19.60656 -10.67765 -10.54860 -10.52916
 Alpha  occ. eigenvalues --  -10.52666 -10.52216 -10.52067 -10.52032 -10.51997
 Alpha  occ. eigenvalues --  -10.51932 -10.51871 -10.51785 -10.51175  -1.23289
 Alpha  occ. eigenvalues --   -1.13657  -0.92900  -0.91611  -0.89475  -0.86619
 Alpha  occ. eigenvalues --   -0.82914  -0.78646  -0.74389  -0.70583  -0.67326
 Alpha  occ. eigenvalues --   -0.66727  -0.66077  -0.65562  -0.58442  -0.57561
 Alpha  occ. eigenvalues --   -0.57224  -0.56219  -0.54582  -0.52558  -0.50615
 Alpha  occ. eigenvalues --   -0.50071  -0.49831  -0.48770  -0.47677  -0.47435
 Alpha  occ. eigenvalues --   -0.45363  -0.44853  -0.44574  -0.42274  -0.41871
 Alpha  occ. eigenvalues --   -0.40598  -0.40211  -0.40111  -0.39838  -0.39070
 Alpha  occ. eigenvalues --   -0.38967  -0.38551  -0.38323  -0.38035  -0.36291
 Alpha  occ. eigenvalues --   -0.35491
 Alpha virt. eigenvalues --   -0.03141  -0.02592  -0.01876  -0.01800  -0.01720
 Alpha virt. eigenvalues --   -0.00809  -0.00738  -0.00453   0.00742   0.00835
 Alpha virt. eigenvalues --    0.01262   0.01831   0.02659   0.02710   0.03017
 Alpha virt. eigenvalues --    0.03127   0.03345   0.03641   0.04227   0.04753
 Alpha virt. eigenvalues --    0.04872   0.05409   0.05595   0.05956   0.07049
 Alpha virt. eigenvalues --    0.07430   0.07851   0.08167   0.08342   0.08382
 Alpha virt. eigenvalues --    0.09676   0.10001   0.10433   0.10813   0.10926
 Alpha virt. eigenvalues --    0.11297   0.11925   0.11988   0.12072   0.12246
 Alpha virt. eigenvalues --    0.12388   0.12660   0.13089   0.13402   0.13789
 Alpha virt. eigenvalues --    0.14150   0.14201   0.14301   0.14590   0.14723
 Alpha virt. eigenvalues --    0.15015   0.15524   0.15865   0.16094   0.16559
 Alpha virt. eigenvalues --    0.16897   0.16998   0.17776   0.18051   0.18371
 Alpha virt. eigenvalues --    0.18530   0.18855   0.19328   0.19670   0.19975
 Alpha virt. eigenvalues --    0.20483   0.20771   0.21273   0.21431   0.21594
 Alpha virt. eigenvalues --    0.21977   0.22898   0.23274   0.23468   0.23860
 Alpha virt. eigenvalues --    0.24356   0.24497   0.25158   0.25196   0.25594
 Alpha virt. eigenvalues --    0.26313   0.26389   0.26603   0.26889   0.27901
 Alpha virt. eigenvalues --    0.28730   0.29026   0.29096   0.29630   0.29725
 Alpha virt. eigenvalues --    0.30745   0.31016   0.31348   0.31373   0.31790
 Alpha virt. eigenvalues --    0.32207   0.32617   0.32934   0.33136   0.33670
 Alpha virt. eigenvalues --    0.33940   0.34417   0.34632   0.34796   0.34970
 Alpha virt. eigenvalues --    0.35878   0.37522   0.38212   0.38700   0.38865
 Alpha virt. eigenvalues --    0.39764   0.39989   0.40791   0.41777   0.43287
 Alpha virt. eigenvalues --    0.44385   0.44835   0.45426   0.45816   0.46225
 Alpha virt. eigenvalues --    0.47228   0.47617   0.48521   0.48840   0.51032
 Alpha virt. eigenvalues --    0.51207   0.52370   0.54713   0.55422   0.55763
 Alpha virt. eigenvalues --    0.57929   0.57975   0.59881   0.61956   0.62129
 Alpha virt. eigenvalues --    0.62593   0.63565   0.64976   0.66429   0.66980
 Alpha virt. eigenvalues --    0.67395   0.68236   0.68728   0.68860   0.69688
 Alpha virt. eigenvalues --    0.70061   0.70474   0.70821   0.71179   0.71670
 Alpha virt. eigenvalues --    0.72820   0.72957   0.73163   0.73469   0.73801
 Alpha virt. eigenvalues --    0.74116   0.75011   0.75274   0.75389   0.76146
 Alpha virt. eigenvalues --    0.76627   0.77126   0.77752   0.77983   0.78072
 Alpha virt. eigenvalues --    0.78681   0.79168   0.79813   0.80354   0.80677
 Alpha virt. eigenvalues --    0.81313   0.81568   0.81974   0.82252   0.84590
 Alpha virt. eigenvalues --    0.85685   0.87059   0.89838   0.91528   0.92844
 Alpha virt. eigenvalues --    0.98868   1.00644   1.01239   1.03681   1.04233
 Alpha virt. eigenvalues --    1.05643   1.05766   1.07051   1.07656   1.08225
 Alpha virt. eigenvalues --    1.09064   1.09579   1.13072   1.14539   1.16424
 Alpha virt. eigenvalues --    1.19248   1.19430   1.21760   1.24522   1.25555
 Alpha virt. eigenvalues --    1.26520   1.27445   1.27897   1.28796   1.29381
 Alpha virt. eigenvalues --    1.29743   1.30390   1.31046   1.31483   1.31697
 Alpha virt. eigenvalues --    1.32178   1.32474   1.34669   1.41467   1.44309
 Alpha virt. eigenvalues --    1.49237   1.49774   1.50142   1.50870   1.53098
 Alpha virt. eigenvalues --    1.53764   1.54463   1.55525   1.57303   1.57753
 Alpha virt. eigenvalues --    1.58678   1.59236   1.59489   1.59822   1.61369
 Alpha virt. eigenvalues --    1.61913   1.62629   1.63129   1.63592   1.64191
 Alpha virt. eigenvalues --    1.65370   1.65438   1.66572   1.67117   1.67371
 Alpha virt. eigenvalues --    1.68170   1.68756   1.68927   1.70080   1.71108
 Alpha virt. eigenvalues --    1.71182   1.72039   1.72574   1.74179   1.75848
 Alpha virt. eigenvalues --    1.76328   1.76424   1.77020   1.77097   1.77460
 Alpha virt. eigenvalues --    1.77736   1.78552   1.80975   1.82895   1.84496
 Alpha virt. eigenvalues --    1.85704   1.86184   1.87879   1.89429   1.90329
 Alpha virt. eigenvalues --    1.90620   1.91101   1.94125   1.94776   1.95712
 Alpha virt. eigenvalues --    1.96905   1.97736   2.00338   2.04722   2.06099
 Alpha virt. eigenvalues --    2.07398   2.09391   2.11121   2.12596   2.14088
 Alpha virt. eigenvalues --    2.14863   2.17593   2.19044   2.21077   2.21253
 Alpha virt. eigenvalues --    2.22560   2.24464   2.25815   2.26681   2.27261
 Alpha virt. eigenvalues --    2.28420   2.29536   2.30897   2.30949   2.34392
 Alpha virt. eigenvalues --    2.35996   2.38869   2.39188   2.39707   2.41070
 Alpha virt. eigenvalues --    2.41557   2.43737   2.44417   2.45350   2.47539
 Alpha virt. eigenvalues --    2.48211   2.48580   2.49386   2.51789   2.52108
 Alpha virt. eigenvalues --    2.53904   2.55431   2.55866   2.57610   2.57699
 Alpha virt. eigenvalues --    2.58041   2.58636   2.59350   2.60089   2.61301
 Alpha virt. eigenvalues --    2.61768   2.62113   2.63818   2.65534   2.66101
 Alpha virt. eigenvalues --    2.66104   2.67738   2.68414   2.68487   2.69815
 Alpha virt. eigenvalues --    2.70739   2.72857   2.73593   2.74621   2.76015
 Alpha virt. eigenvalues --    2.77010   2.77600   2.78564   2.79476   2.80027
 Alpha virt. eigenvalues --    2.80942   2.81923   2.82683   2.84818   2.87000
 Alpha virt. eigenvalues --    2.87177   2.88579   2.89982   2.92078   2.92746
 Alpha virt. eigenvalues --    2.92803   2.94345   2.95237   2.96175   2.97176
 Alpha virt. eigenvalues --    3.01358   3.05927   3.07446   3.11551   3.11677
 Alpha virt. eigenvalues --    3.13492   3.16137   3.17770   3.20561   3.24642
 Alpha virt. eigenvalues --    3.24945   3.28399   3.35385   3.42492   3.42915
 Alpha virt. eigenvalues --    3.48415   3.53169   3.56388   3.63242   3.73375
 Alpha virt. eigenvalues --    3.80299   3.80623   3.81899   3.82773   3.84440
 Alpha virt. eigenvalues --    3.85119   3.85328   3.86471   3.87516   3.87967
 Alpha virt. eigenvalues --    3.91172   3.94794   3.97987   4.09961   4.10315
 Alpha virt. eigenvalues --    4.12004   4.13565   4.15902   4.20045   4.25611
 Alpha virt. eigenvalues --    4.31828   4.38194   4.43877   4.46845   4.49011
 Alpha virt. eigenvalues --    5.07818   5.15499   5.33175   5.48132   5.69090
 Alpha virt. eigenvalues --    5.95232  23.82985  23.94278  23.94619  23.95078
 Alpha virt. eigenvalues --   23.95385  23.96069  23.96200  23.97087  23.97866
 Alpha virt. eigenvalues --   23.98872  23.99190  24.04338  49.88303  50.00291
          Condensed to atoms (all electrons):
               1          2          3          4          5          6
     1  O    8.036621  -0.113784  -0.000187  -0.006088  -0.000095  -0.014122
     2  O   -0.113784   7.943669   0.000103   0.005858   0.000103   0.016523
     3  C   -0.000187   0.000103  11.015729   0.362668  -0.290864  -0.958244
     4  C   -0.006088   0.005858   0.362668  12.495894  -0.880559   0.162695
     5  C   -0.000095   0.000103  -0.290864  -0.880559  10.946556  -1.320443
     6  C   -0.014122   0.016523  -0.958244   0.162695  -1.320443  10.931251
     7  C   -0.000001  -0.000000  -0.193949  -1.000143   0.111137  -1.239400
     8  C    0.037913   0.163789  -1.190819  -1.708988  -2.309569  -0.627208
     9  C   -0.000000   0.000000  -0.933718  -1.308357   0.399429  -0.303322
    10  C   -0.042888   0.023286  -1.416393  -1.062542  -0.169341   0.123467
    11  C   -0.000000   0.000000  -0.602128  -0.234985  -0.648511  -0.066170
    12  C   -0.117149   0.137888  -0.239259  -1.062798  -0.145131  -0.497059
    13  C   -0.000000   0.000000  -0.059213  -0.032836  -0.194618  -0.004627
    14  C    0.145799   0.108999  -0.077686  -0.407587  -0.023690  -0.822354
    15  H   -0.000020  -0.000020   0.460380  -0.125464  -0.004339   0.000484
    16  H   -0.000010   0.000002   0.481092  -0.080052  -0.143889   0.078387
    17  H    0.000022  -0.000192  -0.124824   0.489751  -0.012610  -0.096156
    18  H    0.000040  -0.000121  -0.113220   0.485971  -0.008999  -0.152977
    19  H   -0.000001   0.000002  -0.101095  -0.003122   0.539612   0.001619
    20  H   -0.000000   0.000002  -0.017280   0.094761   0.475021   0.057104
    21  H    0.000557   0.000726   0.088950  -0.091472   0.021699   0.440221
    22  H    0.000839   0.001785   0.052125  -0.177694  -0.046308   0.501812
    23  H    0.000000  -0.000000   0.073559   0.046027  -0.039608   0.004978
    24  H    0.000000  -0.000000   0.035336   0.028915  -0.125663   0.001563
    25  H   -0.000186   0.001075   0.047739   0.176849   0.042183  -0.038464
    26  H    0.000516   0.003434   0.021498   0.097379   0.015783  -0.057710
    27  H   -0.000000  -0.000000   0.008827   0.006687   0.072582  -0.002849
    28  H    0.000000  -0.000000   0.002567   0.000296  -0.023190   0.001648
    29  H   -0.005777  -0.013803  -0.003508   0.052777   0.005815   0.078783
    30  H   -0.007644  -0.017624   0.001407   0.066752   0.011229   0.065703
    31  H   -0.000000  -0.000000   0.010834   0.002407   0.017095   0.000847
    32  H   -0.000000   0.000000   0.004186  -0.001785  -0.003871   0.001023
    33  H    0.000460  -0.006684   0.001965  -0.022324  -0.003008   0.005917
    34  H    0.000997  -0.000230  -0.003740  -0.043363  -0.005002  -0.028645
    35  H    0.000000   0.000000  -0.002116   0.000216  -0.009010   0.000010
    36  H   -0.000000   0.000000  -0.002503  -0.000191  -0.004177  -0.000041
    37  H   -0.000000   0.000000  -0.003846  -0.001438  -0.001100  -0.000263
    38  H    0.243222  -0.020159  -0.000120  -0.000704  -0.000021  -0.004739
               7          8          9         10         11         12
     1  O   -0.000001   0.037913  -0.000000  -0.042888  -0.000000  -0.117149
     2  O   -0.000000   0.163789   0.000000   0.023286   0.000000   0.137888
     3  C   -0.193949  -1.190819  -0.933718  -1.416393  -0.602128  -0.239259
     4  C   -1.000143  -1.708988  -1.308357  -1.062542  -0.234985  -1.062798
     5  C    0.111137  -2.309569   0.399429  -0.169341  -0.648511  -0.145131
     6  C   -1.239400  -0.627208  -0.303322   0.123467  -0.066170  -0.497059
     7  C    8.953530  -0.329651  -0.369164  -0.111807   0.173735  -0.012582
     8  C   -0.329651  13.900803  -0.170086  -1.694745  -0.014304   0.399687
     9  C   -0.369164  -0.170086   9.000595  -0.011836  -0.728961  -0.003176
    10  C   -0.111807  -1.694745  -0.011836   9.965484  -0.001147  -0.348962
    11  C    0.173735  -0.014304  -0.728961  -0.001147   7.951316  -0.000125
    12  C   -0.012582   0.399687  -0.003176  -0.348962  -0.000125  10.381698
    13  C   -0.254301  -0.000948   0.376611  -0.000048  -0.187844  -0.000006
    14  C   -0.002050  -0.612081  -0.000226   0.560385  -0.000009  -2.043563
    15  H    0.041561  -0.058459   0.036942   0.001023   0.002593  -0.003403
    16  H   -0.006436   0.012807  -0.000540   0.012078  -0.007546   0.001913
    17  H    0.000377   0.064393  -0.014708   0.027662  -0.000318   0.011200
    18  H    0.025762   0.085852  -0.002448   0.010128   0.001684   0.009698
    19  H   -0.112846  -0.019564   0.048439  -0.003398   0.001398  -0.001264
    20  H   -0.175541   0.004069  -0.059748   0.002421  -0.021460  -0.000045
    21  H    0.009080  -0.050069   0.003350  -0.058510   0.000806  -0.020649
    22  H   -0.014882   0.022313  -0.006224  -0.005138  -0.000756   0.006066
    23  H    0.465253   0.002156  -0.178777  -0.000211  -0.012545  -0.000019
    24  H    0.509112   0.007920  -0.127921  -0.000384   0.017408   0.000213
    25  H    0.003247   0.373187   0.002294  -0.155995   0.000067  -0.058353
    26  H    0.000393   0.434385   0.000943  -0.116519  -0.000011  -0.025833
    27  H   -0.085995  -0.000260   0.448283  -0.000104  -0.094697  -0.000016
    28  H   -0.089022   0.001475   0.504994   0.000153  -0.066536   0.000038
    29  H   -0.000256  -0.163896   0.000006   0.489720  -0.000008  -0.053467
    30  H    0.001426  -0.161041   0.000337   0.482467   0.000030  -0.040651
    31  H    0.036566   0.000070  -0.090189   0.000011   0.445985   0.000001
    32  H   -0.009526  -0.000143  -0.055427   0.000033   0.457143  -0.000001
    33  H    0.000022   0.062769  -0.000054  -0.106613  -0.000001   0.380857
    34  H   -0.000307   0.024905  -0.000109  -0.082473  -0.000004   0.410858
    35  H   -0.022996   0.000014  -0.042305  -0.000000   0.003377   0.000000
    36  H   -0.023789  -0.000019  -0.034590  -0.000000  -0.004085  -0.000000
    37  H    0.023653  -0.000043   0.061801  -0.000003  -0.052736  -0.000000
    38  H   -0.000002  -0.010505  -0.000000   0.018257  -0.000000  -0.208069
              13         14         15         16         17         18
     1  O   -0.000000   0.145799  -0.000020  -0.000010   0.000022   0.000040
     2  O    0.000000   0.108999  -0.000020   0.000002  -0.000192  -0.000121
     3  C   -0.059213  -0.077686   0.460380   0.481092  -0.124824  -0.113220
     4  C   -0.032836  -0.407587  -0.125464  -0.080052   0.489751   0.485971
     5  C   -0.194618  -0.023690  -0.004339  -0.143889  -0.012610  -0.008999
     6  C   -0.004627  -0.822354   0.000484   0.078387  -0.096156  -0.152977
     7  C   -0.254301  -0.002050   0.041561  -0.006436   0.000377   0.025762
     8  C   -0.000948  -0.612081  -0.058459   0.012807   0.064393   0.085852
     9  C    0.376611  -0.000226   0.036942  -0.000540  -0.014708  -0.002448
    10  C   -0.000048   0.560385   0.001023   0.012078   0.027662   0.010128
    11  C   -0.187844  -0.000009   0.002593  -0.007546  -0.000318   0.001684
    12  C   -0.000006  -2.043563  -0.003403   0.001913   0.011200   0.009698
    13  C    6.152944  -0.000000   0.001534   0.000343  -0.000137   0.000371
    14  C   -0.000000   8.918530  -0.001269  -0.000167   0.004278   0.004038
    15  H    0.001534  -0.001269   0.593671  -0.101789   0.014689  -0.028992
    16  H    0.000343  -0.000167  -0.101789   0.595245  -0.025975   0.014880
    17  H   -0.000137   0.004278   0.014689  -0.025975   0.617700  -0.115626
    18  H    0.000371   0.004038  -0.028992   0.014880  -0.115626   0.616959
    19  H   -0.000800  -0.000228   0.011581  -0.020264  -0.024691   0.015389
    20  H   -0.007361  -0.000033  -0.022396   0.011594   0.015161  -0.024646
    21  H    0.000025   0.006136   0.011682  -0.024277  -0.025872   0.015540
    22  H   -0.000124   0.017644  -0.024936   0.011521   0.015721  -0.021020
    23  H   -0.007681   0.000004   0.013109  -0.020502   0.006992  -0.003732
    24  H   -0.002785   0.000030  -0.022698   0.013872  -0.003674   0.007826
    25  H    0.000006  -0.041816   0.009023  -0.003899   0.015296  -0.028406
    26  H    0.000001  -0.028668  -0.003185   0.007787  -0.028550   0.016302
    27  H   -0.001421  -0.000001   0.005696  -0.002740   0.000767   0.000046
    28  H    0.019946   0.000005  -0.002930   0.006033   0.000152   0.000590
    29  H   -0.000000  -0.047680   0.001311   0.000738   0.006397  -0.004427
    30  H    0.000002  -0.066087   0.001230   0.001115  -0.004505   0.005840
    31  H   -0.086751  -0.000000   0.000485   0.000107  -0.000095  -0.000044
    32  H   -0.046326  -0.000000   0.000025   0.000353   0.000030  -0.000191
    33  H   -0.000000   0.001595  -0.000090  -0.000415   0.000359   0.001242
    34  H   -0.000000   0.036254  -0.000607   0.000032   0.001303   0.000751
    35  H    0.426978   0.000000  -0.000061   0.000003  -0.000014  -0.000009
    36  H    0.424586  -0.000000   0.000042  -0.000068   0.000001  -0.000003
    37  H    0.330903  -0.000000  -0.000022  -0.000041  -0.000012   0.000009
    38  H   -0.000000   0.210444  -0.000004  -0.000002   0.000001   0.000007
              19         20         21         22         23         24
     1  O   -0.000001  -0.000000   0.000557   0.000839   0.000000   0.000000
     2  O    0.000002   0.000002   0.000726   0.001785  -0.000000  -0.000000
     3  C   -0.101095  -0.017280   0.088950   0.052125   0.073559   0.035336
     4  C   -0.003122   0.094761  -0.091472  -0.177694   0.046027   0.028915
     5  C    0.539612   0.475021   0.021699  -0.046308  -0.039608  -0.125663
     6  C    0.001619   0.057104   0.440221   0.501812   0.004978   0.001563
     7  C   -0.112846  -0.175541   0.009080  -0.014882   0.465253   0.509112
     8  C   -0.019564   0.004069  -0.050069   0.022313   0.002156   0.007920
     9  C    0.048439  -0.059748   0.003350  -0.006224  -0.178777  -0.127921
    10  C   -0.003398   0.002421  -0.058510  -0.005138  -0.000211  -0.000384
    11  C    0.001398  -0.021460   0.000806  -0.000756  -0.012545   0.017408
    12  C   -0.001264  -0.000045  -0.020649   0.006066  -0.000019   0.000213
    13  C   -0.000800  -0.007361   0.000025  -0.000124  -0.007681  -0.002785
    14  C   -0.000228  -0.000033   0.006136   0.017644   0.000004   0.000030
    15  H    0.011581  -0.022396   0.011682  -0.024936   0.013109  -0.022698
    16  H   -0.020264   0.011594  -0.024277   0.011521  -0.020502   0.013872
    17  H   -0.024691   0.015161  -0.025872   0.015721   0.006992  -0.003674
    18  H    0.015389  -0.024646   0.015540  -0.021020  -0.003732   0.007826
    19  H    0.586789  -0.100668   0.006668  -0.003826  -0.019844   0.011809
    20  H   -0.100668   0.585236  -0.003575   0.006303   0.011960  -0.022700
    21  H    0.006668  -0.003575   0.597494  -0.097817   0.000778   0.000589
    22  H   -0.003826   0.006303  -0.097817   0.599404   0.000681   0.001087
    23  H   -0.019844   0.011960   0.000778   0.000681   0.584107  -0.099789
    24  H    0.011809  -0.022700   0.000589   0.001087  -0.099789   0.589855
    25  H    0.000417   0.001080   0.012576  -0.030383   0.000216  -0.000637
    26  H    0.001296   0.000062  -0.027056   0.011035  -0.000494   0.000172
    27  H    0.009235  -0.012750   0.000094  -0.000270   0.015166  -0.024053
    28  H   -0.012752   0.009856  -0.000272   0.000157  -0.030546   0.016285
    29  H   -0.000352   0.000238  -0.016172   0.005258   0.000022  -0.000138
    30  H    0.000286  -0.000357   0.006035  -0.018103  -0.000115  -0.000021
    31  H    0.002454  -0.000465   0.000006  -0.000055  -0.002026   0.001330
    32  H   -0.000899   0.003236  -0.000058   0.000020   0.003254  -0.002076
    33  H    0.000023  -0.000088   0.006799  -0.000937   0.000004   0.000014
    34  H   -0.000124   0.000029  -0.001723   0.008246   0.000008   0.000014
    35  H    0.000040   0.000510   0.000004  -0.000003   0.000006   0.000920
    36  H    0.000520  -0.000334  -0.000006   0.000002   0.001558  -0.000187
    37  H    0.000047  -0.000149   0.000004  -0.000002  -0.000286   0.001044
    38  H    0.000000   0.000000   0.000074   0.000173   0.000000   0.000000
              25         26         27         28         29         30
     1  O   -0.000186   0.000516  -0.000000   0.000000  -0.005777  -0.007644
     2  O    0.001075   0.003434  -0.000000  -0.000000  -0.013803  -0.017624
     3  C    0.047739   0.021498   0.008827   0.002567  -0.003508   0.001407
     4  C    0.176849   0.097379   0.006687   0.000296   0.052777   0.066752
     5  C    0.042183   0.015783   0.072582  -0.023190   0.005815   0.011229
     6  C   -0.038464  -0.057710  -0.002849   0.001648   0.078783   0.065703
     7  C    0.003247   0.000393  -0.085995  -0.089022  -0.000256   0.001426
     8  C    0.373187   0.434385  -0.000260   0.001475  -0.163896  -0.161041
     9  C    0.002294   0.000943   0.448283   0.504994   0.000006   0.000337
    10  C   -0.155995  -0.116519  -0.000104   0.000153   0.489720   0.482467
    11  C    0.000067  -0.000011  -0.094697  -0.066536  -0.000008   0.000030
    12  C   -0.058353  -0.025833  -0.000016   0.000038  -0.053467  -0.040651
    13  C    0.000006   0.000001  -0.001421   0.019946  -0.000000   0.000002
    14  C   -0.041816  -0.028668  -0.000001   0.000005  -0.047680  -0.066087
    15  H    0.009023  -0.003185   0.005696  -0.002930   0.001311   0.001230
    16  H   -0.003899   0.007787  -0.002740   0.006033   0.000738   0.001115
    17  H    0.015296  -0.028550   0.000767   0.000152   0.006397  -0.004505
    18  H   -0.028406   0.016302   0.000046   0.000590  -0.004427   0.005840
    19  H    0.000417   0.001296   0.009235  -0.012752  -0.000352   0.000286
    20  H    0.001080   0.000062  -0.012750   0.009856   0.000238  -0.000357
    21  H    0.012576  -0.027056   0.000094  -0.000272  -0.016172   0.006035
    22  H   -0.030383   0.011035  -0.000270   0.000157   0.005258  -0.018103
    23  H    0.000216  -0.000494   0.015166  -0.030546   0.000022  -0.000115
    24  H   -0.000637   0.000172  -0.024053   0.016285  -0.000138  -0.000021
    25  H    0.610907  -0.111811   0.000051  -0.000101   0.017035  -0.021698
    26  H   -0.111811   0.611364  -0.000084   0.000040  -0.022477   0.017928
    27  H    0.000051  -0.000084   0.595750  -0.102736   0.000006  -0.000001
    28  H   -0.000101   0.000040  -0.102736   0.589281  -0.000006   0.000002
    29  H    0.017035  -0.022477   0.000006  -0.000006   0.525109  -0.068138
    30  H   -0.021698   0.017928  -0.000001   0.000002  -0.068138   0.528662
    31  H    0.000008  -0.000004   0.012628  -0.020686   0.000001   0.000001
    32  H   -0.000000   0.000007  -0.024354   0.011443   0.000001   0.000001
    33  H    0.003807  -0.014534   0.000000   0.000001  -0.017311   0.003174
    34  H   -0.017807   0.004246  -0.000001   0.000002   0.004552  -0.022618
    35  H    0.000001  -0.000000   0.002057  -0.000498  -0.000000   0.000000
    36  H   -0.000000   0.000001   0.003084   0.000223   0.000000  -0.000000
    37  H    0.000000   0.000000  -0.003206   0.000819  -0.000000   0.000000
    38  H   -0.000569  -0.000215  -0.000000   0.000000  -0.001045  -0.001704
              31         32         33         34         35         36
     1  O   -0.000000  -0.000000   0.000460   0.000997   0.000000  -0.000000
     2  O   -0.000000   0.000000  -0.006684  -0.000230   0.000000   0.000000
     3  C    0.010834   0.004186   0.001965  -0.003740  -0.002116  -0.002503
     4  C    0.002407  -0.001785  -0.022324  -0.043363   0.000216  -0.000191
     5  C    0.017095  -0.003871  -0.003008  -0.005002  -0.009010  -0.004177
     6  C    0.000847   0.001023   0.005917  -0.028645   0.000010  -0.000041
     7  C    0.036566  -0.009526   0.000022  -0.000307  -0.022996  -0.023789
     8  C    0.000070  -0.000143   0.062769   0.024905   0.000014  -0.000019
     9  C   -0.090189  -0.055427  -0.000054  -0.000109  -0.042305  -0.034590
    10  C    0.000011   0.000033  -0.106613  -0.082473  -0.000000  -0.000000
    11  C    0.445985   0.457143  -0.000001  -0.000004   0.003377  -0.004085
    12  C    0.000001  -0.000001   0.380857   0.410858   0.000000  -0.000000
    13  C   -0.086751  -0.046326  -0.000000  -0.000000   0.426978   0.424586
    14  C   -0.000000  -0.000000   0.001595   0.036254   0.000000  -0.000000
    15  H    0.000485   0.000025  -0.000090  -0.000607  -0.000061   0.000042
    16  H    0.000107   0.000353  -0.000415   0.000032   0.000003  -0.000068
    17  H   -0.000095   0.000030   0.000359   0.001303  -0.000014   0.000001
    18  H   -0.000044  -0.000191   0.001242   0.000751  -0.000009  -0.000003
    19  H    0.002454  -0.000899   0.000023  -0.000124   0.000040   0.000520
    20  H   -0.000465   0.003236  -0.000088   0.000029   0.000510  -0.000334
    21  H    0.000006  -0.000058   0.006799  -0.001723   0.000004  -0.000006
    22  H   -0.000055   0.000020  -0.000937   0.008246  -0.000003   0.000002
    23  H   -0.002026   0.003254   0.000004   0.000008   0.000006   0.001558
    24  H    0.001330  -0.002076   0.000014   0.000014   0.000920  -0.000187
    25  H    0.000008  -0.000000   0.003807  -0.017807   0.000001  -0.000000
    26  H   -0.000004   0.000007  -0.014534   0.004246  -0.000000   0.000001
    27  H    0.012628  -0.024354   0.000000  -0.000001   0.002057   0.003084
    28  H   -0.020686   0.011443   0.000001   0.000002  -0.000498   0.000223
    29  H    0.000001   0.000001  -0.017311   0.004552  -0.000000   0.000000
    30  H    0.000001   0.000001   0.003174  -0.022618   0.000000  -0.000000
    31  H    0.564323  -0.076188   0.000000  -0.000000   0.013646  -0.022825
    32  H   -0.076188   0.554702  -0.000000  -0.000000  -0.022880   0.012392
    33  H    0.000000  -0.000000   0.483460  -0.043773   0.000000  -0.000000
    34  H   -0.000000  -0.000000  -0.043773   0.489676  -0.000000   0.000000
    35  H    0.013646  -0.022880   0.000000  -0.000000   0.557157  -0.069819
    36  H   -0.022825   0.012392  -0.000000   0.000000  -0.069819   0.556955
    37  H   -0.004506  -0.002383  -0.000000  -0.000000  -0.020183  -0.023418
    38  H   -0.000000   0.000000   0.003121   0.005613   0.000000  -0.000000
              37         38
     1  O   -0.000000   0.243222
     2  O    0.000000  -0.020159
     3  C   -0.003846  -0.000120
     4  C   -0.001438  -0.000704
     5  C   -0.001100  -0.000021
     6  C   -0.000263  -0.004739
     7  C    0.023653  -0.000002
     8  C   -0.000043  -0.010505
     9  C    0.061801  -0.000000
    10  C   -0.000003   0.018257
    11  C   -0.052736  -0.000000
    12  C   -0.000000  -0.208069
    13  C    0.330903  -0.000000
    14  C   -0.000000   0.210444
    15  H   -0.000022  -0.000004
    16  H   -0.000041  -0.000002
    17  H   -0.000012   0.000001
    18  H    0.000009   0.000007
    19  H    0.000047   0.000000
    20  H   -0.000149   0.000000
    21  H    0.000004   0.000074
    22  H   -0.000002   0.000173
    23  H   -0.000286   0.000000
    24  H    0.001044   0.000000
    25  H    0.000000  -0.000569
    26  H    0.000000  -0.000215
    27  H   -0.003206  -0.000000
    28  H    0.000819   0.000000
    29  H   -0.000000  -0.001045
    30  H    0.000000  -0.001704
    31  H   -0.004506  -0.000000
    32  H   -0.002383   0.000000
    33  H   -0.000000   0.003121
    34  H   -0.000000   0.005613
    35  H   -0.020183   0.000000
    36  H   -0.023418  -0.000000
    37  H    0.469701  -0.000000
    38  H   -0.000000   0.436681
 Mulliken charges:
               1
     1  O   -0.159033
     2  O   -0.234628
     3  C   -0.334254
     4  C   -0.323413
     5  C   -0.244625
     6  C   -0.239242
     7  C   -0.300208
     8  C   -0.476109
     9  C   -0.442135
    10  C   -0.327519
    11  C   -0.310656
    12  C   -0.858535
    13  C   -0.846425
    14  C    0.161056
    15  H    0.193622
    16  H    0.188716
    17  H    0.185705
    18  H    0.185938
    19  H    0.188115
    20  H    0.190953
    21  H    0.187635
    22  H    0.186287
    23  H    0.186339
    24  H    0.187410
    25  H    0.193064
    26  H    0.192578
    27  H    0.174582
    28  H    0.183269
    29  H    0.230690
    30  H    0.236680
    31  H    0.195030
    32  H    0.198262
    33  H    0.260244
    34  H    0.263040
    35  H    0.184954
    36  H    0.186694
    37  H    0.225655
    38  H    0.330264
 Sum of Mulliken charges =  -0.00000
 Mulliken charges with hydrogens summed into heavy atoms:
               1
     1  O    0.171231
     2  O   -0.234628
     3  C    0.048083
     4  C    0.048230
     5  C    0.134443
     6  C    0.134680
     7  C    0.073541
     8  C   -0.090466
     9  C   -0.084283
    10  C    0.139851
    11  C    0.082635
    12  C   -0.335252
    13  C   -0.249121
    14  C    0.161056
 Electronic spatial extent (au):  <R**2>=          10159.6327
 Charge=             -0.0000 electrons
 Dipole moment (field-independent basis, Debye):
    X=              0.1681    Y=             -1.5702    Z=              0.0630  Tot=              1.5805
 Quadrupole moment (field-independent basis, Debye-Ang):
   XX=            -87.9013   YY=            -98.7248   ZZ=            -89.6082
   XY=              8.9432   XZ=             -0.1085   YZ=              0.0843
 Traceless Quadrupole moment (field-independent basis, Debye-Ang):
   XX=              4.1768   YY=             -6.6467   ZZ=              2.4699
   XY=              8.9432   XZ=             -0.1085   YZ=              0.0843
 Octapole moment (field-independent basis, Debye-Ang**2):
  XXX=           -179.6811  YYY=             -3.6719  ZZZ=             -0.3333  XYY=             13.7412
  XXY=            -29.6867  XXZ=              0.9828  XZZ=            -20.1279  YZZ=             -0.0158
  YYZ=              0.3182  XYZ=             -1.8718
 Hexadecapole moment (field-independent basis, Debye-Ang**3):
 XXXX=         -11751.2187 YYYY=           -400.7095 ZZZZ=           -178.1957 XXXY=            193.5173
 XXXZ=             21.8940 YYYX=             27.4733 YYYZ=             -1.3412 ZZZX=              1.5788
 ZZZY=              0.5267 XXYY=          -2505.3138 XXZZ=          -2181.9599 YYZZ=            -86.0604
 XXYZ=              3.6565 YYXZ=             -0.9323 ZZXY=             -3.3143
 N-N= 8.291106760372D+02 E-N=-3.104627344348D+03  KE= 6.189530563265D+02
 R6APFD:  NTU= -4 IXU= 1 FactS= 1.050
 Calling FoFJK, ICntrl=      2127 FMM=F ISym2X=0 I1Cent= 0 IOpClX= 0 NMat=1 NMatS=1 NMatT=0.
 ***** Axes restored to original set *****
 -------------------------------------------------------------------
 Center     Atomic                   Forces (Hartrees/Bohr)
 Number     Number              X              Y              Z
 -------------------------------------------------------------------
      1        8          -0.003688304   -0.007916850    0.000102415
      2        8          -0.004771267    0.037444184   -0.001146443
      3        6          -0.002383791    0.010579868    0.000937939
      4        6          -0.003995175   -0.005039284   -0.000567803
      5        6           0.002731014   -0.010418423    0.000635395
      6        6           0.002704251    0.004885702   -0.000586509
      7        6           0.007077202    0.002245258   -0.001090600
      8        6          -0.001728868   -0.007262883   -0.000502796
      9        6          -0.000039243    0.002587773   -0.000190941
     10        6           0.001523115    0.000584632    0.001496661
     11        6          -0.006901217   -0.003096763    0.000484566
     12        6           0.003440481   -0.003574254   -0.001089210
     13        6          -0.000523809    0.000194165   -0.000209786
     14        6          -0.007210254   -0.037110345    0.001303368
     15        1           0.000190888   -0.002570400   -0.001854937
     16        1           0.000395744   -0.002720516    0.001700528
     17        1           0.000714942    0.002683787    0.001983370
     18        1           0.000372697    0.002870502   -0.001772345
     19        1          -0.000420898    0.002690883    0.001949959
     20        1          -0.000114780    0.002614914   -0.001679859
     21        1          -0.000670693   -0.002660370    0.001626392
     22        1          -0.000589858   -0.002765398   -0.001841594
     23        1          -0.001066984   -0.002890555    0.001697492
     24        1          -0.000622000   -0.002984716   -0.002107181
     25        1           0.000676204    0.003143488   -0.001807018
     26        1           0.000209962    0.002982720    0.002050410
     27        1           0.000006731    0.003442929   -0.001815963
     28        1           0.000448815    0.002983037    0.002332242
     29        1          -0.000889647   -0.001692489   -0.000018567
     30        1          -0.000506536   -0.001702897   -0.000196850
     31        1          -0.001281424   -0.003499866    0.001209978
     32        1          -0.001246903   -0.002909131   -0.001891692
     33        1          -0.001929277    0.005013007   -0.000505306
     34        1          -0.002249857    0.005265479    0.001074156
     35        1           0.000886248    0.002194029   -0.000848717
     36        1           0.000755195    0.001796528    0.001307867
     37        1           0.002375412    0.000879157    0.000112196
     38        1           0.018321881    0.003733098   -0.000280817
 -------------------------------------------------------------------
 Cartesian Forces:  Max     0.037444184 RMS     0.005985712

 GradGradGradGradGradGradGradGradGradGradGradGradGradGradGradGradGradGrad
 Berny optimization.
 FormGI is forming the generalized inverse of G from B-inverse, IUseBI=4.
 Internal  Forces:  Max     0.037359934 RMS     0.003711788
 Search for a local minimum.
 Step number   1 out of a maximum of  215
 All quantities printed in internal units (Hartrees-Bohrs-Radians)
 Mixed Optimization -- RFO/linear search
 Second derivative matrix not updated -- first step.
 ITU=  0
     Eigenvalues ---    0.00337   0.00347   0.00349   0.00353   0.00359
     Eigenvalues ---    0.00360   0.00365   0.00369   0.00424   0.00493
     Eigenvalues ---    0.00656   0.01056   0.02270   0.03245   0.03462
     Eigenvalues ---    0.03464   0.03465   0.03510   0.03553   0.03677
     Eigenvalues ---    0.03678   0.03680   0.04229   0.04763   0.04818
     Eigenvalues ---    0.04819   0.04820   0.04846   0.04868   0.04870
     Eigenvalues ---    0.04876   0.04877   0.05443   0.05630   0.05696
     Eigenvalues ---    0.08062   0.08081   0.08081   0.08322   0.08445
[...]
 .00000445,-0.00002921,0.00000158,-0.00000157,0.00000203,0.00000031,0.0
 0000025,-0.00000057,-0.00057729,-0.00057367,0.00068926,-0.00001482,-0.
 00011094,0.00001643,-0.00000105,-0.00000058,0.00000093,-0.00000017,0.0
 0000048,0.00000005,-0.00455367,0.00291785,0.00053878,0.00108176,-0.000
 53871,0.00049891,0.00000010,-0.00000068,0.00000076,-0.00000006,0.00000
 009,-0.00000022,-0.00061168,0.00062680,-0.00071754,0.05247662,0.001185
 44,0.00084090,-0.00109970,-0.00342303,-0.00078834,-0.00232261,-0.00001
 085,0.00000425,0.00000582,-0.00000466,0.00003251,-0.00004655,0.0000015
 3,-0.00000608,-0.00000472,-0.00002832,0.00004999,-0.00023829,0.0000013
 4,0.00000491,0.00000494,-0.00093262,0.00056418,-0.00028967,0.00000104,
 -0.00000360,0.00000159,0.00059362,-0.01259836,0.01461982,0.00000029,0.
 00000229,0.00000068,-0.00037696,-0.14627686,0.12906528,0.00000080,-0.0
 0000139,-0.00000004,0.00062151,-0.01499801,0.01593781,0.00000301,-0.00
 000588,-0.00000307,-0.00000247,-0.00000203,-0.00000249,-0.00000527,0.0
 0000183,-0.00000295,0.00002746,0.00001850,0.00000263,-0.00000135,-0.00
 000044,-0.00000153,0.00000066,0.00000304,-0.00000045,-0.00018222,0.000
 06456,-0.00005881,0.00001630,-0.00006470,-0.00000144,-0.00000058,0.000
 00032,-0.00000086,0.00000054,-0.00000172,-0.00000116,0.00053956,0.0004
 9153,-0.00000543,0.00002672,-0.00001811,-0.00012867,0.00000025,0.00000
 107,-0.00000046,-0.00000047,-0.00000019,-0.00000062,0.00287453,-0.0014
 2826,-0.00059118,-0.00041250,0.00001514,-0.00009633,-0.00000018,0.0000
 0016,-0.00000026,0.00000015,-0.00000078,-0.00000061,0.00065456,0.01143
 743,-0.01427744,-0.00108078,0.16278207,0.00038859,-0.00036797,0.000334
 78,-0.00031276,-0.00165553,-0.00084680,-0.00001570,-0.00001599,0.00000
 092,-0.00004539,0.00005467,-0.00001239,-0.00000371,0.00000895,-0.00000
 423,-0.00016037,-0.00026487,0.00018453,-0.00000283,-0.00000291,0.00000
 003,0.00009006,-0.00014424,0.00019762,-0.00000055,0.00000278,-0.000000
 28,-0.00071403,-0.00145686,0.00201069,-0.00000073,-0.00000078,0.000000
 27,0.00123644,0.12801888,-0.19762847,-0.00000031,0.00000084,-0.0000000
 1,-0.00148873,-0.00102967,0.00091179,0.00000303,-0.00000168,-0.0000020
 1,0.00000346,-0.00000283,0.00000156,-0.00000442,-0.00000184,-0.0000120
 6,-0.00000628,0.00000245,0.00001694,-0.00000092,-0.00000035,-0.0000033
 1,-0.00000122,-0.00000100,0.00000434,0.00013644,-0.00004923,-0.0000228
 8,0.00003553,-0.00002595,-0.00002181,0.00000106,-0.00000114,0.00000113
 ,0.00000072,-0.00000067,-0.00000108,-0.00051988,0.00002385,0.00004019,
 -0.00002934,0.00010386,-0.00016452,-0.00000051,-0.00000060,0.00000163,
 -0.00000033,-0.00000022,-0.00000140,0.00044143,-0.00054322,0.00136868,
 -0.00040236,-0.00007259,0.00063576,0.00000026,-0.00000049,0.00000074,0
 .00000022,-0.00000025,-0.00000065,0.00091565,0.01739942,-0.02081601,0.
 00024332,-0.13988789,0.21370340,0.00000630,-0.00000049,0.00000012,0.00
 000482,0.00000292,0.00000006,0.00002198,-0.00002236,-0.00000930,0.0000
 0499,0.00001051,0.00000633,0.00004409,0.00010175,-0.00008445,0.0000013
 8,-0.00000780,0.00000037,-0.00013694,-0.00008084,-0.00014035,0.0000018
 3,0.00000387,-0.00000046,0.00189018,-0.00088894,0.00114897,0.00000006,
 -0.00000278,0.00000026,-0.00212342,-0.01804259,0.02345920,0.00000172,0
 .00000328,-0.00000011,-0.04617246,-0.00494083,0.00684596,-0.00000932,-
 0.00000336,-0.00000002,0.00000025,-0.00000112,0.00000397,0.00000916,0.
 00000485,-0.00000635,-0.00000031,-0.00000024,0.00000023,-0.00000279,0.
 00000129,-0.00000170,-0.00000232,-0.00000221,0.00000289,-0.00005387,0.
 00003775,-0.00001609,0.00000116,0.00000121,-0.00000191,0.00000022,0.00
 000020,0.00000109,0.00012462,0.00021524,-0.00017432,0.00003983,-0.0000
 1063,0.00003012,-0.00000086,0.00000036,-0.00000063,-0.00000018,-0.0000
 0024,0.00000008,-0.00051131,0.00057219,-0.00064216,-0.00001716,0.00009
 987,-0.00002026,0.00000008,0.00000023,-0.00000056,-0.00000010,-0.00000
 014,0.00000035,-0.00468635,-0.00299631,-0.00032658,0.00103519,0.000544
 44,-0.00035810,-0.00000018,-0.00000030,0.00000011,-0.00000038,-0.00000
 020,-0.00000015,0.05049668,-0.00001232,0.00000336,-0.00000098,-0.00000
 754,-0.00000026,-0.00000140,-0.00000018,0.00002517,0.00001311,-0.00000
 589,-0.00001827,0.00000504,-0.00001369,-0.00000869,-0.00005485,-0.0000
 0359,0.00001205,-0.00000173,0.00000949,0.00013588,-0.00023286,-0.00000
 251,-0.00000818,0.00000035,0.00105878,0.00043116,-0.00039053,-0.000000
 77,0.00000466,0.00000271,-0.00107894,-0.01247470,0.01487560,-0.0000023
 9,-0.00000535,-0.00000019,-0.00526552,-0.14651796,0.12661424,0.0000157
 1,-0.00000045,0.00000092,-0.00000182,-0.00000658,-0.00000283,0.0000038
 2,-0.00000147,-0.00000378,0.00000103,0.00000013,-0.00000001,-0.0000010
 3,0.00000465,-0.00000275,0.00000344,0.00000271,0.00000138,-0.00003197,
 0.00002364,-0.00000266,0.00000126,0.00000052,-0.00000124,-0.00000037,-
 0.00000206,-0.00000110,0.00020829,0.00006169,-0.00006297,-0.00001164,-
 0.00006218,-0.00000334,-0.00000051,0.00000189,-0.00000149,0.00000050,0
 .00000003,0.00000008,-0.00054417,0.00058106,-0.00006084,-0.00007626,0.
 00001020,-0.00009041,0.00000072,0.00000048,-0.00000047,0.00000020,-0.0
 0000061,-0.00000028,-0.00341876,-0.00109251,-0.00073668,0.00039171,-0.
 00013219,-0.00018291,0.00000044,0.00000007,0.00000022,-0.00000002,0.00
 000081,-0.00000029,0.00991991,0.15869275,0.00000686,-0.00000389,0.0000
 0077,0.00000263,-0.00000473,0.00000073,0.00002037,-0.00002850,0.000003
 98,0.00000690,0.00001539,-0.00000363,0.00006621,0.00006727,-0.00003305
 ,0.00000410,-0.00000579,-0.00000198,0.00016140,-0.00031316,0.00026818,
 0.00000122,0.00000529,-0.00000093,-0.00020402,-0.00015941,0.00009562,0
 .00000123,-0.00000224,-0.00000014,-0.00013935,-0.00142179,0.00171282,0
 .00000039,0.00000173,-0.00000041,0.00736302,0.12688115,-0.20700251,-0.
 00000695,0.00000670,-0.00000042,-0.00000232,0.00000072,-0.00000155,-0.
 00000548,-0.00000470,0.00000262,0.00000030,0.00000029,-0.00000297,0.00
 000181,-0.00000287,0.00000627,0.00000296,-0.00000009,-0.00001066,0.000
 01265,-0.00000467,0.00002336,-0.00000178,-0.00000178,0.00000183,-0.000
 00057,0.00000031,-0.00000057,-0.00016719,-0.00005605,-0.00002233,-0.00
 002528,-0.00001028,-0.00002601,0.00000076,-0.00000149,0.00000241,0.000
 00025,0.00000006,-0.00000129,0.00065389,-0.00008291,0.00007596,0.00000
 043,0.00011881,-0.00010448,-0.00000076,-0.00000067,0.00000084,-0.00000
 032,0.00000020,-0.00000039,-0.00051161,-0.00041357,0.00147637,0.000557
 70,0.00001623,0.00064130,-0.00000003,0.00000027,-0.00000062,0.00000026
 ,-0.00000022,0.00000076,-0.00808333,-0.13976908,0.22155209,0.00000637,
 -0.00000051,-0.00000013,0.00000485,0.00000288,0.00000024,0.00002211,-0
 .00002341,0.00000729,0.00000510,0.00001121,-0.00000519,0.00004408,0.00
 009390,0.00009405,0.00000142,-0.00000780,-0.00000111,-0.00013650,-0.00
 009531,0.00012822,0.00000184,0.00000386,0.00000087,0.00189625,-0.00077
 838,-0.00121554,0.00000008,-0.00000276,-0.00000054,-0.00194714,-0.0157
 6987,-0.02506953,0.00000173,0.00000328,0.00000044,-0.04607316,-0.00341
 194,-0.00594880,-0.00000939,-0.00000329,-0.00000036,0.00000908,0.00000
 418,0.00000683,0.00000028,-0.00000072,-0.00000406,-0.00000278,0.000001
 09,0.00000175,-0.00000031,-0.00000021,-0.00000024,-0.00005389,0.000036
 01,0.00001911,-0.00000239,-0.00000189,-0.00000304,0.00000022,0.0000003
 1,-0.00000107,0.00000114,0.00000100,0.00000201,0.00004033,-0.00000768,
 -0.00003080,0.00012210,0.00019700,0.00019497,-0.00000017,-0.00000024,-
 0.00000009,-0.00000085,0.00000028,0.00000064,-0.00001707,0.00009922,0.
 00002973,-0.00051141,0.00050727,0.00068970,-0.00000010,-0.00000010,-0.
 00000036,0.00000007,0.00000017,0.00000057,0.00103470,0.00050839,0.0004
 1097,-0.00469033,-0.00301545,-0.00000050,-0.00000038,-0.00000021,0.000
 00012,-0.00000018,-0.00000028,-0.00000014,-0.00139275,0.00059463,0.000
 51118,0.05038564,-0.00001163,0.00000288,0.00000111,-0.00000727,-0.0000
 0081,0.00000121,0.00000185,0.00002352,-0.00001108,-0.00000517,-0.00001
 621,-0.00000640,-0.00000784,-0.00000787,0.00005689,-0.00000320,0.00001
 121,0.00000302,0.00002315,0.00008565,0.00021681,-0.00000238,-0.0000075
 9,-0.00000100,0.00103391,0.00037850,0.00042331,-0.00000063,0.00000466,
 -0.00000226,-0.00097132,-0.01108552,-0.01607988,-0.00000234,-0.0000051
 6,-0.00000029,-0.00369063,-0.12341156,-0.11877980,0.00001498,0.0000002
 4,-0.00000075,0.00000326,-0.00000224,0.00000334,-0.00000205,-0.0000067
 5,0.00000229,-0.00000087,0.00000414,0.00000257,0.00000104,0.00000014,0
 .00000031,-0.00003064,0.00002295,0.00000248,0.00000369,0.00000275,-0.0
 0000005,-0.00000043,-0.00000212,0.00000094,0.00000109,0.00000025,0.000
 00110,-0.00001393,-0.00006311,-0.00000055,0.00019135,0.00004960,0.0000
 7112,0.00000052,0.00000004,0.00000005,-0.00000045,0.00000162,0.0000014
 2,-0.00007730,0.00001168,0.00010109,-0.00048161,0.00056327,0.00010399,
 0.00000017,-0.00000062,0.00000026,0.00000065,0.00000037,0.00000043,0.0
 0044091,-0.00014223,0.00011221,-0.00345186,-0.00117551,0.00046235,0.,0
 .00000076,0.00000029,0.00000043,0.00000011,-0.00000014,0.00051476,0.01
 184563,0.01734579,0.00816229,0.13317210,-0.00000794,0.00000409,0.00000
 120,-0.00000329,0.00000462,0.00000128,-0.00002017,0.00003014,0.0000055
 8,-0.00000735,-0.00001647,-0.00000580,-0.00006680,-0.00006413,-0.00003
 384,-0.00000440,0.00000697,-0.00000117,-0.00016316,0.00029510,0.000317
 77,-0.00000143,-0.00000588,-0.00000152,0.00031666,0.00018130,0.0001456
 7,-0.00000130,0.00000267,-0.00000015,0.00001763,0.00009818,0.00014614,
 -0.00000059,-0.00000214,-0.00000060,-0.00649567,-0.11904096,-0.2301738
 0,0.00000831,-0.00000668,-0.00000109,0.00000586,0.00000426,0.00000348,
 0.00000216,-0.00000118,-0.00000143,-0.00000196,0.00000265,0.00000679,-
 0.00000020,0.00000001,-0.00000298,-0.00001614,0.00000482,0.00002407,-0
 .00000259,0.00000137,-0.00001077,0.00000054,-0.00000044,-0.00000052,0.
 00000189,0.00000163,0.00000213,0.00002483,0.00000697,-0.00002511,0.000
 18700,0.00006421,-0.00000768,-0.00000020,0.00000007,-0.00000130,-0.000
 00083,0.00000140,0.00000269,-0.00000768,-0.00010711,-0.00010691,-0.000
 70624,0.00013252,0.00009390,0.00000034,-0.00000022,-0.00000039,0.00000
 082,0.00000062,0.00000096,-0.00051573,-0.00008649,0.00064750,0.0001428
 0,0.00013974,0.00156264,-0.00000027,0.00000022,0.00000080,0.00000008,-
 0.00000021,-0.00000067,-0.00032133,-0.01436722,-0.01979708,0.00756000,
 0.13151836,0.24715137,-0.00004132,0.00000717,0.00000021,-0.00002842,-0
 .00001045,-0.00000060,-0.00013769,0.00028187,0.00001304,-0.00006714,-0
 .00012473,-0.00000618,-0.00042869,-0.00065307,-0.00003269,-0.00002374,
 0.00006851,0.00000322,-0.00082181,0.00178763,0.00008037,-0.00001715,-0
 .00003702,-0.00000188,-0.00357593,-0.00557789,-0.00027837,-0.00000289,
 0.00002234,0.00000108,-0.02001156,0.01783285,0.00076930,-0.00001146,-0
 .00002100,-0.00000105,-0.21873144,0.12605723,0.00527318,0.00005658,0.0
 0001049,0.00000070,0.00000527,-0.00000779,-0.00001513,0.00000517,-0.00
 000923,0.00001436,0.00000285,0.00000467,0.00000624,0.00000289,0.000005
 24,-0.00000574,0.00001876,0.00000997,0.00002943,0.00001900,0.00001268,
 -0.00002824,0.00000090,-0.00000358,0.00000446,0.00000094,-0.00000313,-
 0.00000478,-0.00000677,-0.00004685,0.00010105,-0.00000666,-0.00003730,
 -0.00010490,0.00000118,0.00000217,-0.00000189,0.00000117,0.00000198,0.
 00000210,0.00028233,-0.00008913,-0.00012775,0.00028306,-0.00010261,0.0
 0011914,0.00000115,-0.00000030,0.00000118,0.00000116,-0.00000018,-0.00
 000119,0.00053980,-0.00005921,0.00067294,0.00054455,0.00000182,-0.0006
 7100,0.00000109,0.00000142,0.00000046,0.00000109,0.00000146,-0.0000003
 2,0.00142712,-0.00173177,-0.00022667,0.00126244,-0.00163416,0.00007533
 ,0.23944853,0.00000750,-0.00000136,0.,0.00000523,0.00000183,0.00000013
 ,-0.00007368,0.00009326,0.00000282,-0.00002814,-0.00003372,-0.00000018
 ,-0.00027925,-0.00027773,-0.00001411,-0.00000866,0.00001020,0.00000047
 ,-0.00091888,0.00089907,0.00001192,-0.00000304,-0.00000396,-0.00000066
 ,-0.00247183,-0.00233633,-0.00013136,-0.00000120,0.00000076,0.00000013
 ,-0.01669559,0.01300837,0.00061750,0.00000116,0.00000199,0.00000008,0.
 12715910,-0.13931617,-0.00388298,-0.00001033,-0.00000159,-0.00000013,0
 .00000264,0.00000113,-0.00000328,0.00000251,0.00000064,0.00000362,0.00
 000014,0.00000016,0.00000310,0.00000021,0.00000038,-0.00000311,0.00000
 672,-0.00000490,0.00001755,0.00000672,-0.00000362,-0.00001831,0.000000
 57,0.00000055,0.00000015,0.00000059,0.00000057,-0.00000004,0.00007858,
 0.00003730,0.00003403,0.00007158,0.00003628,-0.00002810,-0.00000027,0.
 00000010,-0.00000065,-0.00000026,0.00000007,0.00000066,-0.00017749,0.0
 0004921,-0.00027116,-0.00015119,-0.00000568,0.00025101,0.00000003,0.00
 000002,-0.00000016,0.00000004,0.00000002,0.00000018,0.00077539,0.00066
 765,0.00021146,0.00080310,0.00065798,-0.00013820,-0.00000034,-0.000000
 26,0.00000005,-0.00000033,-0.00000028,-0.00000008,0.01496682,-0.011506
 60,-0.00217308,0.01289314,-0.01025445,0.00119792,-0.13595961,0.1482791
 1,0.00000021,0.,-0.00000096,0.00000015,0.00000007,-0.00000057,-0.00000
 406,0.00000384,0.00003197,-0.00000145,-0.00000048,-0.00003203,-0.00001
 475,-0.00001516,-0.00000532,-0.00000049,0.00000078,-0.00000138,-0.0000
 4826,0.00002067,0.00058674,-0.00000024,-0.00000079,0.00000986,-0.00012
 830,-0.00014113,0.00024395,-0.00000006,0.00000019,-0.00000162,-0.00085
 024,0.00074456,-0.00140042,0.,0.,0.00000034,0.00532442,-0.00388675,-0.
 04650793,-0.00000028,-0.00000005,0.00000045,-0.00000108,-0.00000157,-0
 .00000283,0.00000136,0.00000184,-0.00000222,0.00000057,-0.00000088,0.0
 0000042,-0.00000053,0.00000090,0.00000017,-0.00000107,-0.00000491,0.00
 000482,0.00000181,0.00000415,0.00000336,0.00000024,0.00000011,-0.00000
 056,-0.00000017,-0.00000002,-0.00000062,-0.00007179,-0.00003959,-0.000
 01993,0.00007907,0.00004481,-0.00001904,0.00000009,0.00000031,-0.00000
 005,-0.00000011,-0.00000029,0.,0.00029229,-0.00032884,0.00019324,-0.00
 030780,0.00030889,0.00024737,0.00000011,0.00000016,-0.00000018,-0.0000
 0010,-0.00000014,-0.00000019,0.00031891,-0.00022694,-0.00005702,-0.000
 23984,0.00029475,-0.00005708,0.00000007,-0.00000020,-0.00000005,-0.000
 00010,0.00000019,-0.00000004,-0.02131191,0.01445836,0.00114580,0.02262
 277,-0.01554965,0.00005965,-0.00565938,0.00431282,0.04558131,-0.344698
 31,-0.20029558,-0.01074942,0.00835152,-0.00412373,-0.00014863,-0.00000
 695,0.00000248,0.00000010,-0.00002639,0.00002523,0.00000109,0.,-0.0000
 1232,-0.00000063,-0.00010429,-0.00013599,-0.00000681,0.00000277,0.0000
 1090,0.00000051,-0.00035735,0.00053738,0.00002477,0.00000230,-0.000009
 52,-0.00000045,-0.00049165,-0.00156517,-0.00007993,-0.00000006,0.00000
 703,0.00000033,-0.00222521,0.00659260,0.00029635,0.00000261,-0.0000041
 9,-0.00000019,-0.04780561,-0.02240083,-0.00125587,-0.00000119,-0.00000
 122,0.00000063,-0.00000117,-0.00000118,-0.00000073,0.00000051,0.000002
 37,0.00000062,0.00000049,0.00000238,-0.00000035,-0.00000026,0.00000167
 ,0.00000129,-0.00000026,0.00000177,-0.00000111,-0.00000034,-0.00000180
 ,-0.00000959,-0.00000048,-0.00000262,0.00000943,-0.00000092,-0.0000007
 8,0.00000016,-0.00000092,-0.00000074,-0.00000023,0.00002785,0.00001475
 ,0.00000866,0.00002805,0.00001573,-0.00000689,-0.00000031,0.00000111,-
 0.00000089,-0.00000031,0.00000103,0.00000100,-0.00007786,0.00002543,-0
 .00010188,-0.00007817,0.00001528,0.00010344,-0.00000035,-0.00000060,0.
 00000011,-0.00000035,-0.00000058,-0.00000017,0.00045659,-0.00007113,-0
 .00022049,0.00045868,-0.00008805,0.00021477,-0.00000098,0.00000174,-0.
 00000083,-0.00000098,0.00000165,0.00000099,0.00000566,-0.00000168,-0.0
 0000006,0.38654365,-0.24658109,-0.21887692,-0.01057952,-0.00349784,-0.
 00465744,0.00005403,0.00000311,0.00000305,0.00000046,0.00001894,-0.000
 01417,-0.00000150,0.00000107,0.00000029,-0.00000038,0.00005554,0.00005
 437,0.00000389,-0.00000125,0.00000099,-0.00000037,0.00015880,-0.000229
 68,-0.00000904,-0.00000049,0.00000146,-0.00000004,0.00086781,0.0006360
 5,-0.00000387,-0.00000075,0.00000016,-0.00000006,0.00315404,-0.0015854
 1,-0.00025137,-0.00000035,0.00000094,0.00000004,0.02420033,0.02598807,
 0.00111714,0.00000087,-0.00000051,-0.00000298,0.00000101,-0.00000116,0
 .00000321,-0.00000260,-0.00000193,-0.00000233,-0.00000299,-0.00000274,
 0.00000255,-0.00000037,-0.00000081,-0.00000153,-0.00000049,-0.00000121
 ,0.00000167,0.00000451,-0.00000236,0.00000982,0.00000360,-0.00000007,-
 0.00000908,0.00000058,-0.00000060,0.00000152,0.00000053,-0.00000027,-0
 .00000138,-0.00001981,-0.00001176,-0.00000216,-0.00001767,-0.00000879,
 0.00000246,-0.00000015,-0.00000073,0.00000108,-0.00000010,-0.00000049,
 -0.00000100,-0.00004229,0.00003269,0.00004618,-0.00003811,0.00003380,-
 0.00004121,0.00000016,-0.00000033,0.00000087,0.00000016,-0.00000014,-0
 .00000079,0.00011602,-0.00018156,0.00005782,0.00016268,-0.00012055,-0.
 00008640,-0.00000007,-0.00000046,0.00000075,-0.00000007,-0.00000031,-0
 .00000071,-0.00000048,-0.00000003,-0.00000003,0.22145719,0.19894854,-0
 .01297312,-0.01042065,-0.01683538,-0.00011861,0.00005170,-0.00602857,0
 .00000013,0.00000040,-0.00000533,0.00000076,-0.00000141,0.00001703,0.0
 0000002,-0.00000042,0.00000821,0.00000235,0.00000325,-0.00002308,-0.00
 000009,-0.00000031,0.00000826,0.00000651,-0.00000767,-0.00003039,-0.00
 000002,-0.00000008,0.00000253,0.00003730,-0.00001244,0.00077486,-0.000
 00004,-0.00000003,0.00000129,0.00013041,-0.00023897,0.00386664,0.,0.00
 000003,0.00000011,0.00098280,0.00095700,0.00451571,0.00000167,-0.00000
 359,-0.00000350,-0.00000156,0.00000381,-0.00000286,-0.00000400,-0.0000
 0580,-0.00000515,0.00000377,0.00000605,-0.00000431,-0.00000107,-0.0000
 0248,-0.00000266,0.00000105,0.00000264,-0.00000226,-0.00000983,0.00001
 467,-0.00000739,0.00001029,-0.00001399,-0.00000956,-0.00000052,0.00000
 197,-0.00000165,0.00000058,-0.00000185,-0.00000197,0.00002173,0.000033
 31,-0.00001317,-0.00002326,-0.00003278,-0.00001637,0.00000044,0.000001
 44,-0.00000128,-0.00000044,-0.00000136,-0.00000151,0.00003771,-0.00002
 955,-0.00002053,-0.00004195,0.00003491,-0.00002119,0.,0.00000120,-0.00
 000094,0.00000003,-0.00000112,-0.00000113,0.00048755,0.00054493,0.0001
 8567,-0.00047145,-0.00057511,0.00012290,-0.00000004,0.00000089,-0.0000
 0067,0.00000004,-0.00000084,-0.00000081,0.,-0.00000004,0.00000061,0.01
 192092,0.00969230,0.01353784\\0.00000629,-0.00000483,0.,0.00000152,0.0
 0000137,0.00000080,-0.00000228,0.00000209,0.00000013,-0.00000187,-0.00
 000143,-0.00000004,0.00000064,-0.00000262,0.00000079,0.00000453,0.0000
 0160,-0.00000003,0.00000171,0.00000025,-0.00000082,-0.00000186,-0.0000
 0018,-0.00000042,0.00000180,-0.00000090,0.00000027,0.00000161,-0.00000
 258,0.00000145,-0.00000366,-0.00000050,0.00000202,0.00000449,0.0000002
 6,-0.00000020,0.00000277,-0.00000304,-0.00000177,-0.00001145,0.0000044
 6,-0.00000106,0.00000026,0.00000016,-0.00000067,-0.00000014,-0.0000011
 4,-0.00000007,0.00000094,0.00000019,0.00000005,-0.00000006,0.00000090,
 0.00000025,0.00000038,-0.00000035,0.00000045,-0.00000017,0.00000033,-0
 .00000057,-0.00000096,0.00000034,0.00000015,-0.00000028,-0.00000039,-0
 .00000005,-0.00000033,-0.00000084,0.00000009,-0.00000043,-0.00000071,0
 .00000027,-0.00000023,0.00000023,-0.00000014,0.00000057,0.00000075,0.0
 0000013,-0.00000031,0.00000002,0.00000036,-0.00000005,0.00000021,-0.00
 000035,-0.00000116,0.00000191,-0.00000055,-0.00000017,0.00000163,-0.00
 000025,0.00000025,-0.00000176,-0.00000081,-0.00000034,-0.00000037,-0.0
 0000049,0.00000069,0.00000197,-0.00000024,-0.00000037,0.00000218,0.000
 00094,0.00000066,-0.00000166,-0.00000087,-0.00000154,0.00000043,0.0000
 0009,0.00000041,0.00000018,0.00000122,-0.00000185,0.00000187,-0.000000
 05\\\@


 ALL PAPERS THAT YOU SAVE WILL NEVER BE NEEDED UNTIL
 SUCH TIME AS THEY ARE DISPOSED OF, WHEN THEY BECOME
 ESSENTIAL.

           -- JOHN CORCORAN IN
              PAUL DICKSON'S "THE OFFICIAL RULES"
 Job cpu time:       0 days  6 hours 58 minutes  4.9 seconds.
 Elapsed time:       0 days  0 hours 26 minutes 13.4 seconds.
 File lengths (MBytes):  RWF=    708 Int=      0 D2E=      0 Chk=     20 Scr=      1
 Normal termination of Gaussian 16 at Tue Oct  7 06:26:10 2025.
