 Entering Gaussian System, Link 0=g16
 Input=LEAC0062.gjf
 Output=LEAC0062.log
 Initial command:
 /usr/local/g16/l1.exe "/dados_01/scratch/Gau-2504652.inp" -scrdir="/dados_01/scratch/"
 Entering Link 1 = /usr/local/g16/l1.exe PID=   2504653.
  
 Copyright (c) 1988-2017, Gaussian, Inc.  All Rights Reserved.
  
 This is part of the Gaussian(R) 16 program.  It is based on
 the Gaussian(R) 09 system (copyright 2009, Gaussian, Inc.),
 the Gaussian(R) 03 system (copyright 2003, Gaussian, Inc.),
 the Gaussian(R) 98 system (copyright 1998, Gaussian, Inc.),
 the Gaussian(R) 94 system (copyright 1995, Gaussian, Inc.),
 the Gaussian 92(TM) system (copyright 1992, Gaussian, Inc.),
 the Gaussian 90(TM) system (copyright 1990, Gaussian, Inc.),
 the Gaussian 88(TM) system (copyright 1988, Gaussian, Inc.),
 the Gaussian 86(TM) system (copyright 1986, Carnegie Mellon
 University), and the Gaussian 82(TM) system (copyright 1983,
 Carnegie Mellon University). Gaussian is a federally registered
 trademark of Gaussian, Inc.
  
 This software contains proprietary and confidential information,
 including trade secrets, belonging to Gaussian, Inc.
  
 This software is provided under written license and may be
 used, copied, transmitted, or stored only in accord with that
 written license.
  
 The following legend is applicable only to US Government
 contracts under FAR:
  
                    RESTRICTED RIGHTS LEGEND
  
 Use, reproduction and disclosure by the US Government is
 subject to restrictions as set forth in subparagraphs (a)
 and (c) of the Commercial Computer Software - Restricted
 Rights clause in FAR 52.227-19.
  
 Gaussian, Inc.
 340 Quinnipiac St., Bldg. 40, Wallingford CT 06492
  
  
 ---------------------------------------------------------------
 Warning -- This program may not be used in any manner that
 competes with the business of Gaussian, Inc. or will provide
 assistance to any competitor of Gaussian, Inc.  The licensee
 of this program is prohibited from giving any competitor of
 Gaussian, Inc. access to this program.  By using this program,
 the user acknowledges that Gaussian, Inc. is engaged in the
 business of creating and licensing software in the field of
 computational chemistry and represents and warrants to the
 licensee that it is not a competitor of Gaussian, Inc. and that
 it will not use this program in any manner prohibited above.
 ---------------------------------------------------------------
  

 Cite this work as:
 Gaussian 16, Revision B.01,
 M. J. Frisch, G. W. Trucks, H. B. Schlegel, G. E. Scuseria, 
 M. A. Robb, J. R. Cheeseman, G. Scalmani, V. Barone, 
 G. A. Petersson, H. Nakatsuji, X. Li, M. Caricato, A. V. Marenich, 
 J. Bloino, B. G. Janesko, R. Gomperts, B. Mennucci, H. P. Hratchian, 
 J. V. Ortiz, A. F. Izmaylov, J. L. Sonnenberg, D. Williams-Young, 
 F. Ding, F. Lipparini, F. Egidi, J. Goings, B. Peng, A. Petrone, 
 T. Henderson, D. Ranasinghe, V. G. Zakrzewski, J. Gao, N. Rega, 
 G. Zheng, W. Liang, M. Hada, M. Ehara, K. Toyota, R. Fukuda, 
 J. Hasegawa, M. Ishida, T. Nakajima, Y. Honda, O. Kitao, H. Nakai, 
 T. Vreven, K. Throssell, J. A. Montgomery, Jr., J. E. Peralta, 
 F. Ogliaro, M. J. Bearpark, J. J. Heyd, E. N. Brothers, K. N. Kudin, 
 V. N. Staroverov, T. A. Keith, R. Kobayashi, J. Normand, 
 K. Raghavachari, A. P. Rendell, J. C. Burant, S. S. Iyengar, 
 J. Tomasi, M. Cossi, J. M. Millam, M. Klene, C. Adamo, R. Cammi, 
 J. W. Ochterski, R. L. Martin, K. Morokuma, O. Farkas, 
 J. B. Foresman, and D. J. Fox, Gaussian, Inc., Wallingford CT, 2016.
 
 ******************************************
 Gaussian 16:  ES64L-G16RevB.01 20-Dec-2017
                 7-Oct-2025 
 ******************************************
 %nprocs=16
 Will use up to   16 processors via shared memory.
 %mem=40GB
 %chk=LEAC0062.chk
 ----------------------------------------------------------------------
 # opt freq=noraman M08HX/6-311++G** scf=xqc Empiricaldispersion=pfd In
 t(Grid=ultraFine)
 ----------------------------------------------------------------------
 1/18=20,19=15,26=4,38=1/1,3;
 2/9=110,12=2,17=6,18=5,40=1/2;
 3/5=4,6=6,7=1111,11=2,25=1,30=1,71=1,74=-74,75=-5,124=11/1,2,3;
 4//1;
 5/5=2,8=3,13=1,38=5/2,8;
 6/7=2,8=2,9=2,10=2,28=1/1;
 7//1,2,3,16;
 1/18=20,19=15,26=4/3(2);
 2/9=110/2;
 99//99;
 2/9=110/2;
 3/5=4,6=6,7=1111,11=2,25=1,30=1,71=1,74=-74,75=-5,124=11/1,2,3;
 4/5=5,16=3,69=1/1;
 5/5=2,8=3,13=1,38=5/2,8;
 7//1,2,3,16;
 1/18=20,19=15,26=4/3(-5);
 2/9=110/2;
 6/7=2,8=2,9=2,10=2,19=2,28=1/1;
 99/9=1/99;
 --------
 LEAC0062
 --------
 Symbolic Z-matrix:
 Charge =  0 Multiplicity = 1
 O                     2.1193    1.2947   -0.0221 
 O                    -2.9193    0.8702    0.0291 
 O                    -2.1915   -1.2806   -0.0218 
 C                     0.5268   -0.524    -0.0081 
 C                    -0.5708    0.535    -0.0032 
 C                     1.9191    0.0812   -0.0035 
 C                     3.0665   -0.8948    0.03 
 C                    -1.9501   -0.0817   -0.0005 
 H                     0.4352   -1.1566   -0.8984 
 H                     0.4323   -1.1644    0.8764 
 H                    -0.4816    1.17     -0.892 
 H                    -0.4757    1.1656    0.888 
 H                     3.0117   -1.4933    0.9427 
 H                     3.0225   -1.5419   -0.8494 
 H                     4.0147   -0.3502    0.0205 
 H                    -3.8178    0.4767    0.031 
 

 GradGradGradGradGradGradGradGradGradGradGradGradGradGradGradGradGradGrad
 Berny optimization.
 Initialization pass.
                           ----------------------------
                           !    Initial Parameters    !
                           ! (Angstroms and Degrees)  !
 --------------------------                            --------------------------
 ! Name  Definition              Value          Derivative Info.                !
 --------------------------------------------------------------------------------
 ! R1    R(1,6)                  1.23           estimate D2E/DX2                !
 ! R2    R(2,8)                  1.3588         estimate D2E/DX2                !
 ! R3    R(2,16)                 0.9809         estimate D2E/DX2                !
 ! R4    R(3,8)                  1.2231         estimate D2E/DX2                !
 ! R5    R(4,5)                  1.5252         estimate D2E/DX2                !
 ! R6    R(4,6)                  1.5182         estimate D2E/DX2                !
 ! R7    R(4,9)                  1.096          estimate D2E/DX2                !
 ! R8    R(4,10)                 1.0961         estimate D2E/DX2                !
 ! R9    R(5,8)                  1.5109         estimate D2E/DX2                !
 ! R10   R(5,11)                 1.096          estimate D2E/DX2                !
 ! R11   R(5,12)                 1.0959         estimate D2E/DX2                !
 ! R12   R(6,7)                  1.5067         estimate D2E/DX2                !
 ! R13   R(7,13)                 1.0928         estimate D2E/DX2                !
 ! R14   R(7,14)                 1.0927         estimate D2E/DX2                !
 ! R15   R(7,15)                 1.0935         estimate D2E/DX2                !
 ! A1    A(8,2,16)             111.8619         estimate D2E/DX2                !
 ! A2    A(5,4,6)              112.5311         estimate D2E/DX2                !
 ! A3    A(5,4,9)              110.0737         estimate D2E/DX2                !
 ! A4    A(5,4,10)             109.9402         estimate D2E/DX2                !
 ! A5    A(6,4,9)              108.0112         estimate D2E/DX2                !
 ! A6    A(6,4,10)             108.0314         estimate D2E/DX2                !
 ! A7    A(9,4,10)             108.1242         estimate D2E/DX2                !
 ! A8    A(4,5,8)              111.9357         estimate D2E/DX2                !
 ! A9    A(4,5,11)             109.9451         estimate D2E/DX2                !
 ! A10   A(4,5,12)             109.8589         estimate D2E/DX2                !
 ! A11   A(8,5,11)             108.1944         estimate D2E/DX2                !
 ! A12   A(8,5,12)             108.2185         estimate D2E/DX2                !
 ! A13   A(11,5,12)            108.6051         estimate D2E/DX2                !
 ! A14   A(1,6,4)              122.854          estimate D2E/DX2                !
 ! A15   A(1,6,7)              121.027          estimate D2E/DX2                !
 ! A16   A(4,6,7)              116.1187         estimate D2E/DX2                !
 ! A17   A(6,7,13)             109.5813         estimate D2E/DX2                !
 ! A18   A(6,7,14)             109.5753         estimate D2E/DX2                !
 ! A19   A(6,7,15)             109.7263         estimate D2E/DX2                !
 ! A20   A(13,7,14)            110.2306         estimate D2E/DX2                !
 ! A21   A(13,7,15)            108.8744         estimate D2E/DX2                !
 ! A22   A(14,7,15)            108.8357         estimate D2E/DX2                !
 ! A23   A(2,8,3)              123.1111         estimate D2E/DX2                !
 ! A24   A(2,8,5)              111.423          estimate D2E/DX2                !
 ! A25   A(3,8,5)              125.4658         estimate D2E/DX2                !
 ! D1    D(16,2,8,3)            -0.004          estimate D2E/DX2                !
 ! D2    D(16,2,8,5)           179.9985         estimate D2E/DX2                !
 ! D3    D(6,4,5,8)           -179.6994         estimate D2E/DX2                !
 ! D4    D(6,4,5,11)            60.0203         estimate D2E/DX2                !
 ! D5    D(6,4,5,12)           -59.4471         estimate D2E/DX2                !
 ! D6    D(9,4,5,8)             59.7697         estimate D2E/DX2                !
 ! D7    D(9,4,5,11)           -60.5106         estimate D2E/DX2                !
 ! D8    D(9,4,5,12)          -179.978          estimate D2E/DX2                !
 ! D9    D(10,4,5,8)           -59.2358         estimate D2E/DX2                !
 ! D10   D(10,4,5,11)         -179.5161         estimate D2E/DX2                !
 ! D11   D(10,4,5,12)           61.0165         estimate D2E/DX2                !
 ! D12   D(5,4,6,1)             -1.4149         estimate D2E/DX2                !
 ! D13   D(5,4,6,7)            178.3949         estimate D2E/DX2                !
 ! D14   D(9,4,6,1)            120.2953         estimate D2E/DX2                !
 ! D15   D(9,4,6,7)            -59.8949         estimate D2E/DX2                !
 ! D16   D(10,4,6,1)          -122.9711         estimate D2E/DX2                !
 ! D17   D(10,4,6,7)            56.8387         estimate D2E/DX2                !
 ! D18   D(4,5,8,2)            178.8565         estimate D2E/DX2                !
 ! D19   D(4,5,8,3)             -1.1409         estimate D2E/DX2                !
 ! D20   D(11,5,8,2)           -59.8475         estimate D2E/DX2                !
 ! D21   D(11,5,8,3)           120.1551         estimate D2E/DX2                !
 ! D22   D(12,5,8,2)            57.6518         estimate D2E/DX2                !
 ! D23   D(12,5,8,3)          -122.3456         estimate D2E/DX2                !
 ! D24   D(1,6,7,13)           118.7513         estimate D2E/DX2                !
 ! D25   D(1,6,7,14)          -120.1822         estimate D2E/DX2                !
 ! D26   D(1,6,7,15)            -0.741          estimate D2E/DX2                !
 ! D27   D(4,6,7,13)           -61.0622         estimate D2E/DX2                !
 ! D28   D(4,6,7,14)            60.0043         estimate D2E/DX2                !
 ! D29   D(4,6,7,15)           179.4455         estimate D2E/DX2                !
 --------------------------------------------------------------------------------
 Trust Radius=3.00D-01 FncErr=1.00D-07 GrdErr=1.00D-06 EigMax=2.50D+02 EigMin=1.00D-04
 Number of steps in this run=     79 maximum allowed number of steps=    100.
 GradGradGradGradGradGradGradGradGradGradGradGradGradGradGradGradGradGrad

                          Input orientation:                          
 ---------------------------------------------------------------------
 Center     Atomic      Atomic             Coordinates (Angstroms)
 Number     Number       Type             X           Y           Z
 ---------------------------------------------------------------------
      1          8           0        2.119300    1.294700   -0.022100
      2          8           0       -2.919300    0.870200    0.029100
      3          8           0       -2.191500   -1.280600   -0.021800
      4          6           0        0.526800   -0.524000   -0.008100
      5          6           0       -0.570800    0.535000   -0.003200
      6          6           0        1.919100    0.081200   -0.003500
      7          6           0        3.066500   -0.894800    0.030000
      8          6           0       -1.950100   -0.081700   -0.000500
      9          1           0        0.435200   -1.156600   -0.898400
     10          1           0        0.432300   -1.164400    0.876400
     11          1           0       -0.481600    1.170000   -0.892000
     12          1           0       -0.475700    1.165600    0.888000
     13          1           0        3.011700   -1.493300    0.942700
     14          1           0        3.022500   -1.541900   -0.849400
     15          1           0        4.014700   -0.350200    0.020500
     16          1           0       -3.817800    0.476700    0.031000
 ---------------------------------------------------------------------
                    Distance matrix (angstroms):
                    1          2          3          4          5
     1  O    0.000000
     2  O    5.056710   0.000000
     3  O    5.021471   2.271172   0.000000
     4  C    2.417421   3.717631   2.821664   0.000000
     5  C    2.795378   2.372521   2.433807   1.525199   0.000000
     6  C    1.230044   4.902418   4.330343   1.518153   2.530916
     7  C    2.386171   6.240595   5.272389   2.566909   3.908373
     8  C    4.295924   1.358800   1.223147   2.516092   1.510892
     9  H    3.100478   4.027511   2.771887   1.095996   2.162159
    10  H    3.114554   4.011326   2.775715   1.096076   2.160525
    11  H    2.745352   2.623106   3.112306   2.160506   1.095969
    12  H    2.752994   2.606943   3.123396   2.159340   1.095873
    13  H    3.082233   6.449617   5.296111   2.831659   4.224102
    14  H    3.089740   6.472633   5.285735   2.823548   4.235726
    15  H    2.509990   7.040583   6.275695   3.492345   4.670220
    16  H    5.993421   0.980891   2.394941   4.458529   3.247703
                    6          7          8          9         10
     6  C    0.000000
     7  C    1.506727   0.000000
     8  C    3.872629   5.082159   0.000000
     9  H    2.129543   2.802536   2.766097   0.000000
    10  H    2.129863   2.779944   2.759895   1.774820   0.000000
    11  H    2.781776   4.207433   2.125563   2.500726   3.067878
    12  H    2.775926   4.186716   2.125805   3.068155   2.500700
    13  H    2.137316   1.092807   5.244206   3.184552   2.601130
    14  H    2.137169   1.092712   5.251625   2.616291   3.135288
    15  H    2.139678   1.093509   5.970877   3.782523   3.772145
    16  H    5.750620   7.019587   1.949643   4.649673   4.633709
                   11         12         13         14         15
    11  H    0.000000
    12  H    1.780015   0.000000
    13  H    4.760508   4.385738   0.000000
    14  H    4.431132   4.752528   1.792791   0.000000
    15  H    4.833257   4.818080   1.778522   1.778015   0.000000
    16  H    3.530273   3.518333   7.166182   7.186067   7.876035
                   16
    16  H    0.000000
 Stoichiometry    C5H8O3
 Framework group  C1[X(C5H8O3)]
 Deg. of freedom    42
 Full point group                 C1      NOp   1
 Largest Abelian subgroup         C1      NOp   1
 Largest concise Abelian subgroup C1      NOp   1
                         Standard orientation:                         
 ---------------------------------------------------------------------
 Center     Atomic      Atomic             Coordinates (Angstroms)
 Number     Number       Type             X           Y           Z
 ---------------------------------------------------------------------
      1          8           0       -2.070278   -1.384980   -0.023159
      2          8           0        2.950705   -0.787194    0.028760
      3          8           0        2.149284    1.337238   -0.023554
      4          6           0       -0.541353    0.487488   -0.009930
      5          6           0        0.592062   -0.533084   -0.004191
      6          6           0       -1.911988   -0.165295   -0.005239
      7          6           0       -3.092323    0.770635    0.027461
      8          6           0        1.949307    0.130749   -0.001591
      9          1           0       -0.471402    1.122346   -0.900587
     10          1           0       -0.469150    1.131280    0.874209
     11          1           0        0.524971   -1.171299   -0.892632
     12          1           0        0.518544   -1.166063    0.887364
     13          1           0       -3.058360    1.371201    0.939817
     14          1           0       -3.070445    1.418351   -0.852313
     15          1           0       -4.021205    0.193700    0.018101
     16          1           0        3.835122   -0.362986    0.030600
 ---------------------------------------------------------------------
 Rotational constants (GHZ):           5.2132207           0.9195670           0.7935887
 Standard basis: 6-311++G(d,p) (5D, 7F)
 There are   240 symmetry adapted cartesian basis functions of A   symmetry.
 There are   232 symmetry adapted basis functions of A   symmetry.
   232 basis functions,   360 primitive gaussians,   240 cartesian basis functions
    31 alpha electrons       31 beta electrons
       nuclear repulsion energy       361.2801502547 Hartrees.
 NAtoms=   16 NActive=   16 NUniq=   16 SFac= 1.00D+00 NAtFMM=   60 NAOKFM=F Big=F
 Integral buffers will be    131072 words long.
 Raffenetti 2 integral format.
 Two-electron integral symmetry is turned on.
 R6APFD:  NTU= -4 IXU= 1 FactS= 1.050
 Nuclear repulsion after empirical dispersion term =      361.2706365397 Hartrees.
 One-electron integrals computed using PRISM.
 NBasis=   232 RedAO= T EigKep=  9.74D-06  NBF=   232
 NBsUse=   232 1.00D-06 EigRej= -1.00D+00 NBFU=   232
 ExpMin= 3.60D-02 ExpMax= 8.59D+03 ExpMxC= 1.30D+03 IAcc=3 IRadAn=         5 AccDes= 0.00D+00
 Harris functional with IExCor= 1009 and IRadAn=       5 diagonalized for initial guess.
 HarFok:  IExCor= 1009 AccDes= 0.00D+00 IRadAn=         5 IDoV= 1 UseB2=F ITyADJ=14
 ICtDFT=  3500011 ScaDFX=  1.000000  1.000000  1.000000  1.000000
 FoFCou: FMM=F IPFlag=           0 FMFlag=      100000 FMFlg1=           0
         NFxFlg=           0 DoJE=T BraDBF=F KetDBF=T FulRan=T
         wScrn=  0.000000 ICntrl=       500 IOpCl=  0 I1Cent=   200000004 NGrid=           0
         NMat0=    1 NMatS0=      1 NMatT0=    0 NMatD0=    1 NMtDS0=    0 NMtDT0=    0
 Petite list used in FoFCou.
 Requested convergence on RMS density matrix=1.00D-08 within  32 cycles.
 Requested convergence on MAX density matrix=1.00D-06.
 Requested convergence on             energy=1.00D-06.
 No special actions if energy rises.
 SCF Done:  E(RM08HX) =  -421.028686015     A.U. after   14 cycles
            NFock= 14  Conv=0.48D-08     -V/T= 2.0045
 QCSCF skips out because SCF is already converged.

 **********************************************************************

            Population analysis using the SCF Density.

 **********************************************************************

 Orbital symmetries:
       Occupied  (A) (A) (A) (A) (A) (A) (A) (A) (A) (A) (A) (A)
                 (A) (A) (A) (A) (A) (A) (A) (A) (A) (A) (A) (A)
                 (A) (A) (A) (A) (A) (A) (A)
       Virtual   (A) (A) (A) (A) (A) (A) (A) (A) (A) (A) (A) (A)
                 (A) (A) (A) (A) (A) (A) (A) (A) (A) (A) (A) (A)
                 (A) (A) (A) (A) (A) (A) (A) (A) (A) (A) (A) (A)
                 (A) (A) (A) (A) (A) (A) (A) (A) (A) (A) (A) (A)
                 (A) (A) (A) (A) (A) (A) (A) (A) (A) (A) (A) (A)
                 (A) (A) (A) (A) (A) (A) (A) (A) (A) (A) (A) (A)
                 (A) (A) (A) (A) (A) (A) (A) (A) (A) (A) (A) (A)
                 (A) (A) (A) (A) (A) (A) (A) (A) (A) (A) (A) (A)
                 (A) (A) (A) (A) (A) (A) (A) (A) (A) (A) (A) (A)
                 (A) (A) (A) (A) (A) (A) (A) (A) (A) (A) (A) (A)
                 (A) (A) (A) (A) (A) (A) (A) (A) (A) (A) (A) (A)
                 (A) (A) (A) (A) (A) (A) (A) (A) (A) (A) (A) (A)
                 (A) (A) (A) (A) (A) (A) (A) (A) (A) (A) (A) (A)
                 (A) (A) (A) (A) (A) (A) (A) (A) (A) (A) (A) (A)
                 (A) (A) (A) (A) (A) (A) (A) (A) (A) (A) (A) (A)
                 (A) (A) (A) (A) (A) (A) (A) (A) (A) (A) (A) (A)
                 (A) (A) (A) (A) (A) (A) (A) (A) (A)
 The electronic state is 1-A.
 Alpha  occ. eigenvalues --  -19.66882 -19.61505 -19.61193 -10.68580 -10.63673
 Alpha  occ. eigenvalues --  -10.55826 -10.55446 -10.53999  -1.23852  -1.17014
 Alpha  occ. eigenvalues --   -1.14352  -0.92265  -0.86447  -0.79637  -0.70180
 Alpha  occ. eigenvalues --   -0.62471  -0.59405  -0.58319  -0.58266  -0.54033
 Alpha  occ. eigenvalues --   -0.53756  -0.52806  -0.50127  -0.48423  -0.45740
 Alpha  occ. eigenvalues --   -0.44794  -0.44508  -0.42570  -0.40713  -0.37078
 Alpha  occ. eigenvalues --   -0.33800
 Alpha virt. eigenvalues --   -0.03463  -0.02439  -0.01392  -0.00268   0.00187
 Alpha virt. eigenvalues --    0.00462   0.01996   0.02293   0.02887   0.03700
 Alpha virt. eigenvalues --    0.04273   0.04492   0.05189   0.05740   0.07664
 Alpha virt. eigenvalues --    0.08024   0.08311   0.09681   0.10722   0.11571
 Alpha virt. eigenvalues --    0.11757   0.12351   0.12488   0.13329   0.14100
 Alpha virt. eigenvalues --    0.14427   0.14671   0.15634   0.16986   0.18424
 Alpha virt. eigenvalues --    0.18844   0.19654   0.20736   0.21300   0.21468
 Alpha virt. eigenvalues --    0.23119   0.24914   0.25491   0.26949   0.27248
 Alpha virt. eigenvalues --    0.27496   0.28240   0.28624   0.28965   0.29785
 Alpha virt. eigenvalues --    0.31046   0.31591   0.32603   0.33343   0.36121
 Alpha virt. eigenvalues --    0.36954   0.38023   0.39862   0.42526   0.43315
 Alpha virt. eigenvalues --    0.43961   0.44581   0.48385   0.49726   0.50126
 Alpha virt. eigenvalues --    0.54411   0.55667   0.57652   0.59087   0.61094
 Alpha virt. eigenvalues --    0.61909   0.64132   0.65573   0.66158   0.67715
 Alpha virt. eigenvalues --    0.67926   0.69237   0.69469   0.72005   0.73650
 Alpha virt. eigenvalues --    0.74389   0.75484   0.77211   0.80374   0.84903
 Alpha virt. eigenvalues --    0.87257   0.90603   0.93257   1.00655   1.05349
 Alpha virt. eigenvalues --    1.07041   1.07379   1.07782   1.12772   1.18101
 Alpha virt. eigenvalues --    1.20594   1.20976   1.21624   1.22875   1.25671
 Alpha virt. eigenvalues --    1.27341   1.28259   1.29863   1.31914   1.38788
 Alpha virt. eigenvalues --    1.42815   1.43726   1.46320   1.51077   1.52543
 Alpha virt. eigenvalues --    1.52735   1.53633   1.55309   1.55806   1.57658
 Alpha virt. eigenvalues --    1.59602   1.59665   1.60513   1.60812   1.64156
 Alpha virt. eigenvalues --    1.67160   1.70055   1.72116   1.75122   1.77268
 Alpha virt. eigenvalues --    1.79174   1.82392   1.89941   1.90494   1.93468
 Alpha virt. eigenvalues --    1.97725   2.04333   2.06097   2.07065   2.07922
 Alpha virt. eigenvalues --    2.09532   2.14908   2.20158   2.22706   2.27765
 Alpha virt. eigenvalues --    2.29621   2.33971   2.41829   2.46058   2.47871
 Alpha virt. eigenvalues --    2.50893   2.52911   2.55799   2.57415   2.59091
 Alpha virt. eigenvalues --    2.59847   2.61447   2.63749   2.63979   2.65933
 Alpha virt. eigenvalues --    2.72563   2.77455   2.85023   2.86218   2.90963
 Alpha virt. eigenvalues --    2.91685   2.95354   2.96497   2.99164   3.00068
 Alpha virt. eigenvalues --    3.04927   3.08244   3.10737   3.18538   3.23841
 Alpha virt. eigenvalues --    3.24670   3.25642   3.40851   3.41872   3.42425
 Alpha virt. eigenvalues --    3.53478   3.62936   3.71870   3.73479   3.79244
 Alpha virt. eigenvalues --    3.84433   3.86983   3.87392   3.88238   4.07100
 Alpha virt. eigenvalues --    4.12345   4.19916   4.26483   4.44435   5.06326
 Alpha virt. eigenvalues --    5.13605   5.16796   5.31637   5.36642   5.46389
 Alpha virt. eigenvalues --    5.67876   5.81246   5.93726  23.81673  23.84643
 Alpha virt. eigenvalues --   23.93032  23.94532  24.01690  49.87486  49.97787
 Alpha virt. eigenvalues --   49.99494
          Condensed to atoms (all electrons):
               1          2          3          4          5          6
     1  O    7.945182  -0.000434  -0.000761   0.085070  -0.165527   0.391744
     2  O   -0.000434   8.023814  -0.112922   0.005213  -0.237248   0.036509
     3  O   -0.000761  -0.112922   7.992711   0.021190   0.056991   0.054281
     4  C    0.085070   0.005213   0.021190  10.031030  -1.492364  -2.941950
     5  C   -0.165527  -0.237248   0.056991  -1.492364   9.545022   0.782482
     6  C    0.391744   0.036509   0.054281  -2.941950   0.782482   9.002587
     7  C   -0.079744  -0.002768   0.007959  -0.137160  -0.578114  -1.708788
     8  C    0.055249   0.214039   0.268063   0.082589  -2.045145   0.147597
     9  H    0.002523  -0.004610  -0.009895   0.476439  -0.041755  -0.094835
    10  H    0.002561  -0.004841  -0.010820   0.495815  -0.061976  -0.110058
    11  H   -0.010624   0.002594  -0.001595  -0.073958   0.444278   0.019602
    12  H   -0.011280   0.002714  -0.001185  -0.082792   0.455927   0.020623
    13  H    0.004452   0.000127   0.000253  -0.017005  -0.001418   0.028401
    14  H    0.004370   0.000136   0.000264  -0.015056   0.002628   0.037234
    15  H   -0.010844   0.000073   0.000287  -0.030464   0.009742  -0.016808
    16  H    0.000165   0.249287  -0.015426   0.007413  -0.149865   0.000789
               7          8          9         10         11         12
     1  O   -0.079744   0.055249   0.002523   0.002561  -0.010624  -0.011280
     2  O   -0.002768   0.214039  -0.004610  -0.004841   0.002594   0.002714
     3  O    0.007959   0.268063  -0.009895  -0.010820  -0.001595  -0.001185
     4  C   -0.137160   0.082589   0.476439   0.495815  -0.073958  -0.082792
     5  C   -0.578114  -2.045145  -0.041755  -0.061976   0.444278   0.455927
     6  C   -1.708788   0.147597  -0.094835  -0.110058   0.019602   0.020623
     7  C    8.326029  -0.003730   0.029705   0.046973  -0.017285  -0.020817
     8  C   -0.003730   7.195316  -0.007851  -0.010107  -0.043321  -0.045025
     9  H    0.029705  -0.007851   0.469628  -0.057891  -0.013788   0.005962
    10  H    0.046973  -0.010107  -0.057891   0.476157   0.005791  -0.014558
    11  H   -0.017285  -0.043321  -0.013788   0.005791   0.431794  -0.037961
    12  H   -0.020817  -0.045025   0.005962  -0.014558  -0.037961   0.435287
    13  H    0.331855  -0.000435   0.003393  -0.003723  -0.001001   0.002085
    14  H    0.314954   0.000542  -0.004143   0.002584   0.002350  -0.000985
    15  H    0.388414   0.002991  -0.001430  -0.001247   0.000102   0.000238
    16  H   -0.000178   0.140491  -0.000780  -0.000923   0.002309   0.002534
              13         14         15         16
     1  O    0.004452   0.004370  -0.010844   0.000165
     2  O    0.000127   0.000136   0.000073   0.249287
     3  O    0.000253   0.000264   0.000287  -0.015426
     4  C   -0.017005  -0.015056  -0.030464   0.007413
     5  C   -0.001418   0.002628   0.009742  -0.149865
     6  C    0.028401   0.037234  -0.016808   0.000789
     7  C    0.331855   0.314954   0.388414  -0.000178
     8  C   -0.000435   0.000542   0.002991   0.140491
     9  H    0.003393  -0.004143  -0.001430  -0.000780
    10  H   -0.003723   0.002584  -0.001247  -0.000923
    11  H   -0.001001   0.002350   0.000102   0.002309
    12  H    0.002085  -0.000985   0.000238   0.002534
    13  H    0.528750  -0.063208  -0.019107   0.000005
    14  H   -0.063208   0.534119  -0.021404   0.000021
    15  H   -0.019107  -0.021404   0.443564   0.000029
    16  H    0.000005   0.000021   0.000029   0.438886
 Mulliken charges:
               1
     1  O   -0.212101
     2  O   -0.171682
     3  O   -0.249393
     4  C   -0.414009
     5  C   -0.523656
     6  C    0.350589
     7  C   -0.897306
     8  C    0.048739
     9  H    0.249328
    10  H    0.246264
    11  H    0.290713
    12  H    0.289234
    13  H    0.206578
    14  H    0.205594
    15  H    0.255865
    16  H    0.325244
 Sum of Mulliken charges =  -0.00000
 Mulliken charges with hydrogens summed into heavy atoms:
               1
     1  O   -0.212101
     2  O    0.153562
     3  O   -0.249393
     4  C    0.081582
     5  C    0.056291
     6  C    0.350589
     7  C   -0.229270
     8  C    0.048739
 Electronic spatial extent (au):  <R**2>=           1369.3374
 Charge=             -0.0000 electrons
 Dipole moment (field-independent basis, Debye):
    X=              0.1830    Y=              1.3410    Z=              0.0795  Tot=              1.3558
 Quadrupole moment (field-independent basis, Debye-Ang):
   XX=            -42.0481   YY=            -57.3947   ZZ=            -45.8457
   XY=            -10.0217   XZ=              0.0006   YZ=              0.0482
 Traceless Quadrupole moment (field-independent basis, Debye-Ang):
   XX=              6.3814   YY=             -8.9652   ZZ=              2.5838
   XY=            -10.0217   XZ=              0.0006   YZ=              0.0482
 Octapole moment (field-independent basis, Debye-Ang**2):
  XXX=             48.4510  YYY=             -0.7223  ZZZ=             -0.0021  XYY=             -1.8231
  XXY=              7.5349  XXZ=              0.7675  XZZ=              2.4280  YZZ=              0.1107
  YYZ=              0.1145  XYZ=              0.4605
 Hexadecapole moment (field-independent basis, Debye-Ang**3):
 XXXX=          -1120.3103 YYYY=           -298.1670 ZZZZ=            -65.2146 XXXY=            -42.4430
 XXXZ=              1.9948 YYYX=            -16.0877 YYYZ=             -0.1812 ZZZX=              0.0228
 ZZZY=              0.0887 XXYY=           -333.4160 XXZZ=           -240.7678 YYZZ=            -52.9496
 XXYZ=              0.1961 YYXZ=              0.1306 ZZXY=             -0.9465
 N-N= 3.612706365397D+02 E-N=-1.708115664902D+03  KE= 4.191422974638D+02
 R6APFD:  NTU= -4 IXU= 1 FactS= 1.050
 Calling FoFJK, ICntrl=      2127 FMM=F ISym2X=0 I1Cent= 0 IOpClX= 0 NMat=1 NMatS=1 NMatT=0.
 ***** Axes restored to original set *****
 -------------------------------------------------------------------
 Center     Atomic                   Forces (Hartrees/Bohr)
 Number     Number              X              Y              Z
 -------------------------------------------------------------------
      1        8          -0.010196605   -0.034641397    0.000387440
      2        8          -0.003226029   -0.009390123   -0.000167486
      3        8           0.005981931    0.036056828    0.000668841
      4        6          -0.002224635    0.007799751    0.000209597
      5        6           0.001011404   -0.005445835    0.000017080
      6        6           0.007345866    0.037505955   -0.000140041
      7        6           0.003148545    0.005822155   -0.000509048
      8        6          -0.016715048   -0.028379262   -0.000364243
      9        1          -0.000299372   -0.004953796    0.001056522
     10        1          -0.000197091   -0.004998243   -0.001242255
     11        1          -0.000470970    0.004590743    0.002346448
     12        1          -0.000555960    0.004676379   -0.002341794
     13        1          -0.000752441   -0.004882228   -0.000189382
     14        1          -0.000724403   -0.005053921    0.000454534
     15        1          -0.000662221    0.000527777    0.000043069
     16        1           0.018537030    0.000765218   -0.000229282
 -------------------------------------------------------------------
 Cartesian Forces:  Max     0.037505955 RMS     0.011112786

 GradGradGradGradGradGradGradGradGradGradGradGradGradGradGradGradGradGrad
 Berny optimization.
 FormGI is forming the generalized inverse of G from B-inverse, IUseBI=4.
 Internal  Forces:  Max     0.036533532 RMS     0.007290448
 Search for a local minimum.
 Step number   1 out of a maximum of   79
 All quantities printed in internal units (Hartrees-Bohrs-Radians)
 Mixed Optimization -- RFO/linear search
 Second derivative matrix not updated -- first step.
 ITU=  0
     Eigenvalues ---    0.00433   0.00526   0.00600   0.00622   0.00677
     Eigenvalues ---    0.01009   0.02237   0.04158   0.04265   0.05392
     Eigenvalues ---    0.05440   0.07430   0.07482   0.09288   0.09369
     Eigenvalues ---    0.12736   0.12798   0.16000   0.16000   0.16000
     Eigenvalues ---    0.16000   0.21995   0.22003   0.25000   0.25000
     Eigenvalues ---    0.25000   0.25000   0.29871   0.30545   0.31261
     Eigenvalues ---    0.31682   0.34120   0.34129   0.34132   0.34143
     Eigenvalues ---    0.34410   0.34490   0.34501   0.51212   0.53191
     Eigenvalues ---    0.91068   0.94002
 RFO step:  Lambda=-6.71527142D-03 EMin= 4.32618354D-03
 Linear search not attempted -- first point.
 Iteration  1 RMS(Cart)=  0.03253158 RMS(Int)=  0.00075338
 Iteration  2 RMS(Cart)=  0.00075061 RMS(Int)=  0.00004117
 Iteration  3 RMS(Cart)=  0.00000084 RMS(Int)=  0.00004117
 Variable       Old X    -DE/DX   Delta X   Delta X   Delta X     New X
                                 (Linear)    (Quad)   (Total)
    R1        2.32445  -0.03584   0.00000  -0.03907  -0.03907   2.28538
    R2        2.56776  -0.01697   0.00000  -0.03151  -0.03151   2.53625
    R3        1.85362  -0.01729   0.00000  -0.03332  -0.03332   1.82030
    R4        2.31141  -0.03653   0.00000  -0.03859  -0.03859   2.27282
    R5        2.88221  -0.00129   0.00000  -0.00423  -0.00423   2.87798
    R6        2.86889  -0.00197   0.00000  -0.00632  -0.00632   2.86257
    R7        2.07113   0.00203   0.00000   0.00582   0.00582   2.07695
    R8        2.07128   0.00193   0.00000   0.00556   0.00556   2.07684
    R9        2.85517  -0.00379   0.00000  -0.01187  -0.01187   2.84330
   R10        2.07108   0.00072   0.00000   0.00206   0.00206   2.07314
   R11        2.07090   0.00074   0.00000   0.00212   0.00212   2.07302
   R12        2.84730   0.00309   0.00000   0.00954   0.00954   2.85684
   R13        2.06511   0.00255   0.00000   0.00726   0.00726   2.07237
   R14        2.06493   0.00266   0.00000   0.00755   0.00755   2.07248
   R15        2.06643  -0.00031   0.00000  -0.00089  -0.00089   2.06555
    A1        1.95236  -0.01249   0.00000  -0.07493  -0.07493   1.87743
    A2        1.96404  -0.00503   0.00000  -0.01539  -0.01533   1.94870
    A3        1.92115   0.00250   0.00000   0.01547   0.01550   1.93665
    A4        1.91882   0.00276   0.00000   0.01890   0.01893   1.93775
    A5        1.88515   0.00168   0.00000   0.00890   0.00895   1.89410
    A6        1.88550   0.00167   0.00000   0.01062   0.01066   1.89616
    A7        1.88712  -0.00363   0.00000  -0.04018  -0.04017   1.84695
    A8        1.95365  -0.00584   0.00000  -0.01887  -0.01877   1.93488
    A9        1.91890   0.00329   0.00000   0.02212   0.02212   1.94103
   A10        1.91740   0.00346   0.00000   0.02442   0.02443   1.94183
   A11        1.88835   0.00152   0.00000   0.00599   0.00609   1.89443
   A12        1.88877   0.00153   0.00000   0.00717   0.00726   1.89603
   A13        1.89552  -0.00403   0.00000  -0.04249  -0.04257   1.85295
   A14        2.14421  -0.00516   0.00000  -0.02010  -0.02011   2.12409
   A15        2.11232   0.00512   0.00000   0.01996   0.01995   2.13227
   A16        2.02665   0.00004   0.00000   0.00017   0.00016   2.02681
   A17        1.91255   0.00183   0.00000   0.00743   0.00740   1.91996
   A18        1.91245   0.00209   0.00000   0.00938   0.00934   1.92179
   A19        1.91509  -0.00087   0.00000   0.00139   0.00132   1.91641
   A20        1.92389  -0.00458   0.00000  -0.04051  -0.04050   1.88338
   A21        1.90022   0.00074   0.00000   0.01071   0.01065   1.91087
   A22        1.89954   0.00077   0.00000   0.01166   0.01158   1.91112
   A23        2.14869  -0.00122   0.00000  -0.00473  -0.00474   2.14396
   A24        1.94470  -0.00046   0.00000  -0.00181  -0.00181   1.94289
   A25        2.18979   0.00168   0.00000   0.00655   0.00654   2.19634
    D1       -0.00007  -0.00001   0.00000   0.00007   0.00006  -0.00001
    D2        3.14157  -0.00006   0.00000  -0.00260  -0.00260   3.13897
    D3       -3.13635  -0.00012   0.00000  -0.00439  -0.00439  -3.14074
    D4        1.04755  -0.00045   0.00000  -0.01458  -0.01454   1.03301
    D5       -1.03755   0.00033   0.00000   0.00886   0.00881  -1.02873
    D6        1.04318  -0.00064   0.00000  -0.01621  -0.01620   1.02698
    D7       -1.05611  -0.00096   0.00000  -0.02640  -0.02635  -1.08245
    D8       -3.14121  -0.00018   0.00000  -0.00296  -0.00299   3.13898
    D9       -1.03386   0.00057   0.00000   0.01200   0.01199  -1.02187
   D10       -3.13315   0.00025   0.00000   0.00180   0.00184  -3.13131
   D11        1.06494   0.00103   0.00000   0.02525   0.02519   1.09013
   D12       -0.02469   0.00009   0.00000   0.00068   0.00074  -0.02395
   D13        3.11358   0.00021   0.00000   0.00981   0.00975   3.12333
   D14        2.09955   0.00117   0.00000   0.01643   0.01649   2.11604
   D15       -1.04536   0.00130   0.00000   0.02556   0.02550  -1.01986
   D16       -2.14625  -0.00132   0.00000  -0.02055  -0.02049  -2.16674
   D17        0.99202  -0.00120   0.00000  -0.01142  -0.01148   0.98054
   D18        3.12163   0.00012   0.00000   0.00472   0.00472   3.12636
   D19       -0.01991   0.00008   0.00000   0.00197   0.00197  -0.01795
   D20       -1.04454   0.00157   0.00000   0.02447   0.02448  -1.02006
   D21        2.09710   0.00153   0.00000   0.02172   0.02172   2.11882
   D22        1.00621  -0.00155   0.00000  -0.01870  -0.01869   0.98752
   D23       -2.13533  -0.00159   0.00000  -0.02145  -0.02145  -2.15678
   D24        2.07260   0.00160   0.00000   0.02260   0.02268   2.09528
   D25       -2.09757  -0.00159   0.00000  -0.01681  -0.01679  -2.11437
   D26       -0.01293   0.00010   0.00000   0.00406   0.00413  -0.00881
   D27       -1.06574   0.00150   0.00000   0.01373   0.01371  -1.05203
   D28        1.04727  -0.00170   0.00000  -0.02568  -0.02577   1.02150
   D29        3.13191  -0.00000   0.00000  -0.00480  -0.00485   3.12707
         Item               Value     Threshold  Converged?
 Maximum Force            0.036534     0.000450     NO 
 RMS     Force            0.007290     0.000300     NO 
 Maximum Displacement     0.135946     0.001800     NO 
 RMS     Displacement     0.032458     0.001200     NO 
 Predicted change in Energy=-3.449331D-03
 GradGradGradGradGradGradGradGradGradGradGradGradGradGradGradGradGradGrad

                          Input orientation:                          
 ---------------------------------------------------------------------
 Center     Atomic      Atomic             Coordinates (Angstroms)
 Number     Number       Type             X           Y           Z
 ---------------------------------------------------------------------
      1          8           0        2.074395    1.283424   -0.019458
      2          8           0       -2.896696    0.865131    0.020941
      3          8           0       -2.173737   -1.250119   -0.019589
      4          6           0        0.516627   -0.520903   -0.000445
      5          6           0       -0.565550    0.550687    0.001507
      6          6           0        1.904431    0.086249    0.002049
      7          6           0        3.058274   -0.890261    0.025172
      8          6           0       -1.935544   -0.071381    0.000187
      9          1           0        0.422452   -1.173217   -0.879983
     10          1           0        0.420102   -1.180353    0.873426
     11          1           0       -0.478393    1.204454   -0.875154
     12          1           0       -0.477672    1.203119    0.879007
     13          1           0        3.007361   -1.509849    0.928587
     14          1           0        3.005745   -1.556689   -0.844243
     15          1           0        4.005365   -0.344801    0.010070
     16          1           0       -3.745860    0.410410    0.016624
 ---------------------------------------------------------------------
                    Distance matrix (angstroms):
                    1          2          3          4          5
     1  O    0.000000
     2  O    4.988822   0.000000
     3  O    4.946258   2.235754   0.000000
     4  C    2.383820   3.684063   2.787505   0.000000
     5  C    2.739827   2.352338   2.414459   1.522963   0.000000
     6  C    1.209370   4.863932   4.291598   1.514807   2.513267
     7  C    2.386402   6.208307   5.244563   2.568472   3.899871
     8  C    4.232669   1.342125   1.202727   2.493033   1.504610
     9  H    3.082937   3.997908   2.736127   1.099077   2.173710
    10  H    3.099052   3.988970   2.744148   1.099019   2.174455
    11  H    2.693543   2.601215   3.103404   2.175325   1.097061
    12  H    2.706794   2.588859   3.114882   2.175848   1.096995
    13  H    3.093798   6.428237   5.273545   2.836348   4.227408
    14  H    3.100632   6.438366   5.253673   2.824987   4.232076
    15  H    2.525991   7.007317   6.245141   3.493195   4.657814
    16  H    5.885476   0.963260   2.286971   4.363076   3.183438
                    6          7          8          9         10
     6  C    0.000000
     7  C    1.511774   0.000000
     8  C    3.843209   5.060573   0.000000
     9  H    2.135533   2.801237   2.747523   0.000000
    10  H    2.137010   2.786330   2.746167   1.753425   0.000000
    11  H    2.774476   4.207901   2.125386   2.542610   3.090652
    12  H    2.773241   4.196925   2.126515   3.090508   2.546952
    13  H    2.149990   1.096649   5.231005   3.172696   2.608739
    14  H    2.151359   1.096707   5.228339   2.611844   3.126910
    15  H    2.144712   1.093040   5.947205   3.783614   3.781222
    16  H    5.659601   6.927341   1.873403   4.548253   4.540912
                   11         12         13         14         15
    11  H    0.000000
    12  H    1.754162   0.000000
    13  H    4.771939   4.416798   0.000000
    14  H    4.445681   4.766583   1.773449   0.000000
    15  H    4.825753   4.821693   1.788022   1.788229   0.000000
    16  H    3.478810   3.471765   7.079906   7.084825   7.787931
                   16
    16  H    0.000000
 Stoichiometry    C5H8O3
 Framework group  C1[X(C5H8O3)]
 Deg. of freedom    42
 Full point group                 C1      NOp   1
 Largest Abelian subgroup         C1      NOp   1
 Largest concise Abelian subgroup C1      NOp   1
                         Standard orientation:                         
 ---------------------------------------------------------------------
 Center     Atomic      Atomic             Coordinates (Angstroms)
 Number     Number       Type             X           Y           Z
 ---------------------------------------------------------------------
      1          8           0       -2.022096   -1.375521   -0.021649
      2          8           0        2.929239   -0.766667    0.022119
      3          8           0        2.125653    1.319223   -0.021579
      4          6           0       -0.534753    0.487294   -0.003638
      5          6           0        0.587759   -0.541962    0.000477
      6          6           0       -1.898230   -0.172680   -0.001481
      7          6           0       -3.088724    0.758846    0.019539
      8          6           0        1.932864    0.132235   -0.000538
      9          1           0       -0.464958    1.141687   -0.883904
     10          1           0       -0.464335    1.151011    0.869496
     11          1           0        0.526486   -1.199644   -0.875446
     12          1           0        0.524262   -1.196233    0.878711
     13          1           0       -3.062380    1.381015    0.922230
     14          1           0       -3.061096    1.425755   -0.850654
     15          1           0       -4.014167    0.177415    0.004369
     16          1           0        3.760327   -0.279689    0.017906
 ---------------------------------------------------------------------
 Rotational constants (GHZ):           5.3046924           0.9355917           0.8072987
 Standard basis: 6-311++G(d,p) (5D, 7F)
 There are   240 symmetry adapted cartesian basis functions of A   symmetry.
 There are   232 symmetry adapted basis functions of A   symmetry.
   232 basis functions,   360 primitive gaussians,   240 cartesian basis functions
    31 alpha electrons       31 beta electrons
       nuclear repulsion energy       364.1576398937 Hartrees.
 NAtoms=   16 NActive=   16 NUniq=   16 SFac= 1.00D+00 NAtFMM=   60 NAOKFM=F Big=F
 Integral buffers will be    131072 words long.
 Raffenetti 2 integral format.
 Two-electron integral symmetry is turned on.
 R6APFD:  NTU= -4 IXU= 1 FactS= 1.050
 Nuclear repulsion after empirical dispersion term =      364.1482783173 Hartrees.
 One-electron integrals computed using PRISM.
 NBasis=   232 RedAO= T EigKep=  9.85D-06  NBF=   232
 NBsUse=   232 1.00D-06 EigRej= -1.00D+00 NBFU=   232
 Initial guess from the checkpoint file:  "LEAC0062.chk"
 B after Tr=    -0.000000    0.000000    0.000000
         Rot=    0.999999    0.000133    0.000066   -0.001706 Ang=   0.20 deg.
 ExpMin= 3.60D-02 ExpMax= 8.59D+03 ExpMxC= 1.30D+03 IAcc=3 IRadAn=         5 AccDes= 0.00D+00
 Harris functional with IExCor= 1009 and IRadAn=       5 diagonalized for initial guess.
 HarFok:  IExCor= 1009 AccDes= 0.00D+00 IRadAn=         5 IDoV= 1 UseB2=F ITyADJ=14
 ICtDFT=  3500011 ScaDFX=  1.000000  1.000000  1.000000  1.000000
 FoFCou: FMM=F IPFlag=           0 FMFlag=      100000 FMFlg1=           0
         NFxFlg=           0 DoJE=T BraDBF=F KetDBF=T FulRan=T
         wScrn=  0.000000 ICntrl=       500 IOpCl=  0 I1Cent=   200000004 NGrid=           0
         NMat0=    1 NMatS0=      1 NMatT0=    0 NMatD0=    1 NMtDS0=    0 NMtDT0=    0
 Petite list used in FoFCou.
 Requested convergence on RMS density matrix=1.00D-08 within  32 cycles.
 Requested convergence on MAX density matrix=1.00D-06.
 Requested convergence on             energy=1.00D-06.
 No special actions if energy rises.
 SCF Done:  E(RM08HX) =  -421.032189951     A.U. after   13 cycles
            NFock= 13  Conv=0.51D-08     -V/T= 2.0039
 QCSCF skips out because SCF is already converged.
 R6APFD:  NTU= -4 IXU= 1 FactS= 1.050
 Calling FoFJK, ICntrl=      2127 FMM=F ISym2X=0 I1Cent= 0 IOpClX= 0 NMat=1 NMatS=1 NMatT=0.
 ***** Axes restored to original set *****
 -------------------------------------------------------------------
 Center     Atomic                   Forces (Hartrees/Bohr)
 Number     Number              X              Y              Z
 -------------------------------------------------------------------
      1        8          -0.000943510   -0.005867446    0.000409036
      2        8          -0.001670492    0.000761012    0.000095356
      3        8          -0.000194019    0.000854823    0.000146206
      4        6           0.000147348    0.004257829    0.000338836
      5        6           0.002167420   -0.004556675    0.000112919
      6        6           0.001903724    0.006566484   -0.000931220
      7        6           0.001608864    0.001857260    0.000061367
      8        6           0.000474145   -0.001724163   -0.000350756
      9        1          -0.000599425   -0.001251597    0.000575576
     10        1          -0.000684850   -0.001241328   -0.000612792
     11        1           0.000280524    0.001191325    0.000689160
     12        1           0.000257492    0.001174539   -0.000691127
     13        1          -0.000367001   -0.001064784   -0.000398681
     14        1          -0.000481070   -0.000976643    0.000525100
     15        1          -0.000100967   -0.000191705    0.000035069
     16        1          -0.001798183    0.000211069   -0.000004048
 -------------------------------------------------------------------
 Cartesian Forces:  Max     0.006566484 RMS     0.001797673

 GradGradGradGradGradGradGradGradGradGradGradGradGradGradGradGradGradGrad
 Berny optimization.
 Using GEDIIS/GDIIS optimizer.
 FormGI is forming the generalized inverse of G from B-inverse, IUseBI=4.
 Internal  Forces:  Max     0.005948568 RMS     0.001086043
 Search for a local minimum.
 Step number   2 out of a maximum of   79
 All quantities printed in internal units (Hartrees-Bohrs-Radians)
 Mixed Optimization -- RFO/linear search
 Update second derivatives using D2CorX and points    1    2
 DE= -3.50D-03 DEPred=-3.45D-03 R= 1.02D+00
 TightC=F SS=  1.41D+00  RLast= 1.65D-01 DXNew= 5.0454D-01 4.9585D-01
 Trust test= 1.02D+00 RLast= 1.65D-01 DXMaxT set to 4.96D-01
 ITU=  1  0
 Use linear search instead of GDIIS.
     Eigenvalues ---    0.00433   0.00526   0.00603   0.00622   0.00677
     Eigenvalues ---    0.01004   0.02237   0.04138   0.04256   0.05032
     Eigenvalues ---    0.05329   0.07280   0.07364   0.09233   0.09356
     Eigenvalues ---    0.12687   0.12766   0.15942   0.16000   0.16000
     Eigenvalues ---    0.16751   0.21875   0.22479   0.24786   0.25000
     Eigenvalues ---    0.25000   0.25250   0.29834   0.30619   0.31551
     Eigenvalues ---    0.31773   0.34089   0.34124   0.34132   0.34142
     Eigenvalues ---    0.34408   0.34476   0.34500   0.51608   0.55853
     Eigenvalues ---    0.84384   0.94851
 RFO step:  Lambda=-3.46252473D-04 EMin= 4.32610592D-03
 Quartic linear search produced a step of  0.02950.
 Iteration  1 RMS(Cart)=  0.00885939 RMS(Int)=  0.00006172
 Iteration  2 RMS(Cart)=  0.00008911 RMS(Int)=  0.00002915
 Iteration  3 RMS(Cart)=  0.00000000 RMS(Int)=  0.00002915
 Variable       Old X    -DE/DX   Delta X   Delta X   Delta X     New X
                                 (Linear)    (Quad)   (Total)
    R1        2.28538  -0.00595  -0.00115  -0.00746  -0.00861   2.27677
    R2        2.53625   0.00316  -0.00093   0.00554   0.00461   2.54086
    R3        1.82030   0.00148  -0.00098   0.00237   0.00139   1.82168
    R4        2.27282  -0.00080  -0.00114  -0.00161  -0.00274   2.27008
    R5        2.87798  -0.00112  -0.00012  -0.00394  -0.00407   2.87392
    R6        2.86257   0.00161  -0.00019   0.00531   0.00512   2.86769
    R7        2.07695   0.00033   0.00017   0.00111   0.00128   2.07824
    R8        2.07684   0.00032   0.00016   0.00106   0.00122   2.07807
    R9        2.84330   0.00286  -0.00035   0.00919   0.00884   2.85214
   R10        2.07314   0.00018   0.00006   0.00058   0.00065   2.07379
   R11        2.07302   0.00017   0.00006   0.00054   0.00060   2.07362
   R12        2.85684   0.00075   0.00028   0.00261   0.00289   2.85973
   R13        2.07237   0.00029   0.00021   0.00100   0.00121   2.07358
   R14        2.07248   0.00020   0.00022   0.00073   0.00096   2.07343
   R15        2.06555  -0.00018  -0.00003  -0.00057  -0.00059   2.06495
    A1        1.87743   0.00189  -0.00221   0.01089   0.00868   1.88610
    A2        1.94870   0.00109  -0.00045   0.00881   0.00832   1.95702
    A3        1.93665  -0.00029   0.00046  -0.00183  -0.00142   1.93523
    A4        1.93775  -0.00031   0.00056  -0.00112  -0.00063   1.93712
    A5        1.89410  -0.00001   0.00026   0.00391   0.00417   1.89828
    A6        1.89616   0.00011   0.00031   0.00590   0.00619   1.90236
    A7        1.84695  -0.00068  -0.00119  -0.01672  -0.01792   1.82903
    A8        1.93488   0.00144  -0.00055   0.01029   0.00969   1.94457
    A9        1.94103  -0.00018   0.00065   0.00026   0.00088   1.94190
   A10        1.94183  -0.00014   0.00072   0.00113   0.00181   1.94363
   A11        1.89443  -0.00029   0.00018   0.00155   0.00171   1.89614
   A12        1.89603  -0.00028   0.00021   0.00220   0.00238   1.89842
   A13        1.85295  -0.00065  -0.00126  -0.01646  -0.01772   1.83523
   A14        2.12409   0.00007  -0.00059  -0.00002  -0.00072   2.12337
   A15        2.13227   0.00031   0.00059   0.00167   0.00215   2.13442
   A16        2.02681  -0.00038   0.00000  -0.00152  -0.00162   2.02519
   A17        1.91996   0.00020   0.00022  -0.00002   0.00017   1.92013
   A18        1.92179   0.00003   0.00028  -0.00106  -0.00081   1.92098
   A19        1.91641   0.00044   0.00004   0.00569   0.00571   1.92212
   A20        1.88338  -0.00108  -0.00119  -0.01322  -0.01443   1.86895
   A21        1.91087   0.00015   0.00031   0.00388   0.00417   1.91504
   A22        1.91112   0.00024   0.00034   0.00450   0.00482   1.91594
   A23        2.14396  -0.00110  -0.00014  -0.00460  -0.00475   2.13921
   A24        1.94289   0.00138  -0.00005   0.00565   0.00559   1.94848
   A25        2.19634  -0.00028   0.00019  -0.00103  -0.00085   2.19549
    D1       -0.00001  -0.00006   0.00000  -0.00494  -0.00493  -0.00494
    D2        3.13897   0.00003  -0.00008   0.00372   0.00364  -3.14057
    D3       -3.14074  -0.00008  -0.00013  -0.00480  -0.00493   3.13751
    D4        1.03301  -0.00057  -0.00043  -0.01394  -0.01438   1.01864
    D5       -1.02873   0.00046   0.00026   0.00579   0.00606  -1.02268
    D6        1.02698  -0.00062  -0.00048  -0.01459  -0.01506   1.01192
    D7       -1.08245  -0.00111  -0.00078  -0.02373  -0.02450  -1.10695
    D8        3.13898  -0.00008  -0.00009  -0.00399  -0.00407   3.13492
    D9       -1.02187   0.00060   0.00035   0.00807   0.00841  -1.01346
   D10       -3.13131   0.00011   0.00005  -0.00108  -0.00103  -3.13234
   D11        1.09013   0.00114   0.00074   0.01866   0.01940   1.10953
   D12       -0.02395   0.00012   0.00002   0.01811   0.01812  -0.00583
   D13        3.12333  -0.00004   0.00029  -0.00893  -0.00862   3.11471
   D14        2.11604   0.00047   0.00049   0.02423   0.02472   2.14076
   D15       -1.01986   0.00030   0.00075  -0.00281  -0.00202  -1.02189
   D16       -2.16674  -0.00028  -0.00060   0.00967   0.00903  -2.15772
   D17        0.98054  -0.00044  -0.00034  -0.01737  -0.01772   0.96282
   D18        3.12636  -0.00000   0.00014  -0.00135  -0.00121   3.12514
   D19       -0.01795   0.00009   0.00006   0.00762   0.00769  -0.01026
   D20       -1.02006   0.00050   0.00072   0.00658   0.00732  -1.01274
   D21        2.11882   0.00059   0.00064   0.01556   0.01621   2.13504
   D22        0.98752  -0.00057  -0.00055  -0.01085  -0.01142   0.97610
   D23       -2.15678  -0.00049  -0.00063  -0.00188  -0.00252  -2.15930
   D24        2.09528   0.00050   0.00067  -0.00646  -0.00580   2.08948
   D25       -2.11437  -0.00069  -0.00050  -0.02340  -0.02391  -2.13827
   D26       -0.00881  -0.00009   0.00012  -0.01486  -0.01475  -0.02356
   D27       -1.05203   0.00067   0.00040   0.02071   0.02112  -1.03091
   D28        1.02150  -0.00052  -0.00076   0.00377   0.00302   1.02452
   D29        3.12707   0.00007  -0.00014   0.01231   0.01217   3.13924
         Item               Value     Threshold  Converged?
 Maximum Force            0.005949     0.000450     NO 
 RMS     Force            0.001086     0.000300     NO 
 Maximum Displacement     0.027552     0.001800     NO 
 RMS     Displacement     0.008835     0.001200     NO 
 Predicted change in Energy=-1.787181D-04
 GradGradGradGradGradGradGradGradGradGradGradGradGradGradGradGradGradGrad

                          Input orientation:                          
 ---------------------------------------------------------------------
 Center     Atomic      Atomic             Coordinates (Angstroms)
 Number     Number       Type             X           Y           Z
 ---------------------------------------------------------------------
      1          8           0        2.082279    1.284960   -0.014118
      2          8           0       -2.908183    0.861663    0.022113
      3          8           0       -2.181912   -1.250435   -0.014982
      4          6           0        0.521916   -0.514738   -0.003457
      5          6           0       -0.566551    0.547379    0.000014
      6          6           0        1.912793    0.092143   -0.007719
      7          6           0        3.065277   -0.888052    0.025169
      8          6           0       -1.942272   -0.073383   -0.001504
      9          1           0        0.421730   -1.175809   -0.876617
     10          1           0        0.424782   -1.181109    0.865898
     11          1           0       -0.479452    1.209329   -0.870921
     12          1           0       -0.478025    1.207578    0.872021
     13          1           0        3.001089   -1.513178    0.924692
     14          1           0        3.011712   -1.561198   -0.839633
     15          1           0        4.016558   -0.350421    0.016826
     16          1           0       -3.760440    0.411174    0.020919
 ---------------------------------------------------------------------
                    Distance matrix (angstroms):
                    1          2          3          4          5
     1  O    0.000000
     2  O    5.008514   0.000000
     3  O    4.961004   2.233786   0.000000
     4  C    2.381966   3.696040   2.802154   0.000000
     5  C    2.749642   2.362732   2.416971   1.520811   0.000000
     6  C    1.204815   4.882096   4.309197   1.517518   2.520803
     7  C    2.385332   6.224447   5.259841   2.570772   3.905288
     8  C    4.247619   1.344564   1.201275   2.503401   1.509289
     9  H    3.091393   4.005912   2.743527   1.099755   2.171304
    10  H    3.098906   3.999193   2.752383   1.099665   2.172595
    11  H    2.702276   2.610961   3.111501   2.174313   1.097403
    12  H    2.710422   2.597627   3.119589   2.175481   1.097313
    13  H    3.091141   6.432264   5.274043   2.829248   4.222438
    14  H    3.105790   6.454302   5.267861   2.827252   4.237342
    15  H    2.533152   7.030022   6.263551   3.498562   4.670248
    16  H    5.907800   0.963994   2.292157   4.381379   3.196860
                    6          7          8          9         10
     6  C    0.000000
     7  C    1.513302   0.000000
     8  C    3.858622   5.073455   0.000000
     9  H    2.141484   2.807910   2.751304   0.000000
    10  H    2.144424   2.786561   2.753614   1.742526   0.000000
    11  H    2.777779   4.215102   2.130980   2.549715   3.090044
    12  H    2.781034   4.202834   2.132586   3.089956   2.553610
    13  H    2.151938   1.097290   5.231412   3.164115   2.598285
    14  H    2.152496   1.097213   5.240039   2.618758   3.121780
    15  H    2.149951   1.092727   5.965294   3.795035   3.783096
    16  H    5.682268   6.948268   1.881764   4.562306   4.556912
                   11         12         13         14         15
    11  H    0.000000
    12  H    1.742944   0.000000
    13  H    4.769742   4.416959   0.000000
    14  H    4.457019   4.772226   1.765010   0.000000
    15  H    4.840972   4.833217   1.790922   1.791429   0.000000
    16  H    3.492466   3.483229   7.087892   7.105832   7.814201
                   16
    16  H    0.000000
 Stoichiometry    C5H8O3
 Framework group  C1[X(C5H8O3)]
 Deg. of freedom    42
 Full point group                 C1      NOp   1
 Largest Abelian subgroup         C1      NOp   1
 Largest concise Abelian subgroup C1      NOp   1
                         Standard orientation:                         
 ---------------------------------------------------------------------
 Center     Atomic      Atomic             Coordinates (Angstroms)
 Number     Number       Type             X           Y           Z
 ---------------------------------------------------------------------
      1          8           0       -2.031979   -1.374310   -0.015911
      2          8           0        2.939316   -0.766043    0.021974
      3          8           0        2.135169    1.317608   -0.017360
      4          6           0       -0.539494    0.482072   -0.006266
      5          6           0        0.587643   -0.538909   -0.001372
      6          6           0       -1.906885   -0.176019   -0.010540
      7          6           0       -3.094971    0.760753    0.020976
      8          6           0        1.939376    0.132486   -0.002898
      9          1           0       -0.463527    1.145618   -0.879992
     10          1           0       -0.467546    1.152375    0.862516
     11          1           0        0.525559   -1.204422   -0.871734
     12          1           0        0.523296   -1.201151    0.871205
     13          1           0       -3.054429    1.388644    0.919950
     14          1           0       -3.066044    1.434642   -0.844422
     15          1           0       -4.025638    0.188177    0.012738
     16          1           0        3.774266   -0.284233    0.020714
 ---------------------------------------------------------------------
 Rotational constants (GHZ):           5.3136305           0.9294268           0.8027626
 Standard basis: 6-311++G(d,p) (5D, 7F)
 There are   240 symmetry adapted cartesian basis functions of A   symmetry.
 There are   232 symmetry adapted basis functions of A   symmetry.
   232 basis functions,   360 primitive gaussians,   240 cartesian basis functions
    31 alpha electrons       31 beta electrons
       nuclear repulsion energy       363.6732790152 Hartrees.
 NAtoms=   16 NActive=   16 NUniq=   16 SFac= 1.00D+00 NAtFMM=   60 NAOKFM=F Big=F
 Integral buffers will be    131072 words long.
 Raffenetti 2 integral format.
 Two-electron integral symmetry is turned on.
 R6APFD:  NTU= -4 IXU= 1 FactS= 1.050
 Nuclear repulsion after empirical dispersion term =      363.6639305739 Hartrees.
 One-electron integrals computed using PRISM.
 NBasis=   232 RedAO= T EigKep=  9.98D-06  NBF=   232
 NBsUse=   232 1.00D-06 EigRej= -1.00D+00 NBFU=   232
 Initial guess from the checkpoint file:  "LEAC0062.chk"
 B after Tr=    -0.000000   -0.000000   -0.000000
         Rot=    1.000000   -0.000041   -0.000030    0.000343 Ang=  -0.04 deg.
 ExpMin= 3.60D-02 ExpMax= 8.59D+03 ExpMxC= 1.30D+03 IAcc=3 IRadAn=         5 AccDes= 0.00D+00
 Harris functional with IExCor= 1009 and IRadAn=       5 diagonalized for initial guess.
 HarFok:  IExCor= 1009 AccDes= 0.00D+00 IRadAn=         5 IDoV= 1 UseB2=F ITyADJ=14
 ICtDFT=  3500011 ScaDFX=  1.000000  1.000000  1.000000  1.000000
 FoFCou: FMM=F IPFlag=           0 FMFlag=      100000 FMFlg1=           0
         NFxFlg=           0 DoJE=T BraDBF=F KetDBF=T FulRan=T
         wScrn=  0.000000 ICntrl=       500 IOpCl=  0 I1Cent=   200000004 NGrid=           0
         NMat0=    1 NMatS0=      1 NMatT0=    0 NMatD0=    1 NMtDS0=    0 NMtDT0=    0
 Petite list used in FoFCou.
 Requested convergence on RMS density matrix=1.00D-08 within  32 cycles.
 Requested convergence on MAX density matrix=1.00D-06.
 Requested convergence on             energy=1.00D-06.
 No special actions if energy rises.
 SCF Done:  E(RM08HX) =  -421.032330927     A.U. after   12 cycles
            NFock= 12  Conv=0.32D-08     -V/T= 2.0039
 QCSCF skips out because SCF is already converged.
 R6APFD:  NTU= -4 IXU= 1 FactS= 1.050
 Calling FoFJK, ICntrl=      2127 FMM=F ISym2X=0 I1Cent= 0 IOpClX= 0 NMat=1 NMatS=1 NMatT=0.
 ***** Axes restored to original set *****
 -------------------------------------------------------------------
 Center     Atomic                   Forces (Hartrees/Bohr)
 Number     Number              X              Y              Z
 -------------------------------------------------------------------
      1        8           0.000025705    0.000880418   -0.000954721
      2        8           0.000349517    0.001448974   -0.000312656
      3        8           0.000448611   -0.001402738   -0.000379082
      4        6          -0.000476157    0.000708590   -0.001036571
      5        6           0.000149415   -0.001205473   -0.000376259
      6        6          -0.000123884   -0.000516565    0.003001131
      7        6           0.000120189    0.000151276   -0.001045150
      8        6           0.000436985    0.000361325    0.001045657
      9        1          -0.000211448   -0.000376449   -0.000014466
     10        1           0.000146164   -0.000140322    0.000032215
     11        1          -0.000020898    0.000370957   -0.000075744
     12        1          -0.000161192    0.000247695    0.000098183
     13        1          -0.000255188    0.000046907   -0.000033004
     14        1           0.000020154   -0.000237693    0.000073896
     15        1          -0.000178228   -0.000069901   -0.000025964
     16        1          -0.000269747   -0.000267002    0.000002535
 -------------------------------------------------------------------
 Cartesian Forces:  Max     0.003001131 RMS     0.000682442

 GradGradGradGradGradGradGradGradGradGradGradGradGradGradGradGradGradGrad
 Berny optimization.
 Using GEDIIS/GDIIS optimizer.
 FormGI is forming the generalized inverse of G from B-inverse, IUseBI=4.
 Internal  Forces:  Max     0.001288551 RMS     0.000395631
 Search for a local minimum.
 Step number   3 out of a maximum of   79
 All quantities printed in internal units (Hartrees-Bohrs-Radians)
 Mixed Optimization -- En-DIIS/RFO-DIIS
 Update second derivatives using D2CorX and points    1    2    3
 DE= -1.41D-04 DEPred=-1.79D-04 R= 7.89D-01
 TightC=F SS=  1.41D+00  RLast= 8.05D-02 DXNew= 8.3392D-01 2.4150D-01
 Trust test= 7.89D-01 RLast= 8.05D-02 DXMaxT set to 4.96D-01
 ITU=  1  1  0
 Use linear search instead of GDIIS.
     Eigenvalues ---    0.00432   0.00524   0.00620   0.00676   0.00736
     Eigenvalues ---    0.01040   0.02237   0.04029   0.04155   0.04481
     Eigenvalues ---    0.05310   0.07085   0.07312   0.09287   0.09445
     Eigenvalues ---    0.12772   0.12864   0.15896   0.16000   0.16097
     Eigenvalues ---    0.16755   0.21845   0.22529   0.24597   0.25000
     Eigenvalues ---    0.25132   0.26317   0.29272   0.30642   0.31661
     Eigenvalues ---    0.33484   0.34090   0.34128   0.34140   0.34294
     Eigenvalues ---    0.34413   0.34485   0.34555   0.51600   0.54896
     Eigenvalues ---    0.86396   0.95510
 RFO step:  Lambda=-1.77893137D-04 EMin= 4.31740257D-03
 Quartic linear search produced a step of -0.16763.
 Iteration  1 RMS(Cart)=  0.02419488 RMS(Int)=  0.00039453
 Iteration  2 RMS(Cart)=  0.00059227 RMS(Int)=  0.00017989
 Iteration  3 RMS(Cart)=  0.00000014 RMS(Int)=  0.00017989
 Variable       Old X    -DE/DX   Delta X   Delta X   Delta X     New X
                                 (Linear)    (Quad)   (Total)
    R1        2.27677   0.00088   0.00144  -0.00551  -0.00407   2.27270
    R2        2.54086   0.00076  -0.00077   0.00368   0.00291   2.54377
    R3        1.82168   0.00036  -0.00023   0.00093   0.00070   1.82238
    R4        2.27008   0.00129   0.00046  -0.00131  -0.00085   2.26923
    R5        2.87392  -0.00098   0.00068  -0.00548  -0.00480   2.86912
    R6        2.86769  -0.00026  -0.00086   0.00254   0.00168   2.86937
    R7        2.07824   0.00026  -0.00021   0.00157   0.00136   2.07959
    R8        2.07807   0.00010  -0.00020   0.00114   0.00093   2.07900
    R9        2.85214  -0.00094  -0.00148   0.00308   0.00160   2.85374
   R10        2.07379   0.00028  -0.00011   0.00115   0.00104   2.07483
   R11        2.07362   0.00021  -0.00010   0.00096   0.00086   2.07448
   R12        2.85973  -0.00017  -0.00048   0.00160   0.00112   2.86084
   R13        2.07358  -0.00004  -0.00020   0.00083   0.00062   2.07420
   R14        2.07343   0.00009  -0.00016   0.00097   0.00081   2.07424
   R15        2.06495  -0.00019   0.00010  -0.00087  -0.00077   2.06419
    A1        1.88610  -0.00020  -0.00145   0.00335   0.00190   1.88800
    A2        1.95702  -0.00027  -0.00139   0.00440   0.00300   1.96002
    A3        1.93523   0.00002   0.00024  -0.00005   0.00018   1.93541
    A4        1.93712   0.00022   0.00011   0.00050   0.00061   1.93772
    A5        1.89828   0.00029  -0.00070   0.00537   0.00466   1.90294
    A6        1.90236  -0.00009  -0.00104   0.00273   0.00169   1.90405
    A7        1.82903  -0.00016   0.00300  -0.01396  -0.01096   1.81807
    A8        1.94457  -0.00033  -0.00162   0.00490   0.00327   1.94784
    A9        1.94190   0.00018  -0.00015   0.00234   0.00219   1.94410
   A10        1.94363   0.00026  -0.00030   0.00297   0.00267   1.94631
   A11        1.89614   0.00012  -0.00029   0.00179   0.00150   1.89764
   A12        1.89842  -0.00003  -0.00040   0.00065   0.00025   1.89866
   A13        1.83523  -0.00017   0.00297  -0.01369  -0.01071   1.82452
   A14        2.12337   0.00016   0.00012   0.00020  -0.00053   2.12285
   A15        2.13442   0.00041  -0.00036   0.00362   0.00240   2.13682
   A16        2.02519  -0.00056   0.00027  -0.00246  -0.00304   2.02215
   A17        1.92013  -0.00041  -0.00003  -0.00231  -0.00234   1.91779
   A18        1.92098   0.00027   0.00014   0.00112   0.00124   1.92222
   A19        1.92212   0.00003  -0.00096   0.00427   0.00331   1.92543
   A20        1.86895  -0.00007   0.00242  -0.01124  -0.00883   1.86012
   A21        1.91504   0.00018  -0.00070   0.00372   0.00302   1.91806
   A22        1.91594  -0.00000  -0.00081   0.00408   0.00326   1.91920
   A23        2.13921   0.00125   0.00080   0.00102   0.00172   2.14093
   A24        1.94848  -0.00085  -0.00094   0.00083  -0.00020   1.94827
   A25        2.19549  -0.00039   0.00014  -0.00172  -0.00167   2.19382
    D1       -0.00494   0.00018   0.00083   0.01126   0.01211   0.00717
    D2       -3.14057  -0.00017  -0.00061  -0.01183  -0.01246   3.13015
    D3        3.13751   0.00015   0.00083  -0.00182  -0.00100   3.13652
    D4        1.01864   0.00011   0.00241  -0.00916  -0.00676   1.01188
    D5       -1.02268   0.00006  -0.00102   0.00453   0.00352  -1.01916
    D6        1.01192  -0.00004   0.00252  -0.01178  -0.00925   1.00267
    D7       -1.10695  -0.00008   0.00411  -0.01912  -0.01501  -1.12197
    D8        3.13492  -0.00014   0.00068  -0.00542  -0.00474   3.13018
    D9       -1.01346   0.00001  -0.00141   0.00517   0.00376  -1.00970
   D10       -3.13234  -0.00003   0.00017  -0.00216  -0.00199  -3.13433
   D11        1.10953  -0.00009  -0.00325   0.01153   0.00828   1.11782
   D12       -0.00583  -0.00031  -0.00304  -0.03006  -0.03306  -0.03888
   D13        3.11471   0.00035   0.00145   0.04150   0.04290  -3.12558
   D14        2.14076  -0.00027  -0.00414  -0.02339  -0.02749   2.11327
   D15       -1.02189   0.00039   0.00034   0.04816   0.04846  -0.97342
   D16       -2.15772  -0.00034  -0.00151  -0.03562  -0.03709  -2.19481
   D17        0.96282   0.00031   0.00297   0.03594   0.03886   1.00168
   D18        3.12514   0.00020   0.00020   0.01640   0.01660  -3.14145
   D19       -0.01026  -0.00016  -0.00129  -0.00761  -0.00889  -0.01915
   D20       -1.01274   0.00028  -0.00123   0.02380   0.02256  -0.99018
   D21        2.13504  -0.00008  -0.00272  -0.00021  -0.00292   2.13212
   D22        0.97610   0.00012   0.00191   0.00896   0.01087   0.98697
   D23       -2.15930  -0.00024   0.00042  -0.01505  -0.01462  -2.17392
   D24        2.08948   0.00035   0.00097   0.03876   0.03976   2.12924
   D25       -2.13827   0.00018   0.00401   0.02428   0.02831  -2.10996
   D26       -0.02356   0.00038   0.00247   0.03286   0.03537   0.01181
   D27       -1.03091  -0.00031  -0.00354  -0.03324  -0.03682  -1.06773
   D28        1.02452  -0.00048  -0.00051  -0.04773  -0.04827   0.97625
   D29        3.13924  -0.00028  -0.00204  -0.03915  -0.04121   3.09802
         Item               Value     Threshold  Converged?
 Maximum Force            0.001289     0.000450     NO 
 RMS     Force            0.000396     0.000300     NO 
 Maximum Displacement     0.083273     0.001800     NO 
 RMS     Displacement     0.024218     0.001200     NO 
 Predicted change in Energy=-9.649467D-05
 GradGradGradGradGradGradGradGradGradGradGradGradGradGradGradGradGradGrad

                          Input orientation:                          
 ---------------------------------------------------------------------
 Center     Atomic      Atomic             Coordinates (Angstroms)
 Number     Number       Type             X           Y           Z
 ---------------------------------------------------------------------
      1          8           0        2.083832    1.287283   -0.014791
      2          8           0       -2.909716    0.860188   -0.004580
      3          8           0       -2.179597   -1.252999   -0.020307
      4          6           0        0.524149   -0.510881    0.021602
      5          6           0       -0.566292    0.545543    0.014289
      6          6           0        1.915473    0.097189    0.026769
      7          6           0        3.066107   -0.886532    0.012394
      8          6           0       -1.942525   -0.076024    0.002093
      9          1           0        0.428171   -1.179927   -0.846848
     10          1           0        0.420303   -1.179293    0.889237
     11          1           0       -0.472646    1.211668   -0.853475
     12          1           0       -0.487064    1.211947    0.883034
     13          1           0        3.028016   -1.518635    0.908922
     14          1           0        2.976653   -1.560057   -0.849683
     15          1           0        4.019374   -0.354670   -0.027240
     16          1           0       -3.762937    0.411099   -0.022717
 ---------------------------------------------------------------------
                    Distance matrix (angstroms):
                    1          2          3          4          5
     1  O    0.000000
     2  O    5.011790   0.000000
     3  O    4.962851   2.235817   0.000000
     4  C    2.380615   3.697559   2.804057   0.000000
     5  C    2.752123   2.364528   2.416341   1.518272   0.000000
     6  C    1.202661   4.885242   4.312170   1.518406   2.521970
     7  C    2.385597   6.225896   5.258591   2.569582   3.904506
     8  C    4.250935   1.346104   1.200822   2.504788   1.510136
     9  H    3.085556   4.001621   2.736597   1.100472   2.169738
    10  H    3.109436   4.005922   2.755391   1.100159   2.171167
    11  H    2.691596   2.604509   3.111660   2.174060   1.097955
    12  H    2.724202   2.604003   3.123564   2.175490   1.097766
    13  H    3.101275   6.461419   5.296532   2.841171   4.240313
    14  H    3.098632   6.420368   5.231544   2.806186   4.210993
    15  H    2.538205   7.034819   6.263727   3.499055   4.673376
    16  H    5.912062   0.964363   2.296997   4.385330   3.199685
                    6          7          8          9         10
     6  C    0.000000
     7  C    1.513894   0.000000
     8  C    3.861963   5.073798   0.000000
     9  H    2.146229   2.789818   2.749455   0.000000
    10  H    2.146810   2.802650   2.754484   1.736103   0.000000
    11  H    2.778489   4.204158   2.133235   2.555629   3.090485
    12  H    2.783533   4.217423   2.133845   3.090503   2.557613
    13  H    2.151008   1.097620   5.254497   3.155415   2.629773
    14  H    2.154237   1.097641   5.208281   2.576677   3.115084
    15  H    2.152555   1.092321   5.968479   3.774857   3.804372
    16  H    5.687295   6.951325   1.884623   4.558063   4.567330
                   11         12         13         14         15
    11  H    0.000000
    12  H    1.736569   0.000000
    13  H    4.776529   4.451128   0.000000
    14  H    4.424945   4.762736   1.759843   0.000000
    15  H    4.828491   4.857044   1.792765   1.793499   0.000000
    16  H    3.486701   3.491860   7.121016   7.070460   7.819897
                   16
    16  H    0.000000
 Stoichiometry    C5H8O3
 Framework group  C1[X(C5H8O3)]
 Deg. of freedom    42
 Full point group                 C1      NOp   1
 Largest Abelian subgroup         C1      NOp   1
 Largest concise Abelian subgroup C1      NOp   1
                         Standard orientation:                         
 ---------------------------------------------------------------------
 Center     Atomic      Atomic             Coordinates (Angstroms)
 Number     Number       Type             X           Y           Z
 ---------------------------------------------------------------------
      1          8           0       -2.033802   -1.374725   -0.022509
      2          8           0        2.940898   -0.766644    0.002588
      3          8           0        2.134625    1.318618   -0.019477
      4          6           0       -0.540529    0.478928    0.015349
      5          6           0        0.587551   -0.537232    0.013485
      6          6           0       -1.908877   -0.179232    0.017304
      7          6           0       -3.094402    0.762049   -0.002571
      8          6           0        1.940352    0.133856    0.004428
      9          1           0       -0.466105    1.149455   -0.854073
     10          1           0       -0.463795    1.152227    0.882026
     11          1           0        0.520929   -1.207875   -0.853293
     12          1           0        0.529770   -1.204511    0.883250
     13          1           0       -3.082155    1.396728    0.892863
     14          1           0       -3.026681    1.436827   -0.865649
     15          1           0       -4.027607    0.195867   -0.044184
     16          1           0        3.777313   -0.286915   -0.013725
 ---------------------------------------------------------------------
 Rotational constants (GHZ):           5.3091363           0.9289522           0.8022205
 Standard basis: 6-311++G(d,p) (5D, 7F)
 There are   240 symmetry adapted cartesian basis functions of A   symmetry.
 There are   232 symmetry adapted basis functions of A   symmetry.
   232 basis functions,   360 primitive gaussians,   240 cartesian basis functions
    31 alpha electrons       31 beta electrons
       nuclear repulsion energy       363.6165460319 Hartrees.
 NAtoms=   16 NActive=   16 NUniq=   16 SFac= 1.00D+00 NAtFMM=   60 NAOKFM=F Big=F
 Integral buffers will be    131072 words long.
 Raffenetti 2 integral format.
 Two-electron integral symmetry is turned on.
 R6APFD:  NTU= -4 IXU= 1 FactS= 1.050
 Nuclear repulsion after empirical dispersion term =      363.6071846829 Hartrees.
 One-electron integrals computed using PRISM.
 NBasis=   232 RedAO= T EigKep=  1.00D-05  NBF=   232
 NBsUse=   232 1.00D-06 EigRej= -1.00D+00 NBFU=   232
 Initial guess from the checkpoint file:  "LEAC0062.chk"
 B after Tr=     0.000000   -0.000000    0.000000
         Rot=    1.000000    0.000032    0.000144    0.000067 Ang=   0.02 deg.
 ExpMin= 3.60D-02 ExpMax= 8.59D+03 ExpMxC= 1.30D+03 IAcc=3 IRadAn=         5 AccDes= 0.00D+00
 Harris functional with IExCor= 1009 and IRadAn=       5 diagonalized for initial guess.
 HarFok:  IExCor= 1009 AccDes= 0.00D+00 IRadAn=         5 IDoV= 1 UseB2=F ITyADJ=14
 ICtDFT=  3500011 ScaDFX=  1.000000  1.000000  1.000000  1.000000
 FoFCou: FMM=F IPFlag=           0 FMFlag=      100000 FMFlg1=           0
         NFxFlg=           0 DoJE=T BraDBF=F KetDBF=T FulRan=T
         wScrn=  0.000000 ICntrl=       500 IOpCl=  0 I1Cent=   200000004 NGrid=           0
         NMat0=    1 NMatS0=      1 NMatT0=    0 NMatD0=    1 NMtDS0=    0 NMtDT0=    0
 Petite list used in FoFCou.
 Requested convergence on RMS density matrix=1.00D-08 within  32 cycles.
 Requested convergence on MAX density matrix=1.00D-06.
 Requested convergence on             energy=1.00D-06.
 No special actions if energy rises.
 SCF Done:  E(RM08HX) =  -421.032169908     A.U. after   12 cycles
            NFock= 12  Conv=0.81D-08     -V/T= 2.0039
 QCSCF skips out because SCF is already converged.
 R6APFD:  NTU= -4 IXU= 1 FactS= 1.050
 Calling FoFJK, ICntrl=      2127 FMM=F ISym2X=0 I1Cent= 0 IOpClX= 0 NMat=1 NMatS=1 NMatT=0.
 ***** Axes restored to original set *****
 -------------------------------------------------------------------
 Center     Atomic                   Forces (Hartrees/Bohr)
[...]

 Dipole orientation:
     8          3.74811778          0.01232013         -2.71417521
     8         -5.56120715          0.69333221         -1.17109414
     8         -3.95221160         -0.27131446          2.61739985
     6          1.04331111         -0.25023548          0.87574769
     6         -1.12777413          0.27178055         -0.92760060
     6          3.58130252         -0.24431169         -0.45717052
     6          5.87271566         -0.56315158          1.22293985
     6         -3.63971898          0.18692618          0.41500629
     1          0.79386854         -2.08597334          1.81980996
     1          1.08434526          1.13566406          2.42421426
     1         -1.16065375         -1.09998423         -2.48368913
     1         -0.92675741          2.12088947         -1.84643848
     1          6.07230338          1.10810868          2.43595376
     1          5.63547704         -2.19737058          2.47537809
     1          7.57491719         -0.78459574          0.07611822
     1         -7.11433819          0.60702390         -0.22158062

 Electric dipole moment (dipole orientation):
 (Debye = 10**-18 statcoulomb cm , SI units = C m)
                  (au)            (Debye)         (10**-30 SI)
   Tot        0.547664D+00      0.139202D+01      0.464329D+01
   x          0.000000D+00      0.000000D+00      0.000000D+00
   y          0.000000D+00      0.000000D+00      0.000000D+00
   z          0.547664D+00      0.139202D+01      0.464329D+01

 Dipole polarizability, Alpha (dipole orientation).
 (esu units = cm**3 , SI units = C**2 m**2 J**-1)
 Alpha(0;0):
               (au)            (10**-24 esu)      (10**-40 SI)
   iso        0.670386D+02      0.993410D+01      0.110532D+02
   aniso      0.266715D+02      0.395231D+01      0.439754D+01
   xx         0.785289D+02      0.116368D+02      0.129477D+02
   yx        -0.206345D+01     -0.305772D+00     -0.340217D+00
   yy         0.503524D+02      0.746145D+01      0.830198D+01
   zx         0.506814D+00      0.751020D-01      0.835623D-01
   zy        -0.372565D+01     -0.552084D+00     -0.614276D+00
   zz         0.722346D+02      0.107041D+02      0.119099D+02

 ----------------------------------------------------------------------
 1\1\GINC-PITOMBA\Freq\RM08HX\6-311++G(d,p)\C5H8O3\VALTER\07-Oct-2025\0
 \\#N Geom=AllCheck Guess=TCheck SCRF=Check GenChk RM08HX/6-311++G(d,p)
  Freq\\LEAC0062\\0,1\O,2.0826561098,1.2872481649,-0.0492592321\O,-2.90
 46421328,0.8601759401,0.0475520894\O,-2.1771589634,-1.2500889743,-0.10
 16021732\C,0.5225777454,-0.5133780249,-0.021544779\C,-0.5656992053,0.5
 450984831,0.0254154563\C,1.9124801084,0.0944541976,-0.017593719\C,3.06
 20061002,-0.8878119215,0.0369728699\C,-1.9395278868,-0.0749424434,-0.0
 179492583\H,0.417084993,-1.1427233253,-0.9179116098\H,0.43320732,-1.21
 36159197,0.8219272413\H,-0.4722202515,1.2501490211,-0.8109295189\H,-0.
 4871881686,1.1640211847,0.9287306476\H,3.0597280158,-1.3958819701,1.01
 0214917\H,2.9434356653,-1.6626400339,-0.7301389101\H,4.0122875609,-0.3
 659677837,-0.0973739288\H,-3.7577270103,0.4118034054,0.0121899077\\Ver
 sion=ES64L-G16RevB.01\State=1-A\HF=-421.0323728\RMSD=1.688e-09\RMSF=3.
 305e-06\ZeroPoint=0.1279751\Thermal=0.13718\Dipole=-0.041866,-0.540309
 3,0.07905\DipoleDeriv=-0.7163349,-0.0693866,-0.0015717,-0.0898634,-1.1
 025758,0.0298516,-0.0004024,0.0226441,-0.3150596,-1.1615845,0.6191678,
 0.0421992,0.4466142,-0.8044678,-0.0285314,0.0316266,-0.0281758,-0.4026
 598,-0.8020585,-0.2129791,-0.0173185,-0.0005967,-1.2038718,-0.0616888,
 -0.0004288,-0.0600785,-0.3647507,-0.2944308,-0.1023553,-0.0096157,-0.1
 726941,-0.083499,-0.0059894,-0.0247572,-0.0132235,0.1247378,-0.1668347
 ,-0.0751472,-0.0059805,-0.2190723,-0.0595269,-0.0063366,-0.0026049,0.0
 004791,0.0948442,1.1889895,-0.0442743,0.0310152,0.0262224,1.2125851,-0
 .0461182,0.0229264,-0.04212,0.1014533,-0.2927014,0.2258319,-0.0219131,
 0.1842401,-0.1891904,0.0252286,-0.0311985,0.047786,0.0470256,1.6603906
 ,-0.2694456,-0.0158583,-0.2376359,1.7385474,0.1044567,-0.01743,0.10089
 22,0.2876561,0.0480383,0.0003046,0.0158795,0.055211,0.0333724,-0.05247
 1,0.0065506,-0.0715535,-0.0096932,0.0444028,0.0038084,-0.0160366,0.058
 3365,0.020102,0.0572587,0.0040431,0.0819478,-0.0050848,0.0503731,-0.00
 57765,-0.0056412,0.046483,0.0455922,0.0440631,-0.0010049,0.0581838,0.0
 182032,0.0398363,-0.0047437,0.0038949,0.0438807,0.0512575,-0.0432359,-
 0.0005197,-0.0610955,0.0024254,0.0648854,0.0095557,0.0489483,0.0051724
 ,0.0609048,0.0416786,0.0092897,0.0660297,-0.0319574,0.0553872,-0.02121
 03,-0.0566108,-0.005746,0.0214164,-0.0606088,-0.0117605,-0.0964457,0.0
 098421,-0.0604318,-0.0104585,0.0115093,-0.0650841,0.030395,0.0116226,0
 .0213843,0.0036565,0.0901197,0.3420733,-0.0428913,-0.0029,-0.0754676,0
 .228959,-0.0091799,-0.0057136,-0.0089266,0.3528983\Polar=78.5257254,-1
 .2075309,72.9783733,0.2727922,0.3554089,49.6117864\Quadrupole=3.884548
 2,-5.6413384,1.7567902,-7.1879285,0.0727033,-0.2383914\PG=C01 [X(C5H8O
 3)]\NImag=0\\0.10546210,0.11072229,0.83278659,-0.00239620,-0.02162395,
 0.02469130,-0.00160149,-0.00170757,0.00001039,0.65235240,0.00092389,0.
 00132511,-0.00002371,0.07098698,0.43601132,0.00004164,0.00009491,0.000
 07865,0.00743512,0.02923799,0.04082788,-0.00284475,-0.00095887,0.00011
 263,0.02425043,0.05432126,0.00388966,0.13950272,-0.00070007,0.00271451
 ,0.00000230,0.04440050,-0.10256845,-0.00944397,0.13986230,0.86217337,-
 0.00016004,0.00016974,-0.00034514,0.00323500,-0.00941753,0.02968658,0.
 01002494,0.05910266,0.03646515,0.00820096,-0.01559151,0.00024255,-0.00
 635362,-0.00116096,-0.00008890,-0.00102973,0.00552944,0.00052605,0.480
 25078,-0.03500096,-0.02784513,0.00003990,-0.00736016,-0.00065947,-0.00
 012335,-0.00399270,-0.00248152,-0.00009913,-0.02126298,0.53843344,0.00
 109491,0.00090027,0.02629394,-0.00035448,-0.00005593,0.00138606,-0.000
 14878,-0.00005198,-0.00099598,0.00052992,-0.00458998,0.53815433,-0.000
 38952,0.00540114,-0.00046902,-0.04108232,-0.00626736,-0.00039328,-0.00
 227393,-0.01691902,-0.00117612,-0.14064886,0.06623371,0.00329378,0.506
 59692,-0.00271909,-0.00267152,0.00015658,0.02641972,0.01111157,-0.0000
 4293,-0.03970865,-0.03326301,-0.00409672,0.06175919,-0.15258520,-0.002
 79930,-0.00571876,0.55645745,-0.00026923,-0.00000531,-0.00179349,0.001
 84814,-0.00019405,0.01191202,-0.00288643,-0.00421996,0.02748108,0.0029
 7449,-0.00294678,-0.08036390,-0.00143440,0.00175353,0.55456455,-0.1241
 3799,-0.09460292,0.00269622,0.00218416,-0.00201006,-0.00013463,0.00354
 163,-0.00101229,-0.00008091,-0.18935301,-0.01698639,0.00032214,-0.0326
 7608,-0.00434953,-0.00059270,0.52749172,-0.09357412,-0.76960654,0.0186
 2097,0.00436069,-0.00029740,-0.00003743,-0.00029648,-0.00153014,-0.000
 18563,-0.01867808,-0.08616637,0.00079419,0.01999585,0.01696571,0.00014
 159,0.05984840,0.99380274,0.00234971,0.01886209,-0.07103180,0.00005733
 ,0.00005617,0.00005514,-0.00011192,0.00016147,0.00059111,-0.00061397,0
 .00090613,-0.09055714,0.00138337,0.00021412,-0.00027952,0.00177792,-0.
 02110707,0.24701955,0.02086948,-0.00141896,0.00062921,-0.00150384,0.00
 002268,0.00001347,-0.00062012,-0.00044515,-0.00003061,-0.02272513,0.01
 936297,-0.00113626,-0.00309312,-0.00400372,-0.00033647,-0.17603229,0.0
 4895046,-0.00315948,0.53654070,0.02209779,-0.03136279,0.00343962,-0.00
 059643,-0.00009111,0.00000517,0.00013362,0.00002356,-0.00001902,-0.007
 94727,0.01372100,0.00080041,-0.00345779,-0.00211039,-0.00051287,0.0468
 8853,-0.10952587,0.00020826,0.07597723,0.51353021,-0.00012015,0.002273
 82,0.02508423,0.00001226,-0.00002611,-0.00003585,-0.00002010,-0.000077
 96,-0.00014522,-0.00017079,-0.00104766,0.01783308,0.00012845,-0.000026
 14,0.00120374,-0.00114213,-0.00056132,-0.08790525,-0.00815051,0.005045
 56,0.52119695,0.00437869,0.00068188,-0.00003942,-0.22554526,0.05899335
 ,0.00370713,-0.15805933,-0.15621771,-0.01131291,-0.02945708,-0.0015896
 9,0.00001733,-0.18971497,-0.04101271,-0.00331464,-0.00531377,0.0016294
 9,-0.00014283,0.00101252,-0.00047595,0.00013698,0.64377374,-0.00188245
 ,-0.00249511,0.00010144,0.08314312,-0.18219897,-0.00801970,-0.13926797
 ,-0.72302937,-0.04574531,0.01916599,0.01481712,0.00086461,-0.03747555,
 -0.09303216,-0.00005115,0.00523392,-0.00545498,-0.00034184,0.00180850,
 0.00120110,0.00003230,0.11127139,0.99023174,0.00015512,-0.00034604,0.0
 0051886,0.00557749,-0.00826143,-0.06793454,-0.01006693,-0.04578100,-0.
 08544368,0.00044051,0.00094207,-0.00200294,-0.00282714,-0.00014593,-0.
 09571851,0.00045441,0.00004970,-0.00012637,0.00007562,0.00002667,0.000
 19992,0.00858580,0.05349724,0.24425977,-0.00437795,-0.00270540,0.00408
 944,0.00032843,-0.00073661,-0.00019629,-0.00030842,-0.00154452,-0.0006
 8715,-0.04927483,-0.01513792,-0.02763829,0.00171152,0.01392305,0.02126
 384,0.00194209,-0.01563788,-0.02829204,-0.00021922,0.00131191,0.002692
 84,0.00075352,0.00276857,0.00137062,0.05324736,-0.00284188,0.00003994,
 0.00169232,0.00013095,-0.00002637,0.00008883,0.00002235,0.00051991,0.0
 0026828,-0.01182561,-0.12327162,-0.12302573,-0.00137035,-0.01326365,-0
 .01858847,-0.00223011,-0.01089497,-0.01154232,0.00042171,-0.00050821,0
 .00123208,-0.00105149,-0.00033040,-0.00019217,0.01288041,0.13856720,0.
 00025739,0.00139771,-0.00085002,0.00007111,0.00063765,-0.00003361,-0.0
 0054127,0.00129391,0.00019405,-0.02208290,-0.12120449,-0.21664334,0.00
 098765,0.00078807,0.00066202,0.00071649,0.00095663,0.00074696,-0.00011
 931,-0.00046829,-0.00049787,-0.00058841,-0.00228961,-0.00001061,0.0245
 2724,0.13250628,0.23541557,-0.00519466,-0.00336832,-0.00395107,0.00016
 727,-0.00066688,0.00012206,-0.00013380,-0.00159272,0.00047847,-0.04958
 958,-0.01363053,0.02281198,0.00136984,0.01540583,-0.02000378,0.0031355
 8,-0.01776345,0.02726490,-0.00001264,0.00125164,-0.00297084,0.00092895
 ,0.00289635,-0.00096887,0.00036379,0.00259723,-0.00344615,0.05300414,-
 0.00318350,0.00000498,-0.00106946,0.00020479,0.00003452,-0.00009670,0.
 00014238,0.00061880,-0.00011412,-0.01098103,-0.14423901,0.12907070,-0.
 00131673,-0.01428891,0.01721696,-0.00141174,-0.01152089,0.01022852,0.0
 0066157,0.00000837,-0.00038884,-0.00111603,-0.00058490,0.00005706,0.00
 204866,0.01056312,-0.01424232,0.01228180,0.16098444,-0.00035463,-0.001
 25955,-0.00060203,-0.00005715,-0.00061485,-0.00015119,0.00048159,-0.00
 122554,0.00011628,0.01884605,0.12798988,-0.19770847,-0.00110918,-0.002
 37403,0.00237850,-0.00141758,-0.00173921,0.00083603,-0.00008272,0.0000
 2416,-0.00034633,0.00042741,0.00219307,0.00024894,0.00324659,0.0167700
 4,-0.02164598,-0.02019760,-0.13908492,0.21463691,-0.00053436,-0.001599
 89,0.00044675,-0.00133382,0.00158164,-0.00234940,-0.00437359,-0.002257
 89,-0.00446791,0.00211925,0.01504091,-0.01998843,-0.04895245,-0.014583
 78,0.02161164,0.00093322,0.00222362,-0.00076258,-0.00003669,-0.0002363
 6,0.00002535,0.00136713,-0.01928966,0.02899330,0.00108380,-0.00052011,
 0.00036722,-0.00415254,0.00311949,0.00050274,0.05311738,-0.00025521,0.
 00066350,-0.00031072,0.00176576,0.00029364,-0.00075959,-0.00260506,0.0
 0030166,-0.00158516,-0.00070992,-0.01466823,0.01672953,-0.01347051,-0.
 14842979,0.13174072,-0.00094992,-0.00037546,0.00004652,0.00003792,0.00
 000072,0.00008833,-0.00248974,-0.01218483,0.01117628,-0.00054734,0.000
 14598,0.00000449,0.00293570,-0.00213573,-0.00072692,0.01455853,0.16575
 584,0.00087686,-0.00107733,0.00005287,0.00023497,-0.00026194,0.0002367
 4,-0.00083697,-0.00170750,-0.00109971,-0.00170169,-0.00224352,0.002518
 29,0.01977389,0.13093468,-0.19919785,0.00047110,0.00183284,0.00006846,
 -0.00014556,-0.00026629,-0.00007314,-0.00096574,-0.00152721,0.00168336
 ,-0.00045187,-0.00004632,0.00061036,0.00055417,-0.00069215,0.00117222,
 -0.02120262,-0.14182061,0.21515892,-0.00010907,-0.00149960,-0.00041924
 ,-0.00143481,0.00124085,0.00246990,-0.00462625,-0.00306015,0.00401569,
 0.00156627,0.01284371,0.02132885,-0.04918857,-0.01045137,-0.01948120,0
 .00115634,0.00222168,0.00073552,-0.00006084,-0.00004479,-0.00004664,0.
 00208784,-0.01612511,-0.03076581,-0.00412289,0.00312560,-0.00015237,0.
 00107810,-0.00051434,-0.00042659,0.00020716,0.00199700,0.00314957,0.05
 297929,0.00020775,0.00046934,0.00000756,0.00174654,0.00021914,0.000755
 94,-0.00275617,-0.00012791,0.00153063,-0.00092814,-0.01285782,-0.01809
 843,-0.00982106,-0.12292951,-0.12416285,-0.00098200,-0.00006331,0.0001
 5280,0.00000061,-0.00011017,-0.00007890,-0.00226120,-0.01100945,-0.012
 55443,0.00309278,-0.00224813,0.00035274,-0.00061958,0.00016043,-0.0000
 1344,0.00203464,0.01073906,0.01705338,0.01044789,0.13787960,-0.0006837
 1,0.00110209,0.00026844,-0.00008221,0.00035622,0.00040562,0.00040575,0
 .00170439,-0.00051608,0.00144001,0.00109766,0.00138254,-0.01824368,-0.
 12372593,-0.22545934,-0.00049070,-0.00177655,0.00009393,0.00016449,0.0
 0022957,-0.00018838,0.00112581,-0.00003914,-0.00013603,-0.00031910,0.0
 0047244,0.00127782,0.00040768,-0.00001954,0.00061672,-0.00266218,-0.01
 395117,-0.02121686,0.01917812,0.13439291,0.24328742,-0.00196599,0.0029
 4502,0.00303093,0.00006378,-0.00004104,-0.00001735,0.00000537,-0.00008
 282,0.00000907,-0.00058016,-0.00116489,0.00267077,0.00002537,-0.000031
 05,0.00052871,0.00403484,0.00823486,-0.02580192,-0.04652000,0.00071420
 ,-0.00225639,-0.00001587,0.00006576,0.00002263,0.00036542,0.00043461,0
 .00004032,-0.00164708,-0.00002853,-0.00004723,0.00011672,-0.00005614,0
 .00002068,-0.00000722,0.00001570,-0.00006541,0.04494033,0.00377926,-0.
 00263377,-0.00352516,-0.00000222,-0.00001042,0.00000005,0.00001380,-0.
 00000996,0.00001264,-0.00024167,-0.00013717,-0.00200907,-0.00001416,0.
 00003815,-0.00030660,-0.00305204,-0.01173808,0.02111205,-0.00067813,-0
 .09682170,0.11423442,0.00001166,0.00003954,-0.00001541,-0.00048167,0.0
 0007876,-0.00007443,0.00047636,0.00061000,0.00003261,-0.00011441,-0.00
 000512,-0.00002227,-0.00000279,-0.00004249,0.00006484,-0.00105644,0.10
 561307,-0.00055776,-0.00116365,-0.00062413,0.00002102,-0.00004928,-0.0
 0000373,0.00000491,-0.00008851,0.00002129,0.00004106,0.00061212,-0.000
 52520,-0.00023647,-0.00012067,0.00027916,0.00060891,-0.00010305,0.0001
 6980,0.00103161,0.11041023,-0.25237317,-0.00003362,0.00014233,0.000000
 19,0.00009491,0.00010713,0.00006297,-0.00007544,-0.00022977,0.00048459
 ,0.00010636,-0.00007648,-0.00000341,-0.00000686,0.00002049,-0.00002315
 ,-0.00047859,-0.12059664,0.27376757,-0.00290773,0.00428223,-0.00345503
 ,0.00011900,-0.00004801,0.00000573,0.00001776,-0.00008387,-0.00000512,
 -0.00038118,-0.00121781,-0.00245120,0.00023484,-0.00002368,-0.00014079
 ,0.00801326,0.01437623,0.02189231,-0.05284167,-0.02077016,-0.01855336,
 -0.00006863,0.00001989,-0.00000081,-0.00165170,0.00022000,-0.00002554,
 0.00022836,0.00001687,0.00015642,0.00011475,-0.00003473,0.00005487,0.0
 0009053,-0.00003248,-0.00001878,-0.00089248,-0.00050404,0.00005489,0.0
 5046854,0.00496999,-0.00297764,0.00224974,-0.00003796,0.00000494,-0.00
 000148,0.00001195,0.00001873,0.00002288,-0.00054159,0.00043205,0.00097
 679,0.00001719,0.00001748,0.00050472,-0.00663375,-0.01579794,-0.015426
 63,-0.02131443,-0.17544600,-0.13673244,0.00003877,0.00002832,-0.000005
 58,0.00064802,0.00062643,0.00023340,-0.00012396,-0.00012658,0.00012972
 ,-0.00003207,-0.00003424,-0.00007316,-0.00016828,0.00005245,0.00003528
 ,0.00127444,0.01154055,0.01148068,0.02094859,0.19059586,-0.00037122,0.
 00131026,-0.00074476,-0.00002999,0.00006495,0.00000048,0.00000002,0.00
 012348,0.00000571,-0.00010022,-0.00008882,-0.00037868,0.00025001,0.000
 13734,0.00010077,-0.00063793,0.00340407,0.00165576,-0.01943105,-0.1345
 7885,-0.17336956,0.00001598,-0.00017929,-0.00000592,-0.00008238,0.0000
 1562,0.00048455,0.00014771,-0.00020616,-0.00019180,-0.00005198,0.00002
 102,-0.00001327,-0.00008503,0.00006419,0.00001688,-0.00276911,-0.02117
 905,-0.01934104,0.02301549,0.14597228,0.18797375,0.00483130,-0.0006502
 8,-0.00052540,-0.00047488,0.00001396,0.00000272,-0.00018487,-0.0001178
 0,-0.00000523,-0.00216423,0.00499628,-0.00032447,-0.00097021,-0.001190
 27,-0.00011974,-0.02434225,-0.01637518,0.00340502,-0.25474149,-0.11471
 268,0.03042715,0.00031817,0.00057247,0.00001316,0.00025093,0.00000879,
 -0.00009587,0.00054042,0.00007211,0.00011537,-0.00006533,0.00002276,-0
 .00004697,-0.00004040,0.00001543,0.00005639,0.00208287,0.00186519,-0.0
 0056768,-0.00054087,0.00094286,0.00012407,0.27551101,-0.00241996,0.001
 64627,0.00023720,0.00020631,0.00005318,-0.00000062,0.00002976,0.000126
 55,0.00000196,0.00244240,-0.00312972,0.00051185,0.00104466,0.00078873,
 0.00011546,0.02196705,0.01247659,-0.00351429,-0.11944886,-0.11255907,0
 .01602785,0.00002544,-0.00047458,-0.00000677,0.00013319,-0.00004914,0.
 00016260,-0.00006797,-0.00013436,-0.00016331,-0.00003716,0.00004101,0.
 00003631,-0.00004593,0.00005209,-0.00002976,-0.01122906,-0.00652256,-0
 .00035155,-0.01715180,-0.00893393,0.00512684,0.12451768,0.11663890,0.0
 0014993,-0.00065230,-0.00097367,-0.00002099,-0.00000781,-0.00002060,0.
 00000122,-0.00001534,0.00002222,-0.00038200,0.00073270,0.00083370,-0.0
 0015817,-0.00010109,0.00047754,-0.00257122,-0.00023046,-0.00140016,0.0
 3066407,0.01564156,-0.05055302,-0.00001747,0.00006491,0.00002447,0.000
 41854,0.00019843,0.00023736,-0.00021149,-0.00039628,0.00016756,0.00005
 459,-0.00004909,-0.00000652,-0.00004933,0.00005743,0.00000661,0.025122
 84,0.01226368,-0.00188709,-0.02052831,-0.00935736,0.00380746,-0.032463
 59,-0.01815138,0.04926312,0.00032097,0.00007075,-0.00000275,-0.4001354
 2,-0.17715371,-0.01450760,0.00713687,-0.00575822,-0.00036322,-0.000579
 82,-0.00113355,-0.00002776,-0.00094846,0.00628481,0.00035255,-0.000577
 45,0.00048392,0.00001867,-0.00001564,-0.00013350,0.00000786,-0.0464456
 5,-0.01290522,-0.00105908,-0.00009186,-0.00000209,0.00008440,-0.000086
 13,0.00000423,-0.00008351,0.00038937,-0.00019909,0.00021531,0.00042451
 ,-0.00016070,-0.00021250,-0.00000590,0.00000129,-0.00000726,-0.0000027
 6,0.00000025,0.00000562,-0.00001018,0.00003426,-0.00000861,0.44062756,
 -0.00012372,-0.00005774,0.00000537,-0.22366102,-0.16320122,-0.01165712
 ,-0.00495153,-0.00348672,0.00015384,0.00097175,0.00063765,-0.00001792,
 0.00313874,-0.00280494,-0.00048491,0.00028285,-0.00027309,-0.00001599,
 0.00006562,0.00005036,0.00000502,0.03356256,0.02447692,0.00155975,-0.0
 0001525,0.00005116,-0.00005434,-0.00001150,0.00004572,0.00006229,0.000
 11248,-0.00010800,-0.00011892,0.00003562,-0.00018333,0.00008671,0.0000
 0539,0.00000122,0.00000664,0.00000276,-0.00000048,-0.00000787,0.000018
 69,-0.00001996,0.00000240,0.19056658,0.14487244,-0.00001263,0.00001724
 ,-0.00002325,-0.01795801,-0.01144034,-0.01640965,-0.00030832,0.0002235
 5,-0.00603766,0.00009982,0.00002327,0.00077370,0.00023031,-0.00055155,
 0.00375322,0.00002059,-0.00005927,0.00006350,0.00001351,0.00001414,-0.
 00003013,0.00239859,0.00129736,0.00444309,-0.00003691,0.00004356,-0.00
 001024,0.00003829,-0.00003298,-0.00001193,-0.00062285,-0.00052713,0.00
 010953,0.00055542,0.00051998,0.00018385,-0.00000995,0.00000835,-0.0000
 0465,-0.00000077,-0.00000885,-0.00000034,0.00000507,-0.00000239,0.0000
 0102,0.01558785,0.01047506,0.01319994\\0.00000072,-0.00000525,-0.00000
 661,0.00000244,-0.00000157,-0.00000254,-0.00000025,-0.00000367,0.00000
 516,-0.00000106,-0.00000657,0.00000055,0.00000058,0.00000604,-0.000002
 74,-0.00000063,0.00000775,-0.00000212,0.00000128,-0.00000355,0.0000026
 1,-0.00000506,0.00000476,0.00000310,-0.00000040,-0.00000192,0.00000409
 ,0.00000240,0.00000291,0.00000352,0.00000004,-0.00000386,-0.00000447,0
 .00000031,0.00000251,-0.00000512,0.00000065,0.00000525,0.00000209,-0.0
 0000084,-0.00000176,0.00000305,0.00000096,-0.00000106,-0.00000096,-0.0
 0000116,0.00000002,0.00000039\\\@


 ERWIN WITH HIS PSI CAN DO
 CALCULATIONS QUITE A FEW.
 BUT ONE THING HAS NOT BEEN SEEN
 JUST WHAT DOES PSI REALLY MEAN.
 -- WALTER HUCKEL, TRANS. BY FELIX BLOCH
 Job cpu time:       0 days  0 hours 45 minutes 53.6 seconds.
 Elapsed time:       0 days  0 hours  2 minutes 53.0 seconds.
 File lengths (MBytes):  RWF=     87 Int=      0 D2E=      0 Chk=      6 Scr=      1
 Normal termination of Gaussian 16 at Tue Oct  7 06:40:42 2025.
