 Entering Gaussian System, Link 0=g16
 Input=LFRE0130.gjf
 Output=LFRE0130.log
 Initial command:
 /usr/local/g16/l1.exe "/dados_01/scratch/Gau-2125818.inp" -scrdir="/dados_01/scratch/"
 Entering Link 1 = /usr/local/g16/l1.exe PID=   2125821.
  
 Copyright (c) 1988-2017, Gaussian, Inc.  All Rights Reserved.
  
 This is part of the Gaussian(R) 16 program.  It is based on
 the Gaussian(R) 09 system (copyright 2009, Gaussian, Inc.),
 the Gaussian(R) 03 system (copyright 2003, Gaussian, Inc.),
 the Gaussian(R) 98 system (copyright 1998, Gaussian, Inc.),
 the Gaussian(R) 94 system (copyright 1995, Gaussian, Inc.),
 the Gaussian 92(TM) system (copyright 1992, Gaussian, Inc.),
 the Gaussian 90(TM) system (copyright 1990, Gaussian, Inc.),
 the Gaussian 88(TM) system (copyright 1988, Gaussian, Inc.),
 the Gaussian 86(TM) system (copyright 1986, Carnegie Mellon
 University), and the Gaussian 82(TM) system (copyright 1983,
 Carnegie Mellon University). Gaussian is a federally registered
 trademark of Gaussian, Inc.
  
 This software contains proprietary and confidential information,
 including trade secrets, belonging to Gaussian, Inc.
  
 This software is provided under written license and may be
 used, copied, transmitted, or stored only in accord with that
 written license.
  
 The following legend is applicable only to US Government
 contracts under FAR:
  
                    RESTRICTED RIGHTS LEGEND
  
 Use, reproduction and disclosure by the US Government is
 subject to restrictions as set forth in subparagraphs (a)
 and (c) of the Commercial Computer Software - Restricted
 Rights clause in FAR 52.227-19.
  
 Gaussian, Inc.
 340 Quinnipiac St., Bldg. 40, Wallingford CT 06492
  
  
 ---------------------------------------------------------------
 Warning -- This program may not be used in any manner that
 competes with the business of Gaussian, Inc. or will provide
 assistance to any competitor of Gaussian, Inc.  The licensee
 of this program is prohibited from giving any competitor of
 Gaussian, Inc. access to this program.  By using this program,
 the user acknowledges that Gaussian, Inc. is engaged in the
 business of creating and licensing software in the field of
 computational chemistry and represents and warrants to the
 licensee that it is not a competitor of Gaussian, Inc. and that
 it will not use this program in any manner prohibited above.
 ---------------------------------------------------------------
  

 Cite this work as:
 Gaussian 16, Revision B.01,
 M. J. Frisch, G. W. Trucks, H. B. Schlegel, G. E. Scuseria, 
 M. A. Robb, J. R. Cheeseman, G. Scalmani, V. Barone, 
 G. A. Petersson, H. Nakatsuji, X. Li, M. Caricato, A. V. Marenich, 
 J. Bloino, B. G. Janesko, R. Gomperts, B. Mennucci, H. P. Hratchian, 
 J. V. Ortiz, A. F. Izmaylov, J. L. Sonnenberg, D. Williams-Young, 
 F. Ding, F. Lipparini, F. Egidi, J. Goings, B. Peng, A. Petrone, 
 T. Henderson, D. Ranasinghe, V. G. Zakrzewski, J. Gao, N. Rega, 
 G. Zheng, W. Liang, M. Hada, M. Ehara, K. Toyota, R. Fukuda, 
 J. Hasegawa, M. Ishida, T. Nakajima, Y. Honda, O. Kitao, H. Nakai, 
 T. Vreven, K. Throssell, J. A. Montgomery, Jr., J. E. Peralta, 
 F. Ogliaro, M. J. Bearpark, J. J. Heyd, E. N. Brothers, K. N. Kudin, 
 V. N. Staroverov, T. A. Keith, R. Kobayashi, J. Normand, 
 K. Raghavachari, A. P. Rendell, J. C. Burant, S. S. Iyengar, 
 J. Tomasi, M. Cossi, J. M. Millam, M. Klene, C. Adamo, R. Cammi, 
 J. W. Ochterski, R. L. Martin, K. Morokuma, O. Farkas, 
 J. B. Foresman, and D. J. Fox, Gaussian, Inc., Wallingford CT, 2016.
 
 ******************************************
 Gaussian 16:  ES64L-G16RevB.01 20-Dec-2017
                20-Sep-2025 
 ******************************************
 %nprocs=16
 Will use up to   16 processors via shared memory.
 %mem=40GB
 %chk=LFRE0130.chk
 ----------------------------------------------------------------------
 # opt freq=noraman M08HX/6-311++G** scf=xqc Empiricaldispersion=pfd In
 t(Grid=ultraFine)
 ----------------------------------------------------------------------
 1/18=20,19=15,26=4,38=1/1,3;
 2/9=110,12=2,17=6,18=5,40=1/2;
 3/5=4,6=6,7=1111,11=2,25=1,30=1,71=1,74=-74,75=-5,124=11/1,2,3;
 4//1;
 5/5=2,8=3,13=1,38=5/2,8;
 6/7=2,8=2,9=2,10=2,28=1/1;
 7//1,2,3,16;
 1/18=20,19=15,26=4/3(2);
 2/9=110/2;
 99//99;
 2/9=110/2;
 3/5=4,6=6,7=1111,11=2,25=1,30=1,71=1,74=-74,75=-5,124=11/1,2,3;
 4/5=5,16=3,69=1/1;
 5/5=2,8=3,13=1,38=5/2,8;
 7//1,2,3,16;
 1/18=20,19=15,26=4/3(-5);
 2/9=110/2;
 6/7=2,8=2,9=2,10=2,19=2,28=1/1;
 99/9=1/99;
 --------
 LFRE0130
 --------
 Symbolic Z-matrix:
 Charge =  0 Multiplicity = 1
 O                    -0.3525    0.2542   -1.6154 
 O                    -2.1386   -0.0796    1.5676 
 O                     0.4023   -1.9834    0.0179 
 O                    -4.2702    0.3722   -0.1182 
 O                     2.7776   -0.9899   -0.5445 
 O                     3.8426    1.3476    0.1652 
 C                    -0.496     0.2266   -0.1983 
 C                    -1.9439   -0.1603    0.1559 
 C                     0.6018   -0.6394    0.4383 
 C                    -2.9599    0.7654   -0.5139 
 C                     2.0368   -0.2423    0.0959 
 C                     2.5       1.129     0.5493 
 H                    -0.3283    1.253     0.153 
 H                    -2.1557   -1.1926   -0.1441 
 H                     0.5147   -0.6286    1.5301 
 H                    -2.8156    1.8033   -0.1962 
 H                    -2.9066    0.7071   -1.6046 
 H                    -0.7707    1.0681   -1.9432 
 H                     1.8863    1.8976    0.0748 
 H                     2.4189    1.2067    1.6368 
 H                    -1.9475    0.8331    1.8438 
 H                     0.4135   -1.9951   -0.9546 
 H                    -4.8931    0.9793   -0.5529 
 H                     4.3936    0.7141    0.6561 
 

 GradGradGradGradGradGradGradGradGradGradGradGradGradGradGradGradGradGrad
 Berny optimization.
 Initialization pass.
                           ----------------------------
                           !    Initial Parameters    !
                           ! (Angstroms and Degrees)  !
 --------------------------                            --------------------------
 ! Name  Definition              Value          Derivative Info.                !
 --------------------------------------------------------------------------------
 ! R1    R(1,7)                  1.4246         estimate D2E/DX2                !
 ! R2    R(1,18)                 0.972          estimate D2E/DX2                !
 ! R3    R(2,8)                  1.4273         estimate D2E/DX2                !
 ! R4    R(2,21)                 0.9725         estimate D2E/DX2                !
 ! R5    R(3,9)                  1.4223         estimate D2E/DX2                !
 ! R6    R(3,22)                 0.9726         estimate D2E/DX2                !
 ! R7    R(4,10)                 1.4241         estimate D2E/DX2                !
 ! R8    R(4,23)                 0.9724         estimate D2E/DX2                !
 ! R9    R(5,11)                 1.232          estimate D2E/DX2                !
 ! R10   R(6,12)                 1.4135         estimate D2E/DX2                !
 ! R11   R(6,24)                 0.9726         estimate D2E/DX2                !
 ! R12   R(7,8)                  1.54           estimate D2E/DX2                !
 ! R13   R(7,9)                  1.5364         estimate D2E/DX2                !
 ! R14   R(7,13)                 1.0977         estimate D2E/DX2                !
 ! R15   R(8,10)                 1.529          estimate D2E/DX2                !
 ! R16   R(8,14)                 1.0957         estimate D2E/DX2                !
 ! R17   R(9,11)                 1.5278         estimate D2E/DX2                !
 ! R18   R(9,15)                 1.0953         estimate D2E/DX2                !
 ! R19   R(10,16)                1.095          estimate D2E/DX2                !
 ! R20   R(10,17)                1.0936         estimate D2E/DX2                !
 ! R21   R(11,12)                1.5168         estimate D2E/DX2                !
 ! R22   R(12,19)                1.092          estimate D2E/DX2                !
 ! R23   R(12,20)                1.0933         estimate D2E/DX2                !
 ! A1    A(7,1,18)             107.9598         estimate D2E/DX2                !
 ! A2    A(8,2,21)             107.8871         estimate D2E/DX2                !
 ! A3    A(9,3,22)             107.7758         estimate D2E/DX2                !
 ! A4    A(10,4,23)            107.0256         estimate D2E/DX2                !
 ! A5    A(12,6,24)            107.4717         estimate D2E/DX2                !
 ! A6    A(1,7,8)              109.1694         estimate D2E/DX2                !
 ! A7    A(1,7,9)              110.5556         estimate D2E/DX2                !
 ! A8    A(1,7,13)             106.5487         estimate D2E/DX2                !
 ! A9    A(8,7,9)              115.7791         estimate D2E/DX2                !
 ! A10   A(8,7,13)             107.7543         estimate D2E/DX2                !
 ! A11   A(9,7,13)             106.5754         estimate D2E/DX2                !
 ! A12   A(2,8,7)              109.9699         estimate D2E/DX2                !
 ! A13   A(2,8,10)             107.9625         estimate D2E/DX2                !
 ! A14   A(2,8,14)             107.3197         estimate D2E/DX2                !
 ! A15   A(7,8,10)             111.8324         estimate D2E/DX2                !
 ! A16   A(7,8,14)             110.8226         estimate D2E/DX2                !
 ! A17   A(10,8,14)            108.7851         estimate D2E/DX2                !
 ! A18   A(3,9,7)              108.0559         estimate D2E/DX2                !
 ! A19   A(3,9,11)             108.1266         estimate D2E/DX2                !
 ! A20   A(3,9,15)             107.0254         estimate D2E/DX2                !
 ! A21   A(7,9,11)             115.5805         estimate D2E/DX2                !
 ! A22   A(7,9,15)             110.5269         estimate D2E/DX2                !
 ! A23   A(11,9,15)            107.1888         estimate D2E/DX2                !
 ! A24   A(4,10,8)             108.8146         estimate D2E/DX2                !
 ! A25   A(4,10,16)            107.5984         estimate D2E/DX2                !
 ! A26   A(4,10,17)            107.8941         estimate D2E/DX2                !
 ! A27   A(8,10,16)            111.0511         estimate D2E/DX2                !
 ! A28   A(8,10,17)            111.855          estimate D2E/DX2                !
 ! A29   A(16,10,17)           109.4809         estimate D2E/DX2                !
 ! A30   A(5,11,9)             121.571          estimate D2E/DX2                !
 ! A31   A(5,11,12)            121.3576         estimate D2E/DX2                !
 ! A32   A(9,11,12)            117.0543         estimate D2E/DX2                !
 ! A33   A(6,12,11)            110.4058         estimate D2E/DX2                !
 ! A34   A(6,12,19)            107.8713         estimate D2E/DX2                !
 ! A35   A(6,12,20)            109.2551         estimate D2E/DX2                !
 ! A36   A(11,12,19)           109.5615         estimate D2E/DX2                !
 ! A37   A(11,12,20)           109.8125         estimate D2E/DX2                !
 ! A38   A(19,12,20)           109.9076         estimate D2E/DX2                !
 ! D1    D(18,1,7,8)            75.9699         estimate D2E/DX2                !
 ! D2    D(18,1,7,9)          -155.5603         estimate D2E/DX2                !
 ! D3    D(18,1,7,13)          -40.1394         estimate D2E/DX2                !
 ! D4    D(21,2,8,7)            59.0426         estimate D2E/DX2                !
 ! D5    D(21,2,8,10)          -63.2175         estimate D2E/DX2                !
 ! D6    D(21,2,8,14)          179.6728         estimate D2E/DX2                !
 ! D7    D(22,3,9,7)            56.9382         estimate D2E/DX2                !
 ! D8    D(22,3,9,11)          -68.835          estimate D2E/DX2                !
 ! D9    D(22,3,9,15)          175.9859         estimate D2E/DX2                !
 ! D10   D(23,4,10,8)          179.6459         estimate D2E/DX2                !
 ! D11   D(23,4,10,16)          59.2363         estimate D2E/DX2                !
 ! D12   D(23,4,10,17)         -58.8022         estimate D2E/DX2                !
 ! D13   D(24,6,12,11)         -65.5744         estimate D2E/DX2                !
 ! D14   D(24,6,12,19)         174.7362         estimate D2E/DX2                !
 ! D15   D(24,6,12,20)          55.2905         estimate D2E/DX2                !
 ! D16   D(1,7,8,2)           -174.9571         estimate D2E/DX2                !
 ! D17   D(1,7,8,10)           -55.0197         estimate D2E/DX2                !
 ! D18   D(1,7,8,14)            66.5481         estimate D2E/DX2                !
 ! D19   D(9,7,8,2)             59.5423         estimate D2E/DX2                !
 ! D20   D(9,7,8,10)           179.4798         estimate D2E/DX2                !
 ! D21   D(9,7,8,14)           -58.9524         estimate D2E/DX2                !
 ! D22   D(13,7,8,2)           -59.6202         estimate D2E/DX2                !
 ! D23   D(13,7,8,10)           60.3172         estimate D2E/DX2                !
 ! D24   D(13,7,8,14)         -178.115          estimate D2E/DX2                !
 ! D25   D(1,7,9,3)            -65.4119         estimate D2E/DX2                !
 ! D26   D(1,7,9,11)            55.8431         estimate D2E/DX2                !
 ! D27   D(1,7,9,15)           177.7866         estimate D2E/DX2                !
 ! D28   D(8,7,9,3)             59.3772         estimate D2E/DX2                !
 ! D29   D(8,7,9,11)          -179.3678         estimate D2E/DX2                !
 ! D30   D(8,7,9,15)           -57.4242         estimate D2E/DX2                !
 ! D31   D(13,7,9,3)           179.1838         estimate D2E/DX2                !
 ! D32   D(13,7,9,11)          -59.5611         estimate D2E/DX2                !
 ! D33   D(13,7,9,15)           62.3824         estimate D2E/DX2                !
 ! D34   D(2,8,10,4)           -57.4723         estimate D2E/DX2                !
 ! D35   D(2,8,10,16)           60.7821         estimate D2E/DX2                !
 ! D36   D(2,8,10,17)         -176.5761         estimate D2E/DX2                !
 ! D37   D(7,8,10,4)          -178.5799         estimate D2E/DX2                !
 ! D38   D(7,8,10,16)          -60.3256         estimate D2E/DX2                !
 ! D39   D(7,8,10,17)           62.3162         estimate D2E/DX2                !
 ! D40   D(14,8,10,4)           58.6849         estimate D2E/DX2                !
 ! D41   D(14,8,10,16)         176.9393         estimate D2E/DX2                !
 ! D42   D(14,8,10,17)         -60.4189         estimate D2E/DX2                !
 ! D43   D(3,9,11,5)             5.7645         estimate D2E/DX2                !
 ! D44   D(3,9,11,12)         -175.7224         estimate D2E/DX2                !
 ! D45   D(7,9,11,5)          -115.4525         estimate D2E/DX2                !
 ! D46   D(7,9,11,12)           63.0607         estimate D2E/DX2                !
 ! D47   D(15,9,11,5)          120.8363         estimate D2E/DX2                !
 ! D48   D(15,9,11,12)         -60.6505         estimate D2E/DX2                !
 ! D49   D(5,11,12,6)           -1.6939         estimate D2E/DX2                !
 ! D50   D(5,11,12,19)         116.9698         estimate D2E/DX2                !
 ! D51   D(5,11,12,20)        -122.2257         estimate D2E/DX2                !
 ! D52   D(9,11,12,6)          179.7896         estimate D2E/DX2                !
 ! D53   D(9,11,12,19)         -61.5467         estimate D2E/DX2                !
 ! D54   D(9,11,12,20)          59.2578         estimate D2E/DX2                !
 --------------------------------------------------------------------------------
 Trust Radius=3.00D-01 FncErr=1.00D-07 GrdErr=1.00D-06 EigMax=2.50D+02 EigMin=1.00D-04
 Number of steps in this run=    125 maximum allowed number of steps=    144.
 GradGradGradGradGradGradGradGradGradGradGradGradGradGradGradGradGradGrad

                          Input orientation:                          
 ---------------------------------------------------------------------
 Center     Atomic      Atomic             Coordinates (Angstroms)
 Number     Number       Type             X           Y           Z
 ---------------------------------------------------------------------
      1          8           0       -0.352500    0.254200   -1.615400
      2          8           0       -2.138600   -0.079600    1.567600
      3          8           0        0.402300   -1.983400    0.017900
      4          8           0       -4.270200    0.372200   -0.118200
      5          8           0        2.777600   -0.989900   -0.544500
      6          8           0        3.842600    1.347600    0.165200
      7          6           0       -0.496000    0.226600   -0.198300
      8          6           0       -1.943900   -0.160300    0.155900
      9          6           0        0.601800   -0.639400    0.438300
     10          6           0       -2.959900    0.765400   -0.513900
     11          6           0        2.036800   -0.242300    0.095900
     12          6           0        2.500000    1.129000    0.549300
     13          1           0       -0.328300    1.253000    0.153000
     14          1           0       -2.155700   -1.192600   -0.144100
     15          1           0        0.514700   -0.628600    1.530100
     16          1           0       -2.815600    1.803300   -0.196200
     17          1           0       -2.906600    0.707100   -1.604600
     18          1           0       -0.770700    1.068100   -1.943200
     19          1           0        1.886300    1.897600    0.074800
     20          1           0        2.418900    1.206700    1.636800
     21          1           0       -1.947500    0.833100    1.843800
     22          1           0        0.413500   -1.995100   -0.954600
     23          1           0       -4.893100    0.979300   -0.552900
     24          1           0        4.393600    0.714100    0.656100
 ---------------------------------------------------------------------
                    Distance matrix (angstroms):
                    1          2          3          4          5
     1  O    0.000000
     2  O    3.665115   0.000000
     3  O    2.871279   3.533015   0.000000
     4  O    4.195701   2.754953   5.234466   0.000000
     5  O    3.534422   5.427581   2.635410   7.190865   0.000000
     6  O    4.686675   6.307010   4.790921   8.176139   2.664921
     7  C    1.424614   2.431110   2.395367   3.777857   3.509442
     8  C    2.416996   1.427346   2.974457   2.402157   4.844725
     9  C    2.434521   3.016370   1.422277   5.006936   2.413059
    10  C    2.876311   2.391903   4.375283   1.424104   6.000077
    11  C    2.980573   4.430162   2.389373   6.340481   1.231991
    12  C    3.686185   4.900435   3.790747   6.844992   2.400666
    13  H    2.031114   2.655956   3.320589   4.048201   3.894062
    14  H    2.740344   2.041808   2.682345   2.630662   4.953671
    15  H    3.380169   2.709762   2.033437   5.158853   3.091152
    16  H    3.237391   2.667327   4.973914   2.042056   6.261563
    17  H    2.593966   3.357316   4.562906   2.044737   6.026089
    18  H    0.971997   3.938792   3.812282   4.007668   4.333839
    19  H    3.251118   4.726266   4.155437   6.345596   3.084737
    20  H    4.377753   4.736049   4.106611   6.965664   3.116374
    21  H    3.852949   0.972536   4.097334   3.075192   5.599453
    22  H    2.466326   4.067413   0.972635   5.314200   2.601457
    23  H    4.719293   3.633877   6.094642   0.972388   7.919435
    24  H    5.281731   6.643074   4.859453   8.705048   2.637520
                    6          7          8          9         10
     6  O    0.000000
     7  C    4.495801   0.000000
     8  C    5.979752   1.539988   0.000000
     9  C    3.811238   1.536353   2.605739   0.000000
    10  C    6.861060   2.541793   1.528989   3.945359   0.000000
    11  C    2.406969   2.592585   3.981997   1.527793   5.133646
    12  C    1.413469   3.217025   4.643846   2.596675   5.574326
    13  H    4.171991   1.097739   2.146529   2.127830   2.758229
    14  H    6.521341   2.184415   1.095674   2.872112   2.148780
    15  H    4.104051   2.177211   2.855249   1.095322   4.265445
    16  H    6.683554   2.804734   2.177053   4.248293   1.094985
    17  H    7.006721   2.831881   2.185986   4.277309   1.093557
    18  H    5.079961   1.956594   2.700294   3.235870   2.631943
    19  H    2.034154   2.922700   4.348789   2.866782   5.011397
    20  H    2.052409   3.581177   4.805807   2.854179   5.809625
    21  H    6.050427   2.577764   1.958536   3.262302   2.566766
    22  H    4.917959   2.516969   3.187011   1.952831   4.381142
    23  H    8.772900   4.475130   3.240195   5.813484   1.945389
    24  H    0.972577   4.987569   6.417062   4.032015   7.446173
                   11         12         13         14         15
    11  C    0.000000
    12  C    1.516769   0.000000
    13  H    2.798728   2.858620   0.000000
    14  H    4.305546   5.248445   3.067347   0.000000
    15  H    2.126722   2.827109   2.479410   3.201887   0.000000
    16  H    5.274048   5.409811   2.571271   3.068159   4.470475
    17  H    5.313216   5.835119   3.167775   2.511129   4.828637
    18  H    3.709061   4.112632   2.150340   3.204021   4.073679
    19  H    2.145290   1.092027   2.307830   5.092643   3.221936
    20  H    2.149413   1.093284   3.122645   5.463992   2.646826
    21  H    4.481773   4.641502   2.378430   2.845796   2.880521
    22  H    2.609782   4.046628   3.511011   2.810997   2.837481
    23  H    7.066595   7.476308   4.627160   3.518185   6.014028
    24  H    2.604425   1.941461   4.779107   6.867980   4.196735
                   16         17         18         19         20
    16  H    0.000000
    17  H    1.787044   0.000000
    18  H    2.788215   2.192496   0.000000
    19  H    4.710647   5.216279   3.438029   0.000000
    20  H    5.578155   6.254376   4.796786   1.789092   0.000000
    21  H    2.420018   3.581510   3.972588   4.354371   4.387240
    22  H    5.042827   4.329832   3.429702   4.287414   4.581321
    23  H    2.263232   2.264144   4.351437   6.870047   7.636219
    24  H    7.340663   7.642234   5.792380   2.832867   2.259174
                   21         22         23         24
    21  H    0.000000
    22  H    4.626454   0.000000
    23  H    3.800277   6.096591   0.000000
    24  H    6.452468   5.076940   9.368821   0.000000
 Stoichiometry    C6H12O6
 Framework group  C1[X(C6H12O6)]
 Deg. of freedom    66
 Full point group                 C1      NOp   1
 Largest Abelian subgroup         C1      NOp   1
 Largest concise Abelian subgroup C1      NOp   1
                         Standard orientation:                         
 ---------------------------------------------------------------------
 Center     Atomic      Atomic             Coordinates (Angstroms)
 Number     Number       Type             X           Y           Z
 ---------------------------------------------------------------------
      1          8           0       -0.316830   -0.095468    1.615692
      2          8           0       -2.056932    0.030088   -1.607559
      3          8           0        0.474702    2.021239   -0.155544
      4          8           0       -4.214313   -0.293861    0.074858
      5          8           0        2.835614    1.055407    0.506762
      6          8           0        3.895154   -1.330904   -0.026812
      7          6           0       -0.440706   -0.163878    0.198123
      8          6           0       -1.881089    0.205893   -0.202038
      9          6           0        0.671279    0.650600   -0.480475
     10          6           0       -2.912123   -0.666328    0.514905
     11          6           0        2.098860    0.269919   -0.091573
     12          6           0        2.559383   -1.131658   -0.443840
     13          1           0       -0.274825   -1.212770   -0.079979
     14          1           0       -2.090323    1.257412    0.023863
     15          1           0        0.599089    0.565776   -1.570119
     16          1           0       -2.770175   -1.724271    0.270776
     17          1           0       -2.873408   -0.534005    1.599736
     18          1           0       -0.744723   -0.882783    1.992282
     19          1           0        1.934293   -1.862690    0.073246
     20          1           0        2.492702   -1.282964   -1.524548
     21          1           0       -1.867950   -0.900373   -1.818164
     22          1           0        0.472642    2.099234    0.813956
     23          1           0       -4.847015   -0.866439    0.541100
     24          1           0        4.456905   -0.735429   -0.551933
 ---------------------------------------------------------------------
 Rotational constants (GHZ):           1.8547000           0.4198997           0.4042589
 Standard basis: 6-311++G(d,p) (5D, 7F)
 There are   360 symmetry adapted cartesian basis functions of A   symmetry.
 There are   348 symmetry adapted basis functions of A   symmetry.
   348 basis functions,   540 primitive gaussians,   360 cartesian basis functions
    48 alpha electrons       48 beta electrons
       nuclear repulsion energy       777.6352387993 Hartrees.
 NAtoms=   24 NActive=   24 NUniq=   24 SFac= 1.00D+00 NAtFMM=   60 NAOKFM=F Big=F
 Integral buffers will be    131072 words long.
 Raffenetti 2 integral format.
 Two-electron integral symmetry is turned on.
 R6APFD:  NTU= -4 IXU= 1 FactS= 1.050
 Nuclear repulsion after empirical dispersion term =      777.6140185087 Hartrees.
 One-electron integrals computed using PRISM.
 NBasis=   348 RedAO= T EigKep=  4.09D-06  NBF=   348
 NBsUse=   348 1.00D-06 EigRej= -1.00D+00 NBFU=   348
 ExpMin= 3.60D-02 ExpMax= 8.59D+03 ExpMxC= 1.30D+03 IAcc=3 IRadAn=         5 AccDes= 0.00D+00
 Harris functional with IExCor= 1009 and IRadAn=       5 diagonalized for initial guess.
 HarFok:  IExCor= 1009 AccDes= 0.00D+00 IRadAn=         5 IDoV= 1 UseB2=F ITyADJ=14
 ICtDFT=  3500011 ScaDFX=  1.000000  1.000000  1.000000  1.000000
 FoFCou: FMM=F IPFlag=           0 FMFlag=      100000 FMFlg1=           0
         NFxFlg=           0 DoJE=T BraDBF=F KetDBF=T FulRan=T
         wScrn=  0.000000 ICntrl=       500 IOpCl=  0 I1Cent=   200000004 NGrid=           0
         NMat0=    1 NMatS0=      1 NMatT0=    0 NMatD0=    1 NMtDS0=    0 NMtDT0=    0
 Petite list used in FoFCou.
 Requested convergence on RMS density matrix=1.00D-08 within  32 cycles.
 Requested convergence on MAX density matrix=1.00D-06.
 Requested convergence on             energy=1.00D-06.
 No special actions if energy rises.
 SCF Done:  E(RM08HX) =  -687.142385318     A.U. after   15 cycles
            NFock= 15  Conv=0.82D-08     -V/T= 2.0040
 QCSCF skips out because SCF is already converged.

 **********************************************************************

            Population analysis using the SCF Density.

 **********************************************************************

 Orbital symmetries:
       Occupied  (A) (A) (A) (A) (A) (A) (A) (A) (A) (A) (A) (A)
                 (A) (A) (A) (A) (A) (A) (A) (A) (A) (A) (A) (A)
                 (A) (A) (A) (A) (A) (A) (A) (A) (A) (A) (A) (A)
                 (A) (A) (A) (A) (A) (A) (A) (A) (A) (A) (A) (A)
       Virtual   (A) (A) (A) (A) (A) (A) (A) (A) (A) (A) (A) (A)
                 (A) (A) (A) (A) (A) (A) (A) (A) (A) (A) (A) (A)
                 (A) (A) (A) (A) (A) (A) (A) (A) (A) (A) (A) (A)
                 (A) (A) (A) (A) (A) (A) (A) (A) (A) (A) (A) (A)
                 (A) (A) (A) (A) (A) (A) (A) (A) (A) (A) (A) (A)
                 (A) (A) (A) (A) (A) (A) (A) (A) (A) (A) (A) (A)
                 (A) (A) (A) (A) (A) (A) (A) (A) (A) (A) (A) (A)
                 (A) (A) (A) (A) (A) (A) (A) (A) (A) (A) (A) (A)
                 (A) (A) (A) (A) (A) (A) (A) (A) (A) (A) (A) (A)
                 (A) (A) (A) (A) (A) (A) (A) (A) (A) (A) (A) (A)
                 (A) (A) (A) (A) (A) (A) (A) (A) (A) (A) (A) (A)
                 (A) (A) (A) (A) (A) (A) (A) (A) (A) (A) (A) (A)
                 (A) (A) (A) (A) (A) (A) (A) (A) (A) (A) (A) (A)
                 (A) (A) (A) (A) (A) (A) (A) (A) (A) (A) (A) (A)
                 (A) (A) (A) (A) (A) (A) (A) (A) (A) (A) (A) (A)
                 (A) (A) (A) (A) (A) (A) (A) (A) (A) (A) (A) (A)
                 (A) (A) (A) (A) (A) (A) (A) (A) (A) (A) (A) (A)
                 (A) (A) (A) (A) (A) (A) (A) (A) (A) (A) (A) (A)
                 (A) (A) (A) (A) (A) (A) (A) (A) (A) (A) (A) (A)
                 (A) (A) (A) (A) (A) (A) (A) (A) (A) (A) (A) (A)
                 (A) (A) (A) (A) (A) (A) (A) (A) (A) (A) (A) (A)
                 (A) (A) (A) (A) (A) (A) (A) (A) (A) (A) (A) (A)
                 (A) (A) (A) (A) (A) (A) (A) (A) (A) (A) (A) (A)
                 (A) (A) (A) (A) (A) (A) (A) (A) (A) (A) (A) (A)
                 (A) (A) (A) (A) (A) (A) (A) (A) (A) (A) (A) (A)
 The electronic state is 1-A.
 Alpha  occ. eigenvalues --  -19.64771 -19.62716 -19.62696 -19.62389 -19.62286
 Alpha  occ. eigenvalues --  -19.61559 -10.63938 -10.62296 -10.61320 -10.60613
 Alpha  occ. eigenvalues --  -10.60591 -10.60207  -1.19562  -1.18354  -1.16942
 Alpha  occ. eigenvalues --   -1.15495  -1.14830  -1.13846  -0.90630  -0.87226
 Alpha  occ. eigenvalues --   -0.82629  -0.76632  -0.71667  -0.66644  -0.65382
 Alpha  occ. eigenvalues --   -0.62117  -0.61082  -0.59772  -0.59467  -0.58121
 Alpha  occ. eigenvalues --   -0.56255  -0.55018  -0.53963  -0.52370  -0.50560
 Alpha  occ. eigenvalues --   -0.50138  -0.47618  -0.45886  -0.45258  -0.44168
 Alpha  occ. eigenvalues --   -0.43034  -0.42216  -0.39655  -0.38624  -0.37911
 Alpha  occ. eigenvalues --   -0.37255  -0.36495  -0.33725
 Alpha virt. eigenvalues --   -0.05444  -0.03661  -0.03220  -0.02654  -0.01287
 Alpha virt. eigenvalues --   -0.00586   0.00244   0.00501   0.01275   0.01760
 Alpha virt. eigenvalues --    0.02620   0.03310   0.03791   0.04430   0.05516
 Alpha virt. eigenvalues --    0.06424   0.06648   0.07552   0.07822   0.08477
 Alpha virt. eigenvalues --    0.09058   0.09317   0.09375   0.09834   0.10864
 Alpha virt. eigenvalues --    0.11596   0.11765   0.12074   0.12547   0.13289
 Alpha virt. eigenvalues --    0.13450   0.14575   0.15184   0.15539   0.16195
 Alpha virt. eigenvalues --    0.16703   0.16955   0.18034   0.18169   0.18802
 Alpha virt. eigenvalues --    0.20288   0.20709   0.21129   0.21303   0.21896
 Alpha virt. eigenvalues --    0.22369   0.22931   0.23431   0.23943   0.24401
 Alpha virt. eigenvalues --    0.25034   0.25530   0.25768   0.27100   0.27743
 Alpha virt. eigenvalues --    0.28127   0.29107   0.29245   0.30059   0.30534
 Alpha virt. eigenvalues --    0.30874   0.31169   0.31475   0.31729   0.32714
 Alpha virt. eigenvalues --    0.33204   0.33665   0.34923   0.35465   0.36171
 Alpha virt. eigenvalues --    0.37020   0.37366   0.37780   0.38697   0.38819
 Alpha virt. eigenvalues --    0.39602   0.39879   0.41611   0.41696   0.42297
 Alpha virt. eigenvalues --    0.43637   0.43944   0.46613   0.48681   0.50820
 Alpha virt. eigenvalues --    0.51378   0.52118   0.53474   0.55100   0.55348
 Alpha virt. eigenvalues --    0.57191   0.57669   0.58898   0.60218   0.60513
 Alpha virt. eigenvalues --    0.61863   0.63628   0.63967   0.66173   0.67372
 Alpha virt. eigenvalues --    0.68102   0.69301   0.70254   0.71436   0.73285
 Alpha virt. eigenvalues --    0.73893   0.74796   0.76195   0.76873   0.77063
 Alpha virt. eigenvalues --    0.78838   0.81145   0.82533   0.86354   0.91398
 Alpha virt. eigenvalues --    0.94114   0.97068   0.99023   0.99525   1.01581
 Alpha virt. eigenvalues --    1.04239   1.06615   1.09525   1.12245   1.13458
 Alpha virt. eigenvalues --    1.13795   1.15590   1.16318   1.17570   1.19583
 Alpha virt. eigenvalues --    1.20727   1.22032   1.22636   1.24252   1.25182
 Alpha virt. eigenvalues --    1.26815   1.27931   1.28253   1.29940   1.31852
 Alpha virt. eigenvalues --    1.32625   1.33043   1.34408   1.36276   1.39886
 Alpha virt. eigenvalues --    1.40165   1.41881   1.43199   1.46331   1.47137
 Alpha virt. eigenvalues --    1.48062   1.50094   1.51496   1.52812   1.53830
 Alpha virt. eigenvalues --    1.55008   1.56594   1.58045   1.59634   1.60708
 Alpha virt. eigenvalues --    1.60940   1.61398   1.62981   1.64315   1.65744
 Alpha virt. eigenvalues --    1.66497   1.68480   1.69338   1.72788   1.73390
 Alpha virt. eigenvalues --    1.74587   1.75707   1.77959   1.79701   1.80644
 Alpha virt. eigenvalues --    1.82373   1.82945   1.84234   1.85193   1.87402
 Alpha virt. eigenvalues --    1.93695   1.96550   1.98834   2.00453   2.01660
 Alpha virt. eigenvalues --    2.03161   2.04516   2.05971   2.08711   2.09781
 Alpha virt. eigenvalues --    2.10735   2.13217   2.14466   2.15032   2.18014
 Alpha virt. eigenvalues --    2.21034   2.22688   2.23964   2.27293   2.30399
 Alpha virt. eigenvalues --    2.34951   2.36457   2.44506   2.46873   2.49576
 Alpha virt. eigenvalues --    2.50862   2.52973   2.55301   2.55546   2.57800
 Alpha virt. eigenvalues --    2.58820   2.62097   2.63498   2.65503   2.67272
 Alpha virt. eigenvalues --    2.69839   2.74565   2.77700   2.79996   2.82852
 Alpha virt. eigenvalues --    2.86120   2.89653   2.92681   2.95042   2.97448
 Alpha virt. eigenvalues --    2.98432   2.99531   3.01771   3.03105   3.04064
 Alpha virt. eigenvalues --    3.06961   3.11943   3.12149   3.14441   3.18699
 Alpha virt. eigenvalues --    3.19475   3.20073   3.22245   3.22453   3.23039
 Alpha virt. eigenvalues --    3.25796   3.27856   3.30560   3.31983   3.33035
 Alpha virt. eigenvalues --    3.36227   3.39075   3.41150   3.44645   3.50476
 Alpha virt. eigenvalues --    3.55357   3.58281   3.74068   3.78251   3.82690
 Alpha virt. eigenvalues --    3.84488   3.87575   3.90823   3.92088   3.92817
 Alpha virt. eigenvalues --    3.97740   4.04071   4.05297   4.06247   4.08121
 Alpha virt. eigenvalues --    4.19940   4.24576   4.24967   4.29491   4.40222
 Alpha virt. eigenvalues --    5.16690   5.17303   5.19265   5.22683   5.25093
 Alpha virt. eigenvalues --    5.30557   5.37603   5.49836   5.50993   5.52017
 Alpha virt. eigenvalues --    5.52332   5.55475   5.67261   5.68544   5.73133
 Alpha virt. eigenvalues --    5.75212   5.76423   5.86332  23.80011  23.83758
 Alpha virt. eigenvalues --   23.85081  23.87350  23.88558  23.91166  49.91796
 Alpha virt. eigenvalues --   49.92368  49.93349  49.95437  49.96809  49.99132
          Condensed to atoms (all electrons):
               1          2          3          4          5          6
     1  O    8.004645   0.019121  -0.026066  -0.000913   0.006372  -0.000302
     2  O    0.019121   7.895310  -0.011198   0.006269   0.000521   0.000008
     3  O   -0.026066  -0.011198   7.795197  -0.000426   0.018429  -0.000852
     4  O   -0.000913   0.006269  -0.000426   8.022323   0.000007   0.000000
     5  O    0.006372   0.000521   0.018429   0.000007   7.746957   0.018777
     6  O   -0.000302   0.000008  -0.000852   0.000000   0.018777   7.804541
     7  C    0.184898   0.412535   0.047418   0.174110  -0.025138  -0.024290
     8  C   -0.186486  -0.125867  -0.164321  -0.244155   0.000088  -0.003356
     9  C    0.108654  -0.285461   0.295126  -0.014554  -0.136819   0.043343
    10  C    0.005659   0.043691  -0.039588   0.208686   0.006830  -0.000062
    11  C   -0.130551   0.029587  -0.034014   0.005757   0.721906  -0.036620
    12  C    0.007685  -0.018322   0.048926  -0.000757  -0.119115   0.258358
    13  H   -0.072284  -0.024939   0.028830   0.001322  -0.013678   0.001913
    14  H   -0.006187  -0.114436   0.034714  -0.022570  -0.001548  -0.000172
    15  H    0.031358   0.036349  -0.101815  -0.000985  -0.007609  -0.000808
    16  H   -0.018556  -0.026520   0.000477  -0.084530  -0.000011   0.000020
    17  H    0.039266   0.021308  -0.000940  -0.058487   0.000090  -0.000003
    18  H    0.216182   0.001454   0.006289  -0.000164   0.000207   0.000705
    19  H   -0.004037   0.005933  -0.002796   0.000501   0.002061  -0.099721
    20  H   -0.000309  -0.002308   0.002527  -0.000063   0.007182  -0.030708
    21  H    0.004238   0.251368   0.000534   0.012562   0.000610   0.000133
    22  H   -0.007344   0.004943   0.227982   0.000443  -0.003019   0.000007
    23  H    0.002056  -0.001837  -0.000277   0.199514   0.000016   0.000000
    24  H   -0.000485  -0.000109  -0.000005  -0.000002  -0.004908   0.268051
               7          8          9         10         11         12
     1  O    0.184898  -0.186486   0.108654   0.005659  -0.130551   0.007685
     2  O    0.412535  -0.125867  -0.285461   0.043691   0.029587  -0.018322
     3  O    0.047418  -0.164321   0.295126  -0.039588  -0.034014   0.048926
     4  O    0.174110  -0.244155  -0.014554   0.208686   0.005757  -0.000757
     5  O   -0.025138   0.000088  -0.136819   0.006830   0.721906  -0.119115
     6  O   -0.024290  -0.003356   0.043343  -0.000062  -0.036620   0.258358
     7  C   22.885350  -9.802712 -12.992741   2.489859   4.727657  -1.252253
     8  C   -9.802712  17.574626   4.526784  -3.842057  -2.386978   0.392230
     9  C  -12.992741   4.526784  25.453365  -1.625676  -9.741174   0.402272
    10  C    2.489859  -3.842057  -1.625676   8.855702   0.132895  -0.123533
    11  C    4.727657  -2.386978  -9.741174   0.132895  14.125162  -1.759783
    12  C   -1.252253   0.392230   0.402272  -0.123533  -1.759783   8.322952
    13  H   -0.491717   0.406587   0.124326  -0.207631   0.122506   0.107271
    14  H   -0.495821   1.031395   0.096610  -0.405691  -0.025623   0.021388
    15  H   -0.290723  -0.038623   0.782876   0.028963  -0.342522  -0.030988
    16  H    0.171065   0.139123  -0.017886   0.096064  -0.005645   0.003174
    17  H   -0.074818  -0.227966  -0.005658   0.574838   0.022366  -0.005087
    18  H    0.135095  -0.116730  -0.107044   0.048109   0.065321  -0.014421
    19  H    0.338047  -0.107736  -0.190653   0.025204  -0.021542   0.271924
    20  H   -0.117632   0.003342   0.143882  -0.006906   0.022021   0.295322
    21  H    0.137941  -0.094482  -0.087166   0.039173   0.033403  -0.010088
    22  H    0.141541  -0.009486  -0.140387   0.050960  -0.026573  -0.029011
    23  H    0.013332  -0.124628  -0.009078   0.146475  -0.000536  -0.000204
    24  H    0.008733   0.000187  -0.002334  -0.000769  -0.013315  -0.013316
              13         14         15         16         17         18
     1  O   -0.072284  -0.006187   0.031358  -0.018556   0.039266   0.216182
     2  O   -0.024939  -0.114436   0.036349  -0.026520   0.021308   0.001454
     3  O    0.028830   0.034714  -0.101815   0.000477  -0.000940   0.006289
     4  O    0.001322  -0.022570  -0.000985  -0.084530  -0.058487  -0.000164
     5  O   -0.013678  -0.001548  -0.007609  -0.000011   0.000090   0.000207
     6  O    0.001913  -0.000172  -0.000808   0.000020  -0.000003   0.000705
     7  C   -0.491717  -0.495821  -0.290723   0.171065  -0.074818   0.135095
     8  C    0.406587   1.031395  -0.038623   0.139123  -0.227966  -0.116730
     9  C    0.124326   0.096610   0.782876  -0.017886  -0.005658  -0.107044
    10  C   -0.207631  -0.405691   0.028963   0.096064   0.574838   0.048109
    11  C    0.122506  -0.025623  -0.342522  -0.005645   0.022366   0.065321
    12  C    0.107271   0.021388  -0.030988   0.003174  -0.005087  -0.014421
    13  H    0.990442   0.024695  -0.002154  -0.041029   0.021760  -0.033503
    14  H    0.024695   0.575307  -0.017392   0.050193  -0.082250  -0.001587
    15  H   -0.002154  -0.017392   0.584487  -0.002836   0.002877  -0.002414
    16  H   -0.041029   0.050193  -0.002836   0.801617  -0.238440  -0.005282
    17  H    0.021760  -0.082250   0.002877  -0.238440   0.783708   0.009253
    18  H   -0.033503  -0.001587  -0.002414  -0.005282   0.009253   0.501803
    19  H   -0.069958  -0.003240   0.011119  -0.000063   0.003649  -0.005802
    20  H   -0.008677  -0.000061  -0.017682   0.002083  -0.001312   0.001768
    21  H   -0.049740  -0.000840  -0.001065  -0.044676   0.017485   0.005247
    22  H   -0.007142  -0.013990   0.025793   0.000203  -0.000903   0.005954
    23  H   -0.000105  -0.002956   0.000449  -0.014075   0.003460   0.000612
    24  H   -0.001350   0.000163   0.000595   0.000008   0.000008  -0.000027
              19         20         21         22         23         24
     1  O   -0.004037  -0.000309   0.004238  -0.007344   0.002056  -0.000485
     2  O    0.005933  -0.002308   0.251368   0.004943  -0.001837  -0.000109
     3  O   -0.002796   0.002527   0.000534   0.227982  -0.000277  -0.000005
     4  O    0.000501  -0.000063   0.012562   0.000443   0.199514  -0.000002
     5  O    0.002061   0.007182   0.000610  -0.003019   0.000016  -0.004908
     6  O   -0.099721  -0.030708   0.000133   0.000007   0.000000   0.268051
     7  C    0.338047  -0.117632   0.137941   0.141541   0.013332   0.008733
     8  C   -0.107736   0.003342  -0.094482  -0.009486  -0.124628   0.000187
     9  C   -0.190653   0.143882  -0.087166  -0.140387  -0.009078  -0.002334
    10  C    0.025204  -0.006906   0.039173   0.050960   0.146475  -0.000769
    11  C   -0.021542   0.022021   0.033403  -0.026573  -0.000536  -0.013315
    12  C    0.271924   0.295322  -0.010088  -0.029011  -0.000204  -0.013316
    13  H   -0.069958  -0.008677  -0.049740  -0.007142  -0.000105  -0.001350
    14  H   -0.003240  -0.000061  -0.000840  -0.013990  -0.002956   0.000163
    15  H    0.011119  -0.017682  -0.001065   0.025793   0.000449   0.000595
    16  H   -0.000063   0.002083  -0.044676   0.000203  -0.014075   0.000008
    17  H    0.003649  -0.001312   0.017485  -0.000903   0.003460   0.000008
    18  H   -0.005802   0.001768   0.005247   0.005954   0.000612  -0.000027
    19  H    0.631960  -0.098006   0.007674  -0.002173   0.000206   0.030235
    20  H   -0.098006   0.600209  -0.002509  -0.000356  -0.000074  -0.028563
    21  H    0.007674  -0.002509   0.507671   0.000856   0.001541  -0.000004
    22  H   -0.002173  -0.000356   0.000856   0.451188   0.000017  -0.000940
    23  H    0.000206  -0.000074   0.001541   0.000017   0.519976  -0.000003
    24  H    0.030235  -0.028563  -0.000004  -0.000940  -0.000003   0.469212
 Mulliken charges:
               1
     1  O   -0.176614
     2  O   -0.117400
     3  O   -0.124150
     4  O   -0.203889
     5  O   -0.218210
     6  O   -0.198963
     7  C   -0.299735
     8  C   -0.598778
     9  C   -0.620606
    10  C   -0.501194
    11  C    0.516296
    12  C   -0.754624
    13  H    0.194255
    14  H    0.359897
    15  H    0.352749
    16  H    0.235522
    17  H    0.195797
    18  H    0.288974
    19  H    0.277214
    20  H    0.236831
    21  H    0.270135
    22  H    0.331437
    23  H    0.266121
    24  H    0.288937
 Sum of Mulliken charges =  -0.00000
 Mulliken charges with hydrogens summed into heavy atoms:
               1
     1  O    0.112359
     2  O    0.152734
     3  O    0.207287
     4  O    0.062232
     5  O   -0.218210
     6  O    0.089973
     7  C   -0.105481
     8  C   -0.238881
     9  C   -0.267857
    10  C   -0.069875
    11  C    0.516296
    12  C   -0.240579
 Electronic spatial extent (au):  <R**2>=           2803.2910
 Charge=              0.0000 electrons
 Dipole moment (field-independent basis, Debye):
    X=             -2.4341    Y=             -5.4153    Z=              0.1448  Tot=              5.9390
 Quadrupole moment (field-independent basis, Debye-Ang):
   XX=            -79.4910   YY=            -74.8035   ZZ=            -71.0050
   XY=              8.9393   XZ=            -19.0699   YZ=              2.1212
 Traceless Quadrupole moment (field-independent basis, Debye-Ang):
   XX=             -4.3912   YY=              0.2963   ZZ=              4.0948
   XY=              8.9393   XZ=            -19.0699   YZ=              2.1212
 Octapole moment (field-independent basis, Debye-Ang**2):
  XXX=            -32.0870  YYY=             -7.1821  ZZZ=              4.1715  XYY=            -31.2922
  XXY=            -25.0127  XXZ=              1.3355  XZZ=              3.1432  YZZ=             -9.7796
  YYZ=              8.8085  XYZ=              4.4046
 Hexadecapole moment (field-independent basis, Debye-Ang**3):
 XXXX=          -2457.3730 YYYY=           -482.7128 ZZZZ=           -329.0579 XXXY=            210.0534
 XXXZ=           -274.6601 YYYX=             22.6472 YYYZ=             19.1494 ZZZX=            -21.8834
 ZZZY=              1.5994 XXYY=           -553.8273 XXZZ=           -485.5145 YYZZ=           -117.1367
 XXYZ=             -8.8037 YYXZ=             -0.1731 ZZXY=             18.5795
 N-N= 7.776140185087D+02 E-N=-3.168313338698D+03  KE= 6.844019376062D+02
 R6APFD:  NTU= -4 IXU= 1 FactS= 1.050
 Calling FoFJK, ICntrl=      2127 FMM=F ISym2X=0 I1Cent= 0 IOpClX= 0 NMat=1 NMatS=1 NMatT=0.
 ***** Axes restored to original set *****
 -------------------------------------------------------------------
 Center     Atomic                   Forces (Hartrees/Bohr)
 Number     Number              X              Y              Z
 -------------------------------------------------------------------
      1        8           0.003663825    0.003824674   -0.003020949
      2        8           0.009602117    0.004638219   -0.001785326
      3        8          -0.005366439    0.005437930   -0.001533816
      4        8          -0.003263634    0.007903905   -0.006383896
      5        8          -0.031226090    0.030392353    0.030189927
      6        8           0.000614900   -0.000844178    0.010618099
      7        6          -0.000846593    0.021156670   -0.004680758
      8        6          -0.001991027    0.004085841    0.018815943
      9        6          -0.009711525   -0.033456677   -0.018629628
     10        6          -0.013801340   -0.006015971   -0.002354105
     11        6           0.020988637   -0.020970302   -0.036161649
     12        6           0.024311513   -0.006787456   -0.005008208
     13        1          -0.001833445    0.007432988    0.006891000
     14        1           0.001876393   -0.001512602    0.002174730
     15        1          -0.005779554    0.000609094    0.002428468
     16        1           0.008871430    0.006939274    0.001340322
     17        1           0.006121181    0.000164762   -0.005183297
     18        1           0.007920793   -0.013421082    0.002610648
     19        1          -0.002157637    0.002870478   -0.000407435
     20        1          -0.008640507    0.001886341    0.006143478
     21        1          -0.004483328   -0.010812902   -0.002779489
     22        1           0.004215395    0.000556760    0.010342199
     23        1           0.007360974   -0.010830663    0.007488153
     24        1          -0.006446039    0.006752541   -0.011114412
 -------------------------------------------------------------------
 Cartesian Forces:  Max     0.036161649 RMS     0.011888815

 GradGradGradGradGradGradGradGradGradGradGradGradGradGradGradGradGradGrad
 Berny optimization.
 FormGI is forming the generalized inverse of G from B-inverse, IUseBI=4.
 Internal  Forces:  Max     0.052912000 RMS     0.007887231
 Search for a local minimum.
 Step number   1 out of a maximum of  125
 All quantities printed in internal units (Hartrees-Bohrs-Radians)
 Mixed Optimization -- RFO/linear search
 Second derivative matrix not updated -- first step.
 ITU=  0
     Eigenvalues ---    0.00237   0.00285   0.00382   0.00398   0.00472
     Eigenvalues ---    0.00544   0.01330   0.01366   0.01373   0.01397
     Eigenvalues ---    0.01514   0.03724   0.04233   0.04396   0.04659
     Eigenvalues ---    0.04837   0.05246   0.05247   0.05579   0.06326
     Eigenvalues ---    0.07338   0.07408   0.07728   0.08499   0.11465
     Eigenvalues ---    0.11571   0.13692   0.13979   0.16000   0.16000
     Eigenvalues ---    0.16000   0.16000   0.16000   0.16560   0.17750
     Eigenvalues ---    0.18236   0.19671   0.19763   0.20197   0.22029
     Eigenvalues ---    0.22148   0.24991   0.25000   0.28520   0.28844
     Eigenvalues ---    0.29517   0.29628   0.30680   0.33933   0.34165
     Eigenvalues ---    0.34205   0.34243   0.34405   0.34436   0.34579
     Eigenvalues ---    0.41373   0.41773   0.41848   0.42119   0.43459
     Eigenvalues ---    0.52842   0.52854   0.52862   0.52892   0.52971
     Eigenvalues ---    0.90262
 RFO step:  Lambda=-2.50651187D-02 EMin= 2.36980286D-03
 Linear search not attempted -- first point.
 Iteration  1 RMS(Cart)=  0.09157557 RMS(Int)=  0.00345567
 Iteration  2 RMS(Cart)=  0.00543285 RMS(Int)=  0.00120931
 Iteration  3 RMS(Cart)=  0.00002328 RMS(Int)=  0.00120923
 Iteration  4 RMS(Cart)=  0.00000002 RMS(Int)=  0.00120923
 Variable       Old X    -DE/DX   Delta X   Delta X   Delta X     New X
                                 (Linear)    (Quad)   (Total)
    R1        2.69213   0.00139   0.00000   0.00314   0.00314   2.69527
    R2        1.83681  -0.01553   0.00000  -0.02799  -0.02799   1.80882
    R3        2.69729  -0.00556   0.00000  -0.01267  -0.01267   2.68462
    R4        1.83783  -0.01182   0.00000  -0.02134  -0.02134   1.81649
    R5        2.68771  -0.00811   0.00000  -0.01817  -0.01817   2.66955
    R6        1.83801  -0.01030   0.00000  -0.01861  -0.01861   1.81940
    R7        2.69117  -0.00265   0.00000  -0.00598  -0.00598   2.68518
    R8        1.83755  -0.01483   0.00000  -0.02676  -0.02676   1.81079
    R9        2.32813  -0.05291   0.00000  -0.05704  -0.05704   2.27109
   R10        2.67107  -0.00449   0.00000  -0.00976  -0.00976   2.66130
   R11        1.83790  -0.01366   0.00000  -0.02468  -0.02468   1.81323
   R12        2.91016  -0.00570   0.00000  -0.01838  -0.01838   2.89177
   R13        2.90329  -0.01152   0.00000  -0.03675  -0.03675   2.86653
   R14        2.07443   0.00887   0.00000   0.02435   0.02435   2.09878
   R15        2.88937  -0.00240   0.00000  -0.00749  -0.00749   2.88188
   R16        2.07052   0.00047   0.00000   0.00127   0.00127   2.07180
   R17        2.88711   0.00235   0.00000   0.00730   0.00730   2.89441
   R18        2.06986   0.00289   0.00000   0.00786   0.00786   2.07772
   R19        2.06922   0.00814   0.00000   0.02214   0.02214   2.09136
   R20        2.06652   0.00546   0.00000   0.01479   0.01479   2.08131
   R21        2.86628   0.00592   0.00000   0.01784   0.01784   2.88412
   R22        2.06363   0.00341   0.00000   0.00920   0.00920   2.07283
   R23        2.06601   0.00688   0.00000   0.01863   0.01863   2.08464
    A1        1.88425   0.00527   0.00000   0.02848   0.02848   1.91273
    A2        1.88299   0.00170   0.00000   0.00919   0.00919   1.89217
    A3        1.88104  -0.00199   0.00000  -0.01073  -0.01073   1.87031
    A4        1.86795   0.00507   0.00000   0.02741   0.02741   1.89536
    A5        1.87574   0.00394   0.00000   0.02128   0.02128   1.89702
    A6        1.90536   0.01858   0.00000   0.07103   0.06402   1.96938
    A7        1.92956  -0.01211   0.00000  -0.08271  -0.08151   1.84805
    A8        1.85963   0.00142   0.00000   0.05896   0.05839   1.91802
    A9        2.02073  -0.01479   0.00000  -0.08723  -0.08719   1.93354
   A10        1.88067  -0.00119   0.00000   0.00618   0.00491   1.88558
   A11        1.86009   0.00919   0.00000   0.04741   0.04879   1.90888
   A12        1.91934  -0.00106   0.00000  -0.00107  -0.00118   1.91816
   A13        1.88430   0.00787   0.00000   0.05222   0.05221   1.93651
   A14        1.87308  -0.00324   0.00000  -0.02586  -0.02634   1.84674
   A15        1.95184  -0.00531   0.00000  -0.01638  -0.01655   1.93529
   A16        1.93422   0.00051   0.00000  -0.01718  -0.01732   1.91690
   A17        1.89866   0.00150   0.00000   0.00968   0.00955   1.90821
   A18        1.88593   0.00956   0.00000   0.05100   0.05279   1.93872
   A19        1.88716   0.00836   0.00000   0.05535   0.05642   1.94358
   A20        1.86795  -0.00524   0.00000  -0.01460  -0.01499   1.85296
   A21        2.01726  -0.01949   0.00000  -0.08583  -0.08686   1.93040
   A22        1.92906  -0.00069   0.00000  -0.03551  -0.03599   1.89307
   A23        1.87080   0.00832   0.00000   0.03491   0.03172   1.90252
   A24        1.89917  -0.00758   0.00000  -0.02657  -0.02632   1.87285
   A25        1.87795   0.00773   0.00000   0.05395   0.05342   1.93137
   A26        1.88311   0.00612   0.00000   0.04086   0.04033   1.92343
   A27        1.93821  -0.00378   0.00000  -0.03345  -0.03353   1.90468
   A28        1.95224  -0.00205   0.00000  -0.02446  -0.02461   1.92763
   A29        1.91080   0.00021   0.00000  -0.00505  -0.00701   1.90379
   A30        2.12181  -0.00018   0.00000  -0.00032  -0.00070   2.12112
   A31        2.11809   0.00131   0.00000   0.00512   0.00474   2.12283
   A32        2.04298  -0.00110   0.00000  -0.00363  -0.00402   2.03897
   A33        1.92694   0.01162   0.00000   0.05475   0.05418   1.98112
   A34        1.88271  -0.00585   0.00000  -0.03115  -0.03066   1.85205
   A35        1.90686   0.00389   0.00000   0.04988   0.04942   1.95628
   A36        1.91221  -0.00156   0.00000  -0.01418  -0.01426   1.89795
   A37        1.91659  -0.00615   0.00000  -0.02535  -0.02715   1.88944
   A38        1.91825  -0.00191   0.00000  -0.03400  -0.03444   1.88381
    D1        1.32592   0.00799   0.00000   0.07441   0.07710   1.40303
    D2       -2.71504  -0.00621   0.00000  -0.04676  -0.04730  -2.76233
    D3       -0.70056  -0.00070   0.00000   0.00015  -0.00200  -0.70256
    D4        1.03049   0.00113   0.00000   0.04772   0.04779   1.07828
    D5       -1.10335   0.00330   0.00000   0.03536   0.03491  -1.06844
    D6        3.13588  -0.00083   0.00000   0.01060   0.01099  -3.13632
    D7        0.99376  -0.00219   0.00000   0.05803   0.05906   1.05282
    D8       -1.20140   0.01035   0.00000   0.09578   0.09421  -1.10719
    D9        3.07153  -0.00078   0.00000   0.03536   0.03590   3.10744
   D10        3.13541  -0.00012   0.00000   0.00510   0.00502   3.14044
   D11        1.03387   0.00423   0.00000   0.02894   0.03017   1.06404
   D12       -1.02629  -0.00340   0.00000  -0.01566  -0.01682  -1.04311
   D13       -1.14449   0.00228   0.00000   0.05104   0.04968  -1.09481
   D14        3.04972   0.00098   0.00000   0.05541   0.05525   3.10498
   D15        0.96500   0.00448   0.00000   0.08613   0.08764   1.05264
   D16       -3.05358  -0.01083   0.00000  -0.10352  -0.10469   3.12491
   D17       -0.96027  -0.00509   0.00000  -0.04918  -0.05056  -1.01084
   D18        1.16148  -0.00648   0.00000  -0.06022  -0.06140   1.10009
   D19        1.03921   0.00133   0.00000   0.01587   0.01710   1.05631
   D20        3.13251   0.00707   0.00000   0.07021   0.07123  -3.07944
   D21       -1.02891   0.00568   0.00000   0.05917   0.06040  -0.96851
   D22       -1.04057  -0.00015   0.00000   0.00616   0.00631  -1.03425
   D23        1.05273   0.00559   0.00000   0.06050   0.06044   1.11318
   D24       -3.10869   0.00420   0.00000   0.04947   0.04961  -3.05908
   D25       -1.14165  -0.00239   0.00000   0.03138   0.02900  -1.11266
   D26        0.97465   0.00260   0.00000   0.08412   0.08021   1.05485
   D27        3.10296  -0.00129   0.00000   0.03884   0.03748   3.14044
   D28        1.03633   0.00095   0.00000  -0.01102  -0.00820   1.02812
   D29       -3.13056   0.00594   0.00000   0.04172   0.04301  -3.08755
   D30       -1.00224   0.00206   0.00000  -0.00356   0.00028  -1.00196
   D31        3.12735  -0.00304   0.00000  -0.02274  -0.02267   3.10468
   D32       -1.03954   0.00195   0.00000   0.02999   0.02854  -1.01100
   D33        1.08878  -0.00194   0.00000  -0.01528  -0.01419   1.07459
   D34       -1.00308  -0.00050   0.00000   0.00568   0.00553  -0.99755
   D35        1.06085   0.00203   0.00000   0.03543   0.03510   1.09595
   D36       -3.08183  -0.00190   0.00000  -0.01275  -0.01268  -3.09452
   D37       -3.11681  -0.00111   0.00000  -0.01748  -0.01754  -3.13435
   D38       -1.05288   0.00141   0.00000   0.01227   0.01202  -1.04086
   D39        1.08762  -0.00251   0.00000  -0.03591  -0.03576   1.05186
   D40        1.02425   0.00071   0.00000   0.00835   0.00853   1.03278
   D41        3.08817   0.00324   0.00000   0.03810   0.03810   3.12627
   D42       -1.05451  -0.00069   0.00000  -0.01007  -0.00968  -1.06419
   D43        0.10061   0.00052   0.00000  -0.01266  -0.01375   0.08686
   D44       -3.06693   0.00204   0.00000   0.03820   0.03703  -3.02991
   D45       -2.01503  -0.00511   0.00000  -0.06302  -0.06284  -2.07786
   D46        1.10062  -0.00358   0.00000  -0.01215  -0.01206   1.08856
   D47        2.10899   0.00277   0.00000   0.01541   0.01645   2.12544
   D48       -1.05855   0.00429   0.00000   0.06627   0.06723  -0.99132
   D49       -0.02956   0.00462   0.00000   0.08121   0.08121   0.05164
   D50        2.04151   0.00354   0.00000   0.06750   0.06712   2.10863
   D51       -2.13324  -0.00367   0.00000   0.00063   0.00113  -2.13211
   D52        3.13792   0.00312   0.00000   0.03055   0.03046  -3.11480
   D53       -1.07419   0.00204   0.00000   0.01683   0.01637  -1.05782
   D54        1.03424  -0.00517   0.00000  -0.05004  -0.04962   0.98463
         Item               Value     Threshold  Converged?
 Maximum Force            0.052912     0.000450     NO 
 RMS     Force            0.007887     0.000300     NO 
 Maximum Displacement     0.327409     0.001800     NO 
 RMS     Displacement     0.093052     0.001200     NO 
 Predicted change in Energy=-1.493162D-02
 GradGradGradGradGradGradGradGradGradGradGradGradGradGradGradGradGradGrad

                          Input orientation:                          
 ---------------------------------------------------------------------
 Center     Atomic      Atomic             Coordinates (Angstroms)
 Number     Number       Type             X           Y           Z
 ---------------------------------------------------------------------
      1          8           0       -0.253662    0.203143   -1.626962
      2          8           0       -2.032986   -0.052997    1.595383
      3          8           0        0.291716   -2.017199   -0.006277
      4          8           0       -4.202937    0.373666   -0.074432
      5          8           0        2.708014   -0.969041   -0.564579
      6          8           0        3.729275    1.449621    0.191301
      7          6           0       -0.468290    0.266552   -0.218355
      8          6           0       -1.894645   -0.115827    0.182891
      9          6           0        0.538089   -0.686316    0.398284
     10          6           0       -2.913399    0.786346   -0.505533
     11          6           0        1.967700   -0.255172    0.057249
     12          6           0        2.417268    1.108980    0.573288
     13          1           0       -0.272536    1.296661    0.147771
     14          1           0       -2.090781   -1.159309   -0.090335
     15          1           0        0.409857   -0.669535    1.490135
     16          1           0       -2.722249    1.836978   -0.214984
     17          1           0       -2.830828    0.694768   -1.599992
     18          1           0       -0.597443    0.995250   -2.039982
     19          1           0        1.765493    1.880210    0.144838
     20          1           0        2.286972    1.124228    1.668606
     21          1           0       -1.872505    0.852192    1.876218
     22          1           0        0.369839   -2.041585   -0.965578
     23          1           0       -4.858852    0.930526   -0.496192
     24          1           0        4.336390    0.813959    0.576036
 ---------------------------------------------------------------------
                    Distance matrix (angstroms):
                    1          2          3          4          5
     1  O    0.000000
     2  O    3.689865   0.000000
     3  O    2.802495   3.439133   0.000000
     4  O    4.246905   2.771103   5.091442   0.000000
     5  O    3.357707   5.289768   2.692366   7.057219   0.000000
     6  O    4.552315   6.118247   4.886173   8.009262   2.732079
     7  C    1.426275   2.416615   2.416216   3.738954   3.425706
     8  C    2.463765   1.420640   2.903648   2.373612   4.740374
     9  C    2.349389   2.905953   1.412664   4.881020   2.390734
    10  C    2.944814   2.427648   4.287410   1.420937   5.889410
    11  C    2.825078   4.290945   2.432632   6.203993   1.201809
    12  C    3.577081   4.711648   3.824508   6.692335   2.386932
    13  H    2.084662   2.648838   3.365082   4.043433   3.811105
    14  H    2.755451   2.017154   2.533640   2.609879   4.825924
    15  H    3.304258   2.521642   2.017276   4.981367   3.097269
    16  H    3.279790   2.706385   4.897164   2.086497   6.122394
    17  H    2.623778   3.377296   4.432265   2.076805   5.875296
    18  H    0.957185   4.046663   3.741845   4.153232   4.118409
    19  H    3.166830   4.502200   4.169490   6.159538   3.083804
    20  H    4.261923   4.478087   4.081035   6.761690   3.089687
    21  H    3.913334   0.961244   4.057220   3.076514   5.500502
    22  H    2.421773   4.035662   0.962786   5.247652   2.603500
    23  H    4.797448   3.650688   5.954615   0.958227   7.801954
    24  H    5.127853   6.508428   4.971311   8.575376   2.670525
                    6          7          8          9         10
     6  O    0.000000
     7  C    4.380299   0.000000
     8  C    5.837736   1.530261   0.000000
     9  C    3.845612   1.516904   2.507996   0.000000
    10  C    6.711976   2.516191   1.525026   3.859843   0.000000
    11  C    2.455083   2.506431   3.866899   1.531658   5.022609
    12  C    1.408301   3.108509   4.499461   2.604808   5.448299
    13  H    4.004969   1.110628   2.151184   2.156865   2.767921
    14  H    6.384269   2.163781   1.096348   2.715406   2.152827
    15  H    4.146845   2.136900   2.706697   1.099484   4.140811
    16  H    6.475900   2.747105   2.157934   4.168083   1.106699
    17  H    6.842038   2.770177   2.170755   4.153325   1.101383
    18  H    4.889331   1.966216   2.803282   3.172103   2.786005
    19  H    2.010971   2.779494   4.169198   2.856188   4.848871
    20  H    2.090107   3.447854   4.607711   2.819642   5.646672
    21  H    5.880119   2.588827   1.950616   3.219046   2.600102
    22  H    4.981234   2.566768   3.186756   1.930073   4.357578
    23  H    8.631224   4.449168   3.215981   5.704493   1.950811
    24  H    0.959518   4.900578   6.312278   4.087727   7.330075
                   11         12         13         14         15
    11  C    0.000000
    12  C    1.526210   0.000000
    13  H    2.726726   2.729713   0.000000
    14  H    4.160591   5.089994   3.065046   0.000000
    15  H    2.156788   2.834329   2.476597   2.998493   0.000000
    16  H    5.142647   5.250333   2.534686   3.064641   4.358914
    17  H    5.164756   5.695370   3.156234   2.502866   4.681053
    18  H    3.541453   3.991315   2.232191   3.267003   4.030867
    19  H    2.146722   1.096894   2.119928   4.915774   3.185714
    20  H    2.145029   1.103146   2.982240   5.241483   2.602499
    21  H    4.391135   4.490625   2.396870   2.821544   2.770179
    22  H    2.605879   4.060312   3.577161   2.756649   2.813299
    23  H    6.950826   7.356464   4.645755   3.492040   5.853631
    24  H    2.650071   1.941668   4.653881   6.756210   4.295811
                   16         17         18         19         20
    16  H    0.000000
    17  H    1.798522   0.000000
    18  H    2.924710   2.296060   0.000000
    19  H    4.502352   5.057259   3.337672   0.000000
    20  H    5.398910   6.087697   4.700011   1.779134   0.000000
    21  H    2.462721   3.609321   4.121027   4.158067   4.173531
    22  H    5.016737   4.258448   3.363383   4.308288   4.542763
    23  H    2.337906   2.320956   4.532889   6.722705   7.469048
    24  H    7.176118   7.491217   5.587407   2.816440   2.343094
                   21         22         23         24
    21  H    0.000000
    22  H    4.634420   0.000000
    23  H    3.814804   6.032659   0.000000
    24  H    6.343683   5.124864   9.258280   0.000000
 Stoichiometry    C6H12O6
 Framework group  C1[X(C6H12O6)]
 Deg. of freedom    66
 Full point group                 C1      NOp   1
 Largest Abelian subgroup         C1      NOp   1
 Largest concise Abelian subgroup C1      NOp   1
                         Standard orientation:                         
 ---------------------------------------------------------------------
 Center     Atomic      Atomic             Coordinates (Angstroms)
 Number     Number       Type             X           Y           Z
 ---------------------------------------------------------------------
      1          8           0       -0.198603    0.084205    1.625691
      2          8           0       -1.957264   -0.128069   -1.611153
      3          8           0        0.356001    2.049346   -0.293843
      4          8           0       -4.137698   -0.313474    0.088947
      5          8           0        2.769220    1.095854    0.424531
      6          8           0        3.796644   -1.404840    0.030600
      7          6           0       -0.404115   -0.181320    0.239501
      8          6           0       -1.828062    0.137329   -0.221517
      9          6           0        0.605699    0.674496   -0.501346
     10          6           0       -2.850741   -0.658019    0.583004
     11          6           0        2.033316    0.298939   -0.092882
     12          6           0        2.486941   -1.124560   -0.404641
     13          1           0       -0.205446   -1.253069    0.026483
     14          1           0       -2.026522    1.208960   -0.102357
     15          1           0        0.484515    0.500769   -1.580233
     16          1           0       -2.657153   -1.739221    0.447696
     17          1           0       -2.775275   -0.409963    1.653432
     18          1           0       -0.544608   -0.640816    2.146103
     19          1           0        1.832837   -1.827154    0.126101
     20          1           0        2.363715   -1.297272   -1.487191
     21          1           0       -1.794485   -1.063988   -1.757946
     22          1           0        0.427928    2.211474    0.652464
     23          1           0       -4.796015   -0.804891    0.582229
     24          1           0        4.405881   -0.830189   -0.437676
 ---------------------------------------------------------------------
 Rotational constants (GHZ):           1.7948060           0.4400312           0.4210548
 Standard basis: 6-311++G(d,p) (5D, 7F)
 There are   360 symmetry adapted cartesian basis functions of A   symmetry.
 There are   348 symmetry adapted basis functions of A   symmetry.
   348 basis functions,   540 primitive gaussians,   360 cartesian basis functions
    48 alpha electrons       48 beta electrons
       nuclear repulsion energy       784.8067804665 Hartrees.
 NAtoms=   24 NActive=   24 NUniq=   24 SFac= 1.00D+00 NAtFMM=   60 NAOKFM=F Big=F
 Integral buffers will be    131072 words long.
 Raffenetti 2 integral format.
 Two-electron integral symmetry is turned on.
 R6APFD:  NTU= -4 IXU= 1 FactS= 1.050
 Nuclear repulsion after empirical dispersion term =      784.7845270292 Hartrees.
 One-electron integrals computed using PRISM.
 NBasis=   348 RedAO= T EigKep=  4.29D-06  NBF=   348
 NBsUse=   348 1.00D-06 EigRej= -1.00D+00 NBFU=   348
 Initial guess from the checkpoint file:  "LFRE0130.chk"
 B after Tr=    -0.000000    0.000000    0.000000
         Rot=    0.999318    0.036687   -0.002722   -0.003106 Ang=   4.23 deg.
 ExpMin= 3.60D-02 ExpMax= 8.59D+03 ExpMxC= 1.30D+03 IAcc=3 IRadAn=         5 AccDes= 0.00D+00
 Harris functional with IExCor= 1009 and IRadAn=       5 diagonalized for initial guess.
 HarFok:  IExCor= 1009 AccDes= 0.00D+00 IRadAn=         5 IDoV= 1 UseB2=F ITyADJ=14
 ICtDFT=  3500011 ScaDFX=  1.000000  1.000000  1.000000  1.000000
 FoFCou: FMM=F IPFlag=           0 FMFlag=      100000 FMFlg1=           0
         NFxFlg=           0 DoJE=T BraDBF=F KetDBF=T FulRan=T
         wScrn=  0.000000 ICntrl=       500 IOpCl=  0 I1Cent=   200000004 NGrid=           0
         NMat0=    1 NMatS0=      1 NMatT0=    0 NMatD0=    1 NMtDS0=    0 NMtDT0=    0
 Petite list used in FoFCou.
 Requested convergence on RMS density matrix=1.00D-08 within  32 cycles.
 Requested convergence on MAX density matrix=1.00D-06.
 Requested convergence on             energy=1.00D-06.
 No special actions if energy rises.
 SCF Done:  E(RM08HX) =  -687.156421164     A.U. after   14 cycles
            NFock= 14  Conv=0.56D-08     -V/T= 2.0037
 QCSCF skips out because SCF is already converged.
 R6APFD:  NTU= -4 IXU= 1 FactS= 1.050
 Calling FoFJK, ICntrl=      2127 FMM=F ISym2X=0 I1Cent= 0 IOpClX= 0 NMat=1 NMatS=1 NMatT=0.
 ***** Axes restored to original set *****
 -------------------------------------------------------------------
 Center     Atomic                   Forces (Hartrees/Bohr)
 Number     Number              X              Y              Z
 -------------------------------------------------------------------
      1        8          -0.000688929    0.000388903    0.005328583
      2        8           0.004751293    0.000317061   -0.003677149
      3        8          -0.000876255    0.009257662    0.000629933
      4        8           0.005679783    0.003922541   -0.003053080
      5        8          -0.002982602    0.003732953    0.003156006
      6        8          -0.006808565   -0.001163715    0.005072451
      7        6          -0.000949331    0.008081405   -0.005775169
      8        6          -0.005939827    0.001340377    0.003678140
      9        6           0.002214407   -0.014702415    0.002684408
     10        6          -0.008615442   -0.004867671    0.003243601
     11        6           0.005235730   -0.004594547   -0.004581294
     12        6           0.007856914    0.002111392   -0.004673809
     13        1          -0.000377558   -0.001507378    0.000437600
     14        1           0.000697199   -0.000302596   -0.000069668
     15        1           0.000029863    0.000351787    0.000294656
     16        1           0.000987490    0.001285568   -0.000493231
     17        1           0.002373602    0.000222237   -0.000230959
     18        1           0.000179978   -0.000946663   -0.001983743
     19        1          -0.000792597    0.000655578    0.001088380
     20        1          -0.002241375    0.000997622    0.001207097
     21        1          -0.002583095   -0.000027143    0.000726651
     22        1           0.003321146   -0.001345415   -0.000105486
     23        1          -0.000484816   -0.001196054    0.000697380
     24        1           0.000012987   -0.002011490   -0.003601300
 -------------------------------------------------------------------
 Cartesian Forces:  Max     0.014702415 RMS     0.003774036

 GradGradGradGradGradGradGradGradGradGradGradGradGradGradGradGradGradGrad
 Berny optimization.
 Using GEDIIS/GDIIS optimizer.
 FormGI is forming the generalized inverse of G from B-inverse, IUseBI=4.
 Internal  Forces:  Max     0.008030570 RMS     0.001959860
 Search for a local minimum.
 Step number   2 out of a maximum of  125
 All quantities printed in internal units (Hartrees-Bohrs-Radians)
 Mixed Optimization -- RFO/linear search
 Update second derivatives using D2CorX and points    1    2
 DE= -1.40D-02 DEPred=-1.49D-02 R= 9.40D-01
 TightC=F SS=  1.41D+00  RLast= 4.33D-01 DXNew= 5.0454D-01 1.2976D+00
 Trust test= 9.40D-01 RLast= 4.33D-01 DXMaxT set to 5.05D-01
 ITU=  1  0
 Use linear search instead of GDIIS.
     Eigenvalues ---    0.00237   0.00286   0.00383   0.00398   0.00479
     Eigenvalues ---    0.00546   0.01319   0.01366   0.01373   0.01386
     Eigenvalues ---    0.01495   0.04270   0.04446   0.04740   0.04773
     Eigenvalues ---    0.05101   0.05292   0.05432   0.05889   0.06000
     Eigenvalues ---    0.07104   0.07265   0.07419   0.07909   0.10987
     Eigenvalues ---    0.11844   0.13562   0.14028   0.15532   0.16000
     Eigenvalues ---    0.16000   0.16000   0.16007   0.16590   0.16683
     Eigenvalues ---    0.17749   0.19792   0.20009   0.20275   0.22027
     Eigenvalues ---    0.23092   0.24997   0.25012   0.28559   0.29504
     Eigenvalues ---    0.29616   0.30235   0.30886   0.34081   0.34108
     Eigenvalues ---    0.34167   0.34210   0.34361   0.34427   0.34572
     Eigenvalues ---    0.41158   0.41740   0.41932   0.42013   0.43429
     Eigenvalues ---    0.52831   0.52857   0.52875   0.52927   0.53290
     Eigenvalues ---    0.87495
 RFO step:  Lambda=-4.06129830D-03 EMin= 2.36630750D-03
 Quartic linear search produced a step of  0.11684.
 Iteration  1 RMS(Cart)=  0.08410215 RMS(Int)=  0.00500900
 Iteration  2 RMS(Cart)=  0.00525576 RMS(Int)=  0.00018088
 Iteration  3 RMS(Cart)=  0.00001964 RMS(Int)=  0.00018004
 Iteration  4 RMS(Cart)=  0.00000000 RMS(Int)=  0.00018004
 Variable       Old X    -DE/DX   Delta X   Delta X   Delta X     New X
                                 (Linear)    (Quad)   (Total)
    R1        2.69527  -0.00336   0.00037  -0.00883  -0.00846   2.68681
    R2        1.80882   0.00001  -0.00327   0.00048  -0.00279   1.80603
    R3        2.68462  -0.00313  -0.00148  -0.00804  -0.00952   2.67510
    R4        1.81649  -0.00025  -0.00249  -0.00016  -0.00265   1.81384
    R5        2.66955  -0.00803  -0.00212  -0.02050  -0.02262   2.64693
    R6        1.81940   0.00041  -0.00217   0.00116  -0.00102   1.81838
    R7        2.68518  -0.00622  -0.00070  -0.01613  -0.01683   2.66835
    R8        1.81079  -0.00067  -0.00313  -0.00094  -0.00407   1.80672
    R9        2.27109  -0.00569  -0.00666  -0.00612  -0.01279   2.25830
   R10        2.66130  -0.00750  -0.00114  -0.01868  -0.01982   2.64148
   R11        1.81323  -0.00010  -0.00288   0.00020  -0.00269   1.81054
   R12        2.89177   0.00296  -0.00215   0.01168   0.00953   2.90131
   R13        2.86653   0.00799  -0.00429   0.03093   0.02663   2.89317
   R14        2.09878  -0.00132   0.00285  -0.00472  -0.00188   2.09691
   R15        2.88188  -0.00040  -0.00088  -0.00133  -0.00221   2.87967
   R16        2.07180   0.00018   0.00015   0.00055   0.00070   2.07250
   R17        2.89441   0.00070   0.00085   0.00241   0.00327   2.89768
   R18        2.07772   0.00029   0.00092   0.00078   0.00170   2.07942
   R19        2.09136   0.00126   0.00259   0.00358   0.00617   2.09753
   R20        2.08131   0.00039   0.00173   0.00094   0.00267   2.08399
   R21        2.88412  -0.00036   0.00208  -0.00165   0.00043   2.88455
   R22        2.07283   0.00051   0.00107   0.00141   0.00249   2.07532
   R23        2.08464   0.00148   0.00218   0.00432   0.00649   2.09114
    A1        1.91273   0.00389   0.00333   0.02528   0.02861   1.94134
    A2        1.89217   0.00201   0.00107   0.01324   0.01431   1.90648
    A3        1.87031   0.00114  -0.00125   0.00797   0.00671   1.87702
    A4        1.89536   0.00231   0.00320   0.01473   0.01793   1.91329
    A5        1.89702   0.00102   0.00249   0.00623   0.00871   1.90573
    A6        1.96938   0.00045   0.00748  -0.00509   0.00125   1.97063
    A7        1.84805  -0.00228  -0.00952  -0.01677  -0.02621   1.82184
    A8        1.91802   0.00105   0.00682   0.01041   0.01726   1.93527
    A9        1.93354   0.00086  -0.01019   0.00310  -0.00721   1.92633
   A10        1.88558  -0.00072   0.00057  -0.00017   0.00026   1.88584
   A11        1.90888   0.00069   0.00570   0.00907   0.01501   1.92389
   A12        1.91816  -0.00080  -0.00014  -0.00309  -0.00330   1.91486
   A13        1.93651   0.00135   0.00610   0.01249   0.01857   1.95507
   A14        1.84674   0.00007  -0.00308   0.00328   0.00003   1.84678
   A15        1.93529   0.00002  -0.00193   0.00108  -0.00090   1.93439
   A16        1.91690  -0.00070  -0.00202  -0.01449  -0.01655   1.90035
   A17        1.90821   0.00005   0.00112   0.00051   0.00153   1.90973
   A18        1.93872   0.00132   0.00617   0.00003   0.00617   1.94489
   A19        1.94358  -0.00129   0.00659  -0.01710  -0.01046   1.93312
   A20        1.85296   0.00040  -0.00175   0.01293   0.01114   1.86409
   A21        1.93040  -0.00131  -0.01015  -0.01110  -0.02143   1.90898
   A22        1.89307  -0.00026  -0.00420   0.00471   0.00049   1.89357
   A23        1.90252   0.00124   0.00371   0.01246   0.01582   1.91834
   A24        1.87285   0.00143  -0.00308   0.01070   0.00768   1.88053
   A25        1.93137   0.00002   0.00624   0.00602   0.01217   1.94354
   A26        1.92343   0.00109   0.00471   0.01226   0.01697   1.94040
   A27        1.90468  -0.00012  -0.00392  -0.00025  -0.00433   1.90035
   A28        1.92763  -0.00235  -0.00287  -0.01964  -0.02263   1.90500
   A29        1.90379  -0.00009  -0.00082  -0.00905  -0.01040   1.89339
   A30        2.12112   0.00088  -0.00008   0.00393   0.00380   2.12491
   A31        2.12283  -0.00059   0.00055  -0.00258  -0.00208   2.12075
   A32        2.03897  -0.00029  -0.00047  -0.00108  -0.00160   2.03737
   A33        1.98112  -0.00387   0.00633  -0.01878  -0.01249   1.96863
   A34        1.85205   0.00084  -0.00358   0.00895   0.00545   1.85750
   A35        1.95628   0.00264   0.00577   0.01343   0.01910   1.97538
   A36        1.89795   0.00255  -0.00167   0.01916   0.01754   1.91548
   A37        1.88944  -0.00042  -0.00317  -0.00865  -0.01198   1.87746
   A38        1.88381  -0.00161  -0.00402  -0.01326  -0.01730   1.86651
    D1        1.40303  -0.00018   0.00901  -0.01436  -0.00506   1.39796
    D2       -2.76233  -0.00037  -0.00553  -0.02472  -0.03022  -2.79256
    D3       -0.70256  -0.00029  -0.00023  -0.01806  -0.01861  -0.72117
    D4        1.07828   0.00193   0.00558   0.09088   0.09648   1.17476
    D5       -1.06844   0.00154   0.00408   0.08314   0.08717  -0.98127
    D6       -3.13632   0.00072   0.00128   0.07399   0.07530  -3.06102
    D7        1.05282   0.00127   0.00690   0.09900   0.10596   1.15878
    D8       -1.10719   0.00293   0.01101   0.12576   0.13660  -0.97060
    D9        3.10744   0.00190   0.00419   0.11225   0.11656  -3.05919
   D10        3.14044   0.00084   0.00059   0.01455   0.01515  -3.12760
   D11        1.06404   0.00011   0.00353   0.00500   0.00867   1.07271
   D12       -1.04311  -0.00051  -0.00197   0.00434   0.00222  -1.04089
   D13       -1.09481   0.00332   0.00580   0.13424   0.13993  -0.95488
   D14        3.10498   0.00184   0.00646   0.11550   0.12196  -3.05625
   D15        1.05264   0.00185   0.01024   0.11881   0.12916   1.18180
   D16        3.12491  -0.00128  -0.01223   0.04978   0.03743  -3.12084
   D17       -1.01084  -0.00011  -0.00591   0.06422   0.05811  -0.95273
   D18        1.10009  -0.00049  -0.00717   0.05598   0.04866   1.14875
   D19        1.05631   0.00073   0.00200   0.07233   0.07451   1.13083
   D20       -3.07944   0.00189   0.00832   0.08677   0.09520  -2.98424
   D21       -0.96851   0.00151   0.00706   0.07853   0.08574  -0.88277
   D22       -1.03425  -0.00017   0.00074   0.05951   0.06029  -0.97397
   D23        1.11318   0.00099   0.00706   0.07395   0.08097   1.19415
   D24       -3.05908   0.00061   0.00580   0.06571   0.07152  -2.98756
   D25       -1.11266   0.00140   0.00339   0.05339   0.05640  -1.05626
   D26        1.05485  -0.00026   0.00937   0.02336   0.03216   1.08701
   D27        3.14044   0.00031   0.00438   0.03491   0.03904  -3.10371
   D28        1.02812   0.00100  -0.00096   0.03837   0.03783   1.06596
   D29       -3.08755  -0.00065   0.00502   0.00834   0.01359  -3.07396
   D30       -1.00196  -0.00008   0.00003   0.01989   0.02047  -0.98149
   D31        3.10468   0.00107  -0.00265   0.04576   0.04314  -3.13537
   D32       -1.01100  -0.00059   0.00333   0.01573   0.01889  -0.99210
   D33        1.07459  -0.00001  -0.00166   0.02728   0.02578   1.10037
[...]
 2339672,0.00747817,0.00027596,0.00020298,0.00000870,-0.05426653,-0.031
 30008,-0.01165010,-0.00002887,0.00001733,0.00000262,-0.00002218,0.0000
 0579,0.00000718,-0.00031261,-0.00066475,-0.00026055,-0.00254049,0.0021
 6710,-0.00283948,0.00000285,-0.00001274,-0.00001691,0.06449238,0.00059
 639,0.00057200,-0.00043673,-0.00076181,0.00314791,0.00021120,0.0003264
 4,0.00035517,0.00010288,-0.00533742,-0.00007312,0.00096112,0.00008552,
 0.00013650,0.00002006,-0.00004979,0.00006181,0.00001050,-0.00191772,-0
 .00013830,0.00007612,-0.00132171,-0.02268638,-0.00861431,0.00014111,-0
 .00023169,0.00012641,-0.03592364,-0.26165981,-0.06282422,-0.00004224,-
 0.00020512,-0.00003177,0.00008544,0.00000227,-0.00000010,0.00110795,0.
 00049034,0.00027229,0.00245491,-0.00089709,0.00258588,-0.00002656,0.00
 001461,0.00001111,0.03954014,0.28322753,0.00033186,0.00032032,-0.00000
 548,0.00082305,-0.00119230,0.00209601,-0.00015887,0.00000455,0.0000240
 0,0.00559379,0.01419302,0.00549477,0.00005927,-0.00000803,-0.00002823,
 0.00000530,0.00002094,-0.00001320,0.00063589,-0.00036167,0.00077117,0.
 00165369,0.01467636,0.00413387,0.00030282,0.00016727,-0.00007963,-0.01
 176745,-0.06724894,-0.07505715,-0.00010039,-0.00007877,0.00005016,0.00
 000864,-0.00000366,0.00002896,-0.00005339,-0.00026745,-0.00005827,-0.0
 0160039,0.00182257,-0.00072008,-0.00003778,0.00000890,-0.00000696,0.00
 948255,0.06768272,0.06951352,-0.00107733,-0.00006054,0.00130908,-0.002
 97514,0.00436424,-0.00512257,0.00001319,-0.00000745,0.00010625,-0.0119
 7708,-0.00197033,0.03415861,-0.00001184,0.00001337,0.00003842,0.000013
 41,0.00000319,0.00001739,0.00053611,-0.00062310,-0.00069430,0.00590764
 ,-0.00712046,-0.01807782,0.00005556,0.00010437,-0.00005389,-0.04880480
 ,0.00350001,0.00215190,0.00002161,-0.00002453,-0.00002358,-0.00001395,
 0.00001451,-0.00002439,-0.00003388,0.00009677,0.00013094,0.00067084,0.
 00024970,0.00084079,0.00009768,-0.00005450,0.00005712,0.00229754,0.000
 92692,-0.00436572,0.05779868,0.00002707,-0.00013412,-0.00026038,0.0031
 1896,-0.00177604,0.00390540,-0.00010852,0.00001135,-0.00009901,-0.0029
 8413,0.00361196,0.01198180,-0.00002250,-0.00001203,-0.00000590,-0.0000
 2397,-0.00000309,0.00000777,-0.00025851,-0.00000039,-0.00028625,-0.002
 37191,0.00393027,0.01921094,0.00003980,0.00005913,0.00017759,0.0015390
 9,-0.05842815,-0.03257115,0.00000509,0.00001927,-0.00003274,0.00001111
 ,-0.00000799,0.00000875,0.00009296,0.00004625,0.00001748,-0.00071641,0
 .00010997,-0.00020092,-0.00003682,-0.00000721,-0.00001293,0.00059347,-
 0.00140610,-0.02902325,0.00122674,0.05370866,0.00240282,-0.00007183,0.
 00162922,-0.00218308,0.00313735,-0.00159925,0.00000186,0.00005173,0.00
 018494,0.00645637,0.00164357,-0.00109082,-0.00011229,0.00002101,0.0001
 4557,0.00002210,-0.00001339,0.00003644,-0.00003507,0.00058297,-0.00263
 522,0.00164684,-0.00542610,-0.01324001,-0.00029006,-0.00015570,0.00017
 111,0.00564155,-0.02789874,-0.29260164,0.00007234,0.00012598,-0.000221
 79,-0.00004878,0.00002955,-0.00003040,0.00000904,0.00022234,0.00014806
 ,0.00005188,0.00050260,0.00052891,0.00016292,-0.00010713,0.00006963,-0
 .00122784,-0.00026454,-0.00597324,-0.01174683,0.02859293,0.31360966,-0
 .12320898,0.20754251,-0.09654273,-0.00095117,0.00044126,-0.00079093,-0
 .00016508,-0.00035004,0.00004567,0.00128492,0.00040172,-0.00137832,-0.
 00011637,-0.00062048,-0.00033139,0.00047192,-0.00031878,0.00011575,0.0
 0283919,-0.00992981,0.00577311,0.00164240,-0.00149700,0.00234840,-0.00
 025605,-0.00035143,-0.00044181,-0.00159034,-0.00011847,0.00276909,0.00
 084526,0.00120001,0.00056548,-0.00063142,0.00042377,-0.00019234,0.0003
 6100,0.00049655,0.00047364,-0.00009437,0.00000430,-0.00011654,0.000231
 60,0.00031834,-0.00003595,0.00005887,0.00038502,0.00010080,-0.00240543
 ,-0.00070496,-0.00110934,0.12200721,0.19811935,-0.34465857,0.18471774,
 0.00051333,0.00005023,-0.00079478,-0.00012312,0.00072632,0.00051226,0.
 00051375,-0.00048952,-0.00085578,-0.00033930,-0.00015199,-0.00002295,0
 .00015905,-0.00016458,0.00002020,0.00022928,0.00005777,-0.00556696,-0.
 00043761,-0.00091648,0.00087828,-0.00057066,0.00023308,-0.00086634,-0.
 00033808,0.00152015,0.00209699,0.00042679,0.00045267,-0.00002663,-0.00
 024222,0.00004465,-0.00021230,-0.00024721,0.00135275,-0.00135258,0.000
 07965,-0.00014882,0.00005840,-0.00003570,0.00020483,-0.00035506,-0.000
 24006,-0.00076694,-0.00048250,-0.00048692,0.00033932,-0.00085126,-0.19
 682148,0.34185251,-0.06907392,0.14393470,-0.11808530,-0.00060245,-0.00
 039126,0.00055964,0.00054529,-0.00068558,0.00133700,-0.00063836,-0.000
 37514,-0.00000555,0.00007568,-0.00004291,0.00018820,0.00050201,-0.0001
 0319,-0.00009563,-0.02004466,0.03390514,-0.01837863,0.00059544,0.00094
 029,-0.00037875,0.00177538,-0.00142954,-0.00832505,0.00113617,0.000796
 67,0.00028881,0.00063696,0.00010547,-0.00070828,-0.00053303,0.00028758
 ,-0.00009271,-0.00102864,-0.00072287,0.00107120,-0.00013106,-0.0001645
 1,0.00012898,-0.00144143,0.00138568,-0.00060611,0.00022871,-0.00048411
 ,-0.00039458,-0.00022692,-0.00011282,0.00046937,0.08846868,-0.17679026
 ,0.14284213,-0.00054409,-0.00002979,0.00018668,0.00004936,0.00006383,-
 0.00001265,-0.00002408,0.00022797,-0.00023857,-0.00000260,0.00004473,-
 0.00001801,0.00065738,-0.00205144,-0.00283992,-0.03369864,0.01868705,-
 0.01178264,-0.00257788,-0.00147966,-0.00001065,-0.00004230,0.00010120,
 -0.00033696,-0.00064077,0.00141723,0.00027593,-0.00004763,-0.00010439,
 0.00002853,0.00680401,0.00037065,0.00774965,-0.08980969,0.06621604,-0.
 06552077,-0.00168925,-0.00074519,0.00067323,-0.00001530,0.00002754,0.0
 0001654,0.00008763,-0.00021355,-0.00031021,0.00000720,0.00002185,0.000
 00592,-0.00000167,0.00000179,-0.00000489,-0.00028577,-0.00008920,-0.00
 026340,0.12092023,0.00145715,0.00099720,-0.00027857,0.00017060,0.00003
 716,-0.00017648,-0.00087715,0.00017401,-0.00029545,0.00014700,0.000021
 40,-0.00006183,-0.00239691,-0.00202799,-0.00465973,-0.00092193,0.00853
 404,-0.00470519,-0.00128973,-0.00148896,0.00139507,-0.00031410,0.00039
 083,0.00003515,-0.00130288,0.00004856,-0.00267119,-0.00017112,-0.00000
 508,0.00009245,0.01637704,-0.01978830,0.02280350,0.07222275,-0.1510769
 4,0.09883753,-0.00047924,0.00047258,0.00018699,0.00017976,0.00001208,-
 0.00002897,0.00064879,0.00013655,-0.00014327,-0.00001747,0.00001523,-0
 .00000473,-0.00001127,-0.00000074,-0.00005016,-0.00044595,-0.00005454,
 -0.00028757,-0.07977502,0.15761065,-0.00048550,-0.00032417,-0.00075780
 ,0.00004759,-0.00005002,0.00005938,0.00014277,0.00007166,0.00007121,-0
 .00011706,-0.00002278,-0.00001269,-0.00000341,-0.00092566,-0.00263105,
 0.00188431,-0.00648501,0.01089741,-0.00080772,0.00085272,0.00091665,0.
 00010139,-0.00035298,-0.00045598,-0.00014866,0.00093851,-0.00114406,0.
 00009276,0.00004154,0.00006413,0.00355013,-0.00509363,0.00537239,-0.06
 736883,0.09634555,-0.13700543,0.00078020,-0.00032393,-0.00032161,-0.00
 017959,-0.00002996,0.00005042,0.00007637,0.00012434,0.00017790,0.00000
 616,-0.00003075,-0.00000458,-0.00000035,-0.00001926,-0.00001049,-0.000
 24397,-0.00002586,0.00008459,0.07361577,-0.10490422,0.14376475,-0.0006
 7360,-0.00016362,-0.00004128,0.00000986,0.00006729,0.00004284,-0.00003
 340,0.00026583,0.00005925,0.00001662,0.00000401,0.00002473,0.00096262,
 -0.00327799,0.00046199,-0.02297124,0.01271084,0.03427182,0.00065499,-0
 .00018309,-0.00067042,0.00000221,0.00008496,0.00012754,-0.00036348,-0.
 00035161,0.00109470,-0.00000629,-0.00000824,-0.00002615,0.00387817,0.0
 0397870,-0.00979149,-0.05369228,0.00727796,0.04178921,-0.00027244,0.00
 041503,-0.00010280,0.00008127,0.00001134,-0.00000460,-0.00040063,-0.00
 053578,-0.00014132,-0.00000077,0.00001390,-0.00000189,0.00001160,0.000
 00361,0.00002237,0.00008491,-0.00000284,0.00004178,0.00369705,-0.00345
 606,-0.01184687,0.07363164,0.00047285,0.00032105,0.00010170,0.00006788
 ,-0.00002779,-0.00000633,0.00011695,0.00034511,0.00064512,0.00004797,-
 0.00002206,-0.00000305,-0.00073219,-0.00713087,0.00138039,-0.00208757,
 0.00351428,0.00233574,0.00006133,0.00021666,0.00024647,-0.00001880,-0.
 00017831,-0.00002961,0.00002888,-0.00057190,0.00205824,0.00000235,0.00
 005630,0.00001074,0.00889378,-0.00307904,-0.03209483,0.01028238,-0.060
 24036,-0.05892203,-0.00011963,-0.00012165,-0.00010967,-0.00002625,-0.0
 0000183,0.00001515,-0.00115617,-0.00046879,0.00031193,-0.00000181,-0.0
 0000978,-0.00000054,-0.00000149,-0.00000659,-0.00000806,-0.00011134,-0
 .00001926,-0.00001205,-0.00280635,0.00641293,0.02122177,-0.01313816,0.
 06198754,-0.00057988,-0.00028472,0.00063983,0.00004609,0.00003622,0.00
 004799,-0.00037680,0.00033243,0.00047217,0.00007145,0.00001094,0.00003
 782,-0.00132442,-0.00018346,0.00033773,0.00873352,-0.00130905,0.003293
 84,0.00007476,-0.00049480,-0.00114948,-0.00010818,0.00016850,0.0000417
 2,0.00056955,-0.00087096,-0.00087430,-0.00005757,-0.00002100,-0.000055
 07,0.00142682,0.00022729,-0.00528088,0.04890718,-0.05784006,-0.2767769
 7,-0.00028103,0.00030640,-0.00006874,0.00008484,0.00003667,0.00000449,
 -0.00012547,0.00000192,0.00062063,-0.00000538,0.00002053,-0.00000648,0
 .00001236,0.00000926,0.00003086,0.00008927,0.00002992,-0.00000124,0.00
 214033,-0.00548255,-0.01863949,-0.05882603,0.06297457,0.29778642,0.000
 41563,0.00009745,-0.00092654,-0.50126189,-0.08152417,0.10601050,0.0002
 6099,-0.00012490,-0.00003667,-0.00152198,-0.00002634,0.00013489,0.0002
 3919,-0.00000726,-0.00009638,0.00015153,0.00003254,-0.00002624,0.00023
 648,0.00093536,0.00071174,-0.00361558,-0.00158640,0.00278769,-0.000125
 22,-0.00008855,-0.00036511,0.00303668,0.00074759,-0.00271604,-0.000202
 70,-0.00005476,0.00009475,-0.00009428,0.00002730,0.00000895,0.00016721
 ,0.00010124,-0.00002423,0.00009230,-0.00010616,-0.00114714,-0.00012731
 ,-0.00001560,0.00020024,-0.00041647,-0.00018918,0.00024660,-0.00108443
 ,-0.00007660,0.00011538,0.00005865,-0.00001859,0.00005938,0.00000647,-
 0.00002106,0.00001762,-0.00000855,-0.00000971,-0.00002202,0.50429360,-
 0.00027263,0.00065142,0.00026210,-0.08356805,-0.01930023,0.01442099,-0
 .00027982,-0.00026251,0.00014087,0.00035939,-0.00138490,-0.00195847,0.
 00009636,-0.00015744,-0.00006853,0.00000707,-0.00003260,0.00001021,-0.
 00031110,-0.00089475,0.00089016,0.00254384,0.00049251,-0.00126076,0.00
 037356,0.00046625,-0.00003721,-0.00228787,0.00074023,0.00171101,-0.000
 17067,-0.00000730,-0.00001579,-0.00001856,-0.00000614,-0.00000900,0.00
 027312,0.00017938,0.00010011,0.00110446,0.00000094,-0.00070395,0.00006
 163,0.00000251,-0.00020754,0.00012713,-0.00048949,0.00021411,-0.000200
 39,0.00011100,-0.00057085,-0.00013089,0.00006021,-0.00008103,-0.000001
 55,0.00000440,0.00000612,-0.00000298,0.00001613,-0.00000133,0.08202757
 ,0.02007122,0.00228889,0.00086992,-0.00133359,0.05721642,0.00560571,-0
 .05704218,-0.00016067,0.00021449,0.00011386,0.00048076,-0.00085639,-0.
 00025931,-0.00038117,0.00009253,0.00012534,-0.00014390,-0.00003518,-0.
 00000438,-0.00203594,-0.00118983,-0.00731362,0.04570796,0.00835842,-0.
 01504851,-0.00075968,-0.00019761,-0.00013633,0.00301152,0.00211643,-0.
 00170614,0.00050908,0.00013375,-0.00004792,0.00005984,-0.00002482,0.00
 001060,-0.00018301,0.00018106,0.00011863,0.00021649,-0.00084748,0.0001
 9738,0.00039445,-0.00028558,0.00027934,-0.00039747,-0.00019048,-0.0000
 1797,0.00019504,-0.00046467,0.00060228,0.00026830,-0.00005680,0.000026
 17,-0.00001554,0.00000140,-0.00003125,0.00002963,0.00000946,0.00003369
 ,-0.10552340,-0.01306108,0.07987485,-0.00033835,-0.00084142,0.00034596
 ,0.00021102,-0.00025378,-0.00028953,-0.30442957,0.10556904,0.23626431,
 0.00012789,-0.00005111,-0.00005825,0.00738388,0.00958796,0.00242856,-0
 .00071959,0.00044106,0.00027005,-0.00109260,-0.00009214,0.00081404,-0.
 00043523,0.00049926,-0.00012430,0.00910145,0.00129066,-0.00627086,-0.0
 0009370,0.00008147,0.00013188,0.00264415,-0.01069608,-0.00471029,-0.00
 049415,0.00189434,0.00065724,0.00030701,-0.00047093,0.00005265,-0.0002
 2243,0.00016114,0.00021972,-0.00167484,-0.00346030,-0.00264891,-0.0000
 3043,-0.00002761,-0.00003803,-0.00001118,0.00003114,-0.00003787,0.0000
 7841,-0.00004147,-0.00015491,0.00015273,0.00045994,0.00007587,0.000193
 64,0.00043436,0.00026263,-0.00004755,0.00006209,0.00005850,0.28995405,
 -0.00059225,0.00077508,0.00017599,-0.00020866,0.00021088,0.00016564,0.
 06777993,-0.07081194,-0.07551138,-0.00026040,0.00001256,0.00002161,0.0
 0723407,0.00500051,0.00286517,0.00056993,0.00079905,0.00017762,-0.0002
 4647,-0.00508407,-0.00361422,-0.00056239,-0.00011634,-0.00029693,0.029
 14907,-0.02034576,-0.02675671,0.00018355,-0.00004152,0.00005789,0.0001
 0766,-0.00439597,-0.00413754,0.00037852,-0.00002710,-0.00052381,0.0006
 5107,-0.00075822,0.00087360,0.00031166,0.00000796,0.00012312,-0.000476
 13,-0.00278788,0.00020114,-0.00001757,0.00006989,-0.00001019,0.0000222
 7,0.00000972,0.00003834,-0.00012715,0.00024691,0.00034696,0.00007968,0
 .00015732,0.00000171,0.00003934,0.00004346,0.00011667,0.00009396,-0.00
 002519,-0.00004793,-0.10363418,0.09738191,0.00031605,-0.00058062,-0.00
 090251,0.00006997,0.00007426,-0.00008009,0.21820086,-0.09795857,-0.179
 17829,-0.00015041,0.00001226,-0.00012405,0.00037932,0.00269207,-0.0034
 6576,0.00050708,0.00055029,-0.00009983,-0.00051793,0.00252800,0.001746
 09,-0.00005105,0.00032914,-0.00033617,0.00654198,-0.00910381,-0.013337
 96,0.00009345,0.00011929,0.00031760,0.00162356,0.00010471,0.00265448,0
 .00089811,-0.00093674,-0.00003650,-0.00029571,0.00070033,-0.00041027,0
 .00020833,0.00004810,0.00023098,-0.00052104,-0.00412643,-0.00128315,-0
 .00008667,0.00004087,-0.00003225,-0.00002756,0.00001054,-0.00008301,0.
 00012343,-0.00015223,-0.00015343,-0.00009471,-0.00003235,-0.00001678,-
 0.00001194,-0.00001722,0.00002352,0.00006729,-0.00001640,0.00000984,-0
 .22714128,0.10568306,0.19430737,0.00049574,-0.00007735,0.00005688,0.00
 133662,-0.00048044,0.00128027,0.00019748,-0.00011395,0.00003320,-0.276
 05152,0.20620736,-0.09740286,0.00003710,-0.00003810,0.00003260,0.00010
 943,-0.00000844,-0.00000728,-0.00056644,0.00169793,-0.00131285,-0.0068
 2707,-0.00352792,0.00289683,-0.00060263,-0.00033447,0.00011356,-0.0250
 5823,0.02451518,-0.01266627,-0.00009583,0.00020520,-0.00011860,-0.0000
 8435,0.00000928,0.00001528,-0.00003236,-0.00005153,-0.00004207,0.00032
 752,-0.00013562,0.00021471,-0.00000890,-0.00001065,0.00000040,0.001339
 36,-0.00008015,-0.00112033,0.00098103,0.00060911,0.00020011,-0.0002604
 4,-0.00003060,0.00012212,-0.00001165,-0.00003098,0.00001556,-0.0000025
 7,-0.00000191,-0.00001325,-0.00040960,0.00020908,-0.00087729,-0.000043
 18,0.00003995,-0.00000156,0.30525406,-0.00015408,-0.00008562,-0.000182
 36,0.00002323,0.00006090,-0.00053534,-0.00000105,-0.00005079,-0.000032
 87,0.24853929,-0.24447847,0.12632726,-0.00007976,-0.00003488,0.0000386
 5,-0.00001739,-0.00003332,-0.00000739,-0.00040099,0.00089088,0.0000465
 7,-0.00208264,-0.00082481,0.00101954,-0.00030406,-0.00006477,0.0000804
 7,-0.01555748,0.00779294,-0.00403112,0.00007991,0.00014193,-0.00007645
 ,0.00000093,-0.00001165,0.00001541,0.00012588,-0.00001854,-0.00006118,
 -0.00025408,0.00031619,0.00001263,0.00000731,-0.00000246,-0.00000115,-
 0.00137510,0.00050275,-0.00041827,0.00003889,-0.00017951,0.00045941,0.
 00014503,0.00014342,-0.00000689,0.00000081,0.00000606,0.00000802,-0.00
 000387,0.00000925,-0.00000489,-0.00018961,-0.00025361,-0.00034969,0.00
 001952,0.00000056,0.00000674,-0.22857409,0.23615625,-0.00014629,-0.000
 07344,-0.00012397,-0.00148255,-0.00027178,0.00013389,-0.00001893,-0.00
 009070,-0.00006864,-0.12470599,0.13153837,-0.07320122,0.00004651,-0.00
 004524,-0.00007085,0.00002699,-0.00000883,-0.00001993,0.00041658,-0.00
 018238,0.00059957,0.00200735,0.00107363,-0.00232283,0.00009946,0.00015
 022,-0.00002639,0.01361111,-0.00998065,0.00336378,-0.00005317,-0.00001
 045,0.00011734,-0.00002616,0.00000350,0.00000405,-0.00002053,-0.000035
 05,-0.00003921,-0.00006306,-0.00002014,-0.00004799,0.00000726,0.000013
 46,0.00001180,-0.00010351,0.00075813,0.00028524,0.00135404,-0.00082991
 ,-0.00012504,0.00004929,0.00006968,0.00014303,0.00000278,0.00000337,0.
 00001350,-0.00000764,0.00000425,-0.00001070,0.00041501,0.00023879,0.00
 154524,0.00001724,0.00000251,0.00003357,0.10857715,-0.12230914,0.06979
 708,0.00031876,-0.00014354,0.00009039,0.00019815,-0.00004500,-0.000131
 29,0.00100904,0.00035291,-0.00018834,0.00023596,-0.00003287,-0.0000002
 4,0.00141242,-0.00024925,-0.00199712,-0.07827652,0.07809231,0.06364119
 ,-0.00027331,0.00058654,0.00006254,-0.00007766,-0.00022105,0.00013788,
 0.00002954,0.00056643,0.00017332,-0.00008164,0.00007258,-0.00006330,-0
 .00508143,0.00127489,0.00410269,-0.02371447,0.03325918,0.02655066,0.00
 001679,-0.00018367,-0.00006450,-0.00006607,-0.00000013,-0.00000638,0.0
 0013686,0.00007468,-0.00003792,0.00000636,-0.00000774,-0.00000596,-0.0
 0000817,0.00000439,-0.00000954,0.00000110,0.00002385,-0.00004879,-0.00
 299074,-0.00015216,0.00079545,-0.00479931,-0.00019734,-0.00069878,-0.0
 0004318,-0.00000081,0.00004118,-0.00052142,-0.00051547,-0.00012959,-0.
 00002357,0.00001342,-0.00000292,0.11259250,-0.00016369,-0.00049396,0.0
 0021189,0.00009040,-0.00011112,-0.00004192,0.00039388,-0.00077873,-0.0
 0036092,0.00010741,-0.00006558,0.00002097,0.00219033,-0.00309176,-0.00
 005877,0.11841652,-0.32429763,-0.22632210,0.00015834,0.00080263,-0.000
 26248,0.00003408,-0.00020921,0.00016604,0.00128974,-0.00037348,-0.0010
 7273,0.00001751,0.00010353,-0.00007575,-0.00917238,0.00340519,0.002456
 91,0.00330669,0.00447647,0.00432833,0.00014035,-0.00017865,-0.00003286
 ,-0.00008194,-0.00000775,-0.00000637,0.00036356,0.00013041,-0.00008840
 ,0.00000890,-0.00003221,-0.00001044,0.00000003,0.00000504,0.00000996,0
 .00016924,0.00008590,-0.00001276,0.00003576,-0.00058847,-0.00102370,-0
 .00374858,-0.00104447,0.00222148,-0.00002412,0.00001796,0.00002434,-0.
 00096296,-0.00032180,0.00002470,0.00000309,0.00001732,0.00000179,-0.11
 257215,0.32255038,0.00006692,0.00001012,-0.00032677,-0.00000429,0.0000
 2426,-0.00005473,-0.00049225,-0.00046356,-0.00018124,-0.00001837,-0.00
 000093,-0.00002816,-0.00111358,0.00079605,-0.00360295,0.08843310,-0.21
 616331,-0.15226106,0.00018216,0.00006488,0.00025250,0.00001175,-0.0000
 8102,-0.00002465,0.00087057,-0.00077759,-0.00028503,0.00001472,0.00001
 320,0.00003280,-0.00126568,-0.00140280,0.00317068,0.00529791,-0.002226
 46,-0.00633082,0.00002014,-0.00007184,-0.00010468,-0.00001851,-0.00001
 087,0.00001302,0.00008971,0.00000246,0.00000825,-0.00000127,-0.0000028
 3,0.00000041,-0.00000802,-0.00000325,-0.00001514,-0.00000758,0.0000288
 2,0.00008614,-0.00324643,0.00042680,-0.00044110,0.00350658,-0.00011212
 ,-0.00050736,0.00001373,-0.00000251,0.00000397,-0.00012443,0.00004768,
 0.00021661,0.00000372,0.00000203,0.00000871,-0.09221063,0.21990278,0.1
 6037060\\0.00001364,0.00000529,-0.00001146,-0.00000646,-0.00000164,-0.
 00000662,-0.00001134,-0.00002258,0.00000275,-0.00000805,-0.00001086,0.
 00000310,-0.00001285,-0.00001915,-0.00000867,0.00000980,0.00001222,0.0
 0000504,-0.00000035,0.00000403,0.00001811,0.00000475,-0.00000956,0.000
 02472,-0.00000919,0.00001546,-0.00000288,0.00000637,0.00000748,-0.0000
 1756,0.00000979,0.00004647,0.00001927,0.00000046,-0.00003487,-0.000008
 44,0.00000401,0.00000450,-0.00000286,0.00000179,0.00000515,-0.00000495
 ,0.00000212,0.00000799,-0.00000016,0.00000597,0.00000189,-0.00000130,-
 0.00000134,0.00000028,0.00000587,-0.00000768,-0.00000760,0.00000086,-0
 .00001286,-0.00000007,-0.00000549,0.00000353,-0.00000470,-0.00000297,-
 0.00000029,0.00000228,0.00000083,0.00002060,-0.00000390,-0.00001232,-0
 .00000673,0.00000306,0.00000205,-0.00000569,-0.00000117,0.00000309\\\@


 A CHEMICAL PHYSICIST MAKES PRECISE MEASUREMENTS ON IMPURE COMPOUNDS.
 A THEORETICAL PHYSICAL CHEMIST MAKES IMPRECISE
     MEASUREMENTS ON PURE COMPOUNDS.
 AN EXPERIMENTAL PHYSICAL CHEMIST MAKES IMPRECISE
     MEASUREMENTS ON IMPURE COMPOUNDS.
 Job cpu time:       0 days  4 hours  8 minutes  2.5 seconds.
 Elapsed time:       0 days  0 hours 15 minutes 34.5 seconds.
 File lengths (MBytes):  RWF=    273 Int=      0 D2E=      0 Chk=     11 Scr=      1
 Normal termination of Gaussian 16 at Sat Sep 20 12:15:17 2025.
