 Entering Gaussian System, Link 0=g16
 Input=LLUN0061.gjf
 Output=LLUN0061.log
 Initial command:
 /usr/local/g16/l1.exe "/dados_01/scratch/Gau-2511583.inp" -scrdir="/dados_01/scratch/"
 Entering Link 1 = /usr/local/g16/l1.exe PID=   2511584.
  
 Copyright (c) 1988-2017, Gaussian, Inc.  All Rights Reserved.
  
 This is part of the Gaussian(R) 16 program.  It is based on
 the Gaussian(R) 09 system (copyright 2009, Gaussian, Inc.),
 the Gaussian(R) 03 system (copyright 2003, Gaussian, Inc.),
 the Gaussian(R) 98 system (copyright 1998, Gaussian, Inc.),
 the Gaussian(R) 94 system (copyright 1995, Gaussian, Inc.),
 the Gaussian 92(TM) system (copyright 1992, Gaussian, Inc.),
 the Gaussian 90(TM) system (copyright 1990, Gaussian, Inc.),
 the Gaussian 88(TM) system (copyright 1988, Gaussian, Inc.),
 the Gaussian 86(TM) system (copyright 1986, Carnegie Mellon
 University), and the Gaussian 82(TM) system (copyright 1983,
 Carnegie Mellon University). Gaussian is a federally registered
 trademark of Gaussian, Inc.
  
 This software contains proprietary and confidential information,
 including trade secrets, belonging to Gaussian, Inc.
  
 This software is provided under written license and may be
 used, copied, transmitted, or stored only in accord with that
 written license.
  
 The following legend is applicable only to US Government
 contracts under FAR:
  
                    RESTRICTED RIGHTS LEGEND
  
 Use, reproduction and disclosure by the US Government is
 subject to restrictions as set forth in subparagraphs (a)
 and (c) of the Commercial Computer Software - Restricted
 Rights clause in FAR 52.227-19.
  
 Gaussian, Inc.
 340 Quinnipiac St., Bldg. 40, Wallingford CT 06492
  
  
 ---------------------------------------------------------------
 Warning -- This program may not be used in any manner that
 competes with the business of Gaussian, Inc. or will provide
 assistance to any competitor of Gaussian, Inc.  The licensee
 of this program is prohibited from giving any competitor of
 Gaussian, Inc. access to this program.  By using this program,
 the user acknowledges that Gaussian, Inc. is engaged in the
 business of creating and licensing software in the field of
 computational chemistry and represents and warrants to the
 licensee that it is not a competitor of Gaussian, Inc. and that
 it will not use this program in any manner prohibited above.
 ---------------------------------------------------------------
  

 Cite this work as:
 Gaussian 16, Revision B.01,
 M. J. Frisch, G. W. Trucks, H. B. Schlegel, G. E. Scuseria, 
 M. A. Robb, J. R. Cheeseman, G. Scalmani, V. Barone, 
 G. A. Petersson, H. Nakatsuji, X. Li, M. Caricato, A. V. Marenich, 
 J. Bloino, B. G. Janesko, R. Gomperts, B. Mennucci, H. P. Hratchian, 
 J. V. Ortiz, A. F. Izmaylov, J. L. Sonnenberg, D. Williams-Young, 
 F. Ding, F. Lipparini, F. Egidi, J. Goings, B. Peng, A. Petrone, 
 T. Henderson, D. Ranasinghe, V. G. Zakrzewski, J. Gao, N. Rega, 
 G. Zheng, W. Liang, M. Hada, M. Ehara, K. Toyota, R. Fukuda, 
 J. Hasegawa, M. Ishida, T. Nakajima, Y. Honda, O. Kitao, H. Nakai, 
 T. Vreven, K. Throssell, J. A. Montgomery, Jr., J. E. Peralta, 
 F. Ogliaro, M. J. Bearpark, J. J. Heyd, E. N. Brothers, K. N. Kudin, 
 V. N. Staroverov, T. A. Keith, R. Kobayashi, J. Normand, 
 K. Raghavachari, A. P. Rendell, J. C. Burant, S. S. Iyengar, 
 J. Tomasi, M. Cossi, J. M. Millam, M. Klene, C. Adamo, R. Cammi, 
 J. W. Ochterski, R. L. Martin, K. Morokuma, O. Farkas, 
 J. B. Foresman, and D. J. Fox, Gaussian, Inc., Wallingford CT, 2016.
 
 ******************************************
 Gaussian 16:  ES64L-G16RevB.01 20-Dec-2017
                 7-Oct-2025 
 ******************************************
 %nprocs=16
 Will use up to   16 processors via shared memory.
 %mem=40GB
 %chk=LLUN0061.chk
 ----------------------------------------------------------------------
 # opt freq=noraman M08HX/6-311++G** scf=xqc Empiricaldispersion=pfd In
 t(Grid=ultraFine)
 ----------------------------------------------------------------------
 1/18=20,19=15,26=4,38=1/1,3;
 2/9=110,12=2,17=6,18=5,40=1/2;
 3/5=4,6=6,7=1111,11=2,25=1,30=1,71=1,74=-74,75=-5,124=11/1,2,3;
 4//1;
 5/5=2,8=3,13=1,38=5/2,8;
 6/7=2,8=2,9=2,10=2,28=1/1;
 7//1,2,3,16;
 1/18=20,19=15,26=4/3(2);
 2/9=110/2;
 99//99;
 2/9=110/2;
 3/5=4,6=6,7=1111,11=2,25=1,30=1,71=1,74=-74,75=-5,124=11/1,2,3;
 4/5=5,16=3,69=1/1;
 5/5=2,8=3,13=1,38=5/2,8;
 7//1,2,3,16;
 1/18=20,19=15,26=4/3(-5);
 2/9=110/2;
 6/7=2,8=2,9=2,10=2,19=2,28=1/1;
 99/9=1/99;
 --------
 LLUN0061
 --------
 Symbolic Z-matrix:
 Charge =  0 Multiplicity = 1
 O                     0.633     0.1301   -1.447 
 O                     1.7237   -0.8054    0.3736 
 O                    -1.5357    1.7465   -0.6245 
 O                    -0.4469   -0.2312    2.1898 
 O                    -1.6045   -1.5023   -0.9726 
 C                     0.7751    1.1631   -0.4654 
 C                    -0.5552    1.273     0.3014 
 C                    -1.0333   -0.0664    0.897 
 C                    -0.6228   -1.2747    0.0347 
 C                     0.7368   -1.0495   -0.6382 
 C                     1.9297    0.6168    0.3512 
 H                     1.0173    2.1079   -0.962 
 H                    -0.4594    2.0309    1.0867 
 H                    -2.122    -0.0577    1.0273 
 H                    -0.5735   -2.1691    0.6676 
 H                     1.0306   -1.8952   -1.2674 
 H                     2.8851    0.7935   -0.1543 
 H                     1.9862    1.015     1.3678 
 H                    -1.6199    1.0838   -1.3315 
 H                    -0.7525    0.5055    2.746 
 H                    -1.3215   -2.2767   -1.4881 
 

 GradGradGradGradGradGradGradGradGradGradGradGradGradGradGradGradGradGrad
 Berny optimization.
 Initialization pass.
                           ----------------------------
                           !    Initial Parameters    !
                           ! (Angstroms and Degrees)  !
 --------------------------                            --------------------------
 ! Name  Definition              Value          Derivative Info.                !
 --------------------------------------------------------------------------------
 ! R1    R(1,6)                  1.4321         estimate D2E/DX2                !
 ! R2    R(1,10)                 1.434          estimate D2E/DX2                !
 ! R3    R(2,10)                 1.4343         estimate D2E/DX2                !
 ! R4    R(2,11)                 1.4372         estimate D2E/DX2                !
 ! R5    R(3,7)                  1.4293         estimate D2E/DX2                !
 ! R6    R(3,19)                 0.9727         estimate D2E/DX2                !
 ! R7    R(4,8)                  1.4291         estimate D2E/DX2                !
 ! R8    R(4,20)                 0.9724         estimate D2E/DX2                !
 ! R9    R(5,9)                  1.4248         estimate D2E/DX2                !
 ! R10   R(5,21)                 0.9724         estimate D2E/DX2                !
 ! R11   R(6,7)                  1.5394         estimate D2E/DX2                !
 ! R12   R(6,11)                 1.516          estimate D2E/DX2                !
 ! R13   R(6,12)                 1.0945         estimate D2E/DX2                !
 ! R14   R(7,8)                  1.5419         estimate D2E/DX2                !
 ! R15   R(7,13)                 1.0956         estimate D2E/DX2                !
 ! R16   R(8,9)                  1.5401         estimate D2E/DX2                !
 ! R17   R(8,14)                 1.0965         estimate D2E/DX2                !
 ! R18   R(9,10)                 1.5336         estimate D2E/DX2                !
 ! R19   R(9,15)                 1.0968         estimate D2E/DX2                !
 ! R20   R(10,16)                1.0943         estimate D2E/DX2                !
 ! R21   R(11,17)                1.0952         estimate D2E/DX2                !
 ! R22   R(11,18)                1.0933         estimate D2E/DX2                !
 ! A1    A(6,1,10)             101.5124         estimate D2E/DX2                !
 ! A2    A(10,2,11)            104.8348         estimate D2E/DX2                !
 ! A3    A(7,3,19)             107.7303         estimate D2E/DX2                !
 ! A4    A(8,4,20)             107.5251         estimate D2E/DX2                !
 ! A5    A(9,5,21)             107.5464         estimate D2E/DX2                !
 ! A6    A(1,6,7)              107.8892         estimate D2E/DX2                !
 ! A7    A(1,6,11)             100.6522         estimate D2E/DX2                !
 ! A8    A(1,6,12)             109.4894         estimate D2E/DX2                !
 ! A9    A(7,6,11)             114.5546         estimate D2E/DX2                !
 ! A10   A(7,6,12)             110.8309         estimate D2E/DX2                !
 ! A11   A(11,6,12)            112.7633         estimate D2E/DX2                !
 ! A12   A(3,7,6)              107.0851         estimate D2E/DX2                !
 ! A13   A(3,7,8)              108.9841         estimate D2E/DX2                !
 ! A14   A(3,7,13)             107.1666         estimate D2E/DX2                !
 ! A15   A(6,7,8)              113.4758         estimate D2E/DX2                !
 ! A16   A(6,7,13)             109.3214         estimate D2E/DX2                !
 ! A17   A(8,7,13)             110.5591         estimate D2E/DX2                !
 ! A18   A(4,8,7)              108.8072         estimate D2E/DX2                !
 ! A19   A(4,8,9)              107.8571         estimate D2E/DX2                !
 ! A20   A(4,8,14)             107.507          estimate D2E/DX2                !
 ! A21   A(7,8,9)              112.4947         estimate D2E/DX2                !
 ! A22   A(7,8,14)             110.2969         estimate D2E/DX2                !
 ! A23   A(9,8,14)             109.7181         estimate D2E/DX2                !
 ! A24   A(5,9,8)              109.7241         estimate D2E/DX2                !
 ! A25   A(5,9,10)             108.9095         estimate D2E/DX2                !
 ! A26   A(5,9,15)             107.9782         estimate D2E/DX2                !
 ! A27   A(8,9,10)             111.5147         estimate D2E/DX2                !
 ! A28   A(8,9,15)             109.1879         estimate D2E/DX2                !
 ! A29   A(10,9,15)            109.456          estimate D2E/DX2                !
 ! A30   A(1,10,2)             107.9193         estimate D2E/DX2                !
 ! A31   A(1,10,9)             107.7032         estimate D2E/DX2                !
 ! A32   A(1,10,16)            109.3212         estimate D2E/DX2                !
 ! A33   A(2,10,9)             108.9934         estimate D2E/DX2                !
 ! A34   A(2,10,16)            110.6343         estimate D2E/DX2                !
 ! A35   A(9,10,16)            112.1371         estimate D2E/DX2                !
 ! A36   A(2,11,6)             104.8219         estimate D2E/DX2                !
 ! A37   A(2,11,17)            106.9703         estimate D2E/DX2                !
 ! A38   A(2,11,18)            110.6917         estimate D2E/DX2                !
 ! A39   A(6,11,17)            110.9534         estimate D2E/DX2                !
 ! A40   A(6,11,18)            114.1406         estimate D2E/DX2                !
 ! A41   A(17,11,18)           108.9858         estimate D2E/DX2                !
 ! D1    D(10,1,6,7)           -76.2925         estimate D2E/DX2                !
 ! D2    D(10,1,6,11)           44.0416         estimate D2E/DX2                !
 ! D3    D(10,1,6,12)          163.002          estimate D2E/DX2                !
 ! D4    D(6,1,10,2)           -37.8738         estimate D2E/DX2                !
 ! D5    D(6,1,10,9)            79.6601         estimate D2E/DX2                !
 ! D6    D(6,1,10,16)         -158.2614         estimate D2E/DX2                !
 ! D7    D(11,2,10,1)           14.3234         estimate D2E/DX2                !
 ! D8    D(11,2,10,9)         -102.3749         estimate D2E/DX2                !
 ! D9    D(11,2,10,16)         133.8833         estimate D2E/DX2                !
 ! D10   D(10,2,11,6)           13.6378         estimate D2E/DX2                !
 ! D11   D(10,2,11,17)        -104.2351         estimate D2E/DX2                !
 ! D12   D(10,2,11,18)         137.154          estimate D2E/DX2                !
 ! D13   D(19,3,7,6)            62.1478         estimate D2E/DX2                !
 ! D14   D(19,3,7,8)           -60.9766         estimate D2E/DX2                !
 ! D15   D(19,3,7,13)          179.3563         estimate D2E/DX2                !
 ! D16   D(20,4,8,7)            61.0581         estimate D2E/DX2                !
 ! D17   D(20,4,8,9)          -176.6417         estimate D2E/DX2                !
 ! D18   D(20,4,8,14)          -58.3926         estimate D2E/DX2                !
 ! D19   D(21,5,9,8)          -179.186          estimate D2E/DX2                !
 ! D20   D(21,5,9,10)           58.4945         estimate D2E/DX2                !
 ! D21   D(21,5,9,15)          -60.2771         estimate D2E/DX2                !
 ! D22   D(1,6,7,3)            -66.4548         estimate D2E/DX2                !
 ! D23   D(1,6,7,8)             53.8449         estimate D2E/DX2                !
 ! D24   D(1,6,7,13)           177.7618         estimate D2E/DX2                !
 ! D25   D(11,6,7,3)          -177.6178         estimate D2E/DX2                !
 ! D26   D(11,6,7,8)           -57.3181         estimate D2E/DX2                !
 ! D27   D(11,6,7,13)           66.5988         estimate D2E/DX2                !
 ! D28   D(12,6,7,3)            53.4073         estimate D2E/DX2                !
 ! D29   D(12,6,7,8)           173.707          estimate D2E/DX2                !
 ! D30   D(12,6,7,13)          -62.3761         estimate D2E/DX2                !
 ! D31   D(1,6,11,2)           -36.408          estimate D2E/DX2                !
 ! D32   D(1,6,11,17)           78.7194         estimate D2E/DX2                !
 ! D33   D(1,6,11,18)         -157.6816         estimate D2E/DX2                !
 ! D34   D(7,6,11,2)            79.0325         estimate D2E/DX2                !
 ! D35   D(7,6,11,17)         -165.84           estimate D2E/DX2                !
 ! D36   D(7,6,11,18)          -42.2411         estimate D2E/DX2                !
 ! D37   D(12,6,11,2)         -152.9645         estimate D2E/DX2                !
 ! D38   D(12,6,11,17)         -37.8371         estimate D2E/DX2                !
 ! D39   D(12,6,11,18)          85.7619         estimate D2E/DX2                !
 ! D40   D(3,7,8,4)           -153.4647         estimate D2E/DX2                !
 ! D41   D(3,7,8,9)             87.0864         estimate D2E/DX2                !
 ! D42   D(3,7,8,14)           -35.7683         estimate D2E/DX2                !
 ! D43   D(6,7,8,4)             87.317          estimate D2E/DX2                !
 ! D44   D(6,7,8,9)            -32.1319         estimate D2E/DX2                !
 ! D45   D(6,7,8,14)          -154.9865         estimate D2E/DX2                !
 ! D46   D(13,7,8,4)           -35.9235         estimate D2E/DX2                !
 ! D47   D(13,7,8,9)          -155.3724         estimate D2E/DX2                !
 ! D48   D(13,7,8,14)           81.7729         estimate D2E/DX2                !
 ! D49   D(4,8,9,5)            153.2828         estimate D2E/DX2                !
 ! D50   D(4,8,9,10)           -85.9607         estimate D2E/DX2                !
 ! D51   D(4,8,9,15)            35.122          estimate D2E/DX2                !
 ! D52   D(7,8,9,5)            -86.7169         estimate D2E/DX2                !
 ! D53   D(7,8,9,10)            34.0396         estimate D2E/DX2                !
 ! D54   D(7,8,9,15)           155.1223         estimate D2E/DX2                !
 ! D55   D(14,8,9,5)            36.4621         estimate D2E/DX2                !
 ! D56   D(14,8,9,10)          157.2186         estimate D2E/DX2                !
 ! D57   D(14,8,9,15)          -81.6987         estimate D2E/DX2                !
 ! D58   D(5,9,10,1)            62.528          estimate D2E/DX2                !
 ! D59   D(5,9,10,2)           179.364          estimate D2E/DX2                !
 ! D60   D(5,9,10,16)          -57.7904         estimate D2E/DX2                !
 ! D61   D(8,9,10,1)           -58.7038         estimate D2E/DX2                !
 ! D62   D(8,9,10,2)            58.1321         estimate D2E/DX2                !
 ! D63   D(8,9,10,16)         -179.0223         estimate D2E/DX2                !
 ! D64   D(15,9,10,1)         -179.6301         estimate D2E/DX2                !
 ! D65   D(15,9,10,2)          -62.7941         estimate D2E/DX2                !
 ! D66   D(15,9,10,16)          60.0515         estimate D2E/DX2                !
 --------------------------------------------------------------------------------
 Trust Radius=3.00D-01 FncErr=1.00D-07 GrdErr=1.00D-06 EigMax=2.50D+02 EigMin=1.00D-04
 Number of steps in this run=    126 maximum allowed number of steps=    126.
 GradGradGradGradGradGradGradGradGradGradGradGradGradGradGradGradGradGrad

                          Input orientation:                          
 ---------------------------------------------------------------------
 Center     Atomic      Atomic             Coordinates (Angstroms)
 Number     Number       Type             X           Y           Z
 ---------------------------------------------------------------------
      1          8           0        0.633000    0.130100   -1.447000
      2          8           0        1.723700   -0.805400    0.373600
      3          8           0       -1.535700    1.746500   -0.624500
      4          8           0       -0.446900   -0.231200    2.189800
      5          8           0       -1.604500   -1.502300   -0.972600
      6          6           0        0.775100    1.163100   -0.465400
      7          6           0       -0.555200    1.273000    0.301400
      8          6           0       -1.033300   -0.066400    0.897000
      9          6           0       -0.622800   -1.274700    0.034700
     10          6           0        0.736800   -1.049500   -0.638200
     11          6           0        1.929700    0.616800    0.351200
     12          1           0        1.017300    2.107900   -0.962000
     13          1           0       -0.459400    2.030900    1.086700
     14          1           0       -2.122000   -0.057700    1.027300
     15          1           0       -0.573500   -2.169100    0.667600
     16          1           0        1.030600   -1.895200   -1.267400
     17          1           0        2.885100    0.793500   -0.154300
     18          1           0        1.986200    1.015000    1.367800
     19          1           0       -1.619900    1.083800   -1.331500
     20          1           0       -0.752500    0.505500    2.746000
     21          1           0       -1.321500   -2.276700   -1.488100
 ---------------------------------------------------------------------
                    Distance matrix (angstroms):
                    1          2          3          4          5
     1  O    0.000000
     2  O    2.319347   0.000000
     3  O    2.827104   4.258179   0.000000
     4  O    3.810910   2.887870   3.607917   0.000000
     5  O    2.810016   3.657163   3.268120   3.599515   0.000000
     6  C    1.432068   2.340674   2.388612   3.238432   3.608893
     7  C    2.403111   3.085181   1.429291   2.416692   3.228993
     8  C    2.882621   2.901916   2.419499   1.429110   2.425589
     9  C    2.397067   2.416849   3.224218   2.400893   1.424847
    10  C    1.434011   1.434328   3.603063   3.173065   2.408015
    11  C    2.269765   1.437216   3.773223   3.122144   4.328233
    12  H    2.072343   3.281790   2.600447   4.189166   4.461781
    13  H    3.350524   3.649525   2.041448   2.516760   4.246819
    14  H    3.707756   3.971875   2.515418   2.046330   2.520769
    15  H    3.348656   2.687609   4.234061   2.467504   2.048863
    16  H    2.071758   2.088285   4.501244   4.111464   2.680491
    17  H    2.680136   2.045485   4.546732   4.200838   5.108505
    18  H    3.246120   2.090741   4.111950   2.854588   4.970654
    19  H    2.449172   4.201917   0.972682   3.937602   2.610931
    20  H    4.431905   3.671281   3.676106   0.972356   4.311050
    21  H    3.100717   3.860556   4.120416   4.298365   0.972381
                    6          7          8          9         10
     6  C    0.000000
     7  C    1.539402   0.000000
     8  C    2.576454   1.541853   0.000000
     9  C    2.854311   2.562513   1.540149   0.000000
    10  C    2.219668   2.818886   2.540980   1.533630   0.000000
    11  C    1.516041   2.570565   3.089341   3.192679   2.275627
    12  H    1.094495   2.183116   3.519719   3.889129   3.186330
    13  H    2.164736   1.095576   2.182662   3.472808   3.727605
    14  H    3.480186   2.180036   1.096504   2.171162   3.454026
    15  H    3.769080   3.461573   2.164576   1.096788   2.162291
    16  H    3.172016   3.874711   3.505541   2.194132   1.094267
    17  H    2.164599   3.503319   4.147110   4.076584   2.871585
    18  H    2.202117   2.768120   3.241675   3.718436   3.138024
    19  H    2.548027   1.958506   2.575514   2.902281   3.253562
    20  H    3.616502   2.569835   1.955689   3.246087   4.011091
    21  H    4.156185   4.048444   3.264535   1.952205   2.542626
                   11         12         13         14         15
    11  C    0.000000
    12  H    2.186401   0.000000
    13  H    2.872009   2.526607   0.000000
    14  H    4.162732   4.301435   2.670209   0.000000
    15  H    3.758638   4.845510   4.222400   2.642962   0.000000
    16  H    3.120639   4.014755   4.814161   4.310562   2.528316
    17  H    1.095236   2.422541   3.775834   5.214573   4.627573
    18  H    1.093266   2.749757   2.663086   4.259570   4.144977
    19  H    3.955911   2.853092   2.844547   2.668157   3.958878
    20  H    3.597451   4.410118   2.272890   2.268624   3.391942
    21  H    4.725005   4.997148   5.091977   3.448478   2.284321
                   16         17         18         19         20
    16  H    0.000000
    17  H    3.450691   0.000000
    18  H    4.040633   1.781536   0.000000
    19  H    3.987944   4.665308   4.504987   0.000000
    20  H    5.005016   4.661203   3.107974   4.208660   0.000000
    21  H    2.393037   5.375931   5.471045   3.377355   5.098235
                   21
    21  H    0.000000
 Stoichiometry    C6H10O5
 Framework group  C1[X(C6H10O5)]
 Deg. of freedom    57
 Full point group                 C1      NOp   1
 Largest Abelian subgroup         C1      NOp   1
 Largest concise Abelian subgroup C1      NOp   1
                         Standard orientation:                         
 ---------------------------------------------------------------------
 Center     Atomic      Atomic             Coordinates (Angstroms)
 Number     Number       Type             X           Y           Z
 ---------------------------------------------------------------------
      1          8           0       -0.588483    0.351866   -1.450001
      2          8           0       -1.644854    0.925168    0.533626
      3          8           0        1.291416   -1.721328   -1.049554
      4          8           0        0.321056   -0.414868    2.170482
      5          8           0        1.818327    1.459146   -0.513313
      6          6           0       -0.924637   -0.870458   -0.783860
      7          6           0        0.332674   -1.369995   -0.049428
      8          6           0        0.952607   -0.318125    0.892147
      9          6           0        0.759018    1.120492    0.377398
     10          6           0       -0.577914    1.279987   -0.356901
     11          6           0       -2.039523   -0.395675    0.127179
     12          1           0       -1.263549   -1.606195   -1.519895
     13          1           0        0.090693   -2.285116    0.502192
     14          1           0        2.020922   -0.518962    1.035983
     15          1           0        0.794996    1.814782    1.225697
     16          1           0       -0.718362    2.294567   -0.742027
     17          1           0       -2.979624   -0.292630   -0.425209
     18          1           0       -2.207222   -1.034077    0.998702
     19          1           0        1.504591   -0.915881   -1.551472
     20          1           0        0.492069   -1.308029    2.514710
     21          1           0        1.672441    2.374304   -0.807810
 ---------------------------------------------------------------------
 Rotational constants (GHZ):           1.3778587           1.2271150           1.1607058
 Standard basis: 6-311++G(d,p) (5D, 7F)
 There are   323 symmetry adapted cartesian basis functions of A   symmetry.
 There are   312 symmetry adapted basis functions of A   symmetry.
   312 basis functions,   486 primitive gaussians,   323 cartesian basis functions
    43 alpha electrons       43 beta electrons
       nuclear repulsion energy       735.4125837320 Hartrees.
 NAtoms=   21 NActive=   21 NUniq=   21 SFac= 1.00D+00 NAtFMM=   60 NAOKFM=F Big=F
 Integral buffers will be    131072 words long.
 Raffenetti 2 integral format.
 Two-electron integral symmetry is turned on.
 R6APFD:  NTU= -4 IXU= 1 FactS= 1.050
 Nuclear repulsion after empirical dispersion term =      735.3914560621 Hartrees.
 One-electron integrals computed using PRISM.
 NBasis=   312 RedAO= T EigKep=  4.33D-06  NBF=   312
 NBsUse=   312 1.00D-06 EigRej= -1.00D+00 NBFU=   312
 ExpMin= 3.60D-02 ExpMax= 8.59D+03 ExpMxC= 1.30D+03 IAcc=3 IRadAn=         5 AccDes= 0.00D+00
 Harris functional with IExCor= 1009 and IRadAn=       5 diagonalized for initial guess.
 HarFok:  IExCor= 1009 AccDes= 0.00D+00 IRadAn=         5 IDoV= 1 UseB2=F ITyADJ=14
 ICtDFT=  3500011 ScaDFX=  1.000000  1.000000  1.000000  1.000000
 FoFCou: FMM=F IPFlag=           0 FMFlag=      100000 FMFlg1=           0
         NFxFlg=           0 DoJE=T BraDBF=F KetDBF=T FulRan=T
         wScrn=  0.000000 ICntrl=       500 IOpCl=  0 I1Cent=   200000004 NGrid=           0
         NMat0=    1 NMatS0=      1 NMatT0=    0 NMatD0=    1 NMtDS0=    0 NMtDT0=    0
 Petite list used in FoFCou.
 Requested convergence on RMS density matrix=1.00D-08 within  32 cycles.
 Requested convergence on MAX density matrix=1.00D-06.
 Requested convergence on             energy=1.00D-06.
 No special actions if energy rises.
 SCF Done:  E(RM08HX) =  -610.733008809     A.U. after   13 cycles
            NFock= 13  Conv=0.67D-08     -V/T= 2.0041
 QCSCF skips out because SCF is already converged.

 **********************************************************************

            Population analysis using the SCF Density.

 **********************************************************************

 Orbital symmetries:
       Occupied  (A) (A) (A) (A) (A) (A) (A) (A) (A) (A) (A) (A)
                 (A) (A) (A) (A) (A) (A) (A) (A) (A) (A) (A) (A)
                 (A) (A) (A) (A) (A) (A) (A) (A) (A) (A) (A) (A)
                 (A) (A) (A) (A) (A) (A) (A)
       Virtual   (A) (A) (A) (A) (A) (A) (A) (A) (A) (A) (A) (A)
                 (A) (A) (A) (A) (A) (A) (A) (A) (A) (A) (A) (A)
                 (A) (A) (A) (A) (A) (A) (A) (A) (A) (A) (A) (A)
                 (A) (A) (A) (A) (A) (A) (A) (A) (A) (A) (A) (A)
                 (A) (A) (A) (A) (A) (A) (A) (A) (A) (A) (A) (A)
                 (A) (A) (A) (A) (A) (A) (A) (A) (A) (A) (A) (A)
                 (A) (A) (A) (A) (A) (A) (A) (A) (A) (A) (A) (A)
                 (A) (A) (A) (A) (A) (A) (A) (A) (A) (A) (A) (A)
                 (A) (A) (A) (A) (A) (A) (A) (A) (A) (A) (A) (A)
                 (A) (A) (A) (A) (A) (A) (A) (A) (A) (A) (A) (A)
                 (A) (A) (A) (A) (A) (A) (A) (A) (A) (A) (A) (A)
                 (A) (A) (A) (A) (A) (A) (A) (A) (A) (A) (A) (A)
                 (A) (A) (A) (A) (A) (A) (A) (A) (A) (A) (A) (A)
                 (A) (A) (A) (A) (A) (A) (A) (A) (A) (A) (A) (A)
                 (A) (A) (A) (A) (A) (A) (A) (A) (A) (A) (A) (A)
                 (A) (A) (A) (A) (A) (A) (A) (A) (A) (A) (A) (A)
                 (A) (A) (A) (A) (A) (A) (A) (A) (A) (A) (A) (A)
                 (A) (A) (A) (A) (A) (A) (A) (A) (A) (A) (A) (A)
                 (A) (A) (A) (A) (A) (A) (A) (A) (A) (A) (A) (A)
                 (A) (A) (A) (A) (A) (A) (A) (A) (A) (A) (A) (A)
                 (A) (A) (A) (A) (A) (A) (A) (A) (A) (A) (A) (A)
                 (A) (A) (A) (A) (A) (A) (A) (A) (A) (A) (A) (A)
                 (A) (A) (A) (A) (A)
 The electronic state is 1-A.
 Alpha  occ. eigenvalues --  -19.64089 -19.63048 -19.62953 -19.62323 -19.61136
 Alpha  occ. eigenvalues --  -10.64752 -10.60124 -10.60118 -10.59967 -10.59943
 Alpha  occ. eigenvalues --  -10.58828  -1.23437  -1.16711  -1.15625  -1.14634
 Alpha  occ. eigenvalues --   -1.12304  -0.90468  -0.88758  -0.78102  -0.76266
 Alpha  occ. eigenvalues --   -0.72529  -0.67132  -0.64516  -0.63118  -0.60415
 Alpha  occ. eigenvalues --   -0.58781  -0.55969  -0.54356  -0.54083  -0.53254
 Alpha  occ. eigenvalues --   -0.51099  -0.49686  -0.47333  -0.45952  -0.45776
 Alpha  occ. eigenvalues --   -0.44358  -0.42938  -0.41391  -0.39079  -0.37772
 Alpha  occ. eigenvalues --   -0.37249  -0.34213  -0.33352
 Alpha virt. eigenvalues --   -0.03537  -0.03085  -0.01770  -0.00694  -0.00037
 Alpha virt. eigenvalues --    0.00536   0.01011   0.01919   0.02044   0.03688
 Alpha virt. eigenvalues --    0.04675   0.05544   0.06252   0.06300   0.07413
 Alpha virt. eigenvalues --    0.07847   0.08996   0.09521   0.09978   0.10458
 Alpha virt. eigenvalues --    0.10871   0.10895   0.11186   0.11738   0.12203
 Alpha virt. eigenvalues --    0.12617   0.13341   0.13632   0.14181   0.14495
 Alpha virt. eigenvalues --    0.14949   0.15482   0.15875   0.16619   0.16954
 Alpha virt. eigenvalues --    0.18559   0.19707   0.21166   0.21584   0.22426
 Alpha virt. eigenvalues --    0.23111   0.23933   0.24416   0.25052   0.25839
 Alpha virt. eigenvalues --    0.26722   0.27510   0.27792   0.28806   0.29635
 Alpha virt. eigenvalues --    0.30090   0.30673   0.30941   0.31088   0.31352
 Alpha virt. eigenvalues --    0.31757   0.32639   0.33256   0.33554   0.33831
 Alpha virt. eigenvalues --    0.34320   0.34685   0.35364   0.35563   0.36251
 Alpha virt. eigenvalues --    0.36535   0.37671   0.38102   0.39247   0.40184
 Alpha virt. eigenvalues --    0.40400   0.43001   0.43606   0.46478   0.48050
 Alpha virt. eigenvalues --    0.50166   0.50930   0.52916   0.55254   0.56011
 Alpha virt. eigenvalues --    0.57466   0.60303   0.61026   0.62168   0.62402
 Alpha virt. eigenvalues --    0.63706   0.64890   0.65369   0.66434   0.67337
 Alpha virt. eigenvalues --    0.68276   0.69978   0.70924   0.72700   0.74057
 Alpha virt. eigenvalues --    0.75005   0.75726   0.76755   0.77162   0.78910
 Alpha virt. eigenvalues --    0.80030   0.84028   0.85715   0.88616   0.96462
 Alpha virt. eigenvalues --    0.97236   0.99775   1.01427   1.04007   1.09341
 Alpha virt. eigenvalues --    1.11755   1.13458   1.15005   1.17669   1.17892
 Alpha virt. eigenvalues --    1.19215   1.19734   1.22753   1.23223   1.24998
 Alpha virt. eigenvalues --    1.26035   1.27838   1.28688   1.31151   1.31756
 Alpha virt. eigenvalues --    1.33567   1.34058   1.35835   1.37113   1.39508
 Alpha virt. eigenvalues --    1.44882   1.45574   1.47036   1.51643   1.52265
 Alpha virt. eigenvalues --    1.52587   1.54492   1.56154   1.58033   1.59962
 Alpha virt. eigenvalues --    1.60749   1.61256   1.63738   1.64675   1.65832
 Alpha virt. eigenvalues --    1.66640   1.67501   1.70205   1.71877   1.74071
 Alpha virt. eigenvalues --    1.75472   1.75835   1.76353   1.78004   1.79680
 Alpha virt. eigenvalues --    1.80840   1.83445   1.83855   1.86785   1.89019
 Alpha virt. eigenvalues --    1.90285   1.91653   1.94678   1.95090   1.97858
 Alpha virt. eigenvalues --    2.01442   2.02748   2.03512   2.05004   2.07411
 Alpha virt. eigenvalues --    2.10434   2.13851   2.14493   2.15750   2.20599
 Alpha virt. eigenvalues --    2.21183   2.24168   2.25551   2.26563   2.31754
 Alpha virt. eigenvalues --    2.33995   2.37106   2.37706   2.49960   2.51692
 Alpha virt. eigenvalues --    2.54506   2.57801   2.59918   2.60920   2.63456
 Alpha virt. eigenvalues --    2.64788   2.69931   2.71025   2.73577   2.73673
 Alpha virt. eigenvalues --    2.77399   2.82084   2.85609   2.87203   2.89270
 Alpha virt. eigenvalues --    2.92331   2.94221   2.97372   2.97861   3.01168
 Alpha virt. eigenvalues --    3.04826   3.08221   3.09323   3.14992   3.16316
 Alpha virt. eigenvalues --    3.17736   3.19638   3.21255   3.23565   3.24242
 Alpha virt. eigenvalues --    3.25000   3.26461   3.28571   3.30168   3.32610
 Alpha virt. eigenvalues --    3.33765   3.36691   3.43349   3.45113   3.49039
 Alpha virt. eigenvalues --    3.50483   3.58054   3.83488   3.85307   3.89084
 Alpha virt. eigenvalues --    3.93937   3.95760   4.00328   4.03807   4.07954
 Alpha virt. eigenvalues --    4.11191   4.12267   4.17600   4.21023   4.23578
 Alpha virt. eigenvalues --    4.27365   4.33193   4.47294   5.21882   5.24648
 Alpha virt. eigenvalues --    5.25429   5.30454   5.32174   5.49044   5.51533
 Alpha virt. eigenvalues --    5.54236   5.57177   5.61040   5.62044   5.72100
 Alpha virt. eigenvalues --    5.73847   5.77135   5.79420  23.79464  23.84131
 Alpha virt. eigenvalues --   23.89533  23.91450  23.92547  24.01786  49.92745
 Alpha virt. eigenvalues --   49.95346  49.98407  49.99323  50.02710
          Condensed to atoms (all electrons):
               1          2          3          4          5          6
     1  O    7.966085  -0.068963   0.011567   0.020040   0.014827   0.170657
     2  O   -0.068963   7.885384  -0.007354  -0.034036   0.016746  -0.063668
     3  O    0.011567  -0.007354   7.788923   0.021644   0.012007  -0.307228
     4  O    0.020040  -0.034036   0.021644   7.866157   0.011617  -0.173814
     5  O    0.014827   0.016746   0.012007   0.011617   7.871648  -0.031674
     6  C    0.170657  -0.063668  -0.307228  -0.173814  -0.031674  10.750520
     7  C   -0.080703   0.051257   0.586140  -0.009245  -0.056685  -3.624398
     8  C   -0.257543  -0.045847  -0.228145   0.270502  -0.081604   2.092359
     9  C    0.217322  -0.240186   0.019557   0.033093   0.370288  -0.004952
    10  C    0.073012   0.385652   0.005852  -0.157745  -0.143110  -1.341419
    11  C    0.015549   0.253617   0.061877   0.134959   0.012937  -2.170150
    12  H   -0.032970   0.008969  -0.005306  -0.002586  -0.002949   0.379928
    13  H    0.011596   0.009699  -0.090452  -0.018691  -0.005654   0.005222
    14  H   -0.004980  -0.008486  -0.013458  -0.030153  -0.005757   0.012045
    15  H    0.016699   0.018901  -0.004393   0.001417  -0.031487  -0.021843
    16  H   -0.057121  -0.041800  -0.001383  -0.005265  -0.019241  -0.021203
    17  H   -0.020925  -0.062055  -0.001063   0.000061   0.000637  -0.087521
    18  H    0.021195  -0.074580   0.003217   0.000931  -0.000046  -0.012292
    19  H    0.021274  -0.003079   0.250733   0.001129  -0.002498   0.017698
    20  H    0.001337  -0.002501   0.003884   0.224470   0.000585  -0.035066
    21  H   -0.008202   0.000603   0.002739   0.001759   0.228428  -0.008931
               7          8          9         10         11         12
     1  O   -0.080703  -0.257543   0.217322   0.073012   0.015549  -0.032970
     2  O    0.051257  -0.045847  -0.240186   0.385652   0.253617   0.008969
     3  O    0.586140  -0.228145   0.019557   0.005852   0.061877  -0.005306
     4  O   -0.009245   0.270502   0.033093  -0.157745   0.134959  -0.002586
     5  O   -0.056685  -0.081604   0.370288  -0.143110   0.012937  -0.002949
     6  C   -3.624398   2.092359  -0.004952  -1.341419  -2.170150   0.379928
     7  C   11.423072  -3.979349   0.635809   0.397228   1.259197   0.002411
     8  C   -3.979349  12.579943  -4.179280   1.854965  -1.573243  -0.102485
     9  C    0.635809  -4.179280  12.915443  -5.154073   1.055405   0.097390
    10  C    0.397228   1.854965  -5.154073  11.786326  -1.088076  -0.147256
    11  C    1.259197  -1.573243   1.055405  -1.088076   8.097193   0.053059
    12  H    0.002411  -0.102485   0.097390  -0.147256   0.053059   0.409397
    13  H    0.376115  -0.148705   0.069611  -0.032744  -0.034640  -0.018058
    14  H   -0.196630   0.645388  -0.262186   0.045473  -0.001129  -0.003966
    15  H    0.080772  -0.390383   0.775683  -0.290287   0.056042   0.002326
    16  H    0.028880   0.072991  -0.179865   0.449062  -0.053417  -0.003946
    17  H    0.030805   0.019608  -0.059457   0.092499   0.347805  -0.020978
    18  H   -0.017323  -0.059176   0.087061  -0.098028   0.447845   0.014242
    19  H   -0.083712   0.066059   0.006557  -0.007155  -0.024276  -0.014447
    20  H   -0.006528   0.043366  -0.015478   0.029131   0.010041   0.000980
    21  H    0.030319  -0.044834   0.038742  -0.000298   0.002594  -0.000779
              13         14         15         16         17         18
     1  O    0.011596  -0.004980   0.016699  -0.057121  -0.020925   0.021195
     2  O    0.009699  -0.008486   0.018901  -0.041800  -0.062055  -0.074580
     3  O   -0.090452  -0.013458  -0.004393  -0.001383  -0.001063   0.003217
     4  O   -0.018691  -0.030153   0.001417  -0.005265   0.000061   0.000931
     5  O   -0.005654  -0.005757  -0.031487  -0.019241   0.000637  -0.000046
     6  C    0.005222   0.012045  -0.021843  -0.021203  -0.087521  -0.012292
     7  C    0.376115  -0.196630   0.080772   0.028880   0.030805  -0.017323
     8  C   -0.148705   0.645388  -0.390383   0.072991   0.019608  -0.059176
     9  C    0.069611  -0.262186   0.775683  -0.179865  -0.059457   0.087061
    10  C   -0.032744   0.045473  -0.290287   0.449062   0.092499  -0.098028
    11  C   -0.034640  -0.001129   0.056042  -0.053417   0.347805   0.447845
    12  H   -0.018058  -0.003966   0.002326  -0.003946  -0.020978   0.014242
    13  H    0.603058  -0.018069   0.004507   0.003741   0.009047  -0.026008
    14  H   -0.018069   0.538217  -0.040169   0.004924   0.001238  -0.003966
    15  H    0.004507  -0.040169   0.544229  -0.040230  -0.002301   0.001213
    16  H    0.003741   0.004924  -0.040230   0.514807   0.023372  -0.017340
    17  H    0.009047   0.001238  -0.002301   0.023372   0.542435  -0.081585
    18  H   -0.026008  -0.003966   0.001213  -0.017340  -0.081585   0.562769
    19  H    0.027504  -0.004464   0.000463  -0.005061  -0.001549   0.001453
    20  H   -0.007945  -0.028369   0.002867   0.000682   0.000178   0.000662
    21  H   -0.000043   0.003313  -0.015982  -0.000336  -0.000124   0.000874
              19         20         21
     1  O    0.021274   0.001337  -0.008202
     2  O   -0.003079  -0.002501   0.000603
     3  O    0.250733   0.003884   0.002739
     4  O    0.001129   0.224470   0.001759
     5  O   -0.002498   0.000585   0.228428
     6  C    0.017698  -0.035066  -0.008931
     7  C   -0.083712  -0.006528   0.030319
     8  C    0.066059   0.043366  -0.044834
     9  C    0.006557  -0.015478   0.038742
    10  C   -0.007155   0.029131  -0.000298
    11  C   -0.024276   0.010041   0.002594
    12  H   -0.014447   0.000980  -0.000779
    13  H    0.027504  -0.007945  -0.000043
    14  H   -0.004464  -0.028369   0.003313
    15  H    0.000463   0.002867  -0.015982
    16  H   -0.005061   0.000682  -0.000336
    17  H   -0.001549   0.000178  -0.000124
    18  H    0.001453   0.000662   0.000874
    19  H    0.446659  -0.000204  -0.001247
    20  H   -0.000204   0.502218  -0.001085
    21  H   -0.001247  -0.001085   0.487395
 Mulliken charges:
               1
     1  O   -0.029753
     2  O    0.021728
     3  O   -0.109358
     4  O   -0.156246
     5  O   -0.159015
     6  C    0.475730
     7  C   -0.847432
     8  C   -0.554586
     9  C   -0.226484
    10  C   -0.659009
    11  C   -0.863191
    12  H    0.387023
    13  H    0.280909
    14  H    0.371184
    15  H    0.331958
    16  H    0.347748
    17  H    0.269874
    18  H    0.248882
    19  H    0.308165
    20  H    0.276777
    21  H    0.285096
 Sum of Mulliken charges =  -0.00000
 Mulliken charges with hydrogens summed into heavy atoms:
               1
     1  O   -0.029753
     2  O    0.021728
     3  O    0.198807
     4  O    0.120531
     5  O    0.126081
     6  C    0.862753
     7  C   -0.566523
     8  C   -0.183403
     9  C    0.105474
    10  C   -0.311261
    11  C   -0.344435
 Electronic spatial extent (au):  <R**2>=           1349.8589
 Charge=              0.0000 electrons
 Dipole moment (field-independent basis, Debye):
    X=             -0.7961    Y=              0.0821    Z=              0.4757  Tot=              0.9310
 Quadrupole moment (field-independent basis, Debye-Ang):
   XX=            -68.3436   YY=            -57.7125   ZZ=            -69.1005
   XY=              6.9930   XZ=              3.7894   YZ=             -7.9107
 Traceless Quadrupole moment (field-independent basis, Debye-Ang):
   XX=             -3.2914   YY=              7.3397   ZZ=             -4.0483
   XY=              6.9930   XZ=              3.7894   YZ=             -7.9107
 Octapole moment (field-independent basis, Debye-Ang**2):
  XXX=             -9.1243  YYY=             30.1407  ZZZ=              0.2062  XYY=              1.0582
  XXY=             -4.3296  XXZ=             -1.1407  XZZ=              8.6303  YZZ=            -10.0221
  YYZ=              6.5110  XYZ=             -6.1779
 Hexadecapole moment (field-independent basis, Debye-Ang**3):
 XXXX=           -672.5558 YYYY=           -497.8339 ZZZZ=           -472.8858 XXXY=             10.9913
 XXXZ=              5.0197 YYYX=             45.2408 YYYZ=            -52.3213 ZZZX=             -9.0459
 ZZZY=            -30.0539 XXYY=           -211.0807 XXZZ=           -179.5083 YYZZ=           -148.8664
 XXYZ=            -13.7968 YYXZ=             10.3893 ZZXY=              4.2417
 N-N= 7.353914560621D+02 E-N=-2.903592963808D+03  KE= 6.082679029125D+02
 R6APFD:  NTU= -4 IXU= 1 FactS= 1.050
 Calling FoFJK, ICntrl=      2127 FMM=F ISym2X=0 I1Cent= 0 IOpClX= 0 NMat=1 NMatS=1 NMatT=0.
 ***** Axes restored to original set *****
 -------------------------------------------------------------------
 Center     Atomic                   Forces (Hartrees/Bohr)
 Number     Number              X              Y              Z
 -------------------------------------------------------------------
      1        8           0.005354966   -0.010299335    0.007731783
      2        8          -0.011072225    0.008421858   -0.016034674
      3        8           0.002224266   -0.003873468   -0.000915834
      4        8           0.000113726    0.005029908    0.005526572
      5        8           0.002009317   -0.001976487   -0.004327768
      6        6           0.000793347   -0.007337945    0.004691267
      7        6          -0.012003124    0.003414883   -0.025326249
      8        6           0.011935889    0.001158432    0.014714536
      9        6          -0.004604919   -0.012399828   -0.003606048
     10        6           0.000048518    0.014729679    0.008775869
     11        6           0.009522780   -0.006259111    0.005593576
     12        1          -0.003052395   -0.000411513   -0.001654213
     13        1          -0.002314332    0.001267688    0.001817705
     14        1          -0.003104016    0.001382109   -0.008917650
     15        1           0.003508404    0.001682637    0.007205870
     16        1           0.001864237   -0.000061080   -0.002641804
     17        1           0.001244680    0.004046825   -0.001206536
     18        1          -0.002687447   -0.002707461    0.003274797
     19        1           0.002110002    0.004341662    0.006957614
     20        1           0.003863899   -0.011490136   -0.007088531
     21        1          -0.005755574    0.011340686    0.005429720
 -------------------------------------------------------------------
 Cartesian Forces:  Max     0.025326249 RMS     0.007260912

 GradGradGradGradGradGradGradGradGradGradGradGradGradGradGradGradGradGrad
 Berny optimization.
 FormGI is forming the generalized inverse of G from B-inverse, IUseBI=4.
 Internal  Forces:  Max     0.013975284 RMS     0.003771700
 Search for a local minimum.
 Step number   1 out of a maximum of  126
 All quantities printed in internal units (Hartrees-Bohrs-Radians)
 Mixed Optimization -- RFO/linear search
 Second derivative matrix not updated -- first step.
 ITU=  0
     Eigenvalues ---    0.00336   0.00731   0.01304   0.01307   0.01353
     Eigenvalues ---    0.01363   0.02558   0.03397   0.04066   0.04316
     Eigenvalues ---    0.04400   0.04821   0.05060   0.05181   0.05730
     Eigenvalues ---    0.05918   0.06205   0.06651   0.07124   0.07383
     Eigenvalues ---    0.07554   0.08647   0.09052   0.09514   0.10923
     Eigenvalues ---    0.11248   0.11339   0.12743   0.16000   0.16000
     Eigenvalues ---    0.16000   0.16594   0.17280   0.18045   0.18615
     Eigenvalues ---    0.26289   0.26420   0.28136   0.28562   0.28860
     Eigenvalues ---    0.33728   0.34040   0.34072   0.34176   0.34214
     Eigenvalues ---    0.34298   0.34324   0.34438   0.35587   0.38606
     Eigenvalues ---    0.39209   0.41091   0.41117   0.41739   0.52833
     Eigenvalues ---    0.52893   0.52898
 RFO step:  Lambda=-1.28055078D-02 EMin= 3.36350285D-03
 Linear search not attempted -- first point.
 Iteration  1 RMS(Cart)=  0.06797994 RMS(Int)=  0.00213179
 Iteration  2 RMS(Cart)=  0.00277217 RMS(Int)=  0.00072460
 Iteration  3 RMS(Cart)=  0.00000242 RMS(Int)=  0.00072460
 Iteration  4 RMS(Cart)=  0.00000000 RMS(Int)=  0.00072460
 Variable       Old X    -DE/DX   Delta X   Delta X   Delta X     New X
                                 (Linear)    (Quad)   (Total)
    R1        2.70622  -0.00310   0.00000  -0.00627  -0.00686   2.69936
    R2        2.70989  -0.01219   0.00000  -0.03609  -0.03605   2.67384
    R3        2.71049  -0.01226   0.00000  -0.02976  -0.02991   2.68058
    R4        2.71595  -0.00606   0.00000  -0.01156  -0.01138   2.70456
    R5        2.70097  -0.00673   0.00000  -0.01589  -0.01589   2.68508
    R6        1.83810  -0.00820   0.00000  -0.01515  -0.01515   1.82295
    R7        2.70063   0.00096   0.00000   0.00227   0.00227   2.70290
    R8        1.83749  -0.01398   0.00000  -0.02579  -0.02579   1.81169
    R9        2.69257   0.00031   0.00000   0.00072   0.00072   2.69329
   R10        1.83753  -0.01359   0.00000  -0.02508  -0.02508   1.81245
   R11        2.90905  -0.00138   0.00000  -0.01212  -0.01238   2.89667
   R12        2.86490   0.00402   0.00000   0.01390   0.01413   2.87904
   R13        2.06830  -0.00028   0.00000  -0.00079  -0.00079   2.06751
   R14        2.91368   0.00135   0.00000   0.00432   0.00413   2.91781
   R15        2.07034   0.00198   0.00000   0.00558   0.00558   2.07592
   R16        2.91046  -0.00720   0.00000  -0.02137  -0.02090   2.88956
   R17        2.07209   0.00203   0.00000   0.00575   0.00575   2.07784
   R18        2.89814  -0.00002   0.00000   0.00724   0.00747   2.90561
   R19        2.07263   0.00294   0.00000   0.00833   0.00833   2.08096
   R20        2.06786   0.00207   0.00000   0.00581   0.00581   2.07367
   R21        2.06970   0.00230   0.00000   0.00647   0.00647   2.07616
   R22        2.06597   0.00192   0.00000   0.00538   0.00538   2.07135
    A1        1.77173   0.00137   0.00000   0.00131   0.00047   1.77220
    A2        1.82971   0.00712   0.00000   0.03577   0.03509   1.86480
    A3        1.88025  -0.00390   0.00000  -0.02255  -0.02255   1.85770
    A4        1.87667   0.00136   0.00000   0.00788   0.00788   1.88455
    A5        1.87704   0.00465   0.00000   0.02691   0.02691   1.90395
    A6        1.88302   0.00007   0.00000  -0.00949  -0.01027   1.87275
    A7        1.75671  -0.00128   0.00000   0.00901   0.00922   1.76593
    A8        1.91095   0.00076   0.00000  -0.01214  -0.01242   1.89853
    A9        1.99936   0.00293   0.00000   0.01186   0.01154   2.01090
   A10        1.93436  -0.00354   0.00000  -0.02216  -0.02187   1.91249
   A11        1.96809   0.00125   0.00000   0.02305   0.02320   1.99129
   A12        1.86899   0.00384   0.00000   0.02825   0.02928   1.89827
   A13        1.90213   0.00244   0.00000   0.02884   0.02955   1.93168
   A14        1.87041  -0.00166   0.00000  -0.00715  -0.00740   1.86301
   A15        1.98053  -0.00389   0.00000  -0.02516  -0.02794   1.95259
   A16        1.90802   0.00001   0.00000  -0.00039  -0.00052   1.90750
   A17        1.92962  -0.00050   0.00000  -0.02169  -0.02111   1.90851
   A18        1.89904   0.00496   0.00000   0.05651   0.05660   1.95565
   A19        1.88246  -0.00420   0.00000  -0.01832  -0.01733   1.86513
   A20        1.87635   0.00410   0.00000   0.06622   0.06635   1.94270
   A21        1.96340   0.00089   0.00000  -0.01020  -0.01250   1.95090
   A22        1.92504  -0.00272   0.00000  -0.04336  -0.04531   1.87973
   A23        1.91494  -0.00280   0.00000  -0.04522  -0.04636   1.86859
   A24        1.91505  -0.00750   0.00000  -0.06154  -0.06054   1.85451
   A25        1.90083   0.00472   0.00000   0.03038   0.02832   1.92915
   A26        1.88458   0.00457   0.00000   0.07331   0.07213   1.95671
   A27        1.94630  -0.00145   0.00000  -0.02395  -0.02510   1.92120
   A28        1.90569  -0.00055   0.00000  -0.01874  -0.01796   1.88773
   A29        1.91037   0.00042   0.00000   0.00400   0.00290   1.91327
   A30        1.88355  -0.00113   0.00000  -0.01940  -0.01952   1.86403
   A31        1.87978   0.00307   0.00000   0.03267   0.03246   1.91224
   A32        1.90801  -0.00292   0.00000  -0.02625  -0.02693   1.88108
   A33        1.90229  -0.00038   0.00000   0.00044   0.00010   1.90239
   A34        1.93093   0.00009   0.00000  -0.00270  -0.00280   1.92813
   A35        1.95716   0.00126   0.00000   0.01484   0.01559   1.97276
   A36        1.82949  -0.00734   0.00000  -0.03171  -0.03239   1.79710
   A37        1.86698   0.00332   0.00000   0.03067   0.03128   1.89826
   A38        1.93193   0.00198   0.00000  -0.01419  -0.01463   1.91730
   A39        1.93650  -0.00105   0.00000  -0.01041  -0.01008   1.92642
   A40        1.99213   0.00259   0.00000   0.01057   0.01037   2.00250
   A41        1.90216   0.00041   0.00000   0.01485   0.01481   1.91697
    D1       -1.33155  -0.00077   0.00000  -0.00219  -0.00199  -1.33355
    D2        0.76867   0.00194   0.00000   0.01168   0.01124   0.77991
    D3        2.84492   0.00302   0.00000   0.03750   0.03714   2.88206
    D4       -0.66102  -0.00253   0.00000  -0.03840  -0.03786  -0.69888
    D5        1.39033  -0.00194   0.00000  -0.03078  -0.03116   1.35917
    D6       -2.76218  -0.00028   0.00000  -0.00834  -0.00873  -2.77091
    D7        0.24999   0.00184   0.00000   0.05974   0.06070   0.31069
    D8       -1.78678  -0.00097   0.00000   0.03141   0.03298  -1.75380
    D9        2.33671  -0.00235   0.00000   0.01422   0.01512   2.35182
   D10        0.23802  -0.00139   0.00000  -0.05843  -0.05865   0.17938
   D11       -1.81925   0.00184   0.00000  -0.04529  -0.04516  -1.86441
   D12        2.39379  -0.00173   0.00000  -0.07361  -0.07362   2.32017
   D13        1.08468  -0.00063   0.00000  -0.00000  -0.00046   1.08423
   D14       -1.06424   0.00030   0.00000  -0.00384  -0.00324  -1.06749
   D15        3.13036   0.00049   0.00000   0.01021   0.01006   3.14042
   D16        1.06567   0.00080   0.00000   0.02874   0.03082   1.09649
   D17       -3.08298   0.00229   0.00000   0.03896   0.03879  -3.04419
   D18       -1.01914  -0.00104   0.00000   0.01144   0.00953  -1.00961
   D19       -3.12738  -0.00072   0.00000  -0.02294  -0.02282   3.13298
   D20        1.02092   0.00278   0.00000   0.02610   0.02799   1.04891
   D21       -1.05203  -0.00296   0.00000  -0.03736  -0.03937  -1.09141
   D22       -1.15985  -0.00031   0.00000   0.04999   0.04978  -1.11008
   D23        0.93977   0.00300   0.00000   0.08995   0.08929   1.02906
   D24        3.10253  -0.00043   0.00000   0.04340   0.04279  -3.13787
   D25       -3.10001  -0.00032   0.00000   0.03865   0.03889  -3.06113
   D26       -1.00039   0.00298   0.00000   0.07861   0.07840  -0.92199
   D27        1.16237  -0.00044   0.00000   0.03206   0.03190   1.19427
   D28        0.93213  -0.00142   0.00000   0.01614   0.01631   0.94845
   D29        3.03176   0.00188   0.00000   0.05611   0.05583   3.08759
   D30       -1.08867  -0.00154   0.00000   0.00956   0.00933  -1.07934
   D31       -0.63544   0.00206   0.00000   0.04038   0.03979  -0.59565
   D32        1.37391   0.00144   0.00000   0.05401   0.05417   1.42809
   D33       -2.75206   0.00312   0.00000   0.07356   0.07379  -2.67827
   D34        1.37938   0.00263   0.00000   0.03961   0.03821   1.41759
   D35       -2.89445   0.00200   0.00000   0.05324   0.05259  -2.84186
   D36       -0.73725   0.00369   0.00000   0.07279   0.07221  -0.66504
   D37       -2.66973   0.00137   0.00000   0.03974   0.03896  -2.63078
   D38       -0.66038   0.00075   0.00000   0.05337   0.05334  -0.60704
   D39        1.49683   0.00244   0.00000   0.07292   0.07296   1.56978
   D40       -2.67846  -0.00314   0.00000  -0.07967  -0.07961  -2.75807
   D41        1.51994  -0.00176   0.00000  -0.08814  -0.08794   1.43200
   D42       -0.62427   0.00322   0.00000   0.00928   0.00841  -0.61586
   D43        1.52397  -0.00720   0.00000  -0.11922  -0.11884   1.40513
   D44       -0.56081  -0.00582   0.00000  -0.12769  -0.12718  -0.68799
   D45       -2.70503  -0.00084   0.00000  -0.03027  -0.03082  -2.73585
   D46       -0.62698  -0.00398   0.00000  -0.08366  -0.08357  -0.71055
   D47       -2.71176  -0.00260   0.00000  -0.09213  -0.09190  -2.80366
   D48        1.42721   0.00238   0.00000   0.00529   0.00446   1.43166
   D49        2.67529  -0.00159   0.00000   0.04188   0.04175   2.71704
   D50       -1.50030  -0.00164   0.00000   0.02311   0.02340  -1.47689
   D51        0.61299  -0.00241   0.00000   0.00013   0.00008   0.61307
   D52       -1.51350   0.00233   0.00000   0.09372   0.09281  -1.42068
   D53        0.59410   0.00227   0.00000   0.07495   0.07447   0.66857
   D54        2.70739   0.00151   0.00000   0.05197   0.05115   2.75854
   D55        0.63638  -0.00259   0.00000  -0.00224  -0.00251   0.63387
   D56        2.74398  -0.00264   0.00000  -0.02102  -0.02085   2.72313
   D57       -1.42591  -0.00341   0.00000  -0.04399  -0.04418  -1.47009
   D58        1.09132  -0.00656   0.00000  -0.08148  -0.08176   1.00956
   D59        3.13049  -0.00642   0.00000  -0.08633  -0.08697   3.04352
   D60       -1.00863  -0.00572   0.00000  -0.07947  -0.07986  -1.08850
   D61       -1.02457   0.00060   0.00000  -0.00950  -0.00919  -1.03376
   D62        1.01460   0.00074   0.00000  -0.01435  -0.01439   1.00020
   D63       -3.12453   0.00143   0.00000  -0.00749  -0.00729  -3.13181
   D64       -3.13514   0.00194   0.00000   0.02686   0.02699  -3.10815
   D65       -1.09596   0.00208   0.00000   0.02201   0.02178  -1.07419
   D66        1.04810   0.00278   0.00000   0.02887   0.02889   1.07698
         Item               Value     Threshold  Converged?
 Maximum Force            0.013975     0.000450     NO 
 RMS     Force            0.003772     0.000300     NO 
 Maximum Displacement     0.267817     0.001800     NO 
 RMS     Displacement     0.068200     0.001200     NO 
 Predicted change in Energy=-7.804759D-03
 GradGradGradGradGradGradGradGradGradGradGradGradGradGradGradGradGradGrad

                          Input orientation:                          
 ---------------------------------------------------------------------
 Center     Atomic      Atomic             Coordinates (Angstroms)
 Number     Number       Type             X           Y           Z
 ---------------------------------------------------------------------
      1          8           0        0.668014    0.119739   -1.442581
      2          8           0        1.718047   -0.796101    0.355513
      3          8           0       -1.553611    1.666801   -0.707614
      4          8           0       -0.342015   -0.252934    2.175148
      5          8           0       -1.656673   -1.396590   -0.925212
      6          6           0        0.779952    1.152913   -0.462551
      7          6           0       -0.577087    1.262028    0.241842
      8          6           0       -0.986167   -0.067680    0.911603
      9          6           0       -0.621184   -1.274503    0.046451
     10          6           0        0.735924   -1.042174   -0.637976
     11          6           0        1.917723    0.620413    0.399443
     12          1           0        1.006936    2.095729   -0.969091
     13          1           0       -0.528524    2.052948    1.002665
     14          1           0       -2.080601   -0.065832    1.017511
     15          1           0       -0.559340   -2.158895    0.699644
     16          1           0        1.041124   -1.877501   -1.280808
     17          1           0        2.887766    0.854960   -0.059963
     18          1           0        1.905553    0.965986    1.439583
     19          1           0       -1.591877    0.970141   -1.373779
     20          1           0       -0.630437    0.449714    2.760140
     21          1           0       -1.463223   -2.141263   -1.497866
 ---------------------------------------------------------------------
                    Distance matrix (angstroms):
                    1          2          3          4          5
     1  O    0.000000
     2  O    2.274748   0.000000
     3  O    2.805208   4.230824   0.000000
     4  O    3.774521   2.801777   3.669287   0.000000
     5  O    2.823312   3.659178   3.072839   3.556474   0.000000
     6  C    1.428439   2.312554   2.402010   3.192597   3.556847
     7  C    2.385872   3.084876   1.420882   2.467396   3.097705
     8  C    2.883336   2.855277   2.439730   1.430314   2.364206
     9  C    2.413122   2.407569   3.176367   2.377580   1.425228
    10  C    1.414935   1.418499   3.547586   3.114244   2.435700
    11  C    2.281557   1.431193   3.790866   3.003711   4.312693
    12  H    2.060000   3.259285   2.609358   4.149955   4.392384
    13  H    3.338897   3.685508   2.031002   2.593568   4.109592
    14  H    3.693423   3.924445   2.501158   2.097096   2.392658
    15  H    3.359717   2.676215   4.195820   2.420130   2.103665
    16  H    2.038222   2.074898   4.429817   4.061518   2.763301
    17  H    2.716521   2.065639   4.561180   4.081010   5.144907
    18  H    3.248770   2.077333   4.131272   2.660523   4.885025
    19  H    2.415579   4.131061   0.964663   3.956381   2.409737
    20  H    4.411091   3.584642   3.789309   0.958706   4.247802
    21  H    3.107628   3.919815   3.890247   4.279476   0.959110
                    6          7          8          9         10
     6  C    0.000000
     7  C    1.532851   0.000000
     8  C    2.548985   1.544037   0.000000
     9  C    2.848616   2.544428   1.529092   0.000000
    10  C    2.202526   2.794177   2.513251   1.537582   0.000000
    11  C    1.523520   2.580811   3.027930   3.187689   2.288468
    12  H    1.094078   2.161145   3.491391   3.878217   3.166942
    13  H    2.160794   1.098528   2.171358   3.463360   3.724287
    14  H    3.443645   2.150681   1.099548   2.129259   3.409794
    15  H    3.756658   3.451466   2.144829   1.101197   2.171175
    16  H    3.149788   3.846260   3.491709   2.210994   1.097339
    17  H    2.166503   3.501714   4.099094   4.105931   2.926371
    18  H    2.218115   2.772314   3.115971   3.653081   3.117209
    19  H    2.547413   1.930085   2.582040   2.828026   3.163775
    20  H    3.587398   2.646606   1.952262   3.215138   3.954727
    21  H    4.117682   3.923546   3.214477   1.960923   2.604544
                   11         12         13         14         15
    11  C    0.000000
    12  H    2.208840   0.000000
    13  H    2.898303   2.499458   0.000000
    14  H    4.103601   4.260496   2.626479   0.000000
    15  H    3.735039   4.831121   4.222842   2.606951   0.000000
    16  H    3.135482   3.985586   4.809000   4.278971   2.561808
    17  H    1.098658   2.429721   3.772982   5.166574   4.641430
    18  H    1.096111   2.808121   2.701317   4.139108   4.048220
    19  H    3.947647   2.860865   2.819695   2.651483   3.893082
    20  H    3.477808   4.392894   2.381063   2.324977   3.324987
    21  H    4.759982   4.932888   4.971692   3.318990   2.376208
                   16         17         18         19         20
    16  H    0.000000
    17  H    3.516660   0.000000
    18  H    4.029043   1.796026   0.000000
    19  H    3.879485   4.669752   4.488545   0.000000
    20  H    4.953717   4.527136   2.905452   4.276037   0.000000
    21  H    2.527536   5.475036   5.443551   3.116534   5.053445
                   21
    21  H    0.000000
 Stoichiometry    C6H10O5
 Framework group  C1[X(C6H10O5)]
 Deg. of freedom    57
 Full point group                 C1      NOp   1
 Largest Abelian subgroup         C1      NOp   1
 Largest concise Abelian subgroup C1      NOp   1
                         Standard orientation:                         
 ---------------------------------------------------------------------
 Center     Atomic      Atomic             Coordinates (Angstroms)
 Number     Number       Type             X           Y           Z
 ---------------------------------------------------------------------
      1          8           0       -0.485838    0.115668   -1.527913
      2          8           0       -1.679694    0.954120    0.217419
      3          8           0        1.435687   -1.755466   -0.705846
      4          8           0        0.033097   -0.022091    2.208226
      5          8           0        1.886740    1.279219   -0.533872
      6          6           0       -0.842768   -0.995012   -0.703639
      7          6           0        0.381616   -1.340031    0.151625
      8          6           0        0.827458   -0.147660    1.025425
      9          6           0        0.716661    1.179284    0.273718
     10          6           0       -0.546148    1.185148   -0.603458
     11          6           0       -2.029850   -0.424899    0.062469
     12          1           0       -1.092306   -1.844632   -1.346200
     13          1           0        0.143421   -2.195853    0.797842
     14          1           0        1.889545   -0.291720    1.270831
     15          1           0        0.654968    1.990201    1.016176
     16          1           0       -0.668334    2.114591   -1.173860
     17          1           0       -2.943851   -0.491477   -0.543519
     18          1           0       -2.201623   -0.878092    1.045611
     19          1           0        1.640489   -1.001523   -1.271710
     20          1           0        0.160788   -0.812407    2.735685
     21          1           0        1.855155    2.098339   -1.031804
 ---------------------------------------------------------------------
 Rotational constants (GHZ):           1.4283242           1.2247921           1.1842496
 Standard basis: 6-311++G(d,p) (5D, 7F)
 There are   323 symmetry adapted cartesian basis functions of A   symmetry.
 There are   312 symmetry adapted basis functions of A   symmetry.
   312 basis functions,   486 primitive gaussians,   323 cartesian basis functions
    43 alpha electrons       43 beta electrons
       nuclear repulsion energy       740.1609070697 Hartrees.
 NAtoms=   21 NActive=   21 NUniq=   21 SFac= 1.00D+00 NAtFMM=   60 NAOKFM=F Big=F
 Integral buffers will be    131072 words long.
 Raffenetti 2 integral format.
 Two-electron integral symmetry is turned on.
 R6APFD:  NTU= -4 IXU= 1 FactS= 1.050
 Nuclear repulsion after empirical dispersion term =      740.1391096959 Hartrees.
 One-electron integrals computed using PRISM.
 NBasis=   312 RedAO= T EigKep=  4.52D-06  NBF=   312
 NBsUse=   312 1.00D-06 EigRej= -1.00D+00 NBFU=   312
 Initial guess from the checkpoint file:  "LLUN0061.chk"
 B after Tr=     0.000000   -0.000000   -0.000000
         Rot=    0.995799    0.078103    0.047372   -0.006295 Ang=  10.51 deg.
 ExpMin= 3.60D-02 ExpMax= 8.59D+03 ExpMxC= 1.30D+03 IAcc=3 IRadAn=         5 AccDes= 0.00D+00
 Harris functional with IExCor= 1009 and IRadAn=       5 diagonalized for initial guess.
 HarFok:  IExCor= 1009 AccDes= 0.00D+00 IRadAn=         5 IDoV= 1 UseB2=F ITyADJ=14
 ICtDFT=  3500011 ScaDFX=  1.000000  1.000000  1.000000  1.000000
 FoFCou: FMM=F IPFlag=           0 FMFlag=      100000 FMFlg1=           0
         NFxFlg=           0 DoJE=T BraDBF=F KetDBF=T FulRan=T
         wScrn=  0.000000 ICntrl=       500 IOpCl=  0 I1Cent=   200000004 NGrid=           0
         NMat0=    1 NMatS0=      1 NMatT0=    0 NMatD0=    1 NMtDS0=    0 NMtDT0=    0
 Petite list used in FoFCou.
 Requested convergence on RMS density matrix=1.00D-08 within  32 cycles.
 Requested convergence on MAX density matrix=1.00D-06.
 Requested convergence on             energy=1.00D-06.
 No special actions if energy rises.
 SCF Done:  E(RM08HX) =  -610.740264362     A.U. after   12 cycles
            NFock= 12  Conv=0.35D-08     -V/T= 2.0039
 QCSCF skips out because SCF is already converged.
 R6APFD:  NTU= -4 IXU= 1 FactS= 1.050
 Calling FoFJK, ICntrl=      2127 FMM=F ISym2X=0 I1Cent= 0 IOpClX= 0 NMat=1 NMatS=1 NMatT=0.
 ***** Axes restored to original set *****
 -------------------------------------------------------------------
 Center     Atomic                   Forces (Hartrees/Bohr)
 Number     Number              X              Y              Z
 -------------------------------------------------------------------
      1        8           0.000360399   -0.002870775    0.002791071
      2        8           0.000387782    0.000296746   -0.005061960
      3        8           0.004107157   -0.003742706    0.004333849
      4        8          -0.002707813    0.003857139   -0.007100851
      5        8           0.003861819    0.001070536    0.002818233
      6        6          -0.000685265    0.003722584   -0.000062650
      7        6          -0.003114163    0.003757627   -0.005543905
      8        6           0.003180074   -0.001002332    0.008105597
      9        6          -0.003471845   -0.003164213   -0.002902852
     10        6           0.002857077    0.003894941    0.000822338
     11        6           0.001809801   -0.004140456    0.000665629
     12        1           0.000214053   -0.000408076   -0.001436848
     13        1          -0.001110744    0.000703620    0.001069689
     14        1          -0.001448049    0.000505224    0.000778331
     15        1           0.000065340   -0.000138687   -0.000118640
     16        1           0.000147948   -0.001103809    0.000541299
     17        1          -0.000093158    0.000530693    0.000872928
     18        1          -0.002227760   -0.001607054   -0.000271080
     19        1          -0.001081491   -0.000032912   -0.000352317
     20        1          -0.000497399   -0.000789512    0.000883256
     21        1          -0.000553764    0.000661423   -0.000831116
 -------------------------------------------------------------------
 Cartesian Forces:  Max     0.008105597 RMS     0.002618956

 GradGradGradGradGradGradGradGradGradGradGradGradGradGradGradGradGradGrad
 Berny optimization.
 Using GEDIIS/GDIIS optimizer.
 FormGI is forming the generalized inverse of G from B-inverse, IUseBI=4.
 Internal  Forces:  Max     0.007333901 RMS     0.001283236
 Search for a local minimum.
 Step number   2 out of a maximum of  126
 All quantities printed in internal units (Hartrees-Bohrs-Radians)
 Mixed Optimization -- RFO/linear search
 Update second derivatives using D2CorX and points    1    2
 DE= -7.26D-03 DEPred=-7.80D-03 R= 9.30D-01
 TightC=F SS=  1.41D+00  RLast= 4.74D-01 DXNew= 5.0454D-01 1.4214D+00
 Trust test= 9.30D-01 RLast= 4.74D-01 DXMaxT set to 5.05D-01
 ITU=  1  0
 Use linear search instead of GDIIS.
     Eigenvalues ---    0.00394   0.00736   0.01288   0.01306   0.01337
     Eigenvalues ---    0.01364   0.02626   0.03405   0.04185   0.04447
     Eigenvalues ---    0.04654   0.05007   0.05060   0.05141   0.05734
     Eigenvalues ---    0.05995   0.06179   0.06465   0.06908   0.07134
     Eigenvalues ---    0.07388   0.08768   0.09243   0.09332   0.10972
     Eigenvalues ---    0.11142   0.11594   0.12641   0.15823   0.16000
     Eigenvalues ---    0.16165   0.16414   0.17315   0.17976   0.18657
     Eigenvalues ---    0.26088   0.26563   0.28067   0.28239   0.29006
     Eigenvalues ---    0.33719   0.33851   0.34068   0.34142   0.34232
     Eigenvalues ---    0.34299   0.34306   0.34470   0.34933   0.37744
     Eigenvalues ---    0.39194   0.40897   0.41533   0.42341   0.52838
     Eigenvalues ---    0.52891   0.53134
 RFO step:  Lambda=-2.31547376D-03 EMin= 3.93947608D-03
 Quartic linear search produced a step of  0.13378.
 Iteration  1 RMS(Cart)=  0.04906304 RMS(Int)=  0.00126408
 Iteration  2 RMS(Cart)=  0.00151789 RMS(Int)=  0.00033001
 Iteration  3 RMS(Cart)=  0.00000102 RMS(Int)=  0.00033001
 Iteration  4 RMS(Cart)=  0.00000000 RMS(Int)=  0.00033001
 Variable       Old X    -DE/DX   Delta X   Delta X   Delta X     New X
                                 (Linear)    (Quad)   (Total)
    R1        2.69936  -0.00044  -0.00092   0.00135   0.00032   2.69968
    R2        2.67384  -0.00252  -0.00482  -0.00637  -0.01129   2.66255
    R3        2.68058  -0.00344  -0.00400  -0.01331  -0.01721   2.66337
    R4        2.70456  -0.00163  -0.00152  -0.00452  -0.00584   2.69873
    R5        2.68508  -0.00582  -0.00213  -0.01488  -0.01700   2.66808
    R6        1.82295   0.00031  -0.00203   0.00133  -0.00070   1.82225
    R7        2.70290  -0.00733   0.00030  -0.01977  -0.01946   2.68344
    R8        1.81169   0.00011  -0.00345   0.00139  -0.00206   1.80963
    R9        2.69329  -0.00391   0.00010  -0.01035  -0.01026   2.68303
   R10        1.81245  -0.00013  -0.00336   0.00085  -0.00250   1.80995
   R11        2.89667   0.00146  -0.00166   0.00429   0.00232   2.89899
   R12        2.87904   0.00191   0.00189   0.01222   0.01409   2.89312
   R13        2.06751   0.00036  -0.00011   0.00119   0.00108   2.06859
   R14        2.91781   0.00002   0.00055  -0.00248  -0.00211   2.91570
   R15        2.07592   0.00120   0.00075   0.00360   0.00435   2.08027
   R16        2.88956   0.00290  -0.00280   0.01413   0.01141   2.90098
   R17        2.07784   0.00152   0.00077   0.00464   0.00541   2.08325
   R18        2.90561   0.00151   0.00100   0.00736   0.00869   2.91430
   R19        2.08096   0.00004   0.00111  -0.00024   0.00087   2.08183
   R20        2.07367   0.00056   0.00078   0.00154   0.00232   2.07599
   R21        2.07616  -0.00033   0.00087  -0.00137  -0.00051   2.07565
   R22        2.07135  -0.00074   0.00072  -0.00261  -0.00190   2.06945
    A1        1.77220   0.00102   0.00006   0.00835   0.00775   1.77995
    A2        1.86480   0.00038   0.00469  -0.00286   0.00046   1.86527
    A3        1.85770   0.00168  -0.00302   0.01261   0.00959   1.86729
    A4        1.88455   0.00119   0.00105   0.00771   0.00876   1.89331
    A5        1.90395   0.00183   0.00360   0.01112   0.01472   1.91867
    A6        1.87275   0.00053  -0.00137  -0.00498  -0.00660   1.86615
    A7        1.76593  -0.00194   0.00123  -0.00590  -0.00489   1.76104
    A8        1.89853   0.00023  -0.00166  -0.00495  -0.00659   1.89195
    A9        2.01090   0.00046   0.00154  -0.00487  -0.00353   2.00736
   A10        1.91249  -0.00067  -0.00293   0.00715   0.00437   1.91686
   A11        1.99129   0.00129   0.00310   0.01099   0.01429   2.00558
   A12        1.89827   0.00089   0.00392   0.01110   0.01510   1.91337
   A13        1.93168  -0.00098   0.00395  -0.01315  -0.00848   1.92319
   A14        1.86301   0.00015  -0.00099   0.00569   0.00432   1.86733
   A15        1.95259  -0.00013  -0.00374  -0.01266  -0.01777   1.93482
   A16        1.90750   0.00068  -0.00007   0.01029   0.01058   1.91809
   A17        1.90851  -0.00058  -0.00282  -0.00010  -0.00267   1.90584
   A18        1.95565  -0.00065   0.00757  -0.00809  -0.00034   1.95531
   A19        1.86513   0.00148  -0.00232   0.01861   0.01631   1.88144
   A20        1.94270  -0.00028   0.00888  -0.00397   0.00482   1.94752
   A21        1.95090  -0.00113  -0.00167  -0.01321  -0.01557   1.93533
   A22        1.87973   0.00018  -0.00606   0.00229  -0.00397   1.87576
   A23        1.86859   0.00041  -0.00620   0.00460  -0.00156   1.86702
   A24        1.85451  -0.00122  -0.00810  -0.01283  -0.02053   1.83398
   A25        1.92915  -0.00008   0.00379  -0.01291  -0.00938   1.91977
   A26        1.95671   0.00083   0.00965   0.00463   0.01410   1.97081
   A27        1.92120   0.00071  -0.00336   0.00781   0.00361   1.92481
   A28        1.88773   0.00036  -0.00240   0.01143   0.00918   1.89691
   A29        1.91327  -0.00058   0.00039   0.00226   0.00264   1.91591
   A30        1.86403   0.00049  -0.00261  -0.00171  -0.00467   1.85936
   A31        1.91224  -0.00047   0.00434  -0.00031   0.00398   1.91621
   A32        1.88108   0.00029  -0.00360   0.00645   0.00279   1.88388
   A33        1.90239   0.00020   0.00001   0.00418   0.00414   1.90653
   A34        1.92813  -0.00055  -0.00038  -0.00660  -0.00677   1.92136
   A35        1.97276   0.00006   0.00209  -0.00201   0.00024   1.97299
   A36        1.79710   0.00018  -0.00433   0.01564   0.01008   1.80718
   A37        1.89826  -0.00039   0.00418   0.00075   0.00547   1.90374
   A38        1.91730  -0.00000  -0.00196  -0.01343  -0.01521   1.90210
   A39        1.92642   0.00031  -0.00135   0.00300   0.00173   1.92815
   A40        2.00250  -0.00071   0.00139  -0.01054  -0.00878   1.99372
   A41        1.91697   0.00058   0.00198   0.00511   0.00700   1.92397
    D1       -1.33355  -0.00038  -0.00027  -0.01241  -0.01247  -1.34602
    D2        0.77991  -0.00059   0.00150  -0.02284  -0.02148   0.75843
    D3        2.88206  -0.00001   0.00497  -0.01545  -0.01051   2.87156
    D4       -0.69888  -0.00088  -0.00506  -0.02830  -0.03306  -0.73194
    D5        1.35917  -0.00063  -0.00417  -0.02447  -0.02867   1.33049
    D6       -2.77091  -0.00065  -0.00117  -0.02302  -0.02411  -2.79502
    D7        0.31069   0.00049   0.00812   0.05992   0.06820   0.37889
    D8       -1.75380   0.00067   0.00441   0.05903   0.06390  -1.68990
    D9        2.35182   0.00083   0.00202   0.06314   0.06533   2.41716
   D10        0.17938  -0.00042  -0.00785  -0.06791  -0.07607   0.10331
   D11       -1.86441  -0.00069  -0.00604  -0.07947  -0.08559  -1.95000
   D12        2.32017  -0.00116  -0.00985  -0.07808  -0.08829   2.23188
   D13        1.08423  -0.00017  -0.00006   0.01204   0.01139   1.09562
   D14       -1.06749   0.00003  -0.00043   0.02902   0.02910  -1.03839
   D15        3.14042   0.00117   0.00135   0.03300   0.03442  -3.10834
   D16        1.09649   0.00076   0.00412   0.04274   0.04734   1.14383
   D17       -3.04419  -0.00004   0.00519   0.03387   0.03877  -3.00542
   D18       -1.00961   0.00117   0.00128   0.04820   0.04929  -0.96032
   D19        3.13298  -0.00038  -0.00305  -0.02797  -0.03106   3.10191
   D20        1.04891  -0.00046   0.00374  -0.02265  -0.01856   1.03035
   D21       -1.09141  -0.00024  -0.00527  -0.01950  -0.02507  -1.11648
   D22       -1.11008   0.00071   0.00666   0.05961   0.06633  -1.04374
   D23        1.02906   0.00000   0.01195   0.04234   0.05425   1.08332
   D24       -3.13787  -0.00034   0.00572   0.04096   0.04644  -3.09143
   D25       -3.06113   0.00251   0.00520   0.07253   0.07824  -2.98289
   D26       -0.92199   0.00181   0.01049   0.05526   0.06616  -0.85583
   D27        1.19427   0.00146   0.00427   0.05388   0.05834   1.25261
   D28        0.94845   0.00092   0.00218   0.05475   0.05710   1.00555
   D29        3.08759   0.00022   0.00747   0.03748   0.04502   3.13261
   D30       -1.07934  -0.00013   0.00125   0.03610   0.03720  -1.04214
   D31       -0.59565   0.00098   0.00532   0.05724   0.06235  -0.53330
   D32        1.42809   0.00076   0.00725   0.06762   0.07481   1.50290
   D33       -2.67827   0.00124   0.00987   0.06882   0.07885  -2.59943
   D34        1.41759   0.00062   0.00511   0.04553   0.05001   1.46760
   D35       -2.84186   0.00040   0.00704   0.05591   0.06247  -2.77939
   D36       -0.66504   0.00088   0.00966   0.05712   0.06651  -0.59853
   D37       -2.63078   0.00130   0.00521   0.06174   0.06676  -2.56401
   D38       -0.60704   0.00108   0.00714   0.07212   0.07923  -0.52781
   D39        1.56978   0.00157   0.00976   0.07332   0.08327   1.65305
   D40       -2.75807   0.00100  -0.01065  -0.04104  -0.05169  -2.80976
   D41        1.43200   0.00034  -0.01177  -0.05009  -0.06149   1.37051
   D42       -0.61586   0.00036   0.00113  -0.04962  -0.04859  -0.66445
   D43        1.40513   0.00064  -0.01590  -0.03730  -0.05300   1.35212
   D44       -0.68799  -0.00003  -0.01701  -0.04635  -0.06281  -0.75079
   D45       -2.73585  -0.00001  -0.00412  -0.04588  -0.04991  -2.78575
   D46       -0.71055   0.00026  -0.01118  -0.04191  -0.05300  -0.76355
   D47       -2.80366  -0.00040  -0.01229  -0.05096  -0.06280  -2.86647
   D48        1.43166  -0.00039   0.00060  -0.05050  -0.04990   1.38176
   D49        2.71704   0.00117   0.00558   0.04855   0.05418   2.77122
   D50       -1.47689   0.00074   0.00313   0.02982   0.03309  -1.44380
   D51        0.61307   0.00067   0.00001   0.04410   0.04415   0.65723
   D52       -1.42068   0.00066   0.01242   0.04282   0.05493  -1.36576
   D53        0.66857   0.00023   0.00996   0.02409   0.03384   0.70241
   D54        2.75854   0.00016   0.00684   0.03837   0.04489   2.80343
   D55        0.63387   0.00051  -0.00034   0.04106   0.04070   0.67457
   D56        2.72313   0.00008  -0.00279   0.02234   0.01961   2.74274
   D57       -1.47009   0.00001  -0.00591   0.03662   0.03067  -1.43942
   D58        1.00956  -0.00085  -0.01094  -0.00517  -0.01606   0.99349
   D59        3.04352  -0.00042  -0.01164  -0.00502  -0.01706   3.02646
   D60       -1.08850  -0.00093  -0.01068  -0.01183  -0.02257  -1.11107
   D61       -1.03376   0.00027  -0.00123   0.01359   0.01238  -1.02138
   D62        1.00020   0.00070  -0.00193   0.01374   0.01139   1.01159
   D63       -3.13181   0.00019  -0.00097   0.00693   0.00587  -3.12594
   D64       -3.10815  -0.00024   0.00361  -0.00657  -0.00280  -3.11095
   D65       -1.07419   0.00019   0.00291  -0.00642  -0.00379  -1.07798
   D66        1.07698  -0.00033   0.00386  -0.01323  -0.00931   1.06767
         Item               Value     Threshold  Converged?
 Maximum Force            0.007334     0.000450     NO 
 RMS     Force            0.001283     0.000300     NO 
 Maximum Displacement     0.209172     0.001800     NO 
 RMS     Displacement     0.049199     0.001200     NO 
 Predicted change in Energy=-1.461028D-03
 GradGradGradGradGradGradGradGradGradGradGradGradGradGradGradGradGradGrad

                          Input orientation:                          
 ---------------------------------------------------------------------
 Center     Atomic      Atomic             Coordinates (Angstroms)
 Number     Number       Type             X           Y           Z
 ---------------------------------------------------------------------
      1          8           0        0.676866    0.126375   -1.445930
      2          8           0        1.740505   -0.819006    0.308127
      3          8           0       -1.570550    1.589996   -0.744727
      4          8           0       -0.273698   -0.202783    2.163787
      5          8           0       -1.656908   -1.337787   -0.907129
      6          6           0        0.781451    1.155144   -0.460221
      7          6           0       -0.590215    1.264921    0.217920
      8          6           0       -0.958675   -0.053955    0.928839
      9          6           0       -0.611583   -1.264457    0.050865
[...]
 225,-0.00283337,0.65630388,0.00589453,0.06314993,-0.13531758,-0.065547
 61,-0.02359237,-0.10711139,-0.00015324,0.00063053,-0.00192836,-0.00247
 107,0.00134855,-0.00051875,-0.03817106,-0.00087195,-0.00165072,-0.0036
 0071,-0.00309733,0.02498345,0.00053561,-0.00257699,-0.00060783,0.02486
 543,-0.00330752,-0.00851667,0.06549712,-0.00732530,-0.10220340,-0.0321
 7212,0.12242839,0.49773174,-0.00317500,-0.00637142,-0.01758654,-0.0766
 0523,-0.00061586,-0.01507191,-0.00598426,0.00060698,0.00130160,-0.0046
 3996,-0.00356869,0.00285175,-0.00060658,0.00055601,0.00046695,-0.14744
 706,0.01795001,-0.03880466,-0.02070124,0.00895890,-0.02037720,-0.00135
 711,-0.00040120,0.00103986,-0.00206935,-0.00117691,-0.00325660,-0.0073
 4493,-0.03053155,-0.00374548,0.57864512,-0.01265289,-0.01773433,-0.008
 82299,-0.01905242,-0.19683085,-0.01453054,-0.00269679,0.00067422,-0.00
 113786,-0.00321186,-0.00395683,-0.00065074,0.00414112,-0.00014398,0.00
 118765,0.03205381,-0.07787376,0.03510138,0.00368289,0.00025100,-0.0005
 3518,-0.00172559,0.00242664,0.00123631,-0.00154095,-0.00092863,0.00296
 157,-0.02857840,-0.01547350,-0.03874435,0.05696972,0.42607624,-0.03149
 677,-0.02028858,-0.04099258,-0.01660679,0.01254164,-0.06373912,0.00801
 233,-0.00084388,-0.00033072,-0.00060288,-0.00083358,-0.00167320,0.0006
 8689,0.00002749,0.00036306,-0.03335573,0.01759576,-0.10410823,0.001520
 64,-0.00304233,0.01473163,0.00194134,-0.00019296,0.00221067,0.00034743
 ,-0.00014041,0.00098597,-0.00750755,-0.02606152,-0.01735241,-0.0262237
 1,0.05229507,0.60881212,0.00045182,-0.00487796,0.00034834,-0.00145051,
 0.00580722,-0.00137799,0.00345449,0.00083498,-0.00124270,0.00071651,0.
 00003316,0.00044207,0.00006956,-0.00004683,-0.00023371,-0.06373246,-0.
 05142888,0.02970074,-0.00748030,-0.02512024,0.01668052,-0.00569492,0.0
 0238263,0.00082851,0.00028395,0.00074332,0.00017631,-0.00236248,0.0008
 0257,-0.00316143,0.00835227,0.01794559,-0.00820259,0.06732303,-0.00323
 051,-0.02723406,0.00763440,-0.00007289,0.00011926,-0.00048436,-0.00066
 393,0.00024038,-0.00084253,-0.00010877,-0.00007412,0.00012426,-0.00025
 591,-0.00003228,0.00004283,-0.05119325,-0.23241158,0.11018525,0.001641
 56,0.00476108,-0.00033388,0.00144546,0.00084628,-0.00025129,0.00060922
 ,-0.00014696,-0.00002960,-0.00116627,-0.00175027,-0.00426215,-0.002062
 21,-0.00351929,0.00318845,0.05450789,0.25972095,-0.00529765,-0.0292828
 8,0.01203299,-0.00168963,0.00242498,-0.00086949,-0.00110711,-0.0011917
 8,0.00122038,-0.00044922,-0.00015448,-0.00013424,-0.00004525,-0.000012
 32,0.00027086,0.03168961,0.12304217,-0.11837247,0.00347399,0.01536919,
 -0.00808342,0.00308813,-0.00190957,0.00015780,0.00018577,-0.00074219,-
 0.00007716,-0.00218700,-0.00356274,-0.00537732,0.00729321,0.01257556,-
 0.00469209,-0.03447234,-0.11630741,0.12314073,-0.00589986,0.00407076,0
 .00548336,-0.00022436,-0.00038355,-0.00052399,-0.00694037,-0.01960454,
 -0.02591562,-0.00018226,0.00142425,-0.00037281,0.00007443,0.00003734,0
 .00001099,0.00454822,0.02093561,0.01616669,-0.04955482,-0.00096669,0.0
 0525754,0.00109704,-0.00819622,-0.00666454,-0.00005182,-0.00119688,0.0
 0104241,-0.00000898,-0.00195925,0.00168737,0.00124181,0.00025602,0.000
 34616,0.00082487,-0.00080385,-0.00014781,0.05754511,0.00090093,0.00113
 725,0.00010795,0.00046416,0.00065103,0.00049783,0.00012850,0.01023114,
 0.00722458,0.00039166,0.00391174,-0.00027424,-0.00016086,0.00036996,-0
 .00029203,-0.00145634,-0.00163628,-0.00071314,-0.00465223,-0.19379578,
 -0.12876310,0.00070110,-0.02309998,-0.01896822,-0.00177339,-0.00279272
 ,0.00467162,-0.00131479,0.00055912,-0.00009588,0.00013982,-0.00063633,
 -0.00065854,0.00042398,0.00033697,-0.00017009,0.00414398,0.20588630,0.
 00314086,-0.00195658,-0.00181536,0.00010583,0.00025941,0.00062208,-0.0
 0964580,-0.01716606,-0.02257364,0.00044216,0.00001649,0.00281095,0.000
 03775,-0.00070246,0.00027078,-0.00139432,-0.01238713,-0.00813223,0.001
 49530,-0.12158833,-0.15441525,-0.00044452,0.01242934,0.00840790,0.0001
 4436,0.00304028,-0.00201523,-0.00015143,0.00135605,-0.00114384,0.00022
 038,0.00016233,-0.00049423,-0.00008307,0.00032096,-0.00012798,0.008128
 48,0.13405958,0.17952622,0.00046709,0.00008209,0.00009539,0.00024410,-
 0.00002638,0.00006960,0.00270504,0.00145372,-0.00048942,-0.00547520,-0
 .00009191,-0.00532411,0.00135290,-0.00096332,-0.00105221,0.00096208,-0
 .00239329,-0.00054895,-0.01107961,-0.00010201,0.00275087,-0.29003467,-
 0.00165043,0.04382754,-0.00941766,0.00050250,0.00325516,0.00094031,0.0
 0169391,-0.00055912,0.00031005,0.00002811,-0.00019800,-0.00038292,0.00
 011937,0.00034584,0.00011808,-0.00019763,-0.00012892,0.30878010,0.0000
 4353,0.00166089,0.00004497,-0.00027960,0.00073850,0.00022599,0.0008217
 4,0.00212113,-0.00259493,0.00391197,0.00270217,-0.00024079,-0.00024109
 ,0.00100273,0.00164922,0.00024653,-0.00642572,0.00162293,-0.03047967,-
 0.00113894,0.00889211,-0.00204915,-0.05172980,0.00015790,0.02855453,-0
 .00033643,-0.00825401,-0.00085511,-0.00602356,-0.00224347,0.00039388,-
 0.00073818,0.00009475,-0.00151398,0.00035936,0.00096903,0.00033003,0.0
 0059207,-0.00068147,0.00130454,0.05508461,-0.00043386,0.00011911,0.000
 58313,-0.00037826,0.00013938,0.00046164,-0.00024604,-0.00077464,0.0007
 3744,-0.03644633,0.00124737,-0.00582126,0.00043657,-0.00022239,-0.0001
 7037,-0.00031785,0.00357585,-0.00085106,0.01466628,0.00142246,-0.00187
 553,0.04624254,-0.00211894,-0.05564523,0.01878193,-0.00064563,-0.00368
 443,-0.00082344,-0.00431736,-0.00182527,-0.00059616,-0.00020997,-0.000
 31284,0.00086366,-0.00021325,-0.00044385,-0.00012572,0.00018620,0.0002
 8188,-0.04214306,-0.00019090,0.06665840,-0.00587909,-0.00476586,0.0052
 7831,0.00086859,0.00146823,-0.00079835,0.00019343,0.00005877,-0.000090
 13,0.00011458,-0.00140804,-0.00063302,-0.00796385,0.01992344,-0.023714
 42,0.00005694,0.00166361,0.00150313,-0.00021342,0.00078325,0.00093933,
 0.00154967,0.00854828,-0.00400204,-0.05109701,0.00016173,0.00386834,0.
 00561769,-0.02317920,0.01314917,0.00039703,-0.00015935,-0.00023849,0.0
 0003383,-0.00018230,-0.00019063,0.00024553,0.00038116,-0.00015772,0.00
 014918,-0.00030505,-0.00029166,0.05582993,-0.00083918,0.00120936,0.000
 34269,-0.00062632,0.00050109,-0.00084056,0.00032747,0.00017250,0.00073
 255,-0.00004370,0.00233251,0.00057197,0.00074157,0.01150573,-0.0032904
 1,0.00083943,0.00057603,-0.00008118,0.00149906,-0.00171095,-0.00517644
 ,-0.00138074,-0.02433451,0.01496217,0.00149695,-0.22423913,0.11570592,
 0.00243053,-0.00290260,0.00170290,0.00008248,-0.00036957,0.00007027,-0
 .00007115,0.00006260,0.00005414,-0.00049501,-0.00120294,0.00068218,0.0
 0024684,0.00061215,0.00003528,-0.00396661,0.23661461,0.00264145,0.0017
 1514,-0.00169472,0.00102786,-0.00091044,0.00040478,0.00014621,0.000626
 88,0.00044896,0.00037440,0.00029676,0.00123706,-0.01106161,0.01402064,
 -0.01669930,0.00019015,-0.00096933,-0.00075313,0.00025869,-0.00284570,
 -0.00343576,-0.00064037,-0.01613364,0.00994791,0.00411216,0.11554836,-
 0.12722545,-0.00131546,0.01419686,-0.00621692,-0.00005054,0.00012353,0
 .00025825,-0.00000363,0.00010932,0.00012447,-0.00029589,-0.00098679,0.
 00071652,-0.00007611,0.00060287,0.00030869,0.00485228,-0.12560463,0.14
 292366,0.00254085,0.00137707,0.00053829,0.00183826,-0.02526126,-0.0187
 6811,0.00010925,0.00017933,-0.00032272,0.00057632,0.00014874,0.0003890
 0,0.00291186,-0.00057387,-0.00028691,-0.00055789,-0.00069983,-0.001932
 20,0.00013262,-0.00098721,0.00003356,-0.00549710,-0.00259396,0.0005626
 3,-0.00586527,0.02212759,0.01782292,-0.07176963,0.06071970,0.04609810,
 -0.00066968,-0.00044786,-0.00428582,0.00015139,-0.00000913,0.00013725,
 0.00011363,0.00010202,-0.00001707,-0.00023750,0.00142169,0.00109576,0.
 00057026,-0.00060742,-0.00017139,0.07726984,0.00478736,-0.03055810,-0.
 01084528,-0.00344908,-0.00169532,-0.00615749,0.00044820,0.00010268,-0.
 00004037,0.00032426,0.00003351,-0.00020015,0.00120663,0.00071066,0.001
 55119,0.00129741,-0.00190658,0.00402779,-0.00076964,-0.00041343,-0.000
 01004,-0.00200561,0.00061916,0.00041895,-0.00318125,0.00599265,0.00119
 948,0.05116283,-0.19629707,-0.10913453,0.00097810,0.00051816,-0.000244
 73,0.00005886,-0.00091688,-0.00092424,0.00026014,0.00009327,-0.0001398
 2,-0.00006145,0.00043942,0.00032454,0.00097273,0.00024664,-0.00047151,
 -0.05277435,0.22419629,-0.00412500,0.02247159,0.01478098,-0.00714426,-
 0.01975834,-0.01255173,0.00006574,-0.00008378,0.00030206,-0.00002396,-
 0.00005013,-0.00033100,0.00052553,0.00118700,0.00178321,-0.00088804,0.
 00322495,-0.00303605,0.00008771,0.00064953,0.00001244,0.00241996,0.001
 89372,0.00012308,0.00408720,-0.01455703,-0.00776683,0.04323652,-0.1172
 4783,-0.13617982,0.00051224,0.00238686,-0.00398211,0.00012753,0.000678
 12,0.00088065,-0.00016191,-0.00003544,0.00012010,0.00028532,-0.0007455
 8,-0.00049865,-0.00008653,0.00036363,0.00007662,-0.03984453,0.12125273
 ,0.14624743,0.00161891,-0.00048012,-0.00066112,0.00434532,-0.00708860,
 -0.00188736,-0.00213151,0.00021718,-0.00016697,0.00001356,-0.00014304,
 0.00031215,-0.00015934,-0.00014940,-0.00010434,-0.02076210,-0.00268649
 ,0.01087550,0.00070514,0.00093470,-0.00409940,0.00050764,0.00028637,-0
 .00019202,0.00022649,0.00021454,0.00001451,-0.00015949,0.00021363,0.00
 112788,-0.26371134,-0.05563519,0.08279095,0.00055603,0.00052598,-0.000
 21929,0.00005904,0.00005237,0.00016665,-0.00004747,-0.00001910,0.00000
 373,0.00001996,-0.00003172,-0.00001929,-0.00013045,-0.00005573,-0.0000
 8356,0.28037480,-0.00046665,0.00213820,-0.00054043,-0.03396748,-0.0280
 8671,0.00356421,0.00159921,-0.00006214,0.00018285,0.00048079,0.0006304
 3,-0.00022164,-0.00120273,0.00013970,-0.00014074,0.01392342,0.00259242
 ,-0.00656758,0.00056667,0.00000833,0.00253834,-0.00023398,-0.00056789,
 -0.00020318,-0.00004617,-0.00005721,-0.00139491,0.00111014,-0.00386777
 ,0.00707010,-0.05130542,-0.05537053,0.02085722,0.00001582,0.00029385,-
 0.00036474,-0.00014457,0.00005795,0.00003569,0.00003363,0.00012091,0.0
 0007449,0.00013155,0.00008987,-0.00002768,-0.00034098,-0.00010895,-0.0
 0010745,0.06367192,0.07789842,0.00136101,0.00049608,0.00027165,-0.0049
 7400,-0.00089410,0.00600290,-0.00164347,0.00035130,0.00010775,0.001759
 53,0.00102444,-0.00007245,0.00004941,0.00006192,0.00009280,-0.01973057
 ,-0.00435492,0.00869989,-0.00082679,0.00028995,-0.00290919,-0.00069059
 ,0.00007797,-0.00099894,0.00002284,-0.00017958,-0.00006826,-0.00078598
 ,-0.00086121,-0.00089044,0.08586889,0.02101426,-0.08883789,0.00064261,
 0.00001267,0.00101327,-0.00016327,0.00018390,0.00015080,0.00005575,-0.
 00005927,0.00012596,0.00000260,-0.00003734,0.00000292,-0.00007763,0.00
 001433,-0.00001614,-0.08825309,-0.02347200,0.08459772,-0.00396212,-0.0
 0260471,-0.00453244,0.00257625,0.00062594,-0.00440266,0.00058802,-0.00
 006901,0.00079889,-0.00135948,-0.00055977,0.00175937,-0.00012827,0.000
 05762,0.00039601,0.00569254,-0.00695583,-0.02019288,0.00049419,-0.0005
 2629,-0.00035892,-0.00121800,-0.00038019,-0.00150037,0.00015431,-0.000
 15883,-0.00028662,-0.00093225,0.00043012,-0.00217227,-0.05495269,0.009
 21662,0.03242273,-0.00082666,0.00075562,-0.00069433,-0.00023332,0.0004
 5659,0.00023521,0.00010654,-0.00002959,0.00017461,-0.00009971,-0.00000
 841,0.00006251,-0.00026979,-0.00020594,-0.00008963,-0.00139262,0.00614
 168,0.02741659,0.05596344,0.00302328,0.00111493,0.00262497,-0.00433757
 ,-0.02174346,-0.03219122,-0.00038506,-0.00013689,-0.00003262,0.0002192
 1,-0.00006891,0.00080144,-0.00032873,0.00009481,0.00008564,-0.00476901
 ,0.00611573,0.01028257,0.00021939,0.00082995,-0.00027491,-0.00032135,-
 0.00015810,-0.00116955,0.00034122,0.00008002,-0.00023237,0.00451551,-0
 .00507451,-0.00060353,0.00895214,-0.05729067,-0.05411112,-0.00004950,-
 0.00052485,0.00002591,0.00002962,-0.00017828,-0.00009595,0.00008795,0.
 00005941,0.00018930,0.00004022,-0.00000932,-0.00001005,-0.00145311,-0.
 00032951,-0.00128495,-0.00002875,0.00431288,0.00624682,-0.00585726,0.0
 7278258,-0.00215214,-0.00069299,-0.00137871,-0.00127865,-0.00311364,0.
 00366328,0.00025826,0.00044767,0.00030627,0.00293226,0.00216482,-0.001
 40506,-0.00025863,-0.00004364,0.00005964,0.00368673,-0.00407341,-0.012
 37751,0.00055782,-0.00082299,0.00007075,-0.00084871,-0.00028830,-0.000
 10309,0.00013425,-0.00006273,-0.00011313,0.00160949,0.00144932,-0.0003
 6600,0.02576874,-0.06363901,-0.30002846,-0.00100218,0.00024218,-0.0006
 9288,-0.00067008,0.00030883,0.00038057,0.00001640,0.00005958,0.0000626
 6,-0.00005122,0.00002422,0.00003104,-0.00018162,-0.00013211,-0.0000978
 4,0.00030986,-0.00138516,-0.00749700,-0.02935679,0.06958311,0.31943435
 ,0.00216730,-0.00121607,0.00212595,0.00023763,-0.00046929,0.00120534,-
 0.02982723,-0.00866442,-0.03358151,-0.00067541,-0.00016733,0.00012749,
 -0.00233455,-0.00099932,-0.00003816,-0.00163952,-0.00307481,-0.0032483
 1,-0.00737343,-0.02470484,-0.02399709,0.00191899,0.00064957,-0.0005830
 5,0.00076153,0.00174794,-0.00013369,-0.00048580,0.00356317,-0.00239183
 ,0.00001833,0.00027605,-0.00028692,-0.00025361,0.00001193,0.00015089,-
 0.00298442,0.00155695,-0.00244995,-0.00035469,-0.00010859,0.00072291,-
 0.00041312,-0.00009283,0.00002524,-0.00004496,-0.00027867,0.00007164,0
 .00005915,-0.00002347,0.00012852,0.00021302,-0.00003147,0.00026636,0.0
 4080318,-0.00098365,-0.00224175,-0.00010344,-0.00111226,-0.00139385,-0
 .00023441,-0.03811613,-0.33624221,-0.25119522,-0.00036004,-0.00171090,
 -0.00000190,-0.00165943,0.00076832,-0.00305214,0.00072358,0.00109714,0
 .00132091,0.00164225,0.01000838,0.00841413,0.00118744,0.00245766,0.002
 13880,0.00391317,-0.00004142,0.00438797,0.00201866,0.00062846,-0.00019
 964,0.00031387,0.00076339,-0.00074572,-0.00034934,-0.00021587,0.000025
 23,0.00234654,0.00086428,0.00255354,-0.00037023,0.00012842,0.00015029,
 -0.00056167,-0.00004534,-0.00057364,0.00007312,-0.00022884,-0.00001530
 ,0.00017015,-0.00025779,0.00012647,-0.00011846,0.00001993,-0.00010258,
 0.03156088,0.32615744,-0.00002447,0.00079267,-0.00099412,-0.00001352,0
 .00008048,-0.00048423,-0.05142082,-0.21609313,-0.20140809,0.00099326,-
 0.00034310,0.00163192,-0.00024308,-0.00150229,-0.00293127,0.00045263,0
 .00027522,0.00208630,-0.00789795,-0.02344969,-0.02398357,-0.00050402,0
 .00013646,-0.00126952,-0.00076065,0.00233107,-0.00047014,-0.00073579,-
 0.00117160,0.00092774,0.00025500,-0.00007301,-0.00042019,0.00007124,0.
 00014663,-0.00006116,-0.00336623,0.00217485,-0.00226116,0.00058911,0.0
 0068065,-0.00093692,0.00005525,-0.00027550,-0.00013162,0.00018732,0.00
 001088,-0.00014181,0.00015700,-0.00006802,0.00005409,-0.00012396,0.000
 00662,-0.00003632,0.06196699,0.23817827,0.22988131,-0.00003860,-0.0003
 4910,-0.00004789,-0.00101147,-0.00076208,0.00104164,-0.00068172,-0.000
 05126,-0.00047959,-0.12783144,0.16409093,0.16358081,-0.00012108,-0.001
 10401,-0.00118586,0.00005880,-0.00010407,0.00028478,-0.00018167,0.0000
 8968,0.00063720,0.00783172,-0.01432182,-0.02172310,-0.00187170,0.00103
 827,-0.00392846,-0.00027232,-0.00016125,-0.00085720,0.00027343,0.00145
 250,0.00064941,-0.00001936,-0.00000520,0.00002981,0.00029706,-0.000279
 23,0.00027893,0.00052396,-0.00110563,-0.00097530,-0.00015443,-0.000116
 27,0.00000315,0.00004304,-0.00001158,-0.00008005,-0.00002429,-0.000062
 70,-0.00015801,-0.00053737,-0.00001432,0.00018916,0.00008549,0.0000483
 1,-0.00005757,0.12388477,-0.00003697,-0.00042058,-0.00019765,-0.000118
 78,-0.00028720,-0.00024286,-0.00029763,-0.00111681,-0.00035902,0.14935
 856,-0.20090044,-0.22053733,0.00005385,-0.00013516,-0.00036893,-0.0002
 1783,-0.00015930,0.00005223,0.00095755,0.00300251,0.00240252,-0.000824
 98,0.00084135,0.00669507,-0.00103324,-0.00015932,-0.00033052,0.0003348
 6,0.00016932,0.00000351,0.00004907,0.00033403,0.00038153,-0.00007383,0
 .00000852,0.00007318,-0.00002911,-0.00136764,-0.00024320,0.00050288,0.
 00055717,0.00095528,-0.00006186,0.00036405,-0.00002083,-0.00006357,-0.
 00008464,0.00001161,-0.00000164,-0.00000415,-0.00004003,-0.00029485,0.
 00008168,-0.00001354,0.00000253,0.00021278,-0.00023910,-0.14815864,0.1
 9892892,-0.00018826,0.00048838,0.00038872,0.00015196,0.00031112,0.0002
 5832,0.00019720,-0.00017917,0.00154824,0.12347998,-0.19081914,-0.25516
 317,0.00057040,-0.00105694,-0.00093357,0.00043046,-0.00036201,-0.00023
 792,0.00008122,-0.00053820,-0.00130062,0.01663701,-0.02383759,-0.02787
 047,-0.00373967,0.00316588,-0.00302318,-0.00013356,-0.00020903,0.00007
 258,0.00001723,-0.00028369,-0.00021876,-0.00010818,0.00000373,0.000090
 20,0.00022498,0.00151980,-0.00028213,-0.00053881,-0.00033874,0.0027615
 8,-0.00015923,0.00007914,0.00018768,-0.00002057,0.00003527,0.00003322,
 -0.00011928,0.00005049,0.00015000,0.00047619,0.00011637,0.00007210,0.0
 0006671,-0.00026338,-0.00004888,-0.13687921,0.21218948,0.28368355,-0.0
 0012931,0.00128774,0.00103669,0.00063178,0.00159473,0.00106576,-0.0000
 5484,0.00015657,0.00001338,0.00073138,-0.00134730,-0.00106462,-0.06998
 878,0.11364278,0.09825350,0.00029803,-0.00061854,-0.00061380,0.0003501
 3,0.00003950,-0.00008147,-0.00493378,0.00139715,-0.00259910,0.00553850
 ,-0.02418016,-0.02533465,-0.00022034,-0.00437671,-0.00385207,0.0000264
 2,-0.00032113,0.00028736,-0.00001454,0.00013719,0.00010576,-0.00008459
 ,-0.00000874,0.00007689,0.00037031,-0.00004190,-0.00021031,0.00017400,
 0.00061504,-0.00005980,-0.00121506,0.00129677,0.00110807,0.00003256,0.
 00011931,-0.00000436,0.00012395,0.00014756,0.00007068,0.00012212,-0.00
 036677,0.00042027,-0.00025280,-0.00004636,-0.00044659,0.06849487,0.000
 49403,0.00017128,0.00114122,0.00114744,0.00055837,0.00043490,-0.000202
 00,-0.00066861,0.00069851,0.00012552,-0.00048149,0.00018848,0.08748967
 ,-0.24121496,-0.25383443,0.00023199,-0.00098190,-0.00053762,0.00036580
 ,0.00042656,0.00018978,-0.00065210,0.00156546,-0.00087941,0.00132130,-
 0.00164750,0.00053343,-0.00158709,0.00161745,-0.00027889,0.00008230,-0
 .00017726,0.00011119,-0.00002431,0.00007691,0.00006306,-0.00005462,0.0
 0001885,0.00004514,-0.00019890,0.00021371,0.00027352,0.00045699,0.0005
 2721,0.00131388,-0.00033671,-0.00041313,-0.00023390,0.00003295,0.00010
 020,-0.00000166,0.00008493,0.00002259,0.00009033,0.00046209,-0.0007282
 6,-0.00159837,-0.00011253,0.00013493,-0.00007177,-0.08912674,0.2408795
 9,0.00013912,-0.00002185,-0.00063113,0.00102258,0.00093645,-0.00036069
 ,0.00022885,0.00103055,-0.00004544,0.00024102,-0.00093586,-0.00083649,
 0.06410970,-0.23379137,-0.27272308,-0.00012391,0.00019702,0.00006750,-
 0.00029553,-0.00031399,-0.00022754,-0.00358802,0.00165903,-0.00204524,
 0.00777696,-0.01975303,-0.02047095,-0.00064482,0.00002237,0.00349122,0
 .00011695,-0.00041719,-0.00017888,0.00000628,0.00003568,0.00000071,0.0
 0005987,0.00002231,-0.00002675,-0.00023227,0.00034916,0.00008405,0.000
 76502,-0.00002098,-0.00051164,-0.00095628,-0.00053488,0.00024222,0.000
 04747,0.00012012,0.00002058,-0.00003122,0.00004350,0.00001538,-0.00014
 754,-0.00080824,0.00099764,-0.00032263,-0.00017140,-0.00016748,-0.0681
 7160,0.25235260,0.29330601\\0.00000639,0.00012086,0.00000732,-0.000038
 47,-0.00003913,-0.00005250,-0.00008255,-0.00000935,-0.00001222,0.00002
 594,-0.00000676,0.00004100,-0.00006464,-0.00000415,-0.00007191,0.00003
 323,-0.00011553,-0.00009130,0.00007086,-0.00003732,0.00007188,-0.00004
 835,-0.00000153,-0.00011508,0.00006423,0.00002301,0.00012854,0.0000401
 4,-0.00004050,0.00012207,-0.00000612,0.00007507,0.00000782,-0.00002655
 ,0.00000953,-0.00000413,-0.00000448,0.00000772,-0.00001414,0.00000090,
 0.00002317,0.00000035,0.00000358,0.00001043,-0.00000455,0.00000034,0.0
 0001520,-0.00001703,0.00000799,-0.00000857,0.00000414,0.00000203,-0.00
 001987,0.00000193,0.00001529,0.00000616,-0.00001030,0.00000408,-0.0000
 2273,-0.00001483,-0.00000385,0.00001428,0.00002294\\\@


 WHERE THERE IS MUCH DESIRE TO LEARN, THERE OF NECESSITY WILL BE
 MUCH ARGUING, MUCH WRITING, MANY OPINIONS; FOR OPINION IN GOOD MEN
 IS BUT KNOWLEDGE IN THE MAKING. -- JOHN MILTON.
 Job cpu time:       0 days  2 hours 15 minutes 50.7 seconds.
 Elapsed time:       0 days  0 hours  8 minutes 31.4 seconds.
 File lengths (MBytes):  RWF=    196 Int=      0 D2E=      0 Chk=      9 Scr=      1
 Normal termination of Gaussian 16 at Tue Oct  7 06:57:19 2025.
